Membrane in water
40347
    1TMC1    C1    1   2.558   0.493  11.286 -0.3718 -0.0125  0.3651
    1TMC1    C2    2   2.531   0.518  11.153 -0.2365 -0.1061  1.1401
    1TMC1    C3    3   2.538   0.646  11.108  0.0821  0.4065 -0.6148
    1TMC1    C4    4   2.584   0.594  11.369  0.2267 -0.3271 -0.9418
    1TMC1    C5    5   2.588   0.720  11.327  0.2752  1.0384 -0.1048
    1TMC1    C6    6   2.563   0.750  11.197  0.7112 -0.3515  0.4619
    1TMC1     C    7   2.534   0.359  11.345  0.4989  0.1108  0.3167
    1TMC1     O    8   2.521   0.352  11.463  0.0960 -0.1972 -0.0461
    1TMC1     H    9   2.506   0.434  11.089  1.1138 -0.6257  1.2959
    1TMC1    H1   10   2.587   0.578  11.477  0.4198 -1.1068 -1.0658
    1TMC1    H2   11   2.567   0.853  11.162 -1.4078 -0.3035  0.4126
    1TMC1    C7   12   2.618   0.828  11.426  0.1281 -0.5840 -0.1528
    1TMC1    C8   13   2.535   0.673  10.969 -0.0724  0.7905  0.4043
    1TMC1    O1   14   2.577   0.815  11.539 -0.3542 -0.6311 -0.0129
    1TMC1    O2   15   2.568   0.593  10.880  0.2284  0.0937  0.2645
    1TMC1    O3   16   2.744   0.878  11.402 -0.2671  0.2572 -0.5522
    1TMC1    H3   17   2.776   0.855  11.312  1.0471  0.0347 -0.0273
    1TMC1    O5   18   2.454   0.778  10.955 -0.0631 -0.6165  0.9170
    1TMC1    H5   19   2.427   0.822  11.038 -2.0511 -3.2640  1.6870
    2MPD2     C   20   2.561   4.575  11.299 -0.1035  0.0494 -0.7557
    2MPD2    C1   21   2.506   4.651  11.406  0.0758 -0.0938  0.4014
    2MPD2    C2   22   2.504   0.055  11.397 -0.1716 -0.3490 -0.1841
    2MPD2    C3   23   2.553   0.118  11.280 -0.1048  0.1064 -0.0023
    2MPD2    C4   24   2.609   0.035  11.179 -1.1051 -0.0656 -0.3383
    2MPD2    C5   25   2.612   4.637  11.185 -0.6149  0.7696 -0.0271
    2MPD2     H   26   2.443   0.115  11.463 -0.0717 -0.8025  0.3141
    2MPD2    H1   27   2.638   0.071  11.081  1.3201 -0.4135  0.2684
    2MPD2    H2   28   2.543   4.468  11.287 -0.1302 -0.2649  1.9981
    2MPD2    H3   29   2.647   4.594  11.092 -0.1816  0.5554  0.2355
    2MPD2     N   30   2.558   0.256  11.256 -0.2851 -0.3138 -0.7504
    2MPD2    H5   31   2.576   0.276  11.158  0.1831 -1.7496 -0.9496
    2MPD2    N1   32   2.449   4.588  11.516 -0.6647  0.1623 -0.1985
    2MPD2    H7   33   2.392   4.645  11.578  0.1440  0.2583  0.4558
    3TMC1    C1   34   1.614   0.152  11.026 -0.4706 -1.1167  0.1588
    3TMC1    C2   35   1.699   0.218  10.946  0.1788  0.6071 -0.6200
    3TMC1    C3   36   1.827   0.233  10.986  0.4861  0.1558 -0.6937
    3TMC1    C4   37   1.649   0.102  11.148 -0.1637 -0.8557 -0.0721
    3TMC1    C5   38   1.785   0.113  11.181  0.5414  0.4431  0.5472
    3TMC1    C6   39   1.873   0.179  11.100  0.2187 -0.4489 -0.1901
    3TMC1     C   40   1.470   0.159  11.014  1.0358 -0.3605 -0.3838
    3TMC1     O   41   1.399   0.097  11.094  0.2751 -0.5785 -0.4825
    3TMC1     H   42   1.672   0.252  10.847 -1.3806  1.5960  0.1477
    3TMC1    H1   43   1.570   0.068  11.215  1.3126  0.3826  2.3103
    3TMC1    H2   44   1.978   0.195  11.125 -0.3428  0.1821  1.8183
    3TMC1    C7   45   1.823   0.104  11.326 -0.3220  1.0001  0.7566
    3TMC1    C8   46   1.921   0.274  10.887  0.1322 -0.2962  0.0541
    3TMC1    O1   47   1.932   0.137  11.365 -0.9434  0.2584  0.0448
    3TMC1    O2   48   1.892   0.354  10.798  0.6113  0.2551  0.0559
    3TMC1    O3   49   1.718   0.046  11.392 -0.0270 -0.4750 -0.1362
    3TMC1    H3   50   1.730   0.033  11.489  1.6347  1.4423 -0.0997
    3TMC1    O5   51   2.037   0.209  10.899  0.0140  0.1409  0.4370
    3TMC1    H5   52   2.029   0.125  10.950 -1.0063 -0.0771 -0.1034
    4MPD2     C   53   1.049   0.440  10.927 -0.5022  0.0703  0.1846
    4MPD2    C1   54   1.163   0.510  10.897 -0.3208 -0.0383  0.3028
    4MPD2    C2   55   1.288   0.451  10.895 -0.1710  0.0029 -0.4009
    4MPD2    C3   56   1.303   0.320  10.926 -0.3932 -0.0637  0.0709
    4MPD2    C4   57   1.183   0.242  10.957 -0.3062  0.3493 -0.3821
    4MPD2    C5   58   1.058   0.308  10.955  0.4648  0.1446  0.7186
    4MPD2     H   59   1.372   0.517  10.879 -0.4443  0.4496  0.0142
    4MPD2    H1   60   1.191   0.138  10.989  0.7032  0.9604  1.3448
    4MPD2    H2   61   0.949   0.483  10.935  0.6150  2.0732  3.4395
    4MPD2    H3   62   0.972   0.244  10.969  1.4044 -1.5524 -1.1054
    4MPD2     N   63   1.435   0.269  10.934 -0.0254  0.2562 -0.3052
    4MPD2    H5   64   1.499   0.345  10.912 -0.8264  0.9699 -0.1758
    4MPD2    N1   65   1.157   0.644  10.865  0.6625  0.2982 -0.5596
    4MPD2    H7   66   1.244   0.686  10.831  1.6103 -1.8575 -0.8106
    5TCq1    O1   67   2.346   2.512  11.675 -0.5692 -0.3274 -0.4158
    5TCq1    C1   68   2.318   2.510  11.540  0.8270 -0.0510 -1.4394
    5TCq1    O2   69   2.376   2.443  11.454  0.3313  0.0744 -0.2875
    5TCq1    C2   70   2.198   2.588  11.505  0.3736  0.0566  1.0379
    5TCq1    C3   71   2.082   2.586  11.592  0.0079 -0.0212  0.2582
    5TCq1    C4   72   1.962   2.603  11.528 -0.1150 -0.4388  0.7051
    5TCq1    C5   73   1.952   2.634  11.395  0.2076 -0.2805  0.0679
    5TCq1    C6   74   2.065   2.632  11.316 -0.3537 -0.1835  0.9265
    5TCq1    C7   75   2.189   2.620  11.372  0.1121 -0.0575  0.0286
    5TCq1    C8   76   2.062   2.614  11.173 -0.3530 -0.6087 -0.3642
    5TCq1    O4   77   1.978   2.539  11.130 -0.3132 -0.5423 -0.1060
    5TCq1    C9   78   1.842   2.580  11.608 -0.4978 -0.0363 -1.2007
    5TCq1    O5   79   1.731   2.609  11.550 -0.3573 -0.0254  0.9827
    5TCq1    O6   80   1.861   2.527  11.724 -0.4787  0.1654 -0.1815
    5TCq1    H1   81   2.295   2.571  11.734  0.8636  2.0902 -1.5961
    5TCq1    H2   82   2.084   2.547  11.694 -1.9990 -1.5664 -0.2906
    5TCq1    H3   83   1.852   2.642  11.355  0.4375  3.2587  0.2228
    5TCq1    H4   84   2.278   2.605  11.312 -0.9434 -2.8921 -0.8144
    6MPD2     C   85   2.269   2.769  10.923 -0.2709  1.0235  0.1214
    6MPD2    C1   86   2.186   2.675  10.969 -0.1665 -0.2480  0.2737
    6MPD2    C2   87   2.132   2.580  10.882 -0.2439 -0.0087 -0.3701
    6MPD2    C3   88   2.162   2.588  10.743  0.3503  0.3007  0.1789
    6MPD2    C4   89   2.234   2.694  10.697 -0.0555  1.0940 -0.1728
    6MPD2    C5   90   2.285   2.785  10.786  0.1698 -0.6141 -0.6812
    6MPD2     H   91   2.081   2.494  10.924 -0.4262 -1.6850 -3.9924
    6MPD2    H1   92   2.277   2.703  10.598 -1.4025 -1.7893 -1.0276
    6MPD2    H2   93   2.306   2.848  10.988  1.1533  0.6195 -0.2011
    6MPD2    H3   94   2.342   2.873  10.757  1.4642 -0.6097  1.9330
    6MPD2     N   95   2.122   2.484  10.659 -0.2810  0.1060 -0.1444
    6MPD2    H5   96   2.076   2.405  10.704 -0.2253  1.5016  2.3844
    6MPD2    N1   97   2.162   2.673  11.107  0.1229 -0.0507 -0.2700
    6MPD2    H7   98   2.214   2.733  11.170 -0.7731 -0.2709  0.6857
    7TCq1    O1   99   0.207   2.368  13.400  0.2623  0.4770 -0.0783
    7TCq1    C1  100   0.095   2.345  13.329  0.5768 -0.1174  0.7787
    7TCq1    O2  101   0.106   2.309  13.213  0.6305 -0.6088 -0.2696
    7TCq1    C2  102   0.024   2.266  13.424  1.0217 -0.4080 -0.2018
    7TCq1    C3  103   4.713   2.324  13.540  0.7048 -0.4807  0.2354
    7TCq1    C4  104   4.694   2.249  13.648 -0.5729 -0.6085 -0.2663
    7TCq1    C5  105   4.710   2.109  13.639  0.0907  0.4995 -0.2153
    7TCq1    C6  106   0.015   2.059  13.519  0.7182  0.7726  0.3069
    7TCq1    C7  107   0.036   2.134  13.408 -0.4556  0.4715  0.2722
    7TCq1    C8  108   4.725   1.921  13.493  0.1667  0.2237  0.1310
    7TCq1    O4  109   0.015   1.838  13.583  0.0575 -0.2265 -0.1643
    7TCq1    C9  110   4.644   2.297  13.774  0.1303 -0.1798 -1.1302
    7TCq1    O5  111   4.596   2.414  13.766 -0.2137  0.1628 -0.8207
    7TCq1    O6  112   4.639   2.213  13.871  0.1359  0.2804 -0.2490
    7TCq1    H1  113   0.200   2.428  13.477 -0.4794  2.2106 -1.4966
    7TCq1    H2  114   4.699   2.431  13.544  1.7888 -0.3132 -0.3847
    7TCq1    H3  115   4.696   2.044  13.724 -2.9354  0.2846 -0.8746
    7TCq1    H4  116   0.094   2.099  13.323  0.9402 -0.2500  1.5264
    8MPD2     C  117   4.605   1.553  13.160 -0.8777  0.6895 -0.2718
    8MPD2    C1  118   4.642   1.532  13.293  0.0901 -0.1589 -0.1477
    8MPD2    C2  119   4.674   1.646  13.367  0.5820 -0.1206  0.1711
    8MPD2    C3  120   4.659   1.773  13.305 -0.4828  0.1065  0.3610
    8MPD2    C4  121   4.620   1.787  13.179  0.5184  0.0907  0.0096
    8MPD2    C5  122   4.581   1.676  13.105 -1.1320  0.3352  0.7471
    8MPD2     H  123   4.720   1.634  13.465 -0.8109 -1.6020  0.6560
    8MPD2    H1  124   4.610   1.883  13.130 -1.4181 -0.5511 -0.8346
    8MPD2    H2  125   4.573   1.470  13.099  2.0787 -1.3476  0.9767
    8MPD2    H3  126   4.540   1.691  13.005  1.7089 -0.4096 -0.5154
    8MPD2     N  127   4.686   1.895  13.365 -1.0251  0.5711  0.2227
    8MPD2    H5  128   4.682   1.981  13.310 -2.4034 -0.0859 -0.7087
    8MPD2    N1  129   4.643   1.399  13.334  0.5012  1.0474 -0.4028
    8MPD2    H7  130   4.613   1.325  13.273 -0.6924  1.2423 -0.0452
    9TMC1    C1  131   2.066   0.935  11.472  0.3111 -0.5000 -0.9176
    9TMC1    C2  132   2.144   0.965  11.361  0.2633 -0.0373 -0.6845
    9TMC1    C3  133   2.085   0.964  11.240 -0.6359  0.6346  1.0151
    9TMC1    C4  134   1.930   0.907  11.456  0.5350  0.3056 -0.1388
    9TMC1    C5  135   1.883   0.893  11.327 -0.3507  0.6656 -0.4811
    9TMC1    C6  136   1.961   0.918  11.217 -0.0528 -0.3887 -0.4397
    9TMC1     C  137   2.117   0.965  11.605  0.0661 -0.7102  0.5421
    9TMC1     O  138   2.217   1.036  11.616  0.3353  0.0709  0.2070
    9TMC1     H  139   2.249   0.984  11.374 -0.2034  1.2436  1.2518
    9TMC1    H1  140   1.871   0.894  11.547 -0.4908 -0.3947 -0.9034
    9TMC1    H2  141   1.918   0.880  11.125  0.1953  0.3964 -0.8798
    9TMC1    C7  142   1.756   0.835  11.295 -0.5788  0.3779  0.3011
    9TMC1    C8  143   2.181   0.943  11.133  0.3296  0.1570 -0.4757
    9TMC1    O1  144   1.706   0.825  11.184  0.6718 -0.0769  0.1038
    9TMC1    O2  145   2.284   0.880  11.158  0.1029  0.5150  0.5177
    9TMC1    O3  146   1.673   0.840  11.407  0.2092  0.0875  0.4712
    9TMC1    H3  147   1.699   0.898  11.482 -1.5216  0.6396  0.6465
    9TMC1    O5  148   2.137   0.996  11.012  0.3876  0.0415  0.7630
    9TMC1    H5  149   2.050   1.041  11.011  1.5027  2.2224  1.6593
   10MPD2     C  150   2.121   1.067  11.894 -0.3460  0.1357 -0.1897
   10MPD2    C1  151   2.064   0.952  11.841 -0.7998 -0.6168 -0.3028
   10MPD2    C2  152   2.008   0.858  11.932 -0.3954  0.3573  0.0932
   10MPD2    C3  153   2.015   0.881  12.069 -0.3687  0.6982 -0.6424
   10MPD2    C4  154   2.060   1.001  12.112  0.4193 -0.1679  0.2419
   10MPD2    C5  155   2.107   1.096  12.027  0.4108  0.3853 -0.7033
   10MPD2     H  156   1.965   0.763  11.903  2.9233 -0.8474 -0.7890
   10MPD2    H1  157   2.077   1.032  12.214 -1.7984 -1.4280  0.9913
   10MPD2    H2  158   2.177   1.140  11.836  0.3194 -0.6861 -0.5859
   10MPD2    H3  159   2.151   1.185  12.070  1.5238 -0.0877 -0.8623
   10MPD2     N  160   1.993   0.774  12.157  0.8900 -0.0628  0.6060
   10MPD2    H5  161   2.008   0.795  12.255  2.1893  3.4898 -0.3466
   10MPD2    N1  162   2.048   0.918  11.707  0.5485 -0.1845  0.3507
   10MPD2    H7  163   1.991   0.839  11.680 -0.3273 -0.1430  2.0841
   11TCq1    O1  164   2.529   0.863  14.165 -0.8539  0.3250 -0.2879
   11TCq1    C1  165   2.441   0.762  14.175 -0.2238  0.3353 -0.4457
   11TCq1    O2  166   2.336   0.762  14.235 -0.0897  0.3435 -0.2861
   11TCq1    C2  167   2.492   0.643  14.110  0.1253  0.1957 -0.0633
   11TCq1    C3  168   2.621   0.611  14.099  0.0175  0.1123 -0.4244
   11TCq1    C4  169   2.655   0.488  14.043  0.7337  0.1349 -0.7472
   11TCq1    C5  170   2.555   0.391  14.019  0.5923  0.5441 -0.1475
   11TCq1    C6  171   2.426   0.434  14.031 -0.1186 -0.1101  0.1899
   11TCq1    C7  172   2.390   0.557  14.072  0.0585  0.0031  0.7090
   11TCq1    C8  173   2.322   0.351  13.964 -1.0475 -0.0096 -0.1734
   11TCq1    O4  174   2.207   0.384  13.993  0.0316  0.2450 -0.7173
   11TCq1    C9  175   2.794   0.456  14.032 -0.2516  0.0387  0.0513
   11TCq1    O5  176   2.877   0.544  14.063  0.1867 -0.1195 -0.2878
   11TCq1    O6  177   2.818   0.352  13.972  0.0409 -0.0428 -0.0740
   11TCq1    H1  178   2.603   0.855  14.100 -2.1830 -2.6683 -1.4544
   11TCq1    H2  179   2.702   0.672  14.136  1.0191  0.2729 -2.8944
   11TCq1    H3  180   2.578   0.288  13.994  1.6813  0.1673  2.3605
   11TCq1    H4  181   2.294   0.604  14.057  1.2679  1.8833 -1.1680
   12MPD2     C  182   2.156   0.196  13.757 -1.6166  1.0135 -0.7904
   12MPD2    C1  183   2.294   0.205  13.759 -0.2609  0.5171  0.1718
   12MPD2    C2  184   2.365   0.124  13.673 -0.0268  0.3472  0.1624
   12MPD2    C3  185   2.291   0.041  13.584 -0.1209  0.2398  0.1273
   12MPD2    C4  186   2.156   0.036  13.585  0.5040 -0.7488  0.4940
   12MPD2    C5  187   2.093   0.103  13.687 -0.0458 -0.3157 -0.0816
   12MPD2     H  188   2.473   0.116  13.680 -0.3302 -0.1205  4.1456
   12MPD2    H1  189   2.093   4.702  13.531  0.4874  1.5907 -2.5215
   12MPD2    H2  190   2.090   0.259  13.816 -0.5020  0.8717  0.6092
   12MPD2    H3  191   1.986   0.093  13.701 -0.2923  0.7754 -1.1782
   12MPD2     N  192   2.355   4.700  13.483 -0.3013 -0.2373 -0.0375
   12MPD2    H5  193   2.298   4.634  13.430  0.6962 -2.3277  1.5051
   12MPD2    N1  194   2.369   0.273  13.860 -0.1664 -0.3263  0.4664
   12MPD2    H7  195   2.470   0.270  13.850 -0.1879 -0.3443  0.2585
   13TCq1    O1  196   2.510   0.760  11.963  0.3432  0.1060  0.2964
   13TCq1    C1  197   2.389   0.722  12.018 -0.3454  0.3659 -0.3183
   13TCq1    O2  198   2.356   0.733  12.137 -0.3868  0.3011 -0.0178
   13TCq1    C2  199   2.323   0.613  11.944  0.0509 -0.5465 -0.2288
   13TCq1    C3  200   2.243   0.522  12.008  0.2539  0.4321  0.4304
   13TCq1    C4  201   2.173   0.428  11.938 -0.5839 -0.8232  0.0116
   13TCq1    C5  202   2.163   0.430  11.804  0.3565 -0.8478  0.3983
   13TCq1    C6  203   2.238   0.524  11.739  0.3457  0.6847 -0.1574
   13TCq1    C7  204   2.318   0.616  11.809 -0.8195 -0.4455  0.2307
   13TCq1    C8  205   2.208   0.545  11.596  0.1085  0.1859  0.0678
   13TCq1    O4  206   2.285   0.617  11.540  0.1014  0.2165 -0.1804
   13TCq1    C9  207   2.098   0.335  12.006  0.7870 -0.4770  0.0144
   13TCq1    O5  208   2.148   0.288  12.106  0.8741 -0.0115 -0.0620
   13TCq1    O6  209   1.995   0.285  11.948  0.0081  0.0741 -0.2199
   13TCq1    H1  210   2.527   0.709  11.881  0.3794  1.0076 -0.2598
   13TCq1    H2  211   2.256   0.514  12.116  1.1806 -0.7513  0.2388
   13TCq1    H3  212   2.114   0.349  11.751 -2.3788 -0.5596  2.4791
   13TCq1    H4  213   2.380   0.686  11.754  1.4571 -2.3298  0.3836
   14MPD2     C  214   2.105   0.546  11.319 -0.1719 -0.6426 -0.1542
   14MPD2    C1  215   2.035   0.499  11.425  0.2467 -0.2434  0.2737
   14MPD2    C2  216   1.901   0.470  11.401  0.8047  0.4785  0.0045
   14MPD2    C3  217   1.842   0.496  11.276  0.6978  0.3915  0.4555
   14MPD2    C4  218   1.910   0.559  11.181  0.2727  0.6875  0.1141
   14MPD2    C5  219   2.040   0.571  11.197 -0.4113 -0.1242 -0.1125
   14MPD2     H  220   1.842   0.425  11.480  0.2326  1.1016 -0.0673
   14MPD2    H1  221   1.855   0.596  11.094  1.6439  0.0005 -1.0396
   14MPD2    H2  222   2.209   0.576  11.321 -0.1990 -0.5641  0.0672
   14MPD2    H3  223   2.097   0.614  11.116  2.0187 -1.9981  0.5984
   14MPD2     N  224   1.698   0.475  11.274 -0.5404  0.4628 -0.2101
   14MPD2    H5  225   1.650   0.458  11.362  0.2883 -1.8903 -0.2227
   14MPD2    N1  226   2.089   0.490  11.553  0.6675 -0.1685  0.2661
   14MPD2    H7  227   2.038   0.439  11.625  2.1789 -0.2577  1.2914
   15TCq1    O1  228   3.463   3.080   2.562 -0.5813 -0.3018  0.2979
   15TCq1    C1  229   3.518   2.972   2.634  1.0556  0.2377  0.6600
   15TCq1    O2  230   3.449   2.882   2.677 -0.0005 -0.3583  0.3578
   15TCq1    C2  231   3.651   2.946   2.581  0.1764  0.0452  0.6517
   15TCq1    C3  232   3.694   2.814   2.584 -0.1948 -0.0074 -0.3547
   15TCq1    C4  233   3.809   2.782   2.526  0.2094 -0.0898 -0.0253
   15TCq1    C5  234   3.881   2.871   2.447  0.4771  0.7145  0.0404
   15TCq1    C6  235   3.847   3.005   2.452 -0.0107  0.1931  0.2227
   15TCq1    C7  236   3.734   3.045   2.522  0.2226  0.5474 -0.4462
   15TCq1    C8  237   3.918   3.106   2.376 -0.7177 -0.2497 -0.9390
   15TCq1    O4  238   4.036   3.071   2.358 -0.0063  0.6724 -0.3147
   15TCq1    C9  239   3.844   2.640   2.525  0.5129  0.1235 -0.6435
   15TCq1    O5  240   3.948   2.600   2.473 -0.2982  0.3889  0.0765
   15TCq1    O6  241   3.760   2.565   2.585  0.0463 -0.4453  0.0786
   15TCq1    H1  242   3.522   3.129   2.500 -1.5013 -0.4782 -0.7224
   15TCq1    H2  243   3.630   2.741   2.632 -1.9373  2.6222  1.3453
   15TCq1    H3  244   3.969   2.836   2.396  0.0588  0.4435 -0.4935
   15TCq1    H4  245   3.710   3.149   2.542  1.4375  0.8245 -0.3939
   16MPD2     C  246   3.839   3.466   2.288 -0.0566 -0.3338  0.4242
   16MPD2    C1  247   3.908   3.341   2.287 -0.0355  0.4930  0.4958
   16MPD2    C2  248   4.030   3.339   2.218 -0.1773  0.6357 -0.8943
   16MPD2    C3  249   4.084   3.454   2.163 -0.4630 -0.0459  0.2254
   16MPD2    C4  250   4.013   3.572   2.166 -0.1917 -0.8112 -0.4504
   16MPD2    C5  251   3.892   3.576   2.231  0.1447  0.8638 -0.7047
   16MPD2     H  252   4.092   3.250   2.219 -2.5936 -1.0490  0.3175
   16MPD2    H1  253   4.051   3.668   2.132  0.7080 -2.0051 -2.7735
   16MPD2    H2  254   3.742   3.474   2.336 -0.2218  0.8000 -0.1029
   16MPD2    H3  255   3.846   3.674   2.234 -1.2353  0.2717 -1.8475
   16MPD2     N  256   4.212   3.446   2.102  0.2877  0.3662 -0.5765
   16MPD2    H5  257   4.255   3.354   2.103 -0.7913 -0.1292 -0.1002
   16MPD2    N1  258   3.856   3.228   2.359  0.1166  0.0925 -0.3306
   16MPD2    H7  259   3.759   3.231   2.388  0.2766 -0.7650  0.2922
   17TMC1    C1  260   2.017   4.028  11.916 -0.0217  0.2506 -0.0716
   17TMC1    C2  261   2.009   4.040  12.048 -0.0545  0.1069  0.1266
   17TMC1    C3  262   1.983   3.929  12.129 -0.4779 -0.0125  0.0055
   17TMC1    C4  263   2.011   3.903  11.860 -0.4230  0.4772  0.5282
   17TMC1    C5  264   1.999   3.794  11.935 -0.0028  0.6936 -0.1205
   17TMC1    C6  265   1.971   3.806  12.069 -0.3995  0.8783  0.0810
   17TMC1     C  266   2.019   4.150  11.827  0.6173  0.1870  0.0379
   17TMC1     O  267   1.958   4.249  11.873 -0.1308 -0.7364 -0.1260
   17TMC1     H  268   2.013   4.136  12.098 -0.0310  0.5058 -0.6447
   17TMC1    H1  269   1.987   3.891  11.755 -0.0020 -0.7547  0.5654
   17TMC1    H2  270   1.963   3.717  12.131  0.1810  0.0348 -1.0834
   17TMC1    C7  271   2.015   3.663  11.880  0.6055 -0.2718 -0.6337
   17TMC1    C8  272   1.889   3.966  12.230  0.3893  0.1613 -0.0068
   17TMC1    O1  273   2.058   3.657  11.765  0.1985 -0.3122 -0.6242
   17TMC1    O2  274   1.882   4.079  12.280 -0.2154  0.3461 -0.5021
   17TMC1    O3  275   1.945   3.568  11.938  0.2964  0.4233  0.0511
   17TMC1    H3  276   1.903   3.588  12.024 -0.1260 -0.4607  0.0526
   17TMC1    O5  277   1.796   3.867  12.237 -0.3025 -0.5615  0.1835
   17TMC1    H5  278   1.809   3.791  12.177 -0.2153 -0.0877 -0.4002
   18MPD2     C  279   2.050   4.353  11.623 -0.3551  0.0494  0.1930
   18MPD2    C1  280   2.084   4.220  11.604  0.1568 -0.3423 -0.4022
   18MPD2    C2  281   2.158   4.195  11.492  0.2764 -0.5956 -0.4523
   18MPD2    C3  282   2.182   4.292  11.396  0.0198 -0.0153 -0.3588
   18MPD2    C4  283   2.130   4.418  11.410  0.4601 -0.1347 -0.3283
   18MPD2    C5  284   2.070   4.452  11.527 -0.5111  0.3150 -0.1571
   18MPD2     H  285   2.190   4.092  11.478  0.8099 -0.2045 -2.0462
   18MPD2    H1  286   2.141   4.502  11.342  2.6763 -1.9459 -2.1941
   18MPD2    H2  287   1.993   4.384  11.710 -0.7629  0.2578 -0.1493
   18MPD2    H3  288   2.042   4.556  11.543 -0.1926  0.1530  1.4984
   18MPD2     N  289   2.250   4.271  11.276 -0.6471  0.5488 -0.5107
   18MPD2    H5  290   2.237   4.344  11.207  1.9986  0.2048 -1.3776
   18MPD2    N1  291   2.065   4.123  11.699 -0.3605 -0.9683  0.1981
   18MPD2    H7  292   2.112   4.035  11.679  0.1722 -0.6473  0.0269
   19TMC2    C1  293   3.440   0.382  14.055 -0.0748  0.2762 -0.1930
   19TMC2    C2  294   3.375   0.493  13.995  0.1500 -0.3850  0.0796
   19TMC2    C3  295   3.248   0.496  13.987  0.3381 -0.1239 -0.1248
   19TMC2    C4  296   3.357   0.278  14.095  0.3351  0.0839 -0.0503
   19TMC2    C5  297   3.228   0.282  14.071  0.1889  0.4148 -0.3957
   19TMC2    C6  298   3.163   0.395  14.025 -0.4558  0.1979  0.6815
   19TMC2     C  299   3.586   0.364  14.048 -0.0504 -0.0109 -0.0086
   19TMC2     O  300   3.652   0.446  13.985 -0.7171 -0.2776  0.1588
   19TMC2     H  301   3.442   0.558  13.941 -0.4936  0.1465 -0.0773
   19TMC2    H1  302   3.398   0.179  14.107  0.0081 -0.2747 -2.0589
   19TMC2    H2  303   3.056   0.396  14.006 -0.1590 -0.1838 -1.0021
   19TMC2    C7  304   3.157   0.152  14.078 -0.1532 -0.2959 -0.1908
   19TMC2    C8  305   3.193   0.605  13.904  0.5627 -0.4756 -0.8032
   19TMC2    O1  306   3.221   0.057  14.114  0.2348 -0.1231  0.3462
   19TMC2    O2  307   3.278   0.662  13.830  0.7352  0.6647 -0.5341
   19TMC2    O5  308   3.057   0.606  13.898 -0.3457  0.0454  0.6142
   19TMC2    H5  309   3.005   0.581  13.977  0.1915 -1.3261  0.5425
   20MPD2     C  310   3.858   0.264  14.002 -0.1157 -0.2332 -0.0805
   20MPD2    C1  311   3.764   0.198  14.087  0.7683 -0.1532  0.3607
   20MPD2    C2  312   3.812   0.085  14.153  0.2232 -0.2020 -0.6044
   20MPD2    C3  313   3.942   0.043  14.129 -1.0018  0.7232 -0.6862
   20MPD2    C4  314   4.027   0.107  14.038 -0.1917  0.3068 -0.3178
   20MPD2    C5  315   3.982   0.219  13.976 -0.0253 -0.0920 -0.3964
   20MPD2     H  316   3.750   0.025  14.219 -0.9928  2.3135  0.5214
   20MPD2    H1  317   4.124   0.067  14.013  0.5936  1.4549  0.9245
   20MPD2    H2  318   3.834   0.359  13.954 -2.7366 -0.5693  0.5352
   20MPD2    H3  319   4.049   0.286  13.924  0.6123 -0.5791 -0.1991
   20MPD2     N  320   3.999   4.683  14.210  0.0350  0.1652  0.3200
   20MPD2    H5  321   4.100   4.681  14.195  0.2539  0.8692  1.6728
   20MPD2    N1  322   3.632   0.247  14.101 -0.3608  0.4562 -0.5059
   20MPD2    H7  323   3.565   0.188  14.150  0.5776  1.0955  1.5754
   21TMC2    C1  324   1.070   0.393  14.860 -0.0984 -0.8997  0.6968
   21TMC2    C2  325   1.045   0.264  14.903 -0.4679  0.1638 -0.1239
   21TMC2    C3  326   0.972   0.252  15.020 -0.1866 -0.3729  0.6378
   21TMC2    C4  327   1.019   0.503  14.927  0.5600  0.1382  0.1198
   21TMC2    C5  328   0.951   0.481  15.038 -0.2552 -0.7198  0.4293
   21TMC2    C6  329   0.931   0.356  15.093 -0.2636  0.1355 -0.3020
   21TMC2     C  330   1.190   0.407  14.774  0.0971  0.3980 -0.1025
   21TMC2     O  331   1.267   0.310  14.776  0.2097  0.3526  0.2964
   21TMC2     H  332   1.093   0.179  14.856 -0.8789  1.2096 -2.3992
   21TMC2    H1  333   1.047   0.602  14.891 -0.7890  0.8604  1.0544
   21TMC2    H2  334   0.863   0.337  15.176  0.9960 -0.5219  0.5853
   21TMC2    C7  335   0.915   0.592  15.118  0.3640 -1.0325 -0.4712
   21TMC2    C8  336   0.950   0.116  15.072  0.5766  0.2201 -0.2064
   21TMC2    O1  337   0.931   0.589  15.238 -0.7044 -0.3516  0.1677
   21TMC2    O2  338   0.935   0.074  15.186 -0.4787 -0.7645 -0.3390
   21TMC2    O5  339   0.924   0.039  14.967  0.0569 -0.2869  0.3584
   21TMC2    H5  340   0.911   0.110  14.900 -1.1256 -0.1300  0.7738
   22MPD2     C  341   1.511   0.720  14.504  0.2783  0.8607 -0.1579
   22MPD2    C1  342   1.514   0.579  14.525 -0.1146  0.5042 -0.4937
   22MPD2    C2  343   1.409   0.518  14.597 -0.9104 -0.2412  0.1387
   22MPD2    C3  344   1.304   0.589  14.645  0.2723  0.1585 -0.2165
   22MPD2    C4  345   1.309   0.727  14.625 -0.5680  0.6557  0.2603
   22MPD2    C5  346   1.405   0.785  14.556 -0.0704 -0.2478  0.0164
   22MPD2     H  347   1.419   0.412  14.617  4.1181 -0.1893 -2.0059
   22MPD2    H1  348   1.236   0.794  14.669 -0.4871  2.8857 -3.0272
   22MPD2    H2  349   1.592   0.767  14.450  0.0443  1.1570 -0.2516
   22MPD2    H3  350   1.411   0.890  14.529 -2.8165  0.0358  0.5421
   22MPD2     N  351   1.198   0.534  14.722  0.1940  0.2683  0.0567
   22MPD2    H5  352   1.121   0.600  14.734 -0.4183 -0.4072 -0.2115
   22MPD2    N1  353   1.624   0.501  14.488  0.0333 -0.7068  0.5292
   22MPD2    H7  354   1.621   0.402  14.511 -2.5994 -0.4356  1.4346
   23TMC2    C1  355   2.766   1.656  14.861  0.5798 -0.3077 -0.5920
   23TMC2    C2  356   2.762   1.783  14.810  0.0870  0.0742 -0.6044
   23TMC2    C3  357   2.657   1.813  14.728 -0.3285  0.1986 -0.1956
   23TMC2    C4  358   2.677   1.550  14.830  0.3998 -0.0817  0.3315
   23TMC2    C5  359   2.578   1.587  14.737 -0.3538 -0.6621  0.0206
   23TMC2    C6  360   2.562   1.718  14.700 -0.0974  0.1071  0.2634
   23TMC2     C  361   2.896   1.613  14.921 -0.0237 -0.6260 -0.4117
   23TMC2     O  362   2.903   1.521  14.995 -0.5097 -0.2408  0.0763
   23TMC2     H  363   2.832   1.863  14.833  1.4028 -1.4561  0.7245
   23TMC2    H1  364   2.697   1.449  14.863  0.2587 -0.5131 -0.9149
   23TMC2    H2  365   2.470   1.742  14.647  1.1529  2.2113 -1.0035
   23TMC2    C7  366   2.467   1.493  14.719 -0.0825  0.0628  0.4590
   23TMC2    C8  367   2.651   1.943  14.670 -0.3720  0.0968 -0.3020
   23TMC2    O1  368   2.446   1.412  14.808 -0.0635 -0.3322  0.5609
   23TMC2    O2  369   2.724   2.029  14.719 -0.5177 -0.3479  0.1571
   23TMC2    O5  370   2.611   1.929  14.540 -0.8695  0.2258 -0.7401
   23TMC2    H5  371   2.568   1.842  14.522 -0.5419 -0.4467  1.7424
   24MPD2     C  372   3.410   1.685  14.938  0.0168 -1.1199  0.5463
   24MPD2    C1  373   3.335   1.591  15.009  0.4807  0.6376  0.3957
   24MPD2    C2  374   3.198   1.583  14.980 -0.4313  0.0034  0.9070
   24MPD2    C3  375   3.139   1.664  14.886 -0.6582  0.1321  0.0194
   24MPD2    C4  376   3.226   1.745  14.807  0.3851 -0.2203  0.1781
   24MPD2    C5  377   3.358   1.761  14.838 -0.5652 -0.1455 -0.3428
   24MPD2     H  378   3.127   1.521  15.034 -1.7519  1.0795  0.4207
   24MPD2    H1  379   3.191   1.798  14.720  1.5252  1.0981  0.5263
   24MPD2    H2  380   3.516   1.689  14.955 -0.1960  1.6903  1.1995
   24MPD2    H3  381   3.435   1.817  14.786 -0.1747  1.4802  1.9786
   24MPD2     N  382   3.001   1.679  14.860  0.1067  0.4252 -0.0404
   24MPD2    H5  383   2.987   1.749  14.788 -2.6386  0.0204  0.1340
   24MPD2    N1  384   3.385   1.502  15.111  0.2403 -0.3900  0.1713
   24MPD2    H7  385   3.319   1.441  15.158  0.0099 -1.1968 -1.1991
   25TMC2    C1  386   1.509   4.038  11.977  0.1571 -0.3844  0.9265
   25TMC2    C2  387   1.472   4.153  11.923  0.3194  0.2008  0.7953
   25TMC2    C3  388   1.381   4.222  11.999 -0.3175 -0.1124 -0.0711
   25TMC2    C4  389   1.490   4.008  12.105  0.0426  0.0181  0.5811
   25TMC2    C5  390   1.420   4.091  12.183  0.6889  0.5716  0.5509
   25TMC2    C6  391   1.342   4.189  12.128  0.8411 -0.8518  0.0479
   25TMC2     C  392   1.589   3.947  11.903  0.2359  0.3178 -0.0040
   25TMC2     O  393   1.659   3.870  11.961  0.2830  0.7065  0.3984
   25TMC2     H  394   1.499   4.180  11.822  0.8714 -1.3197  0.5398
   25TMC2    H1  395   1.549   3.931  12.154  1.2683  0.2449 -0.5434
   25TMC2    H2  396   1.272   4.255  12.178  1.2231  0.4812 -1.1658
   25TMC2    C7  397   1.422   4.063  12.325 -0.2015 -0.0285 -0.1035
   25TMC2    C8  398   1.372   4.366  11.970  0.4744 -0.1526  0.4233
   25TMC2    O1  399   1.461   3.952  12.354  0.4803  0.6148 -0.3721
   25TMC2    O2  400   1.290   4.442  12.022 -0.3286 -0.7497 -0.0983
   25TMC2    O5  401   1.486   4.412  11.915 -0.1146 -0.2201 -0.3935
   25TMC2    H5  402   1.548   4.342  11.889  2.2428  1.8545 -0.3504
   26MPD2     C  403   1.673   3.642  11.515 -0.3626 -0.1265  0.1325
   26MPD2    C1  404   1.544   3.684  11.516  0.7306  0.7979  0.2640
   26MPD2    C2  405   1.503   3.784  11.594 -0.1478  0.2126  0.1927
   26MPD2    C3  406   1.586   3.832  11.687  0.5684  0.2314 -0.4984
   26MPD2    C4  407   1.718   3.792  11.681  0.9070  0.2812 -0.0641
   26MPD2    C5  408   1.763   3.708  11.592  0.3368  0.8585  0.4920
   26MPD2     H  409   1.401   3.819  11.593  0.0073  0.6572  0.1016
   26MPD2    H1  410   1.787   3.834  11.754  1.1409  1.2467 -0.8303
   26MPD2    H2  411   1.706   3.559  11.454  2.8737  2.3138 -1.4285
   26MPD2    H3  412   1.868   3.685  11.576 -0.7159 -2.2750 -1.6734
   26MPD2     N  413   1.548   3.939  11.776  1.0153  0.2337 -0.3519
   26MPD2    H5  414   1.471   4.001  11.753  2.0950  1.9785  0.7110
   26MPD2    N1  415   1.467   3.640  11.405  0.1660  0.2951  0.9094
   26MPD2    H7  416   1.505   3.558  11.359  1.5334  1.3221  0.2011
   27TMC2    C1  417   0.663   1.318  12.026 -0.3783 -0.2235 -0.8730
   27TMC2    C2  418   0.703   1.432  11.966  0.2986  0.4505 -0.3355
   27TMC2    C3  419   0.775   1.522  12.032  0.6718  0.5573  0.9537
   27TMC2    C4  420   0.708   1.289  12.155  0.5206 -0.1836 -0.1177
   27TMC2    C5  421   0.811   1.371  12.200 -0.7082 -0.1113 -0.5953
   27TMC2    C6  422   0.845   1.488  12.143 -0.1412 -0.7030 -0.7674
   27TMC2     C  423   0.541   1.256  11.977 -0.3408  0.0694  0.0982
   27TMC2     O  424   0.514   1.290  11.865 -0.0538  0.4663  0.5176
   27TMC2     H  425   0.675   1.442  11.862 -2.2979  0.9175  0.4185
   27TMC2    H1  426   0.674   1.209  12.220  0.7254 -0.4035 -0.2818
   27TMC2    H2  427   0.903   1.563  12.194 -1.7682  0.6172 -0.8505
   27TMC2    C7  428   0.842   1.347  12.336 -0.1596 -0.4161  0.6414
   27TMC2    C8  429   0.834   1.625  11.950 -0.6955  0.0951 -1.1727
   27TMC2    O1  430   0.778   1.263  12.395  0.0429  0.7057 -0.4915
   27TMC2    O2  431   0.778   1.659  11.848 -0.3209  0.2316  0.7137
   27TMC2    O5  432   0.966   1.596  11.954 -0.2733 -0.0951  0.8371
   27TMC2    H5  433   0.997   1.551  12.036  1.4173  1.2198  0.9215
   28MPD2     C  434   0.136   0.948  12.019  0.5089 -0.0298 -0.2693
   28MPD2    C1  435   0.171   0.999  12.146  0.2353 -0.1654 -0.2355
   28MPD2    C2  436   0.298   1.059  12.153 -0.1973  0.5444 -1.0623
   28MPD2    C3  437   0.372   1.084  12.041  0.1455  0.3726  0.5809
   28MPD2    C4  438   0.323   1.046  11.919  0.7113 -0.5487  0.1828
   28MPD2    C5  439   0.208   0.979  11.909 -0.1055 -0.2735  0.1415
   28MPD2     H  440   0.343   1.098  12.244  0.4063 -1.5393 -0.4684
   28MPD2    H1  441   0.379   1.064  11.827  0.6170 -0.2935  0.1748
   28MPD2    H2  442   0.045   0.892  11.998  1.8284 -1.4832 -2.1223
   28MPD2    H3  443   0.179   0.944  11.810 -1.3602 -1.5941  0.9769
   28MPD2     N  444   0.486   1.165  12.063  0.5236 -0.4162 -0.0593
   28MPD2    H5  445   0.528   1.157  12.154 -0.5649  1.2338  0.5817
   28MPD2    N1  446   0.095   0.965  12.260 -0.0324  0.6056 -0.0407
   28MPD2    H7  447   0.017   0.900  12.253  2.4019 -2.1731 -1.3577
   29TMC2    C1  448   0.538   3.508  14.256  0.1829  0.3948 -1.0543
   29TMC2    C2  449   0.674   3.484  14.286  0.1692 -0.8802  0.0519
   29TMC2    C3  450   0.757   3.587  14.314  0.0504 -0.1129  0.3842
   29TMC2    C4  451   0.494   3.637  14.257  0.0649  0.2235 -0.3288
   29TMC2    C5  452   0.581   3.739  14.301 -0.2716 -0.1925 -0.5126
   29TMC2    C6  453   0.721   3.715  14.311 -0.4037  0.7666  0.0515
   29TMC2     C  454   0.456   3.389  14.244 -0.0649  0.5578  0.3755
   29TMC2     O  455   0.498   3.292  14.303 -0.1329 -0.0963  0.2296
   29TMC2     H  456   0.710   3.382  14.294  3.0409  0.3498  2.7569
   29TMC2    H1  457   0.388   3.660  14.252 -0.2501 -1.5649 -1.7962
   29TMC2    H2  458   0.788   3.788  14.355  0.9954  0.9371 -2.3308
   29TMC2    C7  459   0.528   3.854  14.377  0.0051  0.2567 -0.2953
   29TMC2    C8  460   0.899   3.545  14.317 -0.3025 -0.4473  0.1631
   29TMC2    O1  461   0.411   3.888  14.353 -0.0794  0.1432 -0.0803
   29TMC2    O2  462   0.939   3.452  14.383  0.2324 -0.1332 -0.1545
   29TMC2    O5  463   0.970   3.656  14.290 -0.0503  0.4591  0.0105
   29TMC2    H5  464   0.947   3.678  14.197 -1.9124  1.4090  0.6898
   30MPD2     C  465   0.009   3.151  14.145  0.2546 -0.0077  0.1329
   30MPD2    C1  466   0.130   3.105  14.199  0.0794  0.4539 -0.3944
   30MPD2    C2  467   0.231   3.195  14.223 -0.6083  0.3156  0.0395
   30MPD2    C3  468   0.229   3.321  14.169  0.1963  0.0548 -0.1587
   30MPD2    C4  469   0.113   3.364  14.108  0.0292 -0.4102  0.1096
   30MPD2    C5  470   0.004   3.287  14.098 -0.3969 -0.0018 -0.4492
   30MPD2     H  471   0.320   3.148  14.263 -0.3268 -0.1831 -1.1721
   30MPD2    H1  472   0.096   3.465  14.072  0.0735  0.0297  1.3323
   30MPD2    H2  473   4.654   3.093  14.128 -0.1410  0.1299  1.6880
   30MPD2    H3  474   4.647   3.326  14.057  0.0724  2.7561  1.1468
   30MPD2     N  475   0.334   3.410  14.180 -0.0041  0.3241  0.4943
   30MPD2    H5  476   0.305   3.502  14.148  0.6775  0.3643 -0.0222
   30MPD2    N1  477   0.150   2.964  14.233  0.0631 -0.2467  0.1124
   30MPD2    H7  478   0.245   2.938  14.256 -0.5155 -0.5641  2.1002
   31TMC2    C1  479   2.441   1.912  15.597 -0.3362 -0.6271 -0.6368
   31TMC2    C2  480   2.325   1.969  15.624 -0.7556  0.2450  0.1745
   31TMC2    C3  481   2.278   1.958  15.753  0.0424 -0.8508  0.1334
   31TMC2    C4  482   2.520   1.851  15.693  0.4657  0.1998 -0.4354
   31TMC2    C5  483   2.470   1.851  15.823 -0.2260  0.2423 -0.0609
   31TMC2    C6  484   2.349   1.905  15.854  0.0791  0.1522  0.0792
   31TMC2     C  485   2.493   1.934  15.464 -0.1288  0.5515  0.0998
   31TMC2     O  486   2.442   2.020  15.389 -0.4847 -0.0735  0.1569
   31TMC2     H  487   2.257   2.002  15.547  1.1712  0.8700 -1.2628
   31TMC2    H1  488   2.622   1.823  15.669 -0.0228 -0.7659 -1.3545
   31TMC2    H2  489   2.306   1.901  15.953 -1.5479 -2.0849 -0.7240
   31TMC2    C7  490   2.533   1.764  15.923 -0.0637  0.0421 -0.6404
   31TMC2    C8  491   2.144   1.992  15.782 -0.6308 -1.1441  0.1178
   31TMC2    O1  492   2.475   1.735  16.027  0.3873 -0.1890 -0.1071
   31TMC2    O2  493   2.081   1.920  15.854 -0.5418  0.7661  0.4440
   31TMC2    O5  494   2.110   2.119  15.741  0.4799  0.1473 -0.4454
   31TMC2    H5  495   2.177   2.174  15.694  1.2537  1.6847  2.4575
   32MPD2     C  496   2.895   1.876  15.134  0.1998  0.5821 -0.0372
   32MPD2    C1  497   2.793   1.972  15.137 -0.0108  0.3336  0.0333
   32MPD2    C2  498   2.691   1.974  15.234  0.1887  0.2053  0.3970
   32MPD2    C3  499   2.699   1.875  15.331  0.4474  0.3386 -0.0734
   32MPD2    C4  500   2.798   1.783  15.321  0.0507 -0.1012  0.5657
   32MPD2    C5  501   2.895   1.782  15.229  0.0033  0.1721  0.3394
   32MPD2     H  502   2.621   2.055  15.249 -1.4777 -1.6494  2.7466
   32MPD2    H1  503   2.796   1.706  15.397 -3.1883 -0.8138 -0.2633
   32MPD2    H2  504   2.977   1.887  15.064  1.0641 -0.6895  0.7911
   32MPD2    H3  505   2.980   1.715  15.237 -0.3104 -0.3084 -0.3844
   32MPD2     N  506   2.608   1.865  15.436  0.0882 -0.2795 -0.0836
   32MPD2    H5  507   2.640   1.790  15.496 -0.8967 -1.9580 -1.6427
   32MPD2    N1  508   2.805   2.080  15.041 -0.8147 -0.3532  0.0578
   32MPD2    H7  509   2.871   2.066  14.965 -0.1671 -0.4292  0.6348
   33TMC2    C1  510   2.411   0.334  10.642 -0.3018 -0.3779 -0.4431
   33TMC2    C2  511   2.309   0.369  10.717 -0.3622 -0.4664  0.4565
   33TMC2    C3  512   2.242   0.478  10.688  0.1423  0.1583  0.0519
   33TMC2    C4  513   2.456   0.405  10.532  0.3599 -1.0317  0.4275
   33TMC2    C5  514   2.384   0.514  10.496  0.2149  0.2164 -0.1287
   33TMC2    C6  515   2.273   0.559  10.573  0.3594  0.0736  0.4270
   33TMC2     C  516   2.456   0.193  10.660  0.1182 -0.0759  0.2907
   33TMC2     O  517   2.393   0.124  10.736  0.9145  0.1787 -0.3355
   33TMC2     H  518   2.290   0.319  10.812 -3.4578 -0.4787 -0.1667
   33TMC2    H1  519   2.537   0.368  10.471  1.9815 -0.6545  2.3661
   33TMC2    H2  520   2.212   0.646  10.551  1.7582  0.7086 -0.9867
   33TMC2    C7  521   2.442   0.615  10.401  0.0720  0.2885 -0.5810
   33TMC2    C8  522   2.156   0.539  10.789  0.0293  1.4968  0.6358
   33TMC2    O1  523   2.558   0.604  10.365  0.6720  0.3754 -0.0658
   33TMC2    O2  524   2.095   0.641  10.751  0.2357  0.0895  0.3515
   33TMC2    O5  525   2.178   0.504  10.918 -0.0759  0.0815 -0.3595
   33TMC2    H5  526   2.226   0.422  10.943  0.7443  0.4350 -0.7743
   34MPD2     C  527   2.803   4.548  10.686  0.2186 -0.3936  0.8713
   34MPD2    C1  528   2.678   4.551  10.744  0.0519  0.4507 -0.0488
   34MPD2    C2  529   2.598   4.661  10.715  0.0484 -0.2240 -0.2479
   34MPD2    C3  530   2.642   0.023  10.624 -0.1200 -0.2985  0.4464
   34MPD2    C4  531   2.761   0.008  10.558  0.5225  0.2283 -0.0449
   34MPD2    C5  532   2.842   4.635  10.587 -0.2086 -0.0551 -0.6342
   34MPD2     H  533   2.504   4.667  10.768  0.7750  1.6025  0.8253
   34MPD2    H1  534   2.792   0.084  10.487 -0.5506 -0.0437 -0.8060
   34MPD2    H2  535   2.873   4.468  10.709 -0.6053 -1.0407  1.1457
   34MPD2    H3  536   2.932   4.616  10.530 -0.4222 -0.7530 -0.7343
   34MPD2     N  537   2.573   0.145  10.594 -0.8365  0.2537  0.8194
   34MPD2    H5  538   2.617   0.192  10.516 -3.8875  0.1535 -0.9455
   34MPD2    N1  539   2.641   4.446  10.832  0.1508 -0.7254 -0.6601
   34MPD2    H7  540   2.717   4.383  10.856  0.3830 -1.3457 -2.9745
   35TMC2    C1  541   3.741   1.267  11.277  0.8911 -0.5000 -0.0673
   35TMC2    C2  542   3.684   1.293  11.158 -0.4943  0.0007 -0.0176
   35TMC2    C3  543   3.562   1.243  11.130 -0.6456  0.6843 -0.0845
   35TMC2    C4  544   3.675   1.202  11.378 -0.3221 -0.1051 -0.1460
   35TMC2    C5  545   3.540   1.167  11.353 -0.3759  0.1860 -0.0512
   35TMC2    C6  546   3.482   1.192  11.233 -0.1860 -0.2652  0.1808
   35TMC2     C  547   3.886   1.289  11.292  0.3925  0.0789 -0.5485
   35TMC2     O  548   3.956   1.314  11.195 -0.4861  0.1975 -0.0076
   35TMC2     H  549   3.745   1.338  11.080  0.2774 -0.4257  0.3387
   35TMC2    H1  550   3.719   1.168  11.471  1.5627  1.5076 -0.4589
   35TMC2    H2  551   3.388   1.146  11.205 -1.8177  3.1854  0.0338
   35TMC2    C7  552   3.472   1.093  11.457  0.0318 -0.1334 -0.4431
   35TMC2    C8  553   3.514   1.234  10.999 -0.4023  0.1966  0.2160
   35TMC2    O1  554   3.528   1.077  11.562 -0.0379 -0.2073 -0.7944
   35TMC2    O2  555   3.576   1.274  10.907  0.4440 -0.1122 -0.3475
   35TMC2    O5  556   3.377   1.249  11.012  0.4979 -0.4007  0.0647
   35TMC2    H5  557   3.326   1.233  10.930  3.5424  0.7242 -2.0472
   36MPD2     C  558   4.325   1.270  11.575 -0.5751  0.1248 -0.2043
   36MPD2    C1  559   4.217   1.273  11.657 -0.1930  0.0210  0.0447
   36MPD2    C2  560   4.086   1.270  11.608 -0.5536 -0.3151  0.0842
   36MPD2    C3  561   4.056   1.261  11.468 -0.0051 -0.1517 -0.4502
   36MPD2    C4  562   4.171   1.255  11.389 -0.3882  0.8321  0.7158
   36MPD2    C5  563   4.298   1.265  11.441 -0.0301  0.2125  0.4687
   36MPD2     H  564   3.992   1.268  11.663 -0.7747  1.5338 -0.2363
   36MPD2    H1  565   4.163   1.244  11.282  2.7737 -0.6297  0.6274
   36MPD2    H2  566   4.426   1.267  11.614 -0.7565  0.6184  0.3136
   36MPD2    H3  567   4.384   1.253  11.377 -1.0297 -0.6713 -0.6998
   36MPD2     N  568   3.921   1.268  11.418 -0.0870  0.8208 -0.6437
   36MPD2    H5  569   3.842   1.259  11.481  0.7726 -1.4389  0.0914
   36MPD2    N1  570   4.247   1.286  11.793 -0.0408 -0.1585 -0.1150
   36MPD2    H7  571   4.343   1.299  11.823 -0.4604 -0.8952  1.5685
   37TMC2    C1  572   0.833   1.984  11.824  0.1818  0.5068 -0.6373
   37TMC2    C2  573   0.722   1.928  11.756  0.2824 -0.3578  0.5898
   37TMC2    C3  574   0.731   1.923  11.622 -0.1711  0.1568  1.1182
   37TMC2    C4  575   0.941   2.036  11.758 -0.9406  0.1107 -0.1624
   37TMC2    C5  576   0.947   2.012  11.625 -0.3877  0.1522 -0.2044
   37TMC2    C6  577   0.842   1.955  11.551  0.4533 -0.5378 -0.0185
   37TMC2     C  578   0.849   1.948  11.963  0.2313 -0.1192  0.3431
   37TMC2     O  579   0.745   1.919  12.026  0.5002 -0.3345  0.0711
   37TMC2     H  580   0.644   1.887  11.818  0.7800  0.1133  1.5195
   37TMC2    H1  581   1.027   2.086  11.801  0.4245 -4.0218  1.9790
   37TMC2    H2  582   0.849   1.928  11.446  0.0533  2.1631 -0.7391
   37TMC2    C7  583   1.081   1.997  11.574  0.6371  0.5684 -0.5676
   37TMC2    C8  584   0.630   1.844  11.556  0.6920  0.0800  0.2667
   37TMC2    O1  585   1.171   1.980  11.655  0.7255  0.0606  0.1014
   37TMC2    O2  586   0.629   1.847  11.433 -0.5263 -0.7377  0.4300
   37TMC2    O5  587   0.600   1.735  11.631  0.5249  0.1816 -0.1612
   37TMC2    H5  588   0.629   1.740  11.725  1.5318  0.9775 -0.5140
   38MPD2     C  589   1.109   1.790  12.370 -0.6475  0.6686  0.0314
   38MPD2    C1  590   1.197   1.814  12.266  0.3994  0.3539  0.5062
   38MPD2    C2  591   1.151   1.873  12.154 -0.0862  0.1715 -0.1141
   38MPD2    C3  592   1.014   1.906  12.139 -0.1110  0.3596  0.5308
   38MPD2    C4  593   0.923   1.865  12.234  0.0993 -0.1082 -0.2096
   38MPD2    C5  594   0.981   1.804  12.345  0.3591  0.4124  0.1577
   38MPD2     H  595   1.219   1.892  12.072  0.1609  1.4528  0.4007
   38MPD2    H1  596   0.815   1.879  12.232 -0.1630 -1.8455  2.3402
   38MPD2    H2  597   1.152   1.760  12.465 -0.4039  0.0243 -0.2836
   38MPD2    H3  598   0.914   1.775  12.425  0.0329  3.9943  1.1919
   38MPD2     N  599   0.976   1.945  12.009  0.0797 -0.4462  0.4503
   38MPD2    H5  600   1.054   1.963  11.946 -0.1139  1.8148  0.8282
   38MPD2    N1  601   1.337   1.786  12.263  0.5007  0.1784 -0.1441
   38MPD2    H7  602   1.394   1.811  12.183  0.5852 -2.4029 -0.9023
   39TMC2    C1  603   0.311   2.868   1.945 -0.3306 -0.3390  0.2599
   39TMC2    C2  604   0.245   2.778   2.031  0.5010 -0.0770 -0.0927
   39TMC2    C3  605   0.313   2.684   2.112 -0.1823 -0.3678 -0.3176
   39TMC2    C4  606   0.449   2.878   1.953  0.0530 -0.6490  0.6605
   39TMC2    C5  607   0.511   2.783   2.034  0.2501 -0.4078 -0.4121
   39TMC2    C6  608   0.450   2.688   2.112  0.5099 -0.1071 -0.1198
   39TMC2     C  609   0.231   2.940   1.843 -0.1494  0.0096 -0.4246
   39TMC2     O  610   0.111   2.912   1.846 -0.5692  0.7509  0.3296
   39TMC2     H  611   0.137   2.779   2.038  0.3853  1.7160 -1.8603
   39TMC2    H1  612   0.522   2.932   1.894 -1.1614  2.5679  2.1121
   39TMC2    H2  613   0.510   2.624   2.175  0.0982 -1.9313 -1.5662
   39TMC2    C7  614   0.660   2.767   2.030  0.2408 -0.2447  0.3882
   39TMC2    C8  615   0.269   2.552   2.147 -0.4281 -0.3232 -0.1441
   39TMC2    O1  616   0.697   2.663   1.980  0.0074  0.0592  0.2434
   39TMC2    O2  617   0.340   2.451   2.114  0.1441 -0.3327 -0.7821
   39TMC2    O5  618   0.134   2.555   2.174 -0.0407  0.2420 -0.0290
   39TMC2    H5  619   0.114   2.644   2.209  0.1420  1.3767 -2.7745
   40MPD2     C  620   0.349   3.162   1.578 -0.4992  0.3084 -0.5489
   40MPD2    C1  621   0.256   3.100   1.651 -0.1869  0.1387 -0.1850
   40MPD2    C2  622   0.118   3.105   1.619 -0.2315  0.6746  0.0020
   40MPD2    C3  623   0.078   3.196   1.523  0.8843  1.1073 -1.0210
   40MPD2    C4  624   0.176   3.258   1.452 -0.0292 -0.1063 -0.5370
   40MPD2    C5  625   0.307   3.248   1.480  0.6985 -0.2583 -0.4935
   40MPD2     H  626   0.043   3.041   1.663 -0.8611  1.7225  0.4540
   40MPD2    H1  627   0.151   3.323   1.369  2.0932  2.2655  0.6797
   40MPD2    H2  628   0.455   3.153   1.598 -0.0528  3.0194 -1.7104
   40MPD2    H3  629   0.380   3.306   1.425  0.8413 -0.4118 -0.4666
   40MPD2     N  630   4.682   3.214   1.476  0.5695  0.1264  0.0099
   40MPD2    H5  631   4.683   3.276   1.396 -0.8989  1.0916  0.7390
   40MPD2    N1  632   0.308   3.014   1.749 -0.1976  0.9399 -1.1170
   40MPD2    H7  633   0.409   3.006   1.753 -0.3988 -0.0617  1.8510
   41TMC2    C1  634   3.356   1.569  13.869  0.2253  0.6230  0.0344
   41TMC2    C2  635   3.484   1.536  13.902  0.0720  0.0581  0.6025
   41TMC2    C3  636   3.584   1.594  13.830 -0.3179  0.7952 -0.0651
   41TMC2    C4  637   3.323   1.635  13.753 -0.7115 -0.1888 -0.6833
   41TMC2    C5  638   3.425   1.676  13.671 -0.0922 -0.1608  0.5971
   41TMC2    C6  639   3.556   1.662  13.719  0.3041 -0.4446  0.6991
   41TMC2     C  640   3.241   1.533  13.960 -0.6567 -0.3258  1.0132
   41TMC2     O  641   3.132   1.586  13.934 -0.5723  0.3512 -0.4229
   41TMC2     H  642   3.508   1.497  14.001  0.3678  0.3317  0.6392
   41TMC2    H1  643   3.220   1.631  13.719 -0.2699 -1.6655 -1.8578
   41TMC2    H2  644   3.637   1.712  13.666 -0.6778 -0.7818 -1.1053
   41TMC2    C7  645   3.390   1.732  13.536  0.2674  0.0531 -0.5142
   41TMC2    C8  646   3.724   1.542  13.835  0.3957 -0.7021 -0.8167
   41TMC2    O1  647   3.272   1.755  13.512 -0.3760  0.2421  0.2185
   41TMC2    O2  648   3.786   1.518  13.732  0.3213  0.1645 -0.0140
   41TMC2    O5  649   3.744   1.503  13.965  0.0707 -0.0576 -0.2211
   41TMC2    H5  650   3.689   1.561  14.022  0.1427 -0.4724  0.2699
   42MPD2     C  651   3.049   1.371  14.130 -0.0163 -0.0373  0.1710
   42MPD2    C1  652   3.187   1.370  14.149 -0.3567 -0.5600 -0.4736
   42MPD2    C2  653   3.242   1.284  14.247  0.3080 -0.2336  0.1819
   42MPD2    C3  654   3.162   1.200  14.317 -0.0056 -0.0945 -0.1373
   42MPD2    C4  655   3.030   1.197  14.295  0.0551 -0.2795 -0.0551
   42MPD2    C5  656   2.978   1.286  14.201 -0.0510 -0.1598  0.2761
   42MPD2     H  657   3.350   1.273  14.247  0.3955  0.5971 -0.5814
   42MPD2    H1  658   2.967   1.126  14.348 -2.6223  0.9101 -1.6379
   42MPD2    H2  659   3.007   1.445  14.062  0.5945 -0.0716 -0.2460
   42MPD2    H3  660   2.869   1.288  14.203 -0.0738 -0.3720 -0.6850
   42MPD2     N  661   3.214   1.095  14.400 -0.2260  0.1523 -0.5541
   42MPD2    H5  662   3.148   1.027  14.439 -2.3287  1.1185 -2.4222
   42MPD2    N1  663   3.277   1.446  14.067 -0.3706 -0.3338  0.5232
   42MPD2    H7  664   3.376   1.427  14.073  0.1849  1.9922 -1.3794
   43TMC2    C1  665   0.059   4.712   1.002 -0.0342  0.7131  0.0336
   43TMC2    C2  666   4.662   4.726   1.001  0.4052 -0.4229  0.3815
   43TMC2    C3  667   4.603   0.101   1.049  0.1620  0.0336  0.0980
   43TMC2    C4  668   0.141   0.083   1.045 -0.5456  0.7497  1.2485
   43TMC2    C5  669   0.079   0.195   1.092  0.2600 -0.1423 -0.0879
   43TMC2    C6  670   4.677   0.207   1.098  0.0606  0.0079 -0.4937
   43TMC2     C  671   0.122   4.609   0.925  0.1344 -0.4223 -0.3788
   43TMC2     O  672   0.238   4.581   0.952  0.2551  0.0307  0.1767
   43TMC2     H  673   4.594   4.645   0.975  0.3302 -0.7443  1.5794
   43TMC2    H1  674   0.248   0.076   1.037 -0.7084 -0.1815 -0.1292
   43TMC2    H2  675   4.620   0.294   1.125 -1.1091 -1.5148  1.9283
   43TMC2    C7  676   0.156   0.293   1.165 -0.4828 -0.3249  0.3980
   43TMC2    C8  677   4.456   0.107   1.054  0.0800 -0.5174  0.5795
   43TMC2    O1  678   0.270   0.255   1.183 -0.1079 -0.4983 -0.0676
   43TMC2    O2  679   4.393   0.185   1.128  0.1303  1.0243  0.4465
   43TMC2    O5  680   4.403   0.038   0.954  0.3447  1.0644 -0.1016
   43TMC2    H5  681   4.462   0.020   0.877 -1.4779 -0.7021 -1.0716
   44MPD2     C  682   0.185   4.313   0.529  0.2209 -0.8594  0.0208
   44MPD2    C1  683   0.237   4.295   0.656  0.5932  0.7295 -0.2347
   44MPD2    C2  684   0.195   4.385   0.755 -0.0209 -0.0754 -0.1816
   44MPD2    C3  685   0.105   4.484   0.721  0.7716 -0.2336 -0.0998
   44MPD2    C4  686   0.055   4.500   0.596  0.8843  0.4037 -0.6126
   44MPD2    C5  687   0.094   4.407   0.506 -0.1631  0.6979  0.2122
   44MPD2     H  688   0.244   4.382   0.852 -1.4370 -0.2519  0.5218
   44MPD2    H1  689   4.719   4.578   0.572 -0.8819 -0.7393  0.9225
   44MPD2    H2  690   0.205   4.253   0.441  1.3241  0.0927 -0.3653
   44MPD2    H3  691   0.056   4.412   0.405 -1.7636  0.3284  0.8003
   44MPD2     N  692   0.052   4.584   0.812  0.6210  0.2505 -0.5966
   44MPD2    H5  693   4.700   4.629   0.789  0.1988  0.2997  1.1617
   44MPD2    N1  694   0.336   4.194   0.687 -0.3865 -0.3742 -0.0818
   44MPD2    H7  695   0.358   4.178   0.785  0.2359 -2.4003 -0.5568
   45TMC2    C1  696   4.676   2.485   9.586  0.0501 -0.6969  0.5064
   45TMC2    C2  697   4.697   2.378   9.672  0.0721 -0.1643  0.2189
   45TMC2    C3  698   0.087   2.375   9.736  0.2363  0.1301 -0.3753
   45TMC2    C4  699   0.041   2.578   9.561 -0.3374 -0.6705 -0.8015
   45TMC2    C5  700   0.164   2.570   9.620  1.0984  0.3289 -0.2964
   45TMC2    C6  701   0.192   2.465   9.704  0.4877 -0.0072 -0.5132
   45TMC2     C  702   4.569   2.479   9.492 -0.4937 -0.1530 -1.1169
   45TMC2     O  703   4.591   2.529   9.383 -0.2033 -0.1592 -0.6380
   45TMC2     H  704   4.612   2.319   9.705 -1.4460  0.6537 -2.2363
   45TMC2    H1  705   0.023   2.651   9.483 -1.7634 -1.5728 -1.3166
   45TMC2    H2  706   0.290   2.447   9.748  0.6825  1.4964 -0.3276
   45TMC2    C7  707   0.265   2.659   9.578  0.2896  0.1209  0.8564
   45TMC2    C8  708   0.129   2.278   9.836 -0.0743 -0.6940  0.7006
   45TMC2    O1  709   0.253   2.709   9.467 -0.4168  0.4795 -0.3356
   45TMC2    O2  710   0.231   2.275   9.905 -0.3398  0.6823 -0.8049
   45TMC2    O5  711   0.033   2.180   9.849  0.4028  0.0910 -0.0594
   45TMC2    H5  712   0.043   2.119   9.925  0.7452 -1.0618 -1.0149
   46MPD2     C  713   4.332   2.428   9.328  0.1296  0.1953 -0.4506
   46MPD2    C1  714   4.354   2.374   9.452 -0.7076  0.0107 -0.4558
   46MPD2    C2  715   4.279   2.265   9.493 -0.3905 -0.6348  0.1498
   46MPD2    C3  716   4.172   2.219   9.421 -0.5073  0.1568  0.3919
   46MPD2    C4  717   4.138   2.276   9.300  0.1457  0.1448 -0.8843
   46MPD2    C5  718   4.219   2.385   9.257  0.4263  0.7965 -0.2007
   46MPD2     H  719   4.314   2.210   9.580 -1.1766 -1.2084  0.1085
   46MPD2    H1  720   4.068   2.228   9.233 -0.0974 -0.5464 -0.1389
   46MPD2    H2  721   4.390   2.507   9.282 -1.0571 -0.8818 -3.8345
   46MPD2    H3  722   4.205   2.427   9.158 -0.4925  2.2058  0.5261
   46MPD2     N  723   4.109   2.108   9.483 -0.4200  0.2569  0.2693
   46MPD2    H5  724   4.122   2.094   9.583  0.5121  0.4250  0.1677
   46MPD2    N1  725   4.467   2.398   9.531  0.2391 -0.5909  0.1202
   46MPD2    H7  726   4.473   2.344   9.617 -0.4254 -0.0395  0.5061
   47TMC2    C1  727   2.352   2.394   9.799 -0.7931 -0.0087 -0.1837
   47TMC2    C2  728   2.452   2.482   9.790 -0.4225 -0.1004  0.0712
   47TMC2    C3  729   2.435   2.601   9.842 -0.0773  0.6172 -0.1129
   47TMC2    C4  730   2.225   2.424   9.843 -0.5499  0.5533  0.4317
   47TMC2    C5  731   2.213   2.548   9.903 -0.6389  0.0425  0.4939
   47TMC2    C6  732   2.317   2.641   9.896  0.3707 -0.1954 -0.2353
   47TMC2     C  733   2.353   2.287   9.693  0.4223 -0.0755  0.2848
   47TMC2     O  734   2.252   2.281   9.623  0.0934  0.1264  0.1815
   47TMC2     H  735   2.554   2.457   9.765  0.2103  1.0073  1.5603
   47TMC2    H1  736   2.146   2.354   9.818  0.1558  0.0791 -0.4989
   47TMC2    H2  737   2.312   2.738   9.943  1.9921 -1.5522  2.6821
   47TMC2    C7  738   2.126   2.566  10.017 -0.5285 -0.5293 -0.6839
   47TMC2    C8  739   2.515   2.720   9.809 -0.6716  0.1667  0.1263
   47TMC2    O1  740   2.117   2.680  10.063  0.0858 -0.2031 -0.3420
   47TMC2    O2  741   2.490   2.829   9.849  0.2078  0.0064 -0.6512
   47TMC2    O5  742   2.566   2.700   9.685  0.0769 -0.1978  0.4097
   47TMC2    H5  743   2.554   2.613   9.640  3.6450  0.4541 -1.7613
   48MPD2     C  744   2.450   2.215   9.417 -0.1126  0.6405  0.8771
   48MPD2    C1  745   2.537   2.216   9.528 -0.2243 -0.7754  0.2781
   48MPD2    C2  746   2.671   2.204   9.508  0.7349 -0.4942 -0.5718
   48MPD2    C3  747   2.720   2.192   9.382 -0.0065  0.3894  0.2674
   48MPD2    C4  748   2.637   2.205   9.269 -0.2518 -0.1563 -0.3093
   48MPD2    C5  749   2.511   2.218   9.291 -0.8871  0.2064  0.5308
   48MPD2     H  750   2.746   2.205   9.587  2.6608 -2.1714 -2.3728
   48MPD2    H1  751   2.673   2.204   9.166 -1.6289  1.2682 -0.8094
   48MPD2    H2  752   2.345   2.241   9.421  0.0674  0.7750  4.5144
   48MPD2    H3  753   2.442   2.236   9.209 -0.7355  1.4988  0.6833
   48MPD2     N  754   2.861   2.172   9.379  0.0910  0.4142  0.2731
   48MPD2    H5  755   2.902   2.135   9.465  1.5818  1.5127  0.0216
   48MPD2    N1  756   2.487   2.250   9.660 -0.3458  0.2673 -0.1424
   48MPD2    H7  757   2.558   2.270   9.730  0.0190  0.1852 -0.4830
   49TMC2    C1  758   0.450   3.125  10.446  0.0868  0.1101 -0.1775
   49TMC2    C2  759   0.408   3.073  10.331 -0.8732  0.4354  0.1190
   49TMC2    C3  760   0.336   2.957  10.340 -0.4063 -0.7100  0.4948
   49TMC2    C4  761   0.413   3.076  10.576  0.0569  0.0607  0.4461
   49TMC2    C5  762   0.331   2.969  10.580 -0.4167 -0.5910 -0.3256
   49TMC2    C6  763   0.297   2.902  10.463  0.0694 -0.0694  0.5588
   49TMC2     C  764   0.521   3.261  10.439  0.1944  0.0311 -0.2780
   49TMC2     O  765   0.533   3.309  10.328 -0.0025 -0.5548  0.4103
   49TMC2     H  766   0.453   3.113  10.241  3.4275  1.8499  2.9323
   49TMC2    H1  767   0.435   3.133  10.665 -0.0730 -0.2712  0.6900
   49TMC2    H2  768   0.230   2.817  10.465  0.8199 -0.7007 -0.7767
   49TMC2    C7  769   0.344   2.878  10.694  0.1592 -0.9430 -0.4630
   49TMC2    C8  770   0.353   2.874  10.225 -0.2000  0.4411  0.2010
   49TMC2    O1  771   0.260   2.790  10.703 -0.1654  0.2388 -0.0989
   49TMC2    O2  772   0.437   2.892  10.142 -0.4085  0.0229 -0.2627
   49TMC2    O5  773   0.246   2.791  10.226 -1.0532 -0.1045  0.1718
   49TMC2    H5  774   0.174   2.815  10.287  0.9299 -0.0503  2.4763
   50MPD2     C  775   0.591   3.557  10.502  0.0685  0.3077 -0.3589
   50MPD2    C1  776   0.594   3.455  10.597  0.2436  0.0920 -0.4303
   50MPD2    C2  777   0.626   3.487  10.728 -0.2342 -0.1646  0.4861
   50MPD2    C3  778   0.653   3.620  10.767 -0.0822 -0.0600  0.0824
   50MPD2    C4  779   0.652   3.711  10.668 -0.3291 -0.7530  0.1202
   50MPD2    C5  780   0.610   3.685  10.541  0.8973 -0.8432  0.4056
   50MPD2     H  781   0.638   3.401  10.793 -0.1526 -0.6070 -0.1057
   50MPD2    H1  782   0.686   3.809  10.702 -1.5915 -0.7338  1.3269
   50MPD2    H2  783   0.566   3.531  10.400  1.5878  0.4983 -0.7801
   50MPD2    H3  784   0.624   3.767  10.472 -0.7054 -2.3511 -1.7055
   50MPD2     N  785   0.685   3.660  10.903  0.4820  0.4271  0.0058
   50MPD2    H5  786   0.700   3.759  10.917 -1.3657  0.4518  1.8151
   50MPD2    N1  787   0.562   3.316  10.560 -0.2196  0.1946  0.5158
   50MPD2    H7  788   0.571   3.261  10.645 -2.6338 -1.6366 -0.4237
   51TMC2    C1  789   1.665   3.641   2.236 -0.8075  0.5129 -0.2841
   51TMC2    C2  790   1.604   3.744   2.299 -0.9998 -0.7150 -0.1113
   51TMC2    C3  791   1.665   3.804   2.405  0.5719  0.0208 -0.6235
   51TMC2    C4  792   1.791   3.592   2.273  0.0617  0.7881  0.1218
   51TMC2    C5  793   1.858   3.673   2.366 -0.1110 -0.1696 -0.2385
   51TMC2    C6  794   1.796   3.775   2.436 -0.6236  0.4960 -0.5005
   51TMC2     C  795   1.614   3.597   2.106 -0.2743 -0.5042  0.2647
   51TMC2     O  796   1.654   3.486   2.072 -0.3428  0.1448  0.2950
   51TMC2     H  797   1.502   3.766   2.267 -1.9854 -2.6821  1.7037
   51TMC2    H1  798   1.842   3.518   2.212  0.5452  1.9722 -0.9066
   51TMC2    H2  799   1.838   3.834   2.517 -1.8681  1.6349 -0.6760
   51TMC2    C7  800   2.002   3.673   2.350 -0.4749 -0.3141  0.2829
   51TMC2    C8  801   1.594   3.895   2.486  0.0976 -0.2508 -0.4281
   51TMC2    O1  802   2.050   3.562   2.338 -0.4483 -1.0721 -0.4867
   51TMC2    O2  803   1.486   3.939   2.448 -0.4902 -0.3077 -0.4165
   51TMC2    O5  804   1.616   3.860   2.612 -0.3363  0.4487 -0.1931
   51TMC2    H5  805   1.701   3.816   2.635 -0.9487  0.1163  1.4430
   52MPD2     C  806   1.382   3.654   1.659  0.1468 -0.6055 -0.2380
   52MPD2    C1  807   1.420   3.536   1.724 -0.4163  0.7074  0.2823
   52MPD2    C2  808   1.469   3.541   1.853 -0.3007 -0.1158 -0.1842
   52MPD2    C3  809   1.470   3.661   1.917 -0.5568  0.0149  0.5603
   52MPD2    C4  810   1.426   3.775   1.852  1.3016 -0.0500 -0.4745
   52MPD2    C5  811   1.391   3.778   1.719  0.0065  0.4275  0.3704
   52MPD2     H  812   1.495   3.447   1.902  1.5309 -0.0793 -1.0924
   52MPD2    H1  813   1.432   3.870   1.904 -0.1559  0.2933 -0.9076
   52MPD2    H2  814   1.366   3.654   1.552 -1.6616  3.7505  0.0211
   52MPD2    H3  815   1.373   3.876   1.677  0.3219 -0.1523 -1.1073
   52MPD2     N  816   1.519   3.678   2.046  0.9286  0.4929  0.1272
   52MPD2    H5  817   1.504   3.768   2.091  0.7978  0.7307 -0.3969
   52MPD2    N1  818   1.435   3.419   1.659 -0.3552 -0.4843 -0.0963
   52MPD2    H7  819   1.472   3.343   1.715 -1.9048 -1.7770 -0.8201
   53TMC2    C1  820   1.802   1.949  11.376 -0.1473 -0.5668  0.4036
   53TMC2    C2  821   1.922   1.903  11.334 -0.4061  0.1922 -0.1014
   53TMC2    C3  822   2.021   1.870  11.428 -0.7734 -0.2087  0.3929
   53TMC2    C4  823   1.785   1.966  11.513 -0.0323 -0.8552  0.6029
   53TMC2    C5  824   1.884   1.937  11.607  0.1832  0.3820  0.2145
   53TMC2    C6  825   2.005   1.893  11.565  0.0051  0.4511 -0.1794
   53TMC2     C  826   1.691   1.923  11.292 -0.2455 -0.1688  0.2574
   53TMC2     O  827   1.717   1.904  11.176  0.5729 -0.0927 -0.1851
   53TMC2     H  828   1.936   1.883  11.228 -3.1750 -1.4168 -0.1662
   53TMC2    H1  829   1.692   2.006  11.553  0.7558 -0.2336  1.8026
   53TMC2    H2  830   2.091   1.892  11.632 -0.2464 -2.0280  0.1113
   53TMC2    C7  831   1.858   1.969  11.744 -0.6263 -0.0787  0.5729
   53TMC2    C8  832   2.122   1.780  11.385 -0.1221 -0.1708  0.4021
   53TMC2    O1  833   1.767   2.044  11.773  0.5459  0.0613  0.2383
   53TMC2    O2  834   2.191   1.809  11.289  0.1454  0.2412 -0.5609
   53TMC2    O5  835   2.145   1.678  11.468 -0.1013 -0.2297  0.0770
   53TMC2    H5  836   2.064   1.660  11.521  1.0902 -0.9094  1.6782
   54MPD2     C  837   1.415   1.922  11.186 -0.1456  0.2795 -0.3143
   54MPD2    C1  838   1.438   1.931  11.319  0.3349 -0.1558  0.2158
   54MPD2    C2  839   1.328   1.954  11.405  0.4920 -0.0287  0.2931
   54MPD2    C3  840   1.200   1.968  11.351 -0.0280  0.2718  0.1355
   54MPD2    C4  841   1.176   1.959  11.215 -0.0127  0.3959 -0.4126
   54MPD2    C5  842   1.286   1.923  11.142  0.2064 -0.5152  0.0141
   54MPD2     H  843   1.346   1.954  11.512  1.2495 -0.2213  0.1681
   54MPD2    H1  844   1.076   1.979  11.176 -0.7700 -2.0876  0.2564
   54MPD2    H2  845   1.486   1.901  11.106 -0.4363  1.7927 -0.9671
   54MPD2    H3  846   1.269   1.921  11.035 -2.0045  0.3188  0.3496
   54MPD2     N  847   1.086   1.993  11.438  0.8599  0.0548 -0.2513
   54MPD2    H5  848   1.005   2.021  11.384  0.3839 -0.4825  0.1794
   54MPD2    N1  849   1.573   1.928  11.366  0.2261 -0.0235 -0.0248
   54MPD2    H7  850   1.588   1.939  11.466  0.3315  1.2094 -0.1719
   55TMC2    C1  851   2.966   0.220   0.616 -0.2393 -0.2202  0.3391
   55TMC2    C2  852   3.022   0.330   0.565 -0.3814  0.1629  0.2416
   55TMC2    C3  853   3.157   0.347   0.580  0.4282  0.2118 -0.0161
   55TMC2    C4  854   3.035   0.150   0.716 -0.4063  0.0545  0.3738
   55TMC2    C5  855   3.172   0.175   0.736 -0.4395 -0.7693 -0.0790
   55TMC2    C6  856   3.230   0.274   0.667  0.1315  0.0969  0.2340
   55TMC2     C  857   2.826   0.176   0.590 -0.2604  0.2647  0.4254
   55TMC2     O  858   2.779   0.089   0.661  0.3552  0.2047  0.1885
   55TMC2     H  859   2.972   0.396   0.495 -2.9273  0.7815  2.6146
   55TMC2    H1  860   2.980   0.065   0.755 -0.1252  0.0156  0.6873
   55TMC2    H2  861   3.337   0.290   0.674  0.2017 -0.0513 -0.4678
   55TMC2    C7  862   3.260   0.084   0.807 -0.2495  0.4917  0.1376
   55TMC2    C8  863   3.219   0.454   0.509  0.9977  0.2688 -0.3474
   55TMC2    O1  864   3.380   0.118   0.796  0.1867 -0.1040  0.2322
   55TMC2    O2  865   3.332   0.439   0.464  0.3747 -0.1469  0.5142
   55TMC2    O5  866   3.165   0.577   0.510  0.5360  0.7480 -0.3036
   55TMC2    H5  867   3.083   0.592   0.561  1.2988 -0.5820  1.3192
   56MPD2     C  868   2.596   0.314   0.330  1.0780  0.3658 -0.2364
   56MPD2    C1  869   2.637   0.239   0.443  0.2747  0.4647  0.2443
   56MPD2    C2  870   2.534   0.167   0.509  0.2203 -0.3993  0.5374
   56MPD2    C3  871   2.407   0.154   0.459  0.6295 -0.3900  0.0984
   56MPD2    C4  872   2.374   0.220   0.345  0.7281  0.6756 -0.2668
   56MPD2    C5  873   2.465   0.305   0.286  0.0870  0.1887 -0.1208
   56MPD2     H  874   2.570   0.109   0.593 -0.8808 -2.0939 -0.1775
   56MPD2    H1  875   2.275   0.216   0.302  0.5315  1.7242  0.0873
   56MPD2    H2  876   2.661   0.377   0.271  0.7073  0.2245 -0.8081
   56MPD2    H3  877   2.441   0.355   0.193 -0.1938  0.8863  0.3276
   56MPD2     N  878   2.304   0.091   0.529 -0.2854  0.1260 -0.4140
   56MPD2    H5  879   2.217   0.074   0.481 -0.4450 -1.8569  0.5794
   56MPD2    N1  880   2.772   0.248   0.482 -0.1061 -0.1387 -0.7674
   56MPD2    H7  881   2.837   0.303   0.426 -0.6387  1.3618  0.0732
   57TMC2    C1  882   1.942   0.316  13.401  0.9495  0.4135 -0.8696
   57TMC2    C2  883   1.871   0.286  13.287 -0.4857 -0.2208 -0.4449
   57TMC2    C3  884   1.931   0.308  13.165 -0.1881  0.2817  0.5657
   57TMC2    C4  885   2.075   0.358  13.385  0.3930  0.7114  0.2952
   57TMC2    C5  886   2.133   0.369  13.258 -0.3385  0.4019 -0.5611
   57TMC2    C6  887   2.061   0.344  13.145  0.4643 -0.2039  0.7474
   57TMC2     C  888   1.882   0.331  13.529  0.7809  0.4077 -0.7845
   57TMC2     O  889   1.936   0.410  13.599  0.0449  0.5515 -0.1546
   57TMC2     H  890   1.765   0.265  13.293 -0.4248 -0.2121  0.6001
   57TMC2    H1  891   2.137   0.363  13.474  0.5520  2.1522  0.1077
   57TMC2    H2  892   2.106   0.371  13.050 -2.3238 -1.8599 -1.0457
   57TMC2    C7  893   2.261   0.441  13.240 -0.7182  0.6810 -0.2414
   57TMC2    C8  894   1.847   0.289  13.049  0.2487 -0.0835 -0.0333
   57TMC2    O1  895   2.277   0.548  13.301 -0.5654 -0.2748 -0.2365
   57TMC2    O2  896   1.752   0.212  13.045 -0.1858 -0.2233 -0.1603
   57TMC2    O5  897   1.851   0.412  12.994  0.2492 -0.5641  0.5757
   57TMC2    H5  898   1.934   0.461  13.011  0.3341 -0.5866  0.2448
   58MPD2     C  899   1.541   0.239  13.904  0.0031  1.2216 -0.1130
   58MPD2    C1  900   1.633   0.344  13.888  0.4457 -0.1952 -0.5995
   58MPD2    C2  901   1.711   0.348  13.773 -0.0961  0.4636  0.3559
   58MPD2    C3  902   1.704   0.245  13.681  0.1708 -0.3250 -0.0519
   58MPD2    C4  903   1.626   0.137  13.706 -0.4221 -0.2055 -0.2431
   58MPD2    C5  904   1.544   0.133  13.818 -0.5836  0.0721  0.4231
   58MPD2     H  905   1.773   0.433  13.750 -3.0124  2.8180  1.1998
   58MPD2    H1  906   1.624   0.053  13.637  0.1290  0.8272 -1.5196
   58MPD2    H2  907   1.461   0.231  13.976  1.0330 -1.1601  0.7814
   58MPD2    H3  908   1.473   0.052  13.822 -1.6196  0.9641 -0.0494
   58MPD2     N  909   1.775   0.244  13.561  0.8673 -0.1302 -0.4787
   58MPD2    H5  910   1.750   0.166  13.501 -0.0767 -1.5773  1.8062
   58MPD2    N1  911   1.638   0.452  13.987  0.4152  0.1814 -0.1499
   58MPD2    H7  912   1.686   0.537  13.957  1.2280 -0.0032  0.6311
   59TMC2    C1  913   0.069   0.491  12.629  0.5580 -0.4423  0.2141
   59TMC2    C2  914   4.735   0.395  12.704  0.7550  0.2524  0.4270
   59TMC2    C3  915   4.659   0.303  12.630 -0.6941 -0.3327 -0.2818
   59TMC2    C4  916   0.050   0.504  12.493  0.0629 -0.0776  0.8450
   59TMC2    C5  917   4.719   0.402  12.428  0.3769 -0.8362  0.6362
   59TMC2    C6  918   4.653   0.305  12.495 -0.7520  0.2243  0.1649
   59TMC2     C  919   0.121   0.611  12.695  0.2503  0.7626 -0.9318
   59TMC2     O  920   0.146   0.708  12.625 -0.3734  0.9894  0.1240
   59TMC2     H  921   0.012   0.389  12.811 -0.4662  2.2958  0.7006
   59TMC2    H1  922   0.099   0.581  12.435 -0.4084 -0.1893  0.2996
   59TMC2    H2  923   4.591   0.233  12.443  0.3557 -0.0966 -0.7199
   59TMC2    C7  924   4.675   0.438  12.301 -0.3981 -0.2057  0.4326
   59TMC2    C8  925   4.571   0.220  12.711  0.0731 -0.5205  0.4039
   59TMC2    O1  926   4.673   0.355  12.210 -0.4039  0.1021 -0.6675
   59TMC2    O2  927   4.523   0.257  12.819 -0.0145  0.5250 -0.7250
   59TMC2    O5  928   4.563   0.099  12.645 -0.4707  0.3222  0.6181
   59TMC2    H5  929   4.631   0.075  12.579 -0.4832 -0.6943  0.9815
   60MPD2     C  930   0.144   0.853  12.870  0.1313 -0.0329  0.1308
   60MPD2    C1  931   0.138   0.721  12.918  0.1935  0.5685  0.6080
   60MPD2    C2  932   0.168   0.703  13.052  0.3663 -0.3339 -0.0427
   60MPD2    C3  933   0.185   0.803  13.144  0.2738  0.9410 -0.2797
   60MPD2    C4  934   0.172   0.927  13.096  0.0610 -0.0018  0.5324
   60MPD2    C5  935   0.155   0.952  12.959 -0.2395  0.6853  0.3843
   60MPD2     H  936   0.175   0.602  13.091  2.9141 -0.4742 -0.8406
   60MPD2    H1  937   0.165   1.010  13.166  2.3256 -0.2606  1.0446
   60MPD2    H2  938   0.130   0.872  12.764 -2.1585  0.3288  0.4776
   60MPD2    H3  939   0.153   1.054  12.921 -0.0091 -0.0133 -1.5143
   60MPD2     N  940   0.235   0.782  13.279 -0.2750  0.4622 -0.3684
   60MPD2    H5  941   0.259   0.687  13.308 -0.7676 -0.5191 -3.1685
   60MPD2    N1  942   0.112   0.611  12.834 -0.3830  0.3115  0.0300
   60MPD2    H7  943   0.102   0.519  12.877  0.4345  0.1257 -0.1783
   61TMC2    C1  944   3.523   2.032  15.138 -0.3518  0.3596  0.7664
   61TMC2    C2  945   3.552   1.914  15.198 -0.5511  0.1867 -0.3701
   61TMC2    C3  946   3.622   1.924  15.316 -0.7811 -0.1427  0.6185
   61TMC2    C4  947   3.526   2.154  15.200  0.2817 -0.0584  0.4310
   61TMC2    C5  948   3.596   2.154  15.316 -0.0921  0.6732  0.0046
   61TMC2    C6  949   3.648   2.048  15.372  0.9138 -0.1986  0.4013
   61TMC2     C  950   3.555   2.043  14.995  0.2635  0.0391 -0.6322
   61TMC2     O  951   3.500   2.127  14.929  0.3082  0.5770 -0.1668
   61TMC2     H  952   3.515   1.822  15.154  0.9037 -0.3391 -0.5003
   61TMC2    H1  953   3.503   2.247  15.149  0.0927 -0.3397  0.0087
   61TMC2    H2  954   3.693   2.053  15.470  2.1092 -0.8324 -0.1177
   61TMC2    C7  955   3.636   2.281  15.372 -0.3946 -0.8685  0.9989
   61TMC2    C8  956   3.622   1.812  15.409  0.3243  0.9700 -0.2162
   61TMC2    O1  957   3.752   2.287  15.412 -0.5411  0.5571 -0.0991
   61TMC2    O2  958   3.525   1.734  15.410 -0.2082 -0.5485  0.3519
   61TMC2    O5  959   3.732   1.811  15.490  0.2315  0.4609  0.1924
   61TMC2    H5  960   3.807   1.862  15.453  0.7134  0.8782  1.7686
   62MPD2     C  961   3.661   1.994  14.726 -0.3076 -0.1992  0.0446
   62MPD2    C1  962   3.719   1.939  14.835 -0.1486  0.1727  0.7186
   62MPD2    C2  963   3.835   1.864  14.821  0.0228  0.4886  0.0962
   62MPD2    C3  964   3.885   1.834  14.699 -0.5915  0.3164 -0.2044
   62MPD2    C4  965   3.821   1.880  14.583  0.2438 -0.3063  1.0864
   62MPD2    C5  966   3.709   1.960  14.602  1.0611  0.3997  0.2996
   62MPD2     H  967   3.887   1.829  14.909 -0.8736 -2.8433 -0.7243
   62MPD2    H1  968   3.862   1.855  14.486 -0.0634 -0.9476  1.1260
   62MPD2    H2  969   3.576   2.061  14.734 -0.4800 -0.0400 -3.2061
   62MPD2    H3  970   3.666   2.004  14.514  0.1234 -0.2464  0.4396
   62MPD2     N  971   4.003   1.762  14.698 -0.2655  0.8236  0.6435
   62MPD2    H5  972   4.058   1.755  14.783 -1.6180  2.5476  1.6771
   62MPD2    N1  973   3.653   1.953  14.964 -0.0587  1.2062 -0.1108
   62MPD2    H7  974   3.695   1.901  15.040  0.4755 -2.2862 -2.8057
   63TMC2    C1  975   2.836   2.028  10.111  0.5543 -0.5873 -0.5325
   63TMC2    C2  976   2.952   2.055  10.188 -0.1534  0.0367  0.3431
   63TMC2    C3  977   3.021   2.172  10.165 -0.0794 -0.1836  0.0835
   63TMC2    C4  978   2.789   2.118  10.015  0.4054  0.0867  0.3293
   63TMC2    C5  979   2.869   2.225   9.984 -0.2272 -0.3324 -0.2639
   63TMC2    C6  980   2.980   2.256  10.070  0.0767 -0.3455 -0.0147
   63TMC2     C  981   2.758   1.907  10.120 -0.6197 -0.3318  0.7417
   63TMC2     O  982   2.653   1.904  10.055 -0.4358 -1.0867 -0.3488
   63TMC2     H  983   2.992   1.992  10.266  1.4344  0.4667 -0.1300
   63TMC2    H1  984   2.706   2.096   9.949 -0.3053 -0.2562  1.3366
   63TMC2    H2  985   3.036   2.349  10.069 -0.4326 -0.0531 -0.9954
   63TMC2    C7  986   2.843   2.296   9.865  0.1258  0.4434  0.3454
   63TMC2    C8  987   3.148   2.194  10.246 -0.9662  0.3132 -0.2414
   63TMC2    O1  988   2.729   2.295   9.820 -0.6859  0.0659 -0.7922
   63TMC2    O2  989   3.202   2.108  10.311 -0.5473  0.5577  0.0346
   63TMC2    O5  990   3.173   2.323  10.268  0.2212 -0.0687 -0.5129
   63TMC2    H5  991   3.094   2.375  10.244 -1.5519 -1.5055  2.3504
   64MPD2     C  992   2.629   1.458  10.315 -0.4113 -0.5770 -0.2684
   64MPD2    C1  993   2.745   1.496  10.382  0.3859  0.2569  0.3027
   64MPD2    C2  994   2.803   1.609  10.341  0.2779  0.2953 -0.1611
   64MPD2    C3  995   2.745   1.684  10.238  1.0527 -0.2719 -0.3492
   64MPD2    C4  996   2.637   1.637  10.171 -0.5792  0.1874 -0.0217
   64MPD2    C5  997   2.577   1.528  10.205  0.4997  0.4050  0.1771
   64MPD2     H  998   2.887   1.655  10.392  0.0730  1.2847 -0.7161
   64MPD2    H1  999   2.614   1.681  10.075  3.4412 -0.1241 -1.1114
   64MPD2    H2 1000   2.575   1.367  10.339  0.7852 -0.8525  1.4360
   64MPD2    H3 1001   2.488   1.492  10.154  0.3283 -0.0993  0.8126
   64MPD2     N 1002   2.805   1.808  10.206  0.3156 -0.1499  0.2499
   64MPD2    H5 1003   2.886   1.837  10.260 -0.1927  1.1331  0.3236
   64MPD2    N1 1004   2.810   1.420  10.484 -0.3601  0.1474 -0.1976
   64MPD2    H7 1005   2.898   1.455  10.519 -2.0246  3.5355  0.5793
   65TMC2    C1 1006   0.232   1.273  16.069 -0.1111 -0.1599 -1.1631
   65TMC2    C2 1007   0.259   1.320  16.196 -0.3024  0.6436  0.0794
   65TMC2    C3 1008   0.248   1.453  16.216  0.1321 -0.1235  0.1720
   65TMC2    C4 1009   0.168   1.351  15.973 -0.4619  0.1707 -0.5777
   65TMC2    C5 1010   0.147   1.485  15.992  0.4789 -0.9262  0.3869
   65TMC2    C6 1011   0.186   1.540  16.122  0.3319  0.4185  0.5067
   65TMC2     C 1012   0.253   1.128  16.042 -0.3439 -0.1707 -0.2136
   65TMC2     O 1013   0.315   1.067  16.127  0.0882 -0.1837 -0.4747
   65TMC2     H 1014   0.285   1.241  16.265 -0.2816  1.2437  0.7618
   65TMC2    H1 1015   0.139   1.311  15.876  3.0617 -2.4911 -0.5106
   65TMC2    H2 1016   0.176   1.645  16.149 -1.6760  0.3370  0.0314
   65TMC2    C7 1017   0.040   1.537  15.913  0.2877  0.3798 -0.0964
   65TMC2    C8 1018   0.261   1.503  16.351 -0.0078  0.1936  0.2607
   65TMC2    O1 1019   0.029   1.489  15.802 -0.2263  0.3152 -0.3928
   65TMC2    O2 1020   0.186   1.589  16.406 -0.5259 -0.2493 -0.4968
   65TMC2    O5 1021   0.329   1.406  16.419 -0.1094  0.0801  0.3128
   65TMC2    H5 1022   0.396   1.367  16.360 -0.9157 -0.9355  0.0684
   66MPD2     C 1023   0.229   0.832  15.962 -0.6967  0.2367 -0.3647
   66MPD2    C1 1024   0.172   0.939  15.896 -0.3070 -0.2426 -0.3978
   66MPD2    C2 1025   0.090   0.914  15.794 -0.0168  0.2143  0.1556
   66MPD2    C3 1026   0.054   0.786  15.763 -0.5449  0.0456  0.2420
   66MPD2    C4 1027   0.110   0.677  15.825  0.4394  0.2312 -1.2613
   66MPD2    C5 1028   0.190   0.703  15.930  0.1777  0.4892 -0.0783
   66MPD2     H 1029   0.055   0.996  15.732 -0.6631  0.0222  0.2656
   66MPD2    H1 1030   0.079   0.575  15.807 -1.3722  0.8053 -1.4274
   66MPD2    H2 1031   0.307   0.849  16.035  1.8769 -1.0785 -2.8049
   66MPD2    H3 1032   0.247   0.622  15.974  1.0533  0.7894 -0.6496
   66MPD2     N 1033   4.703   0.755  15.652 -0.0990 -0.7353  0.2041
   66MPD2    H5 1034   4.689   0.656  15.634 -1.2140 -1.1355  3.3041
   66MPD2    N1 1035   0.188   1.079  15.931  0.6146  0.3160  0.3298
   66MPD2    H7 1036   0.131   1.143  15.878  1.1187 -0.5316 -1.2388
   67TMC2    C1 1037   4.508   0.230  14.633  0.0920 -0.5841  1.1636
   67TMC2    C2 1038   4.489   0.127  14.720 -0.0371  0.3449 -0.3377
   67TMC2    C3 1039   4.575   0.104  14.825 -0.0030 -0.2143  0.2094
   67TMC2    C4 1040   4.626   0.294  14.634 -0.0473 -0.5306 -0.4985
   67TMC2    C5 1041   4.711   0.271  14.739 -0.8146 -0.3973 -0.0178
   67TMC2    C6 1042   4.685   0.188  14.840 -0.6341  0.6791  0.4292
   67TMC2     C 1043   4.428   0.229  14.514 -0.4025  0.2503  0.1657
   67TMC2     O 1044   4.349   0.134  14.504  0.0500  0.1628  0.1015
   67TMC2     H 1045   4.404   0.060  14.712  0.1125  0.0706  0.3802
   67TMC2    H1 1046   4.651   0.367  14.558 -0.3735  1.3265  1.1866
   67TMC2    H2 1047   0.023   0.161  14.916  0.1478 -0.7915 -0.8331
   67TMC2    C7 1048   0.074   0.373  14.744 -0.4693 -0.4768 -0.6172
   67TMC2    C8 1049   4.547   4.735  14.919  0.1644 -0.0902 -0.1362
   67TMC2    O1 1050   0.118   0.410  14.637 -0.1420  0.0623 -0.5352
   67TMC2    O2 1051   4.456   4.648  14.909 -0.5306 -0.7557  0.0098
   67TMC2    O5 1052   4.577   0.062  15.041  0.1383 -0.1930 -0.2507
   67TMC2    H5 1053   4.637   0.139  15.043  0.0814 -0.1506 -0.1697
   68MPD2     C 1054   4.336   0.281  14.247  0.0079 -0.7567 -0.1109
   68MPD2    C1 1055   4.364   0.381  14.336  1.0000  0.6589 -0.2415
   68MPD2    C2 1056   4.326   0.509  14.299  0.2893 -0.3927  0.2426
   68MPD2    C3 1057   4.257   0.542  14.178 -0.2850 -1.1465 -0.5715
   68MPD2    C4 1058   4.243   0.434  14.094 -0.3189  0.3513 -0.4309
   68MPD2    C5 1059   4.280   0.312  14.132  0.2678 -0.0205  0.2344
   68MPD2     H 1060   4.364   0.588  14.363 -1.7050 -1.0261  2.1916
   68MPD2    H1 1061   4.194   0.444  13.997  2.1374 -0.0067 -1.7225
   68MPD2    H2 1062   4.359   0.179  14.275  0.3184 -0.3194  1.2756
   68MPD2    H3 1063   4.259   0.232  14.062 -0.1975  0.8857 -0.6719
   68MPD2     N 1064   4.212   0.674  14.142  0.5692 -0.0619  0.0781
   68MPD2    H5 1065   4.152   0.672  14.059  0.9706  1.4612 -0.2359
   68MPD2    N1 1066   4.421   0.351  14.463 -0.2799 -0.0661  0.1069
   68MPD2    H7 1067   4.455   0.431  14.515 -0.1177  0.2916 -0.5506
   69TMC2    C1 1068   1.965   2.321  12.162 -0.2719 -0.6859 -0.5626
   69TMC2    C2 1069   1.831   2.326  12.133 -0.0001 -1.0518 -0.1698
   69TMC2    C3 1070   1.789   2.320  11.998  0.5235  0.0010 -0.3359
   69TMC2    C4 1071   2.053   2.301  12.059  0.7037 -0.1709  0.6380
   69TMC2    C5 1072   2.009   2.290  11.922  0.3314 -0.0574  0.0982
   69TMC2    C6 1073   1.874   2.305  11.897  0.3591 -0.5009  0.0493
   69TMC2     C 1074   2.001   2.297  12.297  0.3492 -0.2033  0.6135
   69TMC2     O 1075   1.910   2.291  12.378  0.5061 -0.0200  0.0853
   69TMC2     H 1076   1.754   2.325  12.210 -1.9884  1.4334 -2.1103
   69TMC2    H1 1077   2.156   2.277  12.082  1.2360  2.4475  1.0075
   69TMC2    H2 1078   1.827   2.290  11.801  1.3846  1.6013 -0.7686
   69TMC2    C7 1079   2.097   2.257  11.821  0.7834 -0.3451 -1.5082
   69TMC2    C8 1080   1.650   2.353  11.974  0.0297 -0.4781 -0.0380
   69TMC2    O1 1081   2.204   2.206  11.849  0.4950  0.3213  0.6728
   69TMC2    O2 1082   1.564   2.335  12.061 -0.0225  0.6428 -0.3661
   69TMC2    O5 1083   1.664   2.460  11.895 -0.1900 -0.5350  0.6619
   69TMC2    H5 1084   1.743   2.466  11.837 -0.3003 -3.1671  0.2031
   70MPD2     C 1085   2.334   2.275  12.446 -0.1433 -0.1299 -0.1434
   70MPD2    C1 1086   2.202   2.248  12.440  0.3178  0.6174 -0.2950
   70MPD2    C2 1087   2.132   2.177  12.539 -0.7401 -0.3005 -0.4266
   70MPD2    C3 1088   2.205   2.136  12.650  0.9758  0.2788 -0.3064
   70MPD2    C4 1089   2.343   2.155  12.655  0.1898 -0.3184  0.1684
   70MPD2    C5 1090   2.405   2.227  12.551 -0.0523 -0.2400  0.3074
   70MPD2     H 1091   2.029   2.148  12.523 -2.1991  2.6578  3.6191
   70MPD2    H1 1092   2.399   2.119  12.740  2.2984  0.8080 -0.7309
   70MPD2    H2 1093   2.384   2.343  12.377  1.0531  0.3766  1.2368
   70MPD2    H3 1094   2.511   2.249  12.556  0.0700 -1.2928  2.4587
   70MPD2     N 1095   2.141   2.078  12.762 -0.6732  0.3150  0.3259
   70MPD2    H5 1096   2.200   2.029  12.829  0.9794  2.6518  0.5628
   70MPD2    N1 1097   2.136   2.301  12.321 -0.2363  0.2536 -0.2813
   70MPD2    H7 1098   2.194   2.334  12.244  1.7740  1.1064  1.6307
   71TMC2    C1 1099   0.436   2.683   1.558 -0.0823 -0.8283 -0.4628
   71TMC2    C2 1100   0.553   2.649   1.615 -0.4651 -0.0400  0.3233
   71TMC2    C3 1101   0.562   2.533   1.683 -0.1425 -0.2258 -0.1261
   71TMC2    C4 1102   0.325   2.600   1.566 -0.5137 -0.2309  0.0236
   71TMC2    C5 1103   0.339   2.483   1.639  0.1719  0.2835 -0.1061
   71TMC2    C6 1104   0.458   2.444   1.694 -0.4833 -0.3251  0.0509
   71TMC2     C 1105   0.420   2.808   1.469  0.7408 -0.1129 -0.0677
   71TMC2     O 1106   0.312   2.822   1.413 -0.1026  0.0915 -0.1069
   71TMC2     H 1107   0.642   2.703   1.587 -2.0104  1.0511 -2.4506
   71TMC2    H1 1108   0.236   2.624   1.508  0.4128  1.3386 -0.7483
   71TMC2    H2 1109   0.466   2.347   1.742 -0.1378  0.7280  2.1210
   71TMC2    C7 1110   0.242   2.377   1.635 -0.3475 -0.2360 -0.4628
   71TMC2    C8 1111   0.699   2.489   1.715 -0.1543  0.0726 -0.5482
   71TMC2    O1 1112   0.276   2.266   1.663 -0.1104  0.1855 -0.0866
   71TMC2    O2 1113   0.797   2.523   1.645  0.3378 -0.4028 -0.5398
   71TMC2    O5 1114   0.695   2.371   1.778 -0.2114  0.4546 -0.1448
   71TMC2    H5 1115   0.629   2.365   1.850 -2.3766  2.9425 -1.8794
   72MPD2     C 1116   0.641   3.166   1.181 -1.0205  0.3181  0.3154
   72MPD2    C1 1117   0.509   3.149   1.201 -0.3861  0.2810 -0.0473
   72MPD2    C2 1118   0.470   3.051   1.297  0.3510  0.2585 -0.7784
   72MPD2    C3 1119   0.565   2.982   1.369  0.0895 -0.0206  0.2848
   72MPD2    C4 1120   0.692   3.012   1.349  0.4275  0.1223  0.3707
   72MPD2    C5 1121   0.730   3.103   1.253 -0.2995 -0.4012 -0.4135
   72MPD2     H 1122   0.365   3.026   1.307  0.6302  0.5069  2.9078
   72MPD2    H1 1123   0.762   2.958   1.412 -0.2161 -0.2027  0.8088
   72MPD2    H2 1124   0.683   3.235   1.108  2.7553 -1.2917  0.9472
   72MPD2    H3 1125   0.834   3.115   1.225 -0.4750  2.0077 -0.0143
   72MPD2     N 1126   0.542   2.876   1.461  0.1081 -0.0831  0.1591
   72MPD2    H5 1127   0.621   2.863   1.524  2.5893 -1.5750 -3.2898
   72MPD2    N1 1128   0.411   3.221   1.129 -0.3333  0.1680  0.0193
   72MPD2    H7 1129   0.315   3.195   1.149 -0.2362  0.1230  0.4189
   73TMC2    C1 1130   3.501   4.426  14.104  0.2440 -0.2665 -0.3149
   73TMC2    C2 1131   3.459   4.491  14.219 -0.0510  0.2201 -0.0063
   73TMC2    C3 1132   3.516   4.457  14.341 -0.6262 -0.0377 -0.5988
   73TMC2    C4 1133   3.579   4.314  14.117 -0.5566 -0.0102 -0.4425
   73TMC2    C5 1134   3.625   4.275  14.239 -0.2714 -0.9518  0.4771
   73TMC2    C6 1135   3.598   4.349  14.348  0.7280  0.7507  0.0065
   73TMC2     C 1136   3.550   4.514  14.002 -0.3433  1.1095  1.2894
   73TMC2     O 1137   3.655   4.477  13.948 -0.4033 -0.1517 -0.3421
   73TMC2     H 1138   3.392   4.575  14.199  0.1736  0.0621 -1.4452
   73TMC2    H1 1139   3.605   4.266  14.023 -2.7559 -1.6734 -0.2088
   73TMC2    H2 1140   3.638   4.315  14.443 -1.3882  0.7639  0.8990
   73TMC2    C7 1141   3.761   4.232  14.240 -0.1651 -0.5751 -0.1329
   73TMC2    C8 1142   3.455   4.494  14.463  0.1832 -0.0003  0.0500
   73TMC2    O1 1143   3.809   4.156  14.324  0.1273  0.1892 -0.1228
   73TMC2    O2 1144   3.438   4.404  14.542 -0.1737  0.3148  0.3029
   73TMC2    O5 1145   3.383   4.611  14.453  0.4815  0.1641 -0.5145
   73TMC2    H5 1146   3.434   4.669  14.392 -1.2699  3.0748  0.7527
   74MPD2     C 1147   3.616   0.213  13.714 -0.2946 -0.2405 -0.6203
   74MPD2    C1 1148   3.705   0.112  13.743  0.0732 -0.1956  0.9997
   74MPD2    C2 1149   3.661   0.012  13.837 -0.0807 -0.4327  0.1242
   74MPD2    C3 1150   3.530   4.735  13.883 -0.5064 -0.8241 -0.8547
   74MPD2    C4 1151   3.442   0.099  13.835  0.0170 -0.3560 -0.1487
   74MPD2    C5 1152   3.490   0.203  13.759  0.0213 -0.3086  0.4331
   74MPD2     H 1153   3.733   4.672  13.867  0.1124  0.0401  0.8304
   74MPD2    H1 1154   3.340   0.099  13.872  0.3946  1.8206  0.8646
   74MPD2    H2 1155   3.641   0.298  13.651 -0.0734  0.9645  1.0891
   74MPD2    H3 1156   3.417   0.276  13.725  0.2855  0.3451  1.2864
   74MPD2     N 1157   3.481   4.630  13.971  0.6401 -0.0924  0.1279
   74MPD2    H5 1158   3.389   4.641  14.014  0.8694 -0.4786  0.7118
   74MPD2    N1 1159   3.839   0.121  13.689  0.4541  0.4772 -0.5127
   74MPD2    H7 1160   3.861   0.199  13.627 -1.8701  1.1593 -0.4883
   75TMC2    C1 1161   4.118   0.886  14.163 -0.5380  0.1240  0.1492
   75TMC2    C2 1162   4.028   0.936  14.249  0.1561  0.1677 -0.1772
   75TMC2    C3 1163   3.927   1.014  14.204 -0.1084 -0.8470  0.4277
   75TMC2    C4 1164   4.100   0.895  14.025 -0.1332  0.3412  0.3747
   75TMC2    C5 1165   4.002   0.982  13.988  0.3991 -0.4107 -0.1901
   75TMC2    C6 1166   3.910   1.039  14.070  0.3868  0.2043  0.4321
   75TMC2     C 1167   4.212   0.785  14.222 -0.0968 -0.3528  0.4596
   75TMC2     O 1168   4.247   0.791  14.339  0.4764  0.2644 -0.2208
   75TMC2     H 1169   4.050   0.934  14.355 -0.6834 -2.8520 -0.0616
   75TMC2    H1 1170   4.172   0.850  13.957 -0.3531 -0.1844  0.4902
   75TMC2    H2 1171   3.827   1.083  14.016  1.5763  0.7503 -0.9300
   75TMC2    C7 1172   3.988   0.977  13.842  0.4225  0.1948 -0.5243
   75TMC2    C8 1173   3.811   1.042  14.290  0.6541  0.5469  0.7472
   75TMC2    O1 1174   4.021   0.873  13.789  0.4040  0.5908 -0.0186
   75TMC2    O2 1175   3.757   1.153  14.287 -0.1035 -0.4995 -0.4274
   75TMC2    O5 1176   3.780   0.936  14.366 -0.1315 -0.3607 -0.2787
   75TMC2    H5 1177   3.826   0.856  14.333  0.2406  0.0153 -0.6660
   76TMC2    C1 1178   3.066   1.549  11.966  0.7879  0.1900  0.0543
   76TMC2    C2 1179   2.992   1.579  12.073  0.2873 -0.4030 -0.2296
   76TMC2    C3 1180   3.071   1.630  12.179  0.0232  0.3178 -0.3479
   76TMC2    C4 1181   3.205   1.545  11.961  0.2637  1.1219  0.0233
   76TMC2    C5 1182   3.274   1.581  12.069 -0.8297  0.5818  0.4172
   76TMC2    C6 1183   3.212   1.619  12.185  0.0500  0.1198 -0.2652
   76TMC2     C 1184   2.990   1.562  11.842  0.0047 -0.2444 -0.0711
   76TMC2     O 1185   2.891   1.639  11.845 -0.2845 -0.3536  0.3430
   76TMC2     H 1186   2.885   1.581  12.059  0.1073 -0.3473  1.1705
   76TMC2    H1 1187   3.256   1.515  11.870  0.4995 -1.1314  0.9033
   76TMC2    H2 1188   3.265   1.675  12.261 -0.6224  0.2706  0.0905
   76TMC2    C7 1189   3.410   1.612  12.048 -0.0707 -0.1907 -0.2256
   76TMC2    C8 1190   3.014   1.736  12.256 -0.1432  0.1734 -0.1516
   76TMC2    O1 1191   3.447   1.626  11.933  0.1493 -0.4020 -0.4884
   76TMC2    O2 1192   3.080   1.833  12.283  0.4258 -0.0994  0.2460
   76TMC2    O5 1193   2.884   1.708  12.270  0.5303 -0.3998  0.2745
   76TMC2    H5 1194   2.877   1.611  12.263 -0.3562 -0.6673  4.7671
   77MPD2     C 1195   2.826   1.398  11.393  0.2962  0.0906  0.4184
   77MPD2    C1 1196   2.809   1.520  11.454 -0.5252 -0.0517 -0.4636
   77MPD2    C2 1197   2.886   1.547  11.566 -0.8490 -0.0094 -0.2998
   77MPD2    C3 1198   2.970   1.455  11.622 -0.4287 -0.5045 -0.2458
   77MPD2    C4 1199   2.996   1.339  11.544  0.3662  0.1483 -0.3530
   77MPD2    C5 1200   2.931   1.319  11.430  0.0875  0.4576 -0.1853
   77MPD2     H 1201   2.868   1.642  11.615 -0.6537 -1.2662  2.1879
   77MPD2    H1 1202   3.058   1.257  11.580 -0.1623 -0.4576 -0.8466
   77MPD2    H2 1203   2.780   1.376  11.297  0.7836  1.8122 -0.2129
   77MPD2    H3 1204   2.945   1.232  11.367  0.2155  0.6622 -0.4411
   77MPD2     N 1205   3.031   1.474  11.743 -0.7829  0.2284  0.0436
   77MPD2    H5 1206   3.096   1.401  11.771 -0.8276 -1.7110 -4.8142
   77MPD2    N1 1207   2.716   1.619  11.409  0.0033 -0.1273  0.4467
   77MPD2    H7 1208   2.698   1.695  11.474 -2.9666 -0.5678  0.1072
   78TMC2    C1 1209   0.786   2.122   1.620 -0.2602  0.3220 -0.4034
   78TMC2    C2 1210   0.713   2.060   1.712  0.1724  0.6330  0.3980
   78TMC2    C3 1211   0.580   2.063   1.692  0.8625 -0.0314 -0.3580
   78TMC2    C4 1212   0.739   2.162   1.498 -0.1953 -0.1759 -0.3054
   78TMC2    C5 1213   0.604   2.143   1.476 -0.6799 -0.0215 -0.1638
   78TMC2    C6 1214   0.519   2.092   1.574  0.6376 -0.3492  0.1910
   78TMC2     C 1215   0.926   2.131   1.648  0.1065 -0.5514 -0.4940
   78TMC2     O 1216   0.979   2.034   1.702 -0.0870  0.0449  0.1236
   78TMC2     H 1217   0.749   2.021   1.807 -1.5043  1.0994  1.2344
   78TMC2    H1 1218   0.804   2.183   1.414  1.6685 -1.0668  0.9314
   78TMC2    H2 1219   0.414   2.095   1.549  0.4525 -0.4092  0.9520
   78TMC2    C7 1220   0.548   2.250   1.390  0.8095 -0.2009 -0.2870
   78TMC2    C8 1221   0.506   1.996   1.797 -0.1938  0.2635 -0.6131
   78TMC2    O1 1222   0.625   2.336   1.356  0.6553 -0.4520 -0.9010
   78TMC2    O2 1223   0.557   1.923   1.884  0.4659  0.0801  0.2669
   78TMC2    O5 1224   0.376   2.014   1.768  0.7984  0.4738 -0.0280
   78TMC2    H5 1225   0.347   2.078   1.699 -2.7723 -1.4713 -0.3147
   79MPD1     C 1226   1.364   2.396   1.681  0.0368  0.0262  0.4189
   79MPD1    C1 1227   1.332   2.265   1.724 -0.3035 -0.0695  0.3229
   79MPD1    C2 1228   1.199   2.221   1.710 -0.3358 -0.8307  0.5080
   79MPD1    C3 1229   1.107   2.298   1.641  0.0824  0.4075  0.4017
   79MPD1    C4 1230   1.147   2.414   1.582 -0.3010 -0.0186  0.1288
   79MPD1    C5 1231   1.271   2.467   1.612 -0.3444 -0.4486  0.1187
   79MPD1     H 1232   1.178   2.128   1.761 -1.6898 -1.2657 -0.8739
   79MPD1    H1 1233   1.085   2.468   1.512 -1.1086  0.9961  1.6236
   79MPD1    H2 1234   1.463   2.435   1.702 -0.2227  1.9296 -1.8469
   79MPD1    H3 1235   1.308   2.554   1.558 -2.1124  1.9329  2.7445
   79MPD1     N 1236   0.976   2.256   1.613  0.9476  0.8875  0.1842
   79MPD1    H5 1237   0.923   2.330   1.569  1.0631  0.5054 -0.6176
   79MPD1    N1 1238   1.416   2.188   1.810  0.4603 -0.7764  0.2696
   79MPD1    H6 1239   1.512   2.183   1.776  0.9227 -1.0619  1.6153
   79MPD1    H7 1240   1.392   2.090   1.812  0.2716 -0.7355 -0.0738
   80TMC2    C1 1241   1.450   1.069  11.628 -0.6256  0.2800 -0.1219
   80TMC2    C2 1242   1.363   1.165  11.580  0.3975 -0.4161 -0.4480
   80TMC2    C3 1243   1.234   1.147  11.607 -0.0035 -0.3873 -0.1005
   80TMC2    C4 1244   1.414   0.961  11.704 -0.3809 -0.3055  0.1938
   80TMC2    C5 1245   1.280   0.949  11.730 -0.1828 -1.0235 -0.0021
   80TMC2    C6 1246   1.191   1.037  11.675 -0.0128  0.3759  0.3104
   80TMC2     C 1247   1.584   1.105  11.632 -0.3006  0.4994  0.4954
   80TMC2     O 1248   1.662   1.009  11.635 -0.4236 -0.1606 -0.0896
   80TMC2     H 1249   1.397   1.255  11.530 -0.8549 -1.3075 -2.9004
   80TMC2    H1 1250   1.482   0.881  11.730  0.8111  0.8525  0.6025
   80TMC2    H2 1251   1.088   1.008  11.693  0.0412  0.0140  0.0486
   80TMC2    C7 1252   1.227   0.849  11.821  0.1988  0.9854 -0.7656
   80TMC2    C8 1253   1.144   1.250  11.557  0.1175  0.0645 -0.6814
   80TMC2    O1 1254   1.111   0.803  11.807  0.1583 -0.1263 -0.7492
   80TMC2    O2 1255   1.182   1.362  11.530 -0.0125  0.1360 -0.4599
   80TMC2    O5 1256   1.033   1.188  11.513 -0.2779 -0.3059 -0.4973
   80TMC2    H5 1257   1.034   1.091  11.525 -1.0590 -0.0875  1.2535
   81MPD2     C 1258   1.845   1.250  11.689 -0.5416 -0.5249 -0.3531
   81MPD2    C1 1259   1.725   1.287  11.731  0.4117  0.0002 -0.1919
   81MPD2    C2 1260   1.709   1.387  11.829  0.0156 -0.2497 -0.2182
   81MPD2    C3 1261   1.821   1.444  11.885  0.3496  0.5240  0.5029
   81MPD2    C4 1262   1.944   1.386  11.855 -0.1959 -0.3690  0.1483
   81MPD2    C5 1263   1.959   1.301  11.751  0.0046 -0.5298 -0.0496
   81MPD2     H 1264   1.610   1.411  11.867 -0.0033  0.6013 -0.8135
   81MPD2    H1 1265   2.032   1.421  11.907 -0.0076 -0.5129 -0.0762
   81MPD2    H2 1266   1.849   1.167  11.619  0.3592 -0.2504 -0.6268
   81MPD2    H3 1267   2.051   1.253  11.720  0.0046 -0.7054  0.2272
   81MPD2     N 1268   1.819   1.538  11.992 -0.2664  0.3525 -0.6768
   81MPD2    H5 1269   1.899   1.538  12.054  0.3717  0.6708 -1.5157
   81MPD2    N1 1270   1.607   1.225  11.690  0.3924 -0.2652 -0.0441
   81MPD2    H7 1271   1.520   1.269  11.718  1.8843  2.4890  0.3355
   82TMC2    C1 1272   0.098   4.700  10.922  0.0246  0.8842 -0.5181
   82TMC2    C2 1273   0.231   4.717  10.973  0.5711 -0.5929  0.3301
   82TMC2    C3 1274   0.276   4.613  11.050 -0.7834  0.8026  0.0868
   82TMC2    C4 1275   0.023   4.589  10.938  0.0862  0.9623  0.1254
   82TMC2    C5 1276   0.083   4.488  11.020  0.5778  1.0430  0.1682
   82TMC2    C6 1277   0.208   4.499  11.074 -0.5653 -0.2524 -0.3420
   82TMC2     C 1278   0.020   0.078  10.873  0.1550  0.6771 -0.0577
   82TMC2     O 1279   4.652   0.056  10.810 -0.5504  0.1959  0.0433
   82TMC2     H 1280   0.292   0.072  10.965  3.0102 -2.0927  1.8916
   82TMC2    H1 1281   4.655   4.590  10.907  0.0550 -0.3016  0.1859
   82TMC2    H2 1282   0.249   4.415  11.128 -0.4427 -0.9031 -1.4475
   82TMC2    C7 1283   4.729   4.396  11.097  0.0976 -1.3010  0.2718
   82TMC2    C8 1284   0.407   4.633  11.110 -0.0799  0.1303 -0.2321
   82TMC2    O1 1285   0.041   4.348  11.205 -0.3418  0.0802 -0.0088
   82TMC2    O2 1286   0.492   4.717  11.084  0.3597 -0.6454 -0.1870
   82TMC2    O5 1287   0.393   4.593  11.240  0.4249 -0.7124 -0.3997
   82TMC2    H5 1288   0.304   4.559  11.261  0.3120 -1.9465 -2.8807
   83MPD2     C 1289   4.671   0.589  10.946  0.5080  0.3605  0.9018
   83MPD2    C1 1290   4.578   0.498  10.900 -0.5302 -0.1173  0.0570
   83MPD2    C2 1291   4.618   0.361  10.886  0.6768 -0.4941 -0.0007
   83MPD2    C3 1292   0.016   0.323  10.919 -0.8222  0.1104  0.7395
   83MPD2    C4 1293   0.101   0.418  10.976  0.0354 -0.2196  0.7594
   83MPD2    C5 1294   0.059   0.546  10.982  0.0199 -0.1509  0.6039
   83MPD2     H 1295   4.549   0.286  10.846 -0.1459  0.7104 -0.8329
   83MPD2    H1 1296   0.199   0.384  11.008 -0.3324 -1.4487  0.5785
   83MPD2    H2 1297   4.654   0.694  10.966 -1.2197  0.1109  0.7209
   83MPD2    H3 1298   0.123   0.621  11.028  1.4062 -1.5617  0.9747
   83MPD2     N 1299   0.070   0.193  10.926 -0.0020  0.5298  0.0196
   83MPD2    H5 1300   0.157   0.183  10.979  0.2100  0.5969 -0.3189
   83MPD2    N1 1301   4.445   0.543  10.884 -0.1052  0.0734 -0.2850
   83MPD2    H7 1302   4.429   0.643  10.884 -0.2356  0.0475  1.0790
   84TMC2    C1 1303   0.791   3.854  11.250  0.1355  0.3943 -0.0653
   84TMC2    C2 1304   0.850   3.788  11.349  0.5600  0.3444  0.6526
   84TMC2    C3 1305   0.841   3.647  11.345 -0.2392 -0.2827  0.0354
   84TMC2    C4 1306   0.742   3.785  11.139 -0.3263  0.0132  0.9588
   84TMC2    C5 1307   0.752   3.654  11.131  0.4655  0.0072  0.0207
   84TMC2    C6 1308   0.807   3.578  11.234 -0.7733  0.3716  0.2162
   84TMC2     C 1309   0.806   3.997  11.251  0.0538  0.8236  0.9981
   84TMC2     O 1310   0.828   4.051  11.358 -0.5789 -0.4965  0.2299
   84TMC2     H 1311   0.914   3.844  11.416  0.5960 -0.4307  1.2729
   84TMC2    H1 1312   0.683   3.838  11.065  0.2009 -0.8893 -0.0971
   84TMC2    H2 1313   0.814   3.469  11.231 -0.5251  0.4236 -1.2543
   84TMC2    C7 1314   0.726   3.578  11.012 -0.1257 -0.5336  1.0337
   84TMC2    C8 1315   0.908   3.574  11.439 -0.1965  0.8085 -0.4685
   84TMC2    O1 1316   0.741   3.460  11.013  0.2295 -0.5097 -0.0299
   84TMC2    O2 1317   0.967   3.472  11.407 -0.3746 -0.2413  0.4694
   84TMC2    O5 1318   0.928   3.639  11.560  0.3750 -0.1128 -0.0792
   84TMC2    H5 1319   0.863   3.713  11.567 -1.0756 -1.3947 -0.0460
   85TMC2    C1 1320   2.312   2.437  15.925  0.0868  0.6582 -0.3511
   85TMC2    C2 1321   2.192   2.502  15.930  0.2848  0.2634  0.7767
   85TMC2    C3 1322   2.185   2.623  15.864  0.0546 -0.0886 -0.0469
   85TMC2    C4 1323   2.412   2.491  15.850  0.2040  0.5331  0.4380
   85TMC2    C5 1324   2.399   2.607  15.781  0.7767 -0.6462 -0.5106
   85TMC2    C6 1325   2.279   2.664  15.777  0.7120  0.1215  0.0323
   85TMC2     C 1326   2.339   2.317  16.006 -0.8243  0.3711 -0.1982
   85TMC2     O 1327   2.454   2.280  16.011  0.2003  0.2845  0.1733
   85TMC2     H 1328   2.116   2.479  16.004 -0.0077 -0.3446  0.2870
   85TMC2    H1 1329   2.505   2.436  15.847 -0.1191 -0.0335  0.7075
   85TMC2    H2 1330   2.259   2.763  15.738 -1.9070  0.8167  3.1741
   85TMC2    C7 1331   2.497   2.625  15.680  0.6299 -0.4699  0.7677
   85TMC2    C8 1332   2.085   2.725  15.906  0.0361  0.1748 -0.1213
   85TMC2    O1 1333   2.599   2.555  15.681 -0.4081  0.1701  0.1313
   85TMC2    O2 1334   2.056   2.824  15.844  0.0957  0.5730  0.4599
   85TMC2    O5 1335   2.102   2.725  16.038  0.0996  0.3108 -0.2906
   85TMC2    H5 1336   2.141   2.643  16.076  1.0910  0.8805 -0.0695
   86MPD2     C 1337   2.155   1.941  16.293 -0.6634 -0.3655  0.6743
   86MPD2    C1 1338   2.054   1.977  16.202  0.6463  0.9708 -0.4985
   86MPD2    C2 1339   2.079   2.084  16.113  0.4523  0.4762 -0.0069
   86MPD2    C3 1340   2.205   2.142  16.124 -0.1245  0.5652  0.2724
   86MPD2    C4 1341   2.305   2.095  16.208 -0.4475 -0.4910 -0.5872
   86MPD2    C5 1342   2.283   1.995  16.294 -0.1145  0.0613  0.3324
   86MPD2     H 1343   2.009   2.114  16.036 -0.9348 -0.0956  1.0263
   86MPD2    H1 1344   2.404   2.138  16.218 -1.1085  0.9670 -0.3003
   86MPD2    H2 1345   2.127   1.868  16.367 -1.7093  2.6170  3.2308
   86MPD2    H3 1346   2.362   1.969  16.364 -0.5210  1.0866  1.1715
   86MPD2     N 1347   2.223   2.255  16.041 -0.4226  0.0640 -0.8485
   86MPD2    H5 1348   2.137   2.297  16.010  0.1184  2.7991  1.2924
   86MPD2    N1 1349   1.935   1.904  16.186 -0.4574 -0.5631  0.3728
   86MPD2    H7 1350   1.883   1.912  16.098 -0.7293  2.3617  0.7940
   87TMC2    C1 1351   4.665   1.249   0.483  0.1388  0.1159 -0.1043
   87TMC2    C2 1352   0.017   1.357   0.473  0.1719  0.2984 -0.0530
   87TMC2    C3 1353   4.729   1.465   0.555  0.1462  0.2038 -0.1795
   87TMC2    C4 1354   4.551   1.252   0.564  1.2435 -0.8950  0.0741
   87TMC2    C5 1355   4.546   1.363   0.643  0.0323  0.3474 -0.0279
   87TMC2    C6 1356   4.622   1.476   0.637  0.3978  0.4828 -0.2490
   87TMC2     C 1357   4.716   1.116   0.441  0.5883  0.0690 -0.1986
   87TMC2     O 1358   4.693   1.016   0.505 -0.5715 -0.2951 -0.1046
   87TMC2     H 1359   0.107   1.367   0.413  1.3029 -1.4603  1.3699
   87TMC2    H1 1360   4.475   1.176   0.573  0.4143 -0.0930 -0.1945
   87TMC2    H2 1361   4.623   1.559   0.706  0.5860 -0.3926  0.7968
   87TMC2    C7 1362   4.434   1.389   0.734 -0.0048 -0.3526 -0.0178
   87TMC2    C8 1363   0.070   1.578   0.513  0.3076  0.6600 -0.7984
   87TMC2    O1 1364   4.411   1.508   0.756 -0.6312  0.0907 -0.3708
   87TMC2    O2 1365   0.163   1.569   0.436 -0.2460  0.2527 -0.4912
   87TMC2    O5 1366   4.725   1.684   0.533  0.2543 -0.3241 -0.6606
   87TMC2    H5 1367   4.645   1.680   0.589  0.3445  0.3112 -0.4826
   88MPD2     C 1368   4.228   1.111   0.847  0.2823  0.1339  1.0082
   88MPD2    C1 1369   4.259   1.247   0.835 -0.8988 -0.1651 -0.6480
   88MPD2    C2 1370   4.162   1.348   0.862  0.1018 -0.1017  0.0378
   88MPD2    C3 1371   4.030   1.303   0.871  0.2639 -0.3345 -0.1852
   88MPD2    C4 1372   3.998   1.170   0.883  0.1729  0.8876  0.4967
   88MPD2    C5 1373   4.098   1.075   0.880 -1.0996  0.1817  0.1906
   88MPD2     H 1374   4.183   1.454   0.859 -2.1418  0.3083 -0.3695
   88MPD2    H1 1375   3.899   1.138   0.911  0.2929  0.9166  0.9520
   88MPD2    H2 1376   4.308   1.038   0.845 -0.1629 -0.2198 -5.2177
   88MPD2    H3 1377   4.067   0.977   0.915  1.4772 -0.6785 -0.0005
   88MPD2     N 1378   3.919   1.395   0.885  0.2415 -0.1962 -0.3664
   88MPD2    H5 1379   3.830   1.347   0.894 -0.7909  2.0185  1.2337
   88MPD2    N1 1380   4.385   1.271   0.781  0.4537  0.6137 -0.3004
   88MPD2    H7 1381   4.448   1.192   0.770 -0.4714 -0.2612  0.6205
   89TMC2    C1 1382   1.148   3.429   1.899  0.0174 -0.0277 -0.4169
   89TMC2    C2 1383   1.163   3.486   2.020 -0.2647 -0.4320 -0.2550
   89TMC2    C3 1384   1.130   3.621   2.031 -0.4368  0.2916  0.5727
   89TMC2    C4 1385   1.099   3.500   1.790  0.7749  0.0287 -0.1271
   89TMC2    C5 1386   1.081   3.638   1.811  0.8850  0.2466  0.0298
   89TMC2    C6 1387   1.100   3.699   1.928  0.4343  0.2221 -0.9813
   89TMC2     C 1388   1.144   3.287   1.878  0.1703 -0.4311 -0.9812
   89TMC2     O 1389   1.182   3.236   1.780  0.0434 -0.5547 -0.1901
   89TMC2     H 1390   1.201   3.433   2.107  1.8836  0.2451 -0.7761
   89TMC2    H1 1391   1.070   3.446   1.701  1.5829  1.6126 -1.3516
   89TMC2    H2 1392   1.093   3.807   1.930  0.3789  0.1944  0.1734
   89TMC2    C7 1393   1.046   3.729   1.702 -0.2653 -0.7399  0.2886
   89TMC2    C8 1394   1.177   3.692   2.149 -0.5605  0.4306  0.2021
   89TMC2    O1 1395   0.995   3.838   1.723 -0.0240  0.0964 -0.2268
   89TMC2    O2 1396   1.261   3.645   2.225 -0.0698  0.5645  0.3646
   89TMC2    O5 1397   1.117   3.815   2.147  0.7553  0.2869  0.0249
   89TMC2    H5 1398   1.025   3.820   2.113  1.4204 -2.0803 -2.1797
   90MPD2     C 1399   0.941   2.827   1.968 -0.6121  0.2593  0.4194
   90MPD2    C1 1400   0.850   2.920   2.012 -0.0859 -0.1064  0.0676
   90MPD2    C2 1401   0.893   3.052   2.012 -0.5284 -0.2040  0.1246
   90MPD2    C3 1402   1.018   3.093   1.967  0.1066 -0.4154  0.1755
   90MPD2    C4 1403   1.105   2.995   1.914 -0.8695  0.2535  0.3365
   90MPD2    C5 1404   1.060   2.866   1.918  0.1631  0.4231  0.2563
   90MPD2     H 1405   0.820   3.132   2.021 -1.1684 -1.0561  2.4006
   90MPD2    H1 1406   1.202   3.022   1.874 -0.9734  1.8815  1.1955
   90MPD2    H2 1407   0.920   2.721   1.957 -1.9639  0.5720 -0.0740
   90MPD2    H3 1408   1.118   2.791   1.866  2.2655  1.3512  1.2530
   90MPD2     N 1409   1.053   3.234   1.967 -0.6064  0.5718 -0.4145
   90MPD2    H5 1410   0.995   3.306   2.009 -0.6105 -0.0114  0.5820
   90MPD2    N1 1411   0.717   2.894   2.049 -0.0624 -0.1413  0.1613
   90MPD2    H7 1412   0.662   2.970   2.086 -0.9170 -0.8971  0.4503
   91TMC2    C1 1413   2.150   2.930  16.338  0.0489 -0.0686  0.2292
   91TMC2    C2 1414   2.180   3.028  16.246 -0.4847  0.4599  0.0510
   91TMC2    C3 1415   2.095   3.069  16.155  0.4797 -0.4361  0.0353
   91TMC2    C4 1416   2.028   2.866  16.332  0.7063 -0.5446 -0.4871
   91TMC2    C5 1417   1.943   2.912  16.235 -0.4319 -0.2378  0.9602
   91TMC2    C6 1418   1.971   3.014  16.149  0.6979 -1.3859 -0.6415
   91TMC2     C 1419   2.265   2.854  16.385  0.2059 -0.7261 -0.0570
   91TMC2     O 1420   2.240   2.738  16.413 -0.3985  0.1337  0.0491
   91TMC2     H 1421   2.274   3.081  16.249  0.0090 -0.4845  1.4430
   91TMC2    H1 1422   1.998   2.781  16.392  0.0826  0.0095 -0.0036
   91TMC2    H2 1423   1.909   3.050  16.068 -0.1669 -3.6654 -1.0124
   91TMC2    C7 1424   1.810   2.852  16.243  0.6425  0.2115 -0.7745
   91TMC2    C8 1425   2.100   3.200  16.096 -0.2859  0.7022 -0.1719
   91TMC2    O1 1426   1.801   2.750  16.308 -0.5115  0.1377 -0.0190
   91TMC2    O2 1427   2.000   3.272  16.107  0.1411  0.0074 -0.8735
   91TMC2    O5 1428   2.231   3.242  16.095 -0.5891 -0.4979 -0.0534
   91TMC2    H5 1429   2.290   3.164  16.083 -0.8276 -0.6544 -0.2254
   92MPD2     C 1430   2.524   2.748  16.487  0.7462 -0.0220  0.3713
   92MPD2    C1 1431   2.510   2.870  16.431 -0.0219 -0.4042  0.3976
   92MPD2    C2 1432   2.617   2.951  16.423  0.4199 -0.1629  0.8460
   92MPD2    C3 1433   2.742   2.911  16.461 -0.1757  0.7445  0.0104
   92MPD2    C4 1434   2.762   2.779  16.510  0.0732  0.4329  0.1120
   92MPD2    C5 1435   2.650   2.700  16.520  0.1954 -0.7099  0.4149
   92MPD2     H 1436   2.604   3.044  16.369 -1.4630 -0.4265  0.8500
   92MPD2    H1 1437   2.857   2.737  16.539  1.1231  2.6477 -0.1037
   92MPD2    H2 1438   2.449   2.670  16.486 -0.3549  1.0617 -1.3249
   92MPD2    H3 1439   2.668   2.596  16.546  1.0908 -0.7347 -0.3152
   92MPD2     N 1440   2.853   2.997  16.451  0.1307  0.3659  0.3393
   92MPD2    H5 1441   2.844   3.095  16.429 -0.1905  0.0233 -1.0327
   92MPD2    N1 1442   2.388   2.921  16.384 -0.0089 -0.1164  0.5165
   92MPD2    H7 1443   2.396   3.018  16.354  0.6374 -0.4603 -0.4216
   93TMC2    C1 1444   4.356   3.383  14.243 -0.3930  0.0742 -0.4660
   93TMC2    C2 1445   4.272   3.399  14.352  0.9358  0.2161 -0.0820
   93TMC2    C3 1446   4.278   3.512  14.421 -0.0690  0.2485  0.1839
   93TMC2    C4 1447   4.434   3.486  14.203 -0.0129 -0.8679  0.1940
   93TMC2    C5 1448   4.419   3.607  14.263 -0.4255 -1.3075  0.0851
   93TMC2    C6 1449   4.346   3.622  14.379  0.6834  0.2102 -0.0664
   93TMC2     C 1450   4.316   3.306  14.134  1.2038 -0.1773 -0.7015
   93TMC2     O 1451   4.395   3.258  14.054  0.0314 -0.6944 -0.6198
   93TMC2     H 1452   4.205   3.319  14.384  0.8309  0.6667  0.8047
   93TMC2    H1 1453   4.480   3.486  14.105 -1.1026 -0.2789 -0.3157
   93TMC2    H2 1454   4.353   3.714  14.436  0.4217 -0.2069  0.6411
   93TMC2    C7 1455   4.512   3.709  14.224  0.2963 -0.5941  0.8451
   93TMC2    C8 1456   4.185   3.529  14.528  0.8563 -0.3403 -0.8525
   93TMC2    O1 1457   4.625   3.674  14.188  0.3039  0.0898  0.5188
   93TMC2    O2 1458   4.110   3.627  14.526 -0.0549  0.2060 -0.2517
   93TMC2    O5 1459   4.239   3.478  14.637 -0.2287  0.4759 -0.8207
   93TMC2    H5 1460   4.304   3.412  14.605 -0.4884 -0.6334  0.8924
   94MPD2     C 1461   4.130   3.199  13.922 -0.1684 -0.3912  0.0017
   94MPD2    C1 1462   4.088   3.247  14.046 -0.6427  0.6709 -0.3944
   94MPD2    C2 1463   3.953   3.259  14.073 -0.4459  0.3024  0.5356
   94MPD2    C3 1464   3.858   3.197  13.992  0.1885  0.3684  0.1794
   94MPD2    C4 1465   3.906   3.137  13.871 -0.3255 -0.1396 -0.1782
   94MPD2    C5 1466   4.042   3.137  13.845 -0.5045  0.7519  1.1668
   94MPD2     H 1467   3.929   3.304  14.169 -1.1567  2.1175 -0.4966
   94MPD2    H1 1468   3.841   3.092  13.797 -3.1461  0.4174  1.9301
   94MPD2    H2 1469   4.233   3.212  13.891 -1.2240  1.9692 -2.4429
   94MPD2    H3 1470   4.081   3.090  13.756 -0.0078  3.2437  0.0564
   94MPD2     N 1471   3.723   3.205  14.021 -0.3259  0.1319 -0.1365
   94MPD2    H5 1472   3.657   3.184  13.947  0.2340  1.0281 -0.8969
   94MPD2    N1 1473   4.182   3.303  14.140 -0.1118 -0.4385  0.2224
   94MPD2    H7 1474   4.138   3.361  14.211  0.1880  0.8748 -0.6637
   95TMC2    C1 1475   4.149   0.265  16.189 -0.3649  0.3127  0.3333
   95TMC2    C2 1476   4.028   0.209  16.201 -0.3252 -0.3919  0.2015
   95TMC2    C3 1477   3.968   0.213  16.327 -0.3238 -0.3675 -0.1431
   95TMC2    C4 1478   4.207   0.325  16.299 -0.4405  0.1876  0.2654
   95TMC2    C5 1479   4.148   0.324  16.419 -0.4357 -0.0065  0.7978
   95TMC2    C6 1480   4.021   0.273  16.436 -0.2533  0.1552  0.0184
   95TMC2     C 1481   4.200   0.302  16.063  0.5276  0.2271 -0.0953
   95TMC2     O 1482   4.271   0.403  16.052 -0.1535 -0.5350 -0.9694
   95TMC2     H 1483   3.978   0.179  16.109  1.4758 -0.4402 -0.7512
   95TMC2    H1 1484   4.307   0.367  16.297 -0.1787 -0.5294 -1.9343
   95TMC2    H2 1485   3.969   0.294  16.528 -0.9139  0.7340 -0.4885
   95TMC2    C7 1486   4.229   0.365  16.538  0.1317  0.9275  0.2254
   95TMC2    C8 1487   3.843   0.138  16.335  1.1954 -0.4843 -0.0648
   95TMC2    O1 1488   4.335   0.421  16.517  0.5474 -0.3840 -0.0346
   95TMC2    O2 1489   3.785   0.102  16.232  0.7566 -0.0611  0.0518
   95TMC2    O5 1490   3.833   0.094  16.464 -0.3143  0.3766  0.0754
   95TMC2    H5 1491   3.893   0.130  16.532  1.5566 -0.6489 -1.0430
   96MPD2     C 1492   4.229   0.264  15.553  0.4471 -0.0005 -0.5941
   96MPD2    C1 1493   4.252   0.367  15.637 -0.5270 -0.6603 -0.5625
   96MPD2    C2 1494   4.235   0.354  15.772 -0.3037 -0.4010 -0.2430
   96MPD2    C3 1495   4.196   0.233  15.826  0.6634  0.3780  0.0077
   96MPD2    C4 1496   4.175   0.129  15.745 -0.5765  0.1099 -0.5318
   96MPD2    C5 1497   4.192   0.145  15.609  0.0346 -0.4627 -0.5048
   96MPD2     H 1498   4.232   0.444  15.832  1.3554 -1.4059  1.3749
   96MPD2    H1 1499   4.147   0.027  15.771  1.2026 -0.1910  0.2241
   96MPD2    H2 1500   4.237   0.268  15.445  2.7846  0.7387 -0.3981
   96MPD2    H3 1501   4.188   0.055  15.548  0.1769 -0.3970 -0.6116
   96MPD2     N 1502   4.173   0.213  15.963  0.7419 -0.1789 -0.4616
   96MPD2    H5 1503   4.117   0.134  15.993  0.8085 -0.4775 -1.1365
   96MPD2    N1 1504   4.293   0.488  15.584  0.1701  0.8779 -0.8062
   96MPD2    H7 1505   4.318   0.564  15.646 -1.1260 -1.8907  3.0705
   97TMC2    C1 1506   1.875   2.728   0.183 -0.7281  0.0231  0.3578
   97TMC2    C2 1507   1.982   2.646   0.213 -0.2697 -0.4950  0.2031
   97TMC2    C3 1508   2.089   2.646   0.131 -1.5721  0.2561  0.4251
   97TMC2    C4 1509   1.879   2.808   0.077  0.2831 -0.2429 -0.3647
   97TMC2    C5 1510   1.985   2.803  17.736 -0.7334  0.2431 -0.4883
   97TMC2    C6 1511   2.089   2.723   0.016  0.1149  0.3991 -0.0004
   97TMC2     C 1512   1.775   2.751   0.276  0.4702 -0.4885  0.8308
   97TMC2     O 1513   1.702   2.848   0.256  0.2021  0.2117  0.6637
   97TMC2     H 1514   1.992   2.586   0.302  0.2256 -0.6247  0.0608
   97TMC2    H1 1515   1.791   2.869   0.062 -0.1680 -1.2756 -1.9568
   97TMC2    H2 1516   2.165   2.708  17.680  1.8686  0.7243  1.6574
   97TMC2    C7 1517   2.019   2.915  17.653  0.6741 -0.3316 -0.5775
   97TMC2    C8 1518   2.210   2.586   0.181  0.4090 -0.8093  0.0782
   97TMC2    O1 1519   2.129   2.915  17.604 -0.0761 -0.1438 -0.5583
   97TMC2    O2 1520   2.204   2.520   0.280  0.1447 -0.1621  0.2944
   97TMC2    O5 1521   2.316   2.641   0.122  0.4025 -0.1014 -0.3695
   97TMC2    H5 1522   2.281   2.700   0.052 -1.2240  2.7741  2.8711
   98MPD2     C 1523   1.510   2.632   0.680 -0.3458 -0.2314  0.2980
   98MPD2    C1 1524   1.510   2.749   0.615  0.1120 -0.5848 -0.4408
   98MPD2    C2 1525   1.591   2.756   0.511 -0.0234  0.1016 -0.2520
   98MPD2    C3 1526   1.678   2.652   0.479  1.0616 -0.1234 -0.4207
   98MPD2    C4 1527   1.665   2.534   0.539  0.0008  0.2204  1.0657
   98MPD2    C5 1528   1.580   2.524   0.643  0.4283 -0.8887 -0.1613
   98MPD2     H 1529   1.601   2.848   0.455  0.1849  0.3022  0.1154
   98MPD2    H1 1530   1.729   2.449   0.520 -2.4011 -1.3817  0.1298
   98MPD2    H2 1531   1.443   2.621   0.765 -1.3573 -0.2149 -0.5049
   98MPD2    H3 1532   1.572   2.436   0.706 -0.4966  0.4493  1.6008
   98MPD2     N 1533   1.771   2.658   0.379  0.6368 -0.1828 -0.0407
   98MPD2    H5 1534   1.816   2.568   0.366  2.0428  0.4846  0.3079
   98MPD2    N1 1535   1.416   2.844   0.651  0.1619 -0.1927  0.6974
   98MPD2    H7 1536   1.375   2.835   0.743  2.1334  0.0108  1.6082
   99TMC2    C1 1537   0.167   1.145   1.246 -0.4094  0.5873 -0.1567
   99TMC2    C2 1538   0.225   1.264   1.211  0.5110  0.6637  0.6909
   99TMC2    C3 1539   0.166   1.379   1.256  0.0334  0.1695  0.6585
   99TMC2    C4 1540   0.055   1.135   1.320  0.3945  0.2744 -0.1319
   99TMC2    C5 1541   0.000   1.253   1.365 -0.5082  0.8327  0.0044
   99TMC2    C6 1542   0.049   1.376   1.328 -0.1126 -0.2568  0.5832
   99TMC2     C 1543   0.238   1.028   1.189  0.0091  0.2898  0.2244
   99TMC2     O 1544   0.339   1.042   1.118 -0.0002  0.2854 -0.2079
   99TMC2     H 1545   0.323   1.263   1.164 -0.7378  0.7147 -1.8968
   99TMC2    H1 1546   0.010   1.037   1.329  0.4266  0.2348 -0.3961
   99TMC2    H2 1547   4.731   1.467   1.354 -1.6534 -0.3839 -2.2326
   99TMC2    C7 1548   4.607   1.243   1.437 -0.5728  0.0537 -0.4597
   99TMC2    C8 1549   0.253   1.488   1.289  0.3419  0.1697  0.2690
   99TMC2    O1 1550   4.534   1.342   1.442 -0.5762  0.2027  0.3191
   99TMC2    O2 1551   0.206   1.603   1.301 -0.3246  0.1227 -0.1349
   99TMC2    O5 1552   0.336   1.426   1.370 -0.3717 -0.5105 -0.2545
   99TMC2    H5 1553   0.338   1.329   1.359 -1.0823 -0.5087 -0.3797
  100MPD2     C 1554   0.339   0.761   1.240  0.1851 -0.1064  0.3142
  100MPD2    C1 1555   0.209   0.779   1.220 -0.0658 -0.2061 -0.5587
  100MPD2    C2 1556   0.132   0.668   1.195  0.2696 -0.6631  0.9110
  100MPD2    C3 1557   0.179   0.537   1.208  0.1871 -0.6078  0.6182
  100MPD2    C4 1558   0.313   0.526   1.248  0.2661  0.0257  0.4502
  100MPD2    C5 1559   0.390   0.636   1.264 -0.0857 -0.5725  0.3615
  100MPD2     H 1560   0.028   0.675   1.166  0.3479  0.9403  1.0224
  100MPD2    H1 1561   0.369   0.434   1.258  0.7420 -0.0994 -3.3861
  100MPD2    H2 1562   0.403   0.848   1.249  0.0557 -0.0115  0.3076
  100MPD2    H3 1563   0.492   0.633   1.301 -0.0189 -0.2881  0.1966
  100MPD2     N 1564   0.104   0.423   1.168  0.5347  0.1185  0.3412
  100MPD2    H5 1565   0.016   0.442   1.121  1.0314 -0.1531 -0.6916
  100MPD2    N1 1566   0.160   0.910   1.206  0.2394 -0.3313  0.5374
  100MPD2    H7 1567   0.063   0.911   1.237  0.5780  1.8785  1.5534
  101TMC2    C1 1568   1.215   1.392  13.384  0.1369  1.0047  0.4456
  101TMC2    C2 1569   1.331   1.402  13.463 -0.5729 -0.5046  0.9446
  101TMC2    C3 1570   1.406   1.520  13.438  0.8482  0.0661  0.5764
  101TMC2    C4 1571   1.180   1.484  13.296  0.1566  0.1805  0.1645
  101TMC2    C5 1572   1.265   1.589  13.271 -0.4083  0.1927  0.3700
  101TMC2    C6 1573   1.376   1.609  13.336  1.0548 -0.2303 -0.0260
  101TMC2     C 1574   1.136   1.270  13.402 -0.2239 -0.1316 -0.6046
  101TMC2     O 1575   1.094   1.240  13.510 -0.0777  0.0319 -0.1096
  101TMC2     H 1576   1.343   1.328  13.541 -0.7410 -1.1896  0.3256
  101TMC2    H1 1577   1.086   1.469  13.243  1.0719 -0.3024 -1.3085
  101TMC2    H2 1578   1.442   1.692  13.314 -0.2708  0.3885 -1.6184
  101TMC2    C7 1579   1.246   1.682  13.160  0.2650 -0.2320 -0.5580
  101TMC2    C8 1580   1.548   1.519  13.470  0.2255 -0.3052 -0.2552
  101TMC2    O1 1581   1.329   1.773  13.152 -0.1142  0.4671 -0.2188
  101TMC2    O2 1582   1.626   1.503  13.376 -0.2088  0.0764  0.0997
  101TMC2    O5 1583   1.550   1.444  13.575  0.0929 -0.5056 -0.5627
  101TMC2    H5 1584   1.471   1.474  13.625  0.9358 -1.3973  1.3285
  102MPD2     C 1585   1.046   1.039  13.134  0.2093 -0.1612  0.3181
  102MPD2    C1 1586   1.034   1.097  13.259  0.0680  0.3115 -0.2831
  102MPD2    C2 1587   0.951   1.039  13.357 -0.0222 -1.0807  0.5193
  102MPD2    C3 1588   0.886   0.925  13.318  0.4695  0.4521  0.7981
  102MPD2    C4 1589   0.892   0.870  13.192 -0.1241 -0.5498  0.3321
  102MPD2    C5 1590   0.978   0.927  13.103  0.8116 -0.0424  0.2699
  102MPD2     H 1591   0.941   1.078  13.457  0.4116 -0.1309  0.1860
  102MPD2    H1 1592   0.814   0.799  13.166  0.8865 -1.8952  0.9482
  102MPD2    H2 1593   1.112   1.074  13.056  0.3629 -0.2737  0.3968
  102MPD2    H3 1594   0.964   0.899  12.999 -1.2320  0.6568  0.3497
  102MPD2     N 1595   0.788   0.883  13.411  0.5997  0.3558  0.5834
  102MPD2    H5 1596   0.757   0.954  13.476 -0.3289  2.0939 -1.7343
  102MPD2    N1 1597   1.117   1.205  13.280  0.0383  0.4169 -0.0426
  102MPD2    H7 1598   1.182   1.222  13.204  0.5190  2.2271  0.7707
  103TMC2    C1 1599   3.887   1.736  12.700  0.0966 -0.8022  0.5241
  103TMC2    C2 1600   3.986   1.639  12.703 -0.2954 -0.2269  0.5704
  103TMC2    C3 1601   4.037   1.606  12.823 -0.0739  0.5774 -0.5901
  103TMC2    C4 1602   3.833   1.800  12.818 -0.2884  0.1574 -0.3215
  103TMC2    C5 1603   3.893   1.759  12.933 -0.5880  0.3590 -0.1381
  103TMC2    C6 1604   3.992   1.661  12.945 -0.4809  0.0038  0.3777
  103TMC2     C 1605   3.804   1.739  12.576  0.4391  0.5458  0.3269
  103TMC2     O 1606   3.691   1.774  12.590  0.0386  0.2503 -0.0047
  103TMC2     H 1607   4.034   1.601  12.613 -0.2655  2.9836 -0.7343
  103TMC2    H1 1608   3.744   1.862  12.810 -0.0646  0.0872 -3.3589
  103TMC2    H2 1609   4.052   1.646  13.034  1.3878 -1.0805 -1.0581
  103TMC2    C7 1610   3.830   1.787  13.064 -0.2892 -0.2359  0.5230
  103TMC2    C8 1611   4.146   1.517  12.827  0.2550 -0.8987  0.6546
  103TMC2    O1 1612   3.869   1.721  13.157 -0.9988 -0.0772 -0.0263
  103TMC2    O2 1613   4.223   1.534  12.923 -0.5922  0.6774 -0.3545
  103TMC2    O5 1614   4.164   1.435  12.719  0.4823 -0.0210 -0.3643
  103TMC2    H5 1615   4.080   1.435  12.669 -1.7937  4.4343  3.3774
  104MPD2     C 1616   3.900   1.669  12.223  0.2426 -0.5071  0.2141
  104MPD2    C1 1617   3.813   1.677  12.334 -0.4756 -0.3550  0.5137
  104MPD2    C2 1618   3.671   1.667  12.310 -0.3485 -0.7216  0.3291
  104MPD2    C3 1619   3.616   1.650  12.180  0.1103 -0.1369  0.4199
  104MPD2    C4 1620   3.705   1.645  12.076  0.2923 -0.1301 -0.5870
  104MPD2    C5 1621   3.841   1.659  12.103 -0.5541 -0.2090  0.0656
  104MPD2     H 1622   3.605   1.662  12.396  1.2189  1.7345  1.6886
  104MPD2    H1 1623   3.658   1.646  11.978 -0.6416 -0.5483 -0.1466
  104MPD2    H2 1624   4.008   1.676  12.224  0.1823  1.0923 -3.2242
  104MPD2    H3 1625   3.904   1.639  12.016 -0.6440 -1.4447  0.2867
  104MPD2     N 1626   3.480   1.621  12.166 -0.6677 -0.0743  0.3391
  104MPD2    H5 1627   3.426   1.589  12.245  1.1622  0.0156  1.6146
  104MPD2    N1 1628   3.875   1.705  12.456  0.6422 -0.2474  0.6622
  104MPD2    H7 1629   3.975   1.724  12.454  0.3260  1.5604  1.9419
  105TMC2    C1 1630   0.175   0.197   0.209 -0.2771  0.1987 -0.6658
  105TMC2    C2 1631   0.060   0.169   0.281  0.0429  0.1375  0.2315
  105TMC2    C3 1632   4.722   0.282   0.321 -0.4413 -0.2710 -0.6255
  105TMC2    C4 1633   0.219   0.324   0.171 -0.0501  0.8660 -0.1723
  105TMC2    C5 1634   0.147   0.422   0.209  0.0319 -0.1905  0.1446
  105TMC2    C6 1635   0.039   0.407   0.292 -0.3176 -0.0291  0.1762
  105TMC2     C 1636   0.259   0.091   0.171 -0.2902 -0.2464  0.3471
  105TMC2     O 1637   0.262   4.721   0.239  0.0835 -0.7777 -0.0884
  105TMC2     H 1638   0.041   0.068   0.315  1.4644 -0.0873  0.3639
  105TMC2    H1 1639   0.304   0.342   0.105  0.4049 -1.8680 -0.3372
  105TMC2    H2 1640   4.711   0.490   0.320 -0.5551  0.6111 -2.3505
  105TMC2    C7 1641   0.186   0.550   0.164 -0.1610  0.0818 -0.6032
  105TMC2    C8 1642   4.632   0.283   0.438 -0.1005 -0.2395 -0.4443
  105TMC2    O1 1643   0.232   0.549   0.051  0.2621 -0.2983 -0.3333
  105TMC2    O2 1644   4.636   0.373   0.520 -0.3700  0.1390  0.2894
  105TMC2    O5 1645   4.613   0.159   0.484 -0.2140  0.8321 -0.5540
  105TMC2    H5 1646   4.626   0.094   0.411  1.3690 -0.7380  1.1430
  106MPD2     C 1647   0.715   4.694  17.712  0.1707  0.5416 -0.0515
  106MPD2    C1 1648   0.652   0.057  17.639  0.4619  0.2107  0.1644
  106MPD2    C2 1649   0.531   0.112  17.674 -0.8837 -0.0005 -0.1865
  106MPD2    C3 1650   0.466   0.070   0.044 -0.5177 -0.0075  0.1177
  106MPD2    C4 1651   0.537   4.715   0.127  0.5045  0.5905  0.4878
  106MPD2    C5 1652   0.661   4.655   0.090 -0.1429  0.3335  0.0556
  106MPD2     H 1653   0.492   0.187  17.606  0.0924  0.1852 -0.5537
  106MPD2    H1 1654   0.486   4.686   0.219 -1.9645  0.3944 -0.9296
  106MPD2    H2 1655   0.817   4.660  17.696 -0.2891 -0.3731 -1.0684
  106MPD2    H3 1656   0.717   4.608   0.170  1.0720 -0.2869 -1.1744
  106MPD2     N 1657   0.337   0.125   0.066 -0.3215  0.0930  0.0969
  106MPD2    H5 1658   0.309   0.198   0.001 -0.2895  0.5775  0.6264
  106MPD2    N1 1659   0.703   0.106  17.515  0.1550  0.7076 -0.7512
  106MPD2    H7 1660   0.650   0.178  17.467 -2.1935  0.7767  1.9613
  107TMC2    C1 1661   0.763   0.082  11.527 -0.2277  0.2669  0.4048
  107TMC2    C2 1662   0.799   0.211  11.503 -0.5051 -1.0789  0.8045
  107TMC2    C3 1663   0.858   0.232  11.385 -0.5036  0.2238  0.1140
  107TMC2    C4 1664   0.793   4.710  11.443  0.8798 -0.3872  0.0721
  107TMC2    C5 1665   0.871   4.735  11.328  0.4493  0.2116 -0.2992
  107TMC2    C6 1666   0.907   0.126  11.306 -0.8014 -0.5093 -0.5515
  107TMC2     C 1667   0.710   0.054  11.665 -0.3871  0.0616 -0.6116
  107TMC2     O 1668   0.695   0.148  11.741  0.3478 -0.1940  0.3446
  107TMC2     H 1669   0.786   0.281  11.585 -1.3017 -1.0837  0.6854
  107TMC2    H1 1670   0.735   4.618  11.438 -1.2906  0.9012  1.2136
  107TMC2    H2 1671   0.959   0.160  11.217 -2.6808 -0.3936 -1.6003
  107TMC2    C7 1672   0.861   4.648  11.212 -0.0290 -0.6298  0.6909
  107TMC2    C8 1673   0.889   0.365  11.336 -0.0992 -0.5035 -0.5428
  107TMC2    O1 1674   0.900   4.699  11.107  0.4476  0.7485  0.3039
  107TMC2    O2 1675   0.946   0.393  11.229  0.3064  0.1815  0.2896
  107TMC2    O5 1676   0.800   0.443  11.389  0.4353  0.0975  0.7150
  107TMC2    H5 1677   0.742   0.402  11.456  1.5820 -2.1118  0.3408
  108MPD2     C 1678   0.666   4.443  11.797 -0.4260  0.0358  0.3695
  108MPD2    C1 1679   0.665   4.580  11.789  0.5528  0.4768  0.0325
  108MPD2    C2 1680   0.620   4.643  11.903 -0.6248 -0.6281 -0.4975
  108MPD2    C3 1681   0.560   4.583  12.009  0.2904  0.4218 -0.2237
  108MPD2    C4 1682   0.551   4.445  12.010  0.1589  0.5623  0.4403
  108MPD2    C5 1683   0.604   4.383  11.906 -0.1117  0.0891 -0.5893
  108MPD2     H 1684   0.608   0.015  11.898 -0.1142 -0.4989  1.0518
  108MPD2    H1 1685   0.503   4.394  12.093  0.4942  1.1504  0.9985
  108MPD2    H2 1686   0.692   4.386  11.708 -0.9307  0.1200  0.1652
  108MPD2    H3 1687   0.584   4.276  11.904 -2.1336  0.4440  0.9172
  108MPD2     N 1688   0.501   4.656  12.118 -1.0717 -0.3531 -0.0426
  108MPD2    H5 1689   0.453   4.608  12.193 -1.1261 -1.0554 -0.5253
  108MPD2    N1 1690   0.702   4.653  11.676  0.2963  0.2542  0.4618
  108MPD2    H7 1691   0.729   4.595  11.597 -0.3876  0.4663  0.0747
  109TMC2    C1 1692   0.178   3.422   0.272  0.0998 -0.0361  0.1787
  109TMC2    C2 1693   0.143   3.498   0.160  0.8264 -0.0902 -0.4244
  109TMC2    C3 1694   0.239   3.516   0.062 -0.1123 -0.6825  0.1973
  109TMC2    C4 1695   0.304   3.367   0.289  0.4346 -0.0428  0.1417
  109TMC2    C5 1696   0.395   3.392   0.194 -0.9753  0.2358 -0.0347
  109TMC2    C6 1697   0.367   3.464   0.082 -0.3656 -0.0384  0.2278
  109TMC2     C 1698   0.069   3.376   0.358  0.2024  0.1058  0.3640
  109TMC2     O 1699   4.691   3.367   0.310 -0.2355  0.0660  0.1018
  109TMC2     H 1700   0.041   3.532   0.148  0.5612 -1.1718 -1.2921
  109TMC2    H1 1701   0.327   3.302   0.373 -0.6429 -0.8312 -0.1700
  109TMC2    H2 1702   0.431   3.467  17.735 -0.6667 -0.2311  0.0002
  109TMC2    C7 1703   0.528   3.365   0.238  0.9391 -0.0679 -0.4320
  109TMC2    C8 1704   0.208   3.604  17.693  0.2821 -0.1349 -0.2058
  109TMC2    O1 1705   0.544   3.285   0.330 -0.0540  0.1696  0.4750
  109TMC2    O2 1706   0.223   3.562  17.578 -0.2631 -0.0260 -0.0856
  109TMC2    O5 1707   0.134   3.707   0.001 -0.7169 -0.6162  0.0474
  109TMC2    H5 1708   0.145   3.710   0.099  2.7983  0.4894 -0.4047
  110MPD2     C 1709   0.014   3.042   0.730  0.1496  0.6730 -0.0432
  110MPD2    C1 1710   0.143   3.083   0.730 -0.2472 -0.4135 -0.7572
  110MPD2    C2 1711   0.174   3.190   0.649  0.1129  1.2074  0.3626
  110MPD2    C3 1712   0.079   3.242   0.565 -0.2708 -0.6806  0.3143
  110MPD2    C4 1713   4.683   3.196   0.564 -0.2405  0.1517 -0.2656
  110MPD2    C5 1714   4.651   3.099   0.649 -0.3737 -0.4854 -0.3926
  110MPD2     H 1715   0.264   3.248   0.667  0.3293  0.6725  0.9984
  110MPD2    H1 1716   4.608   3.232   0.495 -1.6065 -2.0785  0.0271
  110MPD2    H2 1717   4.722   2.967   0.804 -0.8882  2.7242  1.6947
  110MPD2    H3 1718   4.553   3.052   0.644 -1.9144  2.5705  0.8806
  110MPD2     N 1719   0.119   3.342   0.483  0.3546 -0.3106  0.5710
  110MPD2    H5 1720   0.220   3.358   0.482  0.3293 -0.1691  0.3046
  110MPD2    N1 1721   0.247   3.017   0.804 -0.2323 -0.1993  0.4249
  110MPD2    H7 1722   0.219   2.944   0.869 -0.4774 -0.0779  0.4540
  111TMC2    C1 1723   0.514   2.221  11.797 -0.0522  0.2029 -0.4258
  111TMC2    C2 1724   0.415   2.187  11.882 -0.2973 -0.4250  0.7312
  111TMC2    C3 1725   0.424   2.236  12.007 -0.1536  1.7112  0.3905
  111TMC2    C4 1726   0.626   2.283  11.840  0.0649 -0.1428  0.2734
  111TMC2    C5 1727   0.636   2.312  11.974  0.1320  0.2593 -0.8842
  111TMC2    C6 1728   0.536   2.286  12.057 -0.1999  0.3502 -0.1423
  111TMC2     C 1729   0.496   2.205  11.657  0.0648 -0.0585  0.5524
  111TMC2     O 1730   0.548   2.285  11.581 -0.4699  0.4135 -0.8381
  111TMC2     H 1731   0.328   2.135  11.844  0.7323 -0.7603 -1.1654
  111TMC2    H1 1732   0.705   2.306  11.769  0.7006  1.1737  1.4187
  111TMC2    H2 1733   0.548   2.306  12.162 -0.1823 -0.1023 -0.0583
  111TMC2    C7 1734   0.770   2.334  12.027 -1.2059 -0.3578  0.5536
  111TMC2    C8 1735   0.322   2.195  12.102  0.5774 -0.0753  0.0186
  111TMC2    O1 1736   0.777   2.306  12.144  0.1610  0.4832 -0.1654
  111TMC2    O2 1737   0.343   2.169  12.218  0.4278  0.3151 -0.3418
  111TMC2    O5 1738   0.199   2.187  12.040 -0.3502 -0.0614  0.0372
  111TMC2    H5 1739   0.205   2.218  11.947 -1.6712  0.9563  0.3017
  112MPD2     C 1740   0.207   1.989  11.281  0.3590  0.0832  0.3431
  112MPD2    C1 1741   0.294   2.099  11.277 -0.6651  0.0871 -0.5617
  112MPD2    C2 1742   0.367   2.133  11.386 -0.8065  0.5245  0.2854
  112MPD2    C3 1743   0.356   2.067  11.506  0.0747  0.3812  0.3673
  112MPD2    C4 1744   0.265   1.961  11.510 -0.1705  0.4621  0.5303
  112MPD2    C5 1745   0.198   1.920  11.397 -0.6489  0.0378  0.0773
  112MPD2     H 1746   0.435   2.217  11.377  0.1740 -0.1885  1.0675
  112MPD2    H1 1747   0.234   1.902  11.596  3.4786  0.6690  2.0029
  112MPD2    H2 1748   0.168   1.941  11.193 -1.5230 -0.8267  1.6774
  112MPD2    H3 1749   0.138   1.830  11.402 -0.2191 -0.3692 -2.0089
  112MPD2     N 1750   0.418   2.093  11.629  0.0953 -0.0342  0.1728
  112MPD2    H5 1751   0.389   2.028  11.701  1.0323  0.6667  1.1839
  112MPD2    N1 1752   0.319   2.164  11.155  0.7967 -0.1280  0.2593
  112MPD2    H7 1753   0.402   2.223  11.154 -0.6659  1.9315 -0.9285
  113TMC2    C1 1754   4.036   0.272   1.228  0.1318 -0.2975 -0.0700
  113TMC2    C2 1755   3.906   0.281   1.202  0.5873  0.4443 -0.0840
  113TMC2    C3 1756   3.829   0.170   1.199  0.1274 -0.4756  0.6095
  113TMC2    C4 1757   4.097   0.151   1.247 -0.6350  0.2176  0.0086
  113TMC2    C5 1758   4.019   0.041   1.240 -0.4751  0.1649 -0.2624
  113TMC2    C6 1759   3.882   0.045   1.232 -0.0602  0.0940 -0.2073
  113TMC2     C 1760   4.106   0.398   1.228 -0.6292  0.5768  0.1006
  113TMC2     O 1761   4.047   0.505   1.221 -0.1170 -0.2119  0.0731
  113TMC2     H 1762   3.864   0.374   1.167 -0.8172 -0.0260  0.3514
  113TMC2    H1 1763   4.199   0.155   1.284 -1.8949 -0.7872  3.5876
  113TMC2    H2 1764   3.819   4.692   1.228  0.7113 -0.4873  0.7537
  113TMC2    C7 1765   4.087   4.651   1.275  0.8937 -0.2362 -0.0791
  113TMC2    C8 1766   3.679   0.181   1.199  0.2146  0.1378  0.6485
  113TMC2    O1 1767   4.208   4.637   1.252 -0.0208 -0.4290  0.0998
  113TMC2    O2 1768   3.625   0.284   1.155  0.1631  0.1436 -0.5966
  113TMC2    O5 1769   3.637   0.110   1.298  0.8663  0.0710  0.0419
  113TMC2    H5 1770   3.700   0.052   1.346  1.1751  0.3460 -0.0388
  114MPD2     C 1771   4.538   0.662   1.309 -0.0058  0.4429  0.7152
  114MPD2    C1 1772   4.411   0.713   1.270  0.1040 -0.5235  0.3342
  114MPD2    C2 1773   4.310   0.616   1.257 -0.1302  0.1182  0.2515
  114MPD2    C3 1774   4.333   0.482   1.269 -0.0405  0.5460 -0.2199
  114MPD2    C4 1775   4.464   0.438   1.315 -0.7887  0.2581  0.6333
  114MPD2    C5 1776   4.563   0.532   1.334 -0.3332  0.1398  0.7335
  114MPD2     H 1777   4.218   0.657   1.217 -0.8678  0.2715  2.1277
  114MPD2    H1 1778   4.483   0.332   1.328 -1.4592 -0.1002 -1.2390
  114MPD2    H2 1779   4.617   0.734   1.326 -0.5729  1.3178 -0.4184
  114MPD2    H3 1780   4.667   0.509   1.354 -1.2805 -2.7941  2.3181
  114MPD2     N 1781   4.240   0.380   1.248 -0.0374  0.0244  0.0227
  114MPD2    H5 1782   4.275   0.284   1.252  1.5347  0.6664  1.6995
  114MPD2    N1 1783   4.380   0.851   1.262  0.9893  0.3594  0.5336
  114MPD2    H7 1784   4.284   0.874   1.235  0.4440 -1.1813  1.1673
  115TMC2    C1 1785   0.924   2.781  17.726  0.1168 -0.1314 -0.1253
  115TMC2    C2 1786   1.059   2.762  17.707  0.4220  0.4235  0.6082
  115TMC2    C3 1787   1.142   2.869  17.673 -0.7169  0.7218 -0.2908
  115TMC2    C4 1788   0.871   2.904  17.708  0.3822 -0.0510 -0.5245
  115TMC2    C5 1789   0.953   3.002  17.667  0.0892  0.8007 -0.4141
  115TMC2    C6 1790   1.088   2.996  17.669  0.2388 -0.6042  0.1770
  115TMC2     C 1791   0.838   2.670   0.032 -0.6889 -0.7536 -0.1016
  115TMC2     O 1792   0.883   2.558   0.037 -0.7548 -0.3086  0.5579
  115TMC2     H 1793   1.104   2.663  17.708  1.4975  0.9050  0.5281
  115TMC2    H1 1794   0.764   2.923  17.718  0.9800  1.4897  3.1907
  115TMC2    H2 1795   1.148   3.086  17.658 -1.3481  0.5989  1.2484
  115TMC2    C7 1796   0.894   3.130  17.651  0.3522 -0.1999  0.2219
  115TMC2    C8 1797   1.281   2.850  17.659  0.2597 -0.6525 -0.0239
  115TMC2    O1 1798   0.776   3.140  17.679 -0.1179  0.2374  0.6855
  115TMC2    O2 1799   1.358   2.938  17.618  1.1690  0.2214  0.1816
  115TMC2    O5 1800   1.315   2.759   0.011 -0.4284  0.0183 -0.3889
  115TMC2    H5 1801   1.244   2.700   0.044  0.5451 -0.3514  1.0463
  116MPD2     C 1802   0.363   2.535   0.136  0.0929  0.2555  0.0292
  116MPD2    C1 1803   0.475   2.456   0.128 -0.3928  0.0565  0.1416
  116MPD2    C2 1804   0.600   2.506   0.113  1.1039 -0.0526  0.3673
  116MPD2    C3 1805   0.608   2.645   0.120 -0.7938  0.1977  0.6997
  116MPD2    C4 1806   0.497   2.723   0.148  0.4108 -0.2580 -0.0827
  116MPD2    C5 1807   0.369   2.666   0.156  0.2679 -0.3696  0.0085
  116MPD2     H 1808   0.686   2.440   0.113 -0.6958 -2.4375 -1.0150
  116MPD2    H1 1809   0.507   2.830   0.163  1.0899 -0.5954  1.9151
  116MPD2    H2 1810   0.273   2.477   0.155  0.9491 -0.4768  1.8545
  116MPD2    H3 1811   0.281   2.728   0.169  0.8125 -0.0940  2.2081
  116MPD2     N 1812   0.725   2.725   0.096  0.3475 -1.1276  0.2394
  116MPD2    H5 1813   0.720   2.826   0.098  1.7042 -1.0453 -0.4747
  116MPD2    N1 1814   0.444   2.318   0.112 -0.6539  0.0058 -0.4149
  116MPD2    H7 1815   0.345   2.298   0.109 -0.7717  0.5114  0.0784
  117TMC2    C1 1816   3.115   4.023  13.872  0.1965 -0.0690 -0.7879
  117TMC2    C2 1817   3.204   3.971  13.965  0.2978 -0.0105 -0.4948
  117TMC2    C3 1818   3.246   4.049  14.072 -0.3480  0.6381  0.0098
  117TMC2    C4 1819   3.069   4.158  13.883 -0.2552  0.2426 -0.5425
  117TMC2    C5 1820   3.115   4.226  13.996 -1.0814  0.1159  0.7625
  117TMC2    C6 1821   3.195   4.171  14.091 -0.2288 -0.0020 -0.2564
  117TMC2     C 1822   3.073   3.933  13.767 -0.4531  1.0563 -1.4645
  117TMC2     O 1823   3.127   3.820  13.760  0.2322  0.2792  0.3833
  117TMC2     H 1824   3.222   3.864  13.973  0.1771  0.0303  0.3508
  117TMC2    H1 1825   3.016   4.208  13.803  0.0561 -0.0047 -0.9046
  117TMC2    H2 1826   3.203   4.235  14.179  0.2604 -2.2850  1.3507
  117TMC2    C7 1827   3.101   4.372  13.995 -0.4567  0.5575 -0.0808
  117TMC2    C8 1828   3.288   3.985  14.201 -0.4155 -0.2975  0.7399
  117TMC2    O1 1829   3.197   4.436  14.040  0.7424  0.2808 -0.1877
  117TMC2    O2 1830   3.280   4.036  14.311  0.1353 -0.2444  0.1356
  117TMC2    O5 1831   3.379   3.894  14.172 -0.3224  0.1851 -0.0603
  117TMC2    H5 1832   3.397   3.891  14.076 -1.1874 -0.3492 -0.2031
  118MPD2     C 1833   2.778   4.549  14.014  0.9704  0.7495 -0.2975
  118MPD2    C1 1834   2.917   4.540  13.993 -0.2665 -0.5213  0.0626
  118MPD2    C2 1835   2.998   4.651  14.013 -0.4680 -0.6549  0.1156
  118MPD2    C3 1836   2.942   0.043  14.044  0.3829  0.4062 -0.0672
  118MPD2    C4 1837   2.801   0.050  14.049 -0.4435 -0.0845  0.3515
  118MPD2    C5 1838   2.725   4.678  14.040  0.1486  0.4812 -0.1199
  118MPD2     H 1839   3.105   4.637  13.998 -0.2912 -1.6238  2.2244
  118MPD2    H1 1840   2.755   0.148  14.058 -0.2726  0.2297 -2.2450
  118MPD2    H2 1841   2.715   4.462  14.002  0.6914  0.6811  1.6748
  118MPD2    H3 1842   2.617   4.686  14.043  0.0783 -0.7884  0.6239
  118MPD2     N 1843   3.022   0.160  14.063  0.0588 -0.4261  0.0895
  118MPD2    H5 1844   2.970   0.246  14.056 -1.1844 -1.3330 -1.6500
  118MPD2    N1 1845   2.974   4.413  13.965  1.0695  0.3313  0.1126
  118MPD2    H7 1846   2.917   4.330  13.954  1.0188  0.1240  1.8507
  119TMC2    C1 1847   1.363   0.486  13.680  0.1962 -0.4821 -0.3707
  119TMC2    C2 1848   1.406   0.434  13.554  0.4061 -0.6615  0.5066
  119TMC2    C3 1849   1.363   0.305  13.534 -0.3055  0.3530  0.5861
  119TMC2    C4 1850   1.282   0.426  13.766 -0.7631 -0.3162 -0.2361
  119TMC2    C5 1851   1.253   0.297  13.740 -0.1859 -0.8671 -0.2361
  119TMC2    C6 1852   1.293   0.236  13.624 -0.6649  0.7149  0.4316
  119TMC2     C 1853   1.430   0.607  13.732 -0.5569 -0.1798  0.1193
  119TMC2     O 1854   1.399   0.638  13.847  0.2067  0.0866  0.0625
  119TMC2     H 1855   1.474   0.469  13.478  0.0966 -0.9464  0.0999
  119TMC2    H1 1856   1.237   0.486  13.845 -2.7492 -0.5290 -1.2105
  119TMC2    H2 1857   1.270   0.131  13.617 -0.5618  0.7274 -0.0538
  119TMC2    C7 1858   1.171   0.222  13.828 -0.5272 -0.3361  0.6135
  119TMC2    C8 1859   1.391   0.241  13.409 -0.7443 -0.5281  0.4293
  119TMC2    O1 1860   1.194   0.100  13.837 -0.7012 -0.1666 -0.2320
  119TMC2    O2 1861   1.504   0.240  13.357  0.0772 -0.1316 -0.2168
  119TMC2    O5 1862   1.279   0.253  13.338  0.2534  0.1811 -0.2467
  119TMC2    H5 1863   1.198   0.260  13.394  0.9113 -1.4818  0.9207
  120MPD2     C 1864   1.862   0.862  13.797  0.6665 -0.8060 -0.7130
  120MPD2    C1 1865   1.748   0.862  13.871 -0.0857 -0.0627  0.2369
  120MPD2    C2 1866   1.643   0.794  13.817  0.4213  0.0364 -0.0205
  120MPD2    C3 1867   1.647   0.714  13.711  0.0029  0.8772 -0.1557
  120MPD2    C4 1868   1.762   0.708  13.637  0.1480  0.3465  0.4487
  120MPD2    C5 1869   1.864   0.786  13.684  0.0473  0.9282  0.3125
  120MPD2     H 1870   1.546   0.798  13.865 -0.9784  1.2601 -2.9584
  120MPD2    H1 1871   1.783   0.642  13.553  3.9364  1.9048  0.1866
  120MPD2    H2 1872   1.950   0.921  13.818  0.5501 -1.5788  2.0119
  120MPD2    H3 1873   1.962   0.782  13.637 -0.7379 -0.7173 -1.1937
  120MPD2     N 1874   1.545   0.632  13.665  0.9103 -0.2755  0.1123
  120MPD2    H5 1875   1.574   0.582  13.582  1.0751 -2.6812  1.6125
  120MPD2    N1 1876   1.751   0.940  13.993  0.4587  0.7141  0.2918
  120MPD2    H7 1877   1.833   0.997  14.009  1.6915 -1.0731  0.3190
  121TMC2    C1 1878   3.187   2.156  14.444 -0.2296  0.6885 -0.1571
  121TMC2    C2 1879   3.163   2.128  14.575  0.7894 -1.0838  0.0175
  121TMC2    C3 1880   3.038   2.139  14.624 -0.0255  0.4648 -0.0014
  121TMC2    C4 1881   3.087   2.202  14.369 -0.4095  0.7049 -0.3055
  121TMC2    C5 1882   2.958   2.201  14.407 -0.3210 -0.9044  0.3700
  121TMC2    C6 1883   2.935   2.178  14.540 -0.3070 -0.2233  0.3850
  121TMC2     C 1884   3.319   2.141  14.386 -0.2232  0.2776  0.4132
  121TMC2     O 1885   3.388   2.052  14.432  0.4640 -0.5597  0.6202
  121TMC2     H 1886   3.232   2.097  14.652  2.3886 -0.6232 -1.2236
  121TMC2    H1 1887   3.098   2.208  14.261 -0.1170 -0.1130 -0.3221
  121TMC2    H2 1888   2.834   2.156  14.572 -0.0034 -1.5159  0.4589
  121TMC2    C7 1889   2.885   2.101  14.325 -0.8061  0.7295 -0.3246
  121TMC2    C8 1890   2.998   2.029  14.709  0.0510 -0.2727 -0.2366
  121TMC2    O1 1891   2.890   1.994  14.379  0.2209  0.8337  0.0738
  121TMC2    O2 1892   3.048   2.018  14.820  0.1507  0.0570  0.4921
  121TMC2    O5 1893   2.985   1.927  14.617  0.2241  0.3656 -0.0707
  121TMC2    H5 1894   2.963   1.950  14.524  0.4689  0.6472 -0.0610
  122MPD2     C 1895   3.570   2.158  14.224 -0.3191 -0.2131 -0.0460
  122MPD2    C1 1896   3.475   2.257  14.229  0.1859  0.2241  0.1105
  122MPD2    C2 1897   3.501   2.379  14.172  0.1846 -0.1781 -0.0082
  122MPD2    C3 1898   3.622   2.399  14.105 -0.5224 -0.8576 -0.1172
  122MPD2    C4 1899   3.722   2.297  14.106  0.6485 -0.9872 -0.7702
  122MPD2    C5 1900   3.691   2.178  14.162 -0.0721  0.4424  0.6406
  122MPD2     H 1901   3.433   2.462  14.187 -0.3821 -0.7826  0.7401
  122MPD2    H1 1902   3.810   2.306  14.043  1.3272 -0.4191  0.2567
  122MPD2    H2 1903   3.553   2.060  14.265 -0.8726 -0.4262 -0.7818
  122MPD2    H3 1904   3.768   2.102  14.166  0.3848  0.9130  0.8352
  122MPD2     N 1905   3.654   2.509  14.023  0.4863 -0.2803 -0.7154
  122MPD2    H5 1906   3.745   2.503  13.979  1.0420 -1.8752  0.6536
  122MPD2    N1 1907   3.351   2.242  14.291  0.2101  0.2138 -0.7295
  122MPD2    H7 1908   3.283   2.314  14.269 -2.1198 -1.1044  2.1519
  123TMC2    C1 1909   0.657   0.846  10.191 -0.3008  0.2653 -0.3108
  123TMC2    C2 1910   0.707   0.901  10.305  0.3733  0.6342  0.2541
  123TMC2    C3 1911   0.696   0.828  10.421 -0.0482  0.2844  0.2522
  123TMC2    C4 1912   0.589   0.730  10.193  0.5576 -0.2062 -0.3189
  123TMC2    C5 1913   0.568   0.669  10.309  0.5441 -0.0351  0.2528
  123TMC2    C6 1914   0.629   0.709  10.429 -0.1027 -0.7779  1.0869
  123TMC2     C 1915   0.667   0.922  10.069 -0.2394 -0.8718  0.4238
  123TMC2     O 1916   0.750   1.013  10.066  0.1127 -0.9093 -0.1176
  123TMC2     H 1917   0.757   0.997  10.305  0.9215  0.3439  1.3174
  123TMC2    H1 1918   0.555   0.682  10.103  1.4995  1.1995 -1.4250
  123TMC2    H2 1919   0.634   0.639  10.512  1.4330 -0.7980  0.9757
  123TMC2    C7 1920   0.512   0.534  10.313  0.3377  0.4132  0.0369
  123TMC2    C8 1921   0.742   0.891  10.542  0.6187 -0.2563 -0.1490
  123TMC2    O1 1922   0.558   0.455  10.395  0.1550 -0.7334 -0.3701
  123TMC2    O2 1923   0.750   1.011  10.548 -0.0539  0.5914  0.2606
  123TMC2    O5 1924   0.832   0.805  10.602 -0.1280 -0.0383 -0.4482
  123TMC2    H5 1925   0.828   0.721  10.552  1.3565 -0.2198 -0.2721
  124MPD2     C 1926   0.427   1.079   9.645 -0.1728 -0.2601 -0.4472
  124MPD2    C1 1927   0.376   0.954   9.689  0.7933 -0.3319 -0.1278
  124MPD2    C2 1928   0.426   0.898   9.803  0.8500 -0.1461  0.7463
  124MPD2    C3 1929   0.530   0.953   9.869  0.1375  0.2986 -0.5305
  124MPD2    C4 1930   0.571   1.076   9.834 -0.6643  0.8216 -0.2479
  124MPD2    C5 1931   0.526   1.141   9.723 -0.0335 -0.4343  1.0979
  124MPD2     H 1932   0.412   0.796   9.835  0.0473  0.0407  0.9976
  124MPD2    H1 1933   0.653   1.129   9.882  0.9577  0.9145 -3.0750
  124MPD2    H2 1934   0.391   1.125   9.554 -1.9360  0.0920  0.4225
  124MPD2    H3 1935   0.565   1.240   9.702  0.5690 -0.5978  1.4160
  124MPD2     N 1936   0.575   0.880   9.979  0.4328 -0.1157 -0.3070
  124MPD2    H5 1937   0.535   0.789   9.999 -1.1672  0.4135 -1.1153
  124MPD2    N1 1938   0.274   0.892   9.612  0.0987 -0.9568 -0.0846
  124MPD2    H7 1939   0.224   0.952   9.548  1.7087 -0.8411 -1.2292
  125TMC2    C1 1940   1.796   2.794  10.859  0.0506 -0.0576  0.6198
  125TMC2    C2 1941   1.881   2.901  10.837  0.0705  0.7212  0.2270
  125TMC2    C3 1942   1.922   2.913  10.705 -0.2031 -0.2880 -0.5302
  125TMC2    C4 1943   1.768   2.705  10.773 -0.7017 -0.1398  0.1745
  125TMC2    C5 1944   1.792   2.730  10.641 -0.3692 -0.1214  1.1144
  125TMC2    C6 1945   1.877   2.831  10.605  0.3132 -0.3144 -0.3805
  125TMC2     C 1946   1.752   2.779  10.994 -0.7704  0.1944  0.2269
  125TMC2     O 1947   1.830   2.812  11.084 -0.9837 -0.4754 -0.2099
  125TMC2     H 1948   1.917   2.968  10.914 -0.8876  0.3416  1.0104
  125TMC2    H1 1949   1.711   2.620  10.809 -1.1243 -1.5538 -3.8317
  125TMC2    H2 1950   1.883   2.872  10.505 -2.7195  0.3248 -0.2847
  125TMC2    C7 1951   1.757   2.629  10.551  0.8920  0.7722  0.0523
  125TMC2    C8 1952   2.015   3.020  10.680 -0.1632  0.1042  0.0533
  125TMC2    O1 1953   1.682   2.544  10.597 -0.2222 -0.3349  0.4017
  125TMC2    O2 1954   2.009   3.127  10.737  0.3117  0.4377  0.2071
  125TMC2    O5 1955   2.056   2.996  10.548 -0.5160 -0.3973 -0.4375
  125TMC2    H5 1956   2.084   2.904  10.528 -0.1259 -0.2357 -0.6426
  126MPD1     C 1957   1.363   2.751  11.341  0.8352  0.3623 -0.5633
  126MPD1    C1 1958   1.315   2.755  11.206  0.9517 -0.5296 -0.2351
  126MPD1    C2 1959   1.406   2.742  11.101 -0.5056  0.2755 -0.4704
  126MPD1    C3 1960   1.540   2.755  11.116  0.4028  0.6348  0.4133
  126MPD1    C4 1961   1.589   2.760  11.244  0.2794 -0.0486 -0.7911
  126MPD1    C5 1962   1.501   2.757  11.347 -0.2550 -0.2995 -0.2191
  126MPD1     H 1963   1.364   2.737  11.001 -0.4645 -1.7393 -0.3883
  126MPD1    H1 1964   1.691   2.777  11.273 -0.5333 -0.6850  2.3891
  126MPD1    H2 1965   1.293   2.740  11.423  1.8413  0.1152  0.2679
  126MPD1    H3 1966   1.546   2.755  11.446  0.0901  0.5291 -0.3578
  126MPD1     N 1967   1.618   2.755  11.000  0.5271 -0.4873 -0.6601
  126MPD1    H5 1968   1.564   2.739  10.916 -1.3757 -0.6189  0.5899
  126MPD1    N1 1969   1.184   2.745  11.171 -0.2765  0.7151 -0.2700
  126MPD1    H6 1970   1.160   2.801  11.090 -1.3518 -1.9528 -1.7824
  126MPD1    H7 1971   1.113   2.752  11.244 -0.6531 -0.9390 -0.4566
  127TMC2    C1 1972   2.852   1.413   9.953  0.6229  0.5685 -0.0529
  127TMC2    C2 1973   2.951   1.396  10.044 -0.4154  0.2353 -0.5035
  127TMC2    C3 1974   2.939   1.296  10.131  0.1271  1.2435 -0.6205
  127TMC2    C4 1975   2.730   1.342   9.963  0.1842 -0.4335  0.2175
  127TMC2    C5 1976   2.718   1.245  10.064 -0.3666 -0.3562 -0.2839
  127TMC2    C6 1977   2.827   1.213  10.139  0.1394 -0.4722  0.0768
  127TMC2     C 1978   2.889   1.482   9.832 -0.1803 -0.1235  0.5064
  127TMC2     O 1979   2.990   1.555   9.833  0.1640 -0.6308  0.4610
  127TMC2     H 1980   3.047   1.448  10.034 -0.8341  1.1232  0.1004
  127TMC2    H1 1981   2.651   1.381   9.901  0.1694  0.5991  0.8798
  127TMC2    H2 1982   2.818   1.148  10.225  1.4230 -1.0846 -0.2338
  127TMC2    C7 1983   2.586   1.176  10.072  0.3942 -0.5136  0.0630
  127TMC2    C8 1984   3.023   1.286  10.248  0.3259  0.0405 -0.1009
  127TMC2    O1 1985   2.504   1.244  10.009  0.3039  0.1110 -0.2776
  127TMC2    O2 1986   3.036   1.179  10.307 -0.0826 -0.4898 -0.2419
  127TMC2    O5 1987   3.056   1.409  10.286 -0.3196  0.0384 -0.0154
  127TMC2    H5 1988   3.049   1.471  10.210 -1.0518  0.2404  0.2113
  128MPD2     C 1989   2.718   1.510   9.506  0.2272  0.1712 -0.1949
  128MPD2    C1 1990   2.826   1.522   9.589  0.0014  0.7186 -0.4066
  128MPD2    C2 1991   2.935   1.584   9.541  0.4011 -0.6179 -0.0248
  128MPD2    C3 1992   2.940   1.635   9.412  0.5276  0.2608  0.7278
  128MPD2    C4 1993   2.835   1.613   9.329  0.5076  0.2876  0.9013
  128MPD2    C5 1994   2.726   1.549   9.378 -0.5384 -0.2918  0.8382
  128MPD2     H 1995   3.023   1.606   9.601 -0.1987  1.2918  0.1586
  128MPD2    H1 1996   2.832   1.649   9.227  0.2464 -2.0134  0.0804
  128MPD2    H2 1997   2.622   1.476   9.542 -0.0902 -0.5579 -1.7532
  128MPD2    H3 1998   2.630   1.552   9.327  0.0760 -0.8226 -0.3485
  128MPD2     N 1999   3.048   1.722   9.379 -0.0307  0.3056 -0.7759
  128MPD2    H5 2000   3.115   1.753   9.449 -0.0571 -0.0343 -0.6038
  128MPD2    N1 2001   2.805   1.472   9.724  0.9296  0.0773  0.4434
  128MPD2    H7 2002   2.718   1.423   9.745  0.9074  0.6170  1.5870
  129TMC2    C1 2003   2.054   2.293   1.733 -0.0277 -1.0361  0.0589
  129TMC2    C2 2004   2.164   2.257   1.797  0.3406 -0.0877 -0.2522
  129TMC2    C3 2005   2.246   2.166   1.746  0.7029 -0.7531  0.1172
  129TMC2    C4 2006   2.020   2.225   1.614  0.2932 -0.0747  0.5081
  129TMC2    C5 2007   2.107   2.133   1.564  0.0710  0.1032 -0.6458
  129TMC2    C6 2008   2.228   2.104   1.627  0.3018  0.4576 -0.2731
  129TMC2     C 2009   1.952   2.370   1.796 -0.3392  0.1268  0.4842
  129TMC2     O 2010   1.952   2.370   1.917  0.1798  0.1898  0.4782
  129TMC2     H 2011   2.199   2.309   1.886 -1.2641  1.0512 -0.2773
  129TMC2    H1 2012   1.923   2.237   1.566  1.0972  3.1920 -0.3213
  129TMC2    H2 2013   2.311   2.040   1.600 -0.4785 -0.3915 -0.6428
  129TMC2    C7 2014   2.047   2.021   1.493  0.1506 -0.1164 -0.4530
  129TMC2    C8 2015   2.313   2.087   1.832 -0.2182  0.4318 -0.0857
  129TMC2    O1 2016   1.935   2.042   1.451 -0.0643 -0.2655  0.0676
  129TMC2    O2 2017   2.317   1.965   1.821  0.3792 -0.1408 -0.2977
  129TMC2    O5 2018   2.405   2.162   1.889  0.3167 -0.1553  0.1627
  129TMC2    H5 2019   2.412   2.254   1.856 -0.4758  0.3965  1.5206
  130MPD2     C 2020   1.717   2.525   1.882  0.9722  0.1967 -0.0806
  130MPD2    C1 2021   1.780   2.542   1.758 -0.2770 -0.2216 -0.4725
  130MPD2    C2 2022   1.739   2.651   1.679 -0.0403 -0.1247  0.0551
  130MPD2    C3 2023   1.626   2.726   1.713  0.1211 -0.4407 -0.2160
  130MPD2    C4 2024   1.555   2.699   1.833  0.1257 -0.0845  0.5211
  130MPD2    C5 2025   1.610   2.606   1.916 -0.0664 -1.0462 -0.3620
  130MPD2     H 2026   1.785   2.664   1.582  0.2103 -3.1659 -0.2257
  130MPD2    H1 2027   1.463   2.750   1.861  1.0706  1.2025  1.2900
  130MPD2    H2 2028   1.739   2.442   1.948 -0.9012  0.1875  0.5354
  130MPD2    H3 2029   1.549   2.570   1.998 -0.8382  0.4086 -0.3020
  130MPD2     N 2030   1.593   2.830   1.629 -0.4022  0.4682 -0.3959
  130MPD2    H5 2031   1.646   2.839   1.543  1.7300  2.3337  1.1276
  130MPD2    N1 2032   1.881   2.454   1.711 -0.0396  0.4882  0.0882
  130MPD2    H7 2033   1.917   2.462   1.616  0.4855 -1.4228  0.1361
  131TMC2    C1 2034   4.679   1.673   9.515 -0.1885 -0.1192  0.1937
  131TMC2    C2 2035   4.576   1.758   9.537  0.6502 -0.1836  0.2395
  131TMC2    C3 2036   4.607   1.890   9.566 -0.1652 -0.5135  0.2779
  131TMC2    C4 2037   0.077   1.722   9.515 -0.2066  0.5184  0.0225
  131TMC2    C5 2038   0.103   1.859   9.534  0.1594 -0.3081 -0.3598
  131TMC2    C6 2039   4.733   1.940   9.567  0.6210  0.5161 -0.5724
  131TMC2     C 2040   4.659   1.532   9.488 -0.0695  0.4602  0.2716
  131TMC2     O 2041   0.025   1.470   9.485 -0.3485 -0.4533  0.2280
  131TMC2     H 2042   4.472   1.727   9.546  0.7267 -0.7114 -0.6994
  131TMC2    H1 2043   0.157   1.656   9.486  0.9767  1.4053  1.3041
  131TMC2    H2 2044   0.015   2.043   9.593 -0.7712  0.9018 -1.1272
  131TMC2    C7 2045   0.235   1.890   9.595 -0.5130  0.2442  0.0130
  131TMC2    C8 2046   4.496   1.974   9.599  0.0208 -0.5262 -0.8264
  131TMC2    O1 2047   0.297   1.787   9.627 -0.3185 -0.1388  0.3722
  131TMC2    O2 2048   4.491   2.066   9.677 -0.0560  0.5869 -0.0654
  131TMC2    O5 2049   4.381   1.924   9.545 -0.2860 -0.4280  0.7380
  131TMC2    H5 2050   4.404   1.888   9.457  0.0398  1.4561  0.0432
  132MPD2     C 2051   4.349   1.358   9.442 -0.3392  0.9818 -1.1992
  132MPD2    C1 2052   4.484   1.368   9.437  0.1062 -0.3024 -0.0322
  132MPD2    C2 2053   4.554   1.252   9.419  0.2040 -0.9493  0.1800
  132MPD2    C3 2054   4.495   1.125   9.427  0.7539  0.0695  0.4005
  132MPD2    C4 2055   4.355   1.121   9.437  0.0111  0.1011  0.0705
  132MPD2    C5 2056   4.289   1.234   9.429  0.0490  0.5069  0.0203
  132MPD2     H 2057   4.661   1.265   9.409 -0.3441  1.8146 -1.9642
  132MPD2    H1 2058   4.307   1.028   9.411 -0.0479  0.1941 -0.1540
  132MPD2    H2 2059   4.281   1.442   9.438 -0.7934  0.6814  0.2144
  132MPD2    H3 2060   4.181   1.240   9.433  0.0758 -0.2351  1.7687
  132MPD2     N 2061   4.574   1.010   9.426 -0.5625 -0.3782 -0.0794
  132MPD2    H5 2062   4.675   1.023   9.424 -0.5293 -0.5978  0.3064
  132MPD2    N1 2063   4.532   1.498   9.458  0.1889 -0.0563  0.1115
  132MPD2    H7 2064   4.456   1.564   9.471  0.1940  0.0609 -0.4596
  133TMC2    C1 2065   3.149   1.414   9.222  0.0072 -0.0114  0.3281
  133TMC2    C2 2066   3.136   1.479   9.099 -0.1796  0.0713 -0.2232
  133TMC2    C3 2067   3.033   1.444   9.013 -0.5038  0.7208 -0.3643
  133TMC2    C4 2068   3.065   1.312   9.255  0.3910 -0.2794 -0.3715
  133TMC2    C5 2069   2.964   1.284   9.169 -0.9172 -0.1143  0.0727
  133TMC2    C6 2070   2.946   1.345   9.047  0.1948  0.0177 -0.2090
  133TMC2     C 2071   3.257   1.461   9.307 -0.4007  0.1634  0.3678
  133TMC2     O 2072   3.322   1.562   9.281  0.5436 -0.3964 -0.4470
  133TMC2     H 2073   3.203   1.558   9.065  0.7144 -0.7049 -0.2594
  133TMC2    H1 2074   3.064   1.289   9.361 -0.3593 -0.0117 -0.3178
  133TMC2    H2 2075   2.861   1.324   8.982 -2.3891  2.9249  2.2066
  133TMC2    C7 2076   2.848   1.222   9.230 -0.1519 -0.0377  0.5650
  133TMC2    C8 2077   3.008   1.518   8.884 -0.8678 -0.4506  0.9147
  133TMC2    O1 2078   2.871   1.128   9.305  0.2827  0.3585 -0.1502
  133TMC2    O2 2079   2.980   1.456   8.781 -0.2864 -0.0837  0.2475
  133TMC2    O5 2080   2.994   1.649   8.911 -0.5682  0.5244  0.1640
  133TMC2    H5 2081   3.029   1.680   8.997  2.2451 -0.2829 -0.6732
  134MPD2     C 2082   3.344   1.335   9.635  0.0816 -0.6718  0.5380
  134MPD2    C1 2083   3.368   1.406   9.520  0.2263 -0.3348  0.0172
  134MPD2    C2 2084   3.472   1.496   9.522 -1.3744  0.4423  0.1323
  134MPD2    C3 2085   3.552   1.519   9.640  0.1634 -0.8898  1.1068
  134MPD2    C4 2086   3.522   1.438   9.748 -0.0669  0.7608 -0.1522
  134MPD2    C5 2087   3.426   1.349   9.743 -0.3226  0.8024  0.1317
  134MPD2     H 2088   3.480   1.555   9.431  0.3519  1.0853  0.6930
  134MPD2    H1 2089   3.583   1.437   9.837  0.5350  0.4736 -0.5734
  134MPD2    H2 2090   3.259   1.269   9.646 -0.8636  0.5440  0.5614
  134MPD2    H3 2091   3.390   1.292   9.827  0.8603  0.8969  0.6980
  134MPD2     N 2092   3.655   1.615   9.653 -0.2394 -0.2293  0.0956
  134MPD2    H5 2093   3.685   1.624   9.749 -1.1258 -2.8722  0.6225
  134MPD2    N1 2094   3.275   1.385   9.420  0.6071 -0.8385  0.2492
  134MPD2    H7 2095   3.205   1.313   9.436 -1.7255  1.5746  0.9716
  135TMC2    C1 2096   1.820   3.247   9.967  0.0274 -0.2930 -0.2333
  135TMC2    C2 2097   1.796   3.373   9.909  0.0428  0.0636 -0.3581
  135TMC2    C3 2098   1.808   3.479   9.996 -0.0745  0.5296 -0.0823
  135TMC2    C4 2099   1.844   3.235  10.099 -0.1102  0.4468 -0.2696
  135TMC2    C5 2100   1.834   3.349  10.177  0.3482  0.0849  0.7871
  135TMC2    C6 2101   1.814   3.474  10.132 -0.4233 -0.2725  0.8727
  135TMC2     C 2102   1.746   3.143   9.903 -0.3788 -0.4641  0.4837
  135TMC2     O 2103   1.681   3.071   9.978  0.4801  0.1783  0.2178
  135TMC2     H 2104   1.771   3.394   9.806  0.7277  0.3352 -0.4644
  135TMC2    H1 2105   1.857   3.135  10.139 -1.3456  1.1352  1.8498
  135TMC2    H2 2106   1.814   3.566  10.189  0.1871  0.1317  0.2303
  135TMC2    C7 2107   1.816   3.330  10.320  0.4085 -0.1778 -0.6228
  135TMC2    C8 2108   1.793   3.611   9.940 -0.4166  0.7928 -0.1669
  135TMC2    O1 2109   1.817   3.436  10.384  0.5357  0.0155  0.0672
  135TMC2    O2 2110   1.737   3.620   9.831 -0.5251 -0.1035 -0.4052
  135TMC2    O5 2111   1.891   3.703   9.969 -0.3069 -0.3497 -0.2734
  135TMC2    H5 2112   1.972   3.667  10.011 -0.4668 -1.0355 -0.5571
  136MPD2     C 2113   1.617   2.953   9.721 -0.1931  0.3054 -0.1187
  136MPD2    C1 2114   1.729   3.023   9.692  0.4304 -0.3114  0.4662
  136MPD2    C2 2115   1.798   2.994   9.575 -0.1886  0.2095 -0.0197
  136MPD2    C3 2116   1.748   2.901   9.483 -0.1650 -1.3164 -0.4005
  136MPD2    C4 2117   1.634   2.836   9.510  0.6381  0.5637  0.3812
  136MPD2    C5 2118   1.566   2.861   9.629 -0.4752 -0.6299  0.3249
  136MPD2     H 2119   1.895   3.038   9.558 -0.1223  0.2997  0.5874
  136MPD2    H1 2120   1.591   2.760   9.445 -0.8953 -0.0115  2.0608
  136MPD2    H2 2121   1.566   2.974   9.815 -0.0919  0.1085 -0.0202
  136MPD2    H3 2122   1.474   2.809   9.656 -1.6040  0.8583 -0.6358
  136MPD2     N 2123   1.823   2.854   9.366 -0.1347  0.4361 -0.8363
  136MPD2    H5 2124   1.792   2.780   9.305 -1.8833  0.6325 -0.1803
  136MPD2    N1 2125   1.781   3.124   9.772 -0.7844 -0.4419 -0.3136
  136MPD2    H7 2126   1.849   3.183   9.725 -1.2826 -1.5620 -2.4703
  137TMC2    C1 2127   1.487   2.365   8.860  0.5927 -0.6534 -0.1166
  137TMC2    C2 2128   1.507   2.327   8.732 -0.5565  0.4667  0.2879
  137TMC2    C3 2129   1.472   2.414   8.629 -0.0253  0.2243  0.4626
  137TMC2    C4 2130   1.422   2.486   8.891 -0.2172 -0.5814 -0.4414
  137TMC2    C5 2131   1.379   2.566   8.784  0.5251  0.1146  0.0977
  137TMC2    C6 2132   1.408   2.538   8.654  0.2113  0.0784 -0.8624
  137TMC2     C 2133   1.538   2.296   8.975 -0.2259  0.4128  0.6343
  137TMC2     O 2134   1.536   2.354   9.080 -0.8806  0.2798 -0.0962
  137TMC2     H 2135   1.552   2.234   8.700  0.7006  1.1283  0.1483
  137TMC2    H1 2136   1.424   2.529   8.990 -0.7839 -0.5277 -0.4533
  137TMC2    H2 2137   1.394   2.611   8.575 -0.5764  1.5657  0.6508
  137TMC2    C7 2138   1.306   2.693   8.809  0.1460  0.0595  0.9505
  137TMC2    C8 2139   1.483   2.370   8.489  0.3486  0.0223 -0.0593
  137TMC2    O1 2140   1.330   2.784   8.725  0.0691  0.5500 -0.3284
  137TMC2    O2 2141   1.546   2.267   8.457  0.2298 -0.6352  0.0676
  137TMC2    O5 2142   1.362   2.399   8.437 -0.0466 -0.2030 -0.3060
  137TMC2    H5 2143   1.313   2.471   8.483 -0.0546 -0.2716 -0.2057
  138MPD2     C 2144   1.537   1.935   9.022 -0.1720 -0.2655 -0.0990
  138MPD2    C1 2145   1.565   2.070   9.051  0.4192 -0.2453  0.9792
  138MPD2    C2 2146   1.585   2.103   9.182 -0.8310 -0.4992 -0.0257
  138MPD2    C3 2147   1.581   2.012   9.286  0.1395  0.1154  0.0389
  138MPD2    C4 2148   1.547   1.884   9.252 -0.0107  0.6513  0.5932
  138MPD2    C5 2149   1.533   1.846   9.123  0.1643  0.1246 -0.6717
  138MPD2     H 2150   1.604   2.206   9.212 -0.2731 -1.0662  1.5605
  138MPD2    H1 2151   1.531   1.807   9.327 -1.9021  1.1134  0.6603
  138MPD2    H2 2152   1.508   1.902   8.923  1.3139  0.8736 -0.9185
  138MPD2    H3 2153   1.516   1.740   9.109 -1.8756 -0.0556  3.1016
  138MPD2     N 2154   1.620   2.049   9.417  0.2643 -0.4469 -0.4675
  138MPD2    H5 2155   1.626   2.148   9.437  1.8422 -0.6670  0.0942
  138MPD2    N1 2156   1.539   2.161   8.950  0.1343  0.7731  0.3315
  138MPD2    H7 2157   1.507   2.128   8.859 -1.7106  2.2324  0.4638
  139TMC2    C1 2158   3.021   0.396  13.599  0.5409  1.2750 -0.0992
  139TMC2    C2 2159   3.111   0.430  13.504  0.3145  0.6893  0.2372
  139TMC2    C3 2160   3.072   0.532  13.419  0.1663  0.1018  0.2354
  139TMC2    C4 2161   2.888   0.441  13.591  0.8490  0.6922  0.1658
  139TMC2    C5 2162   2.857   0.539  13.508 -0.2264 -0.3983  0.2412
  139TMC2    C6 2163   2.946   0.587  13.412  0.8198 -0.5688  0.1029
  139TMC2     C 2164   3.057   0.279  13.674  0.5012  0.2951  0.3504
  139TMC2     O 2165   3.174   0.279  13.701  0.1028  0.0178  0.0530
  139TMC2     H 2166   3.203   0.371  13.499  0.7316  1.4412 -0.8532
  139TMC2    H1 2167   2.814   0.422  13.668 -0.2148 -0.1798 -1.0707
  139TMC2    H2 2168   2.919   0.673  13.352 -1.2919 -1.2926  0.0319
  139TMC2    C7 2169   2.732   0.611  13.532  0.5872 -0.1718 -0.0933
  139TMC2    C8 2170   3.149   0.535  13.301  0.7724  0.5392  0.7555
  139TMC2    O1 2171   2.735   0.735  13.528 -0.2939 -0.3925 -0.0087
  139TMC2    O2 2172   3.115   0.495  13.191  0.0188 -0.0306  0.6117
  139TMC2    O5 2173   3.273   0.557  13.339 -0.2155  0.2688  0.1419
  139TMC2    H5 2174   3.285   0.592  13.429  0.5119 -1.2072  0.6217
  140MPD2     C 2175   2.894   4.674  13.642  0.6468  0.5512 -0.0187
  140MPD2    C1 2176   2.997   0.033  13.652 -0.2483 -0.4145 -0.5477
  140MPD2    C2 2177   3.130   4.723  13.655 -0.6128  0.5494 -0.2993
  140MPD2    C3 2178   3.162   4.590  13.673  0.1075 -0.0652 -0.8366
  140MPD2    C4 2179   3.062   4.498  13.669 -0.0785  0.5192  0.9945
  140MPD2    C5 2180   2.928   4.539  13.662  0.2565 -0.2578 -0.4844
  140MPD2     H 2181   3.209   0.062  13.653 -0.0756  0.0694  2.2101
  140MPD2    H1 2182   3.085   4.395  13.694 -0.3151 -0.0366 -1.0588
  140MPD2    H2 2183   2.793   4.713  13.630  0.4599 -0.1069 -0.5949
  140MPD2    H3 2184   2.843   4.471  13.666  1.3592 -1.5472  1.0913
  140MPD2     N 2185   3.302   4.567  13.682 -0.3207  0.3522  0.0779
  140MPD2    H5 2186   3.361   4.647  13.661 -2.2539  1.9403  0.7280
  140MPD2    N1 2187   2.969   0.174  13.655 -0.2181 -0.3147  0.6094
  140MPD2    H7 2188   2.870   0.194  13.646  0.2202  1.7664  0.4545
  141TMC2    C1 2189   3.369   0.975  14.535  0.2979 -0.1515 -0.1297
  141TMC2    C2 2190   3.277   0.885  14.569  0.2410 -0.5091  0.0087
  141TMC2    C3 2191   3.321   0.780  14.640  0.4221 -0.2905 -0.0299
  141TMC2    C4 2192   3.505   0.958  14.566  0.1485 -0.2939 -0.7961
  141TMC2    C5 2193   3.540   0.851  14.644  0.2885  0.3067  0.9724
  141TMC2    C6 2194   3.447   0.761  14.678  0.1803 -0.8968  0.4644
  141TMC2     C 2195   3.345   1.079  14.437 -0.5201  0.0270 -0.0062
  141TMC2     O 2196   3.431   1.163  14.426 -0.4890  0.0808  0.8469
  141TMC2     H 2197   3.173   0.914  14.562  0.2485 -0.2188  1.1884
  141TMC2    H1 2198   3.585   1.017  14.524  1.1906 -0.6819  0.6463
  141TMC2    H2 2199   3.470   0.689  14.757 -0.1740 -2.5338 -0.9244
  141TMC2    C7 2200   3.676   0.836  14.695  0.5304  0.2254 -0.5756
  141TMC2    C8 2201   3.223   0.683  14.682  0.4032  0.3408  0.3508
  141TMC2    O1 2202   3.701   0.727  14.744 -0.2446 -0.0815 -0.3922
  141TMC2    O2 2203   3.234   0.596  14.768 -0.0032 -0.5674 -0.7758
  141TMC2    O5 2204   3.107   0.716  14.631 -0.6623  0.2943  0.4993
  141TMC2    H5 2205   3.093   0.766  14.548  2.3873  0.6089  0.1821
  142TMC2    C1 2206   0.500   4.362  10.309  0.1568 -0.0039 -0.1768
  142TMC2    C2 2207   0.607   4.320  10.382  0.3999  0.1306  0.4129
  142TMC2    C3 2208   0.697   4.419  10.416 -0.3460  0.2406 -0.0283
  142TMC2    C4 2209   0.473   4.487  10.271  0.2881 -0.0849 -0.3327
  142TMC2    C5 2210   0.559   4.586  10.312 -0.2652 -0.2728 -0.6237
  142TMC2    C6 2211   0.672   4.550  10.387  0.0863 -0.2632  0.3181
  142TMC2     C 2212   0.407   4.257  10.267 -0.0299 -0.2746  0.1317
  142TMC2     O 2213   0.408   4.154  10.336  0.5605 -0.3318  0.5629
  142TMC2     H 2214   0.632   4.215  10.389  1.6103  0.4721  1.2308
  142TMC2    H1 2215   0.373   4.517  10.241 -0.3886 -0.9659  1.0648
  142TMC2    H2 2216   0.752   4.620  10.410 -0.9240  1.0452 -0.1542
  142TMC2    C7 2217   0.524   4.725  10.296  0.1304 -0.4980  0.1796
  142TMC2    C8 2218   0.807   4.390  10.502  0.4206 -0.7658 -0.3687
  142TMC2    O1 2219   0.613   0.070  10.331  0.3590 -0.0051  0.2075
  142TMC2    O2 2220   0.890   4.477  10.533  0.0655 -0.0280 -0.0238
  142TMC2    O5 2221   0.763   4.286  10.576 -0.0424 -0.2619  0.1691
  142TMC2    H5 2222   0.696   4.225  10.538 -0.4167 -0.9912  2.0428
  143MPD2     C 2223   0.085   4.026   9.925 -0.6900  0.1744 -0.1150
  143MPD2    C1 2224   0.158   3.971  10.023 -0.0983 -0.0153  0.4489
  143MPD2    C2 2225   0.248   4.052  10.095 -0.3197 -0.3275 -0.0209
  143MPD2    C3 2226   0.252   4.193  10.075 -0.0290 -0.0989  0.1824
  143MPD2    C4 2227   0.186   4.244   9.964  0.5774  0.8958 -0.0455
  143MPD2    C5 2228   0.112   4.159   9.886  0.1560  0.8446 -0.2582
  143MPD2     H 2229   0.294   4.015  10.186  0.1351  0.8501  0.2337
  143MPD2    H1 2230   0.178   4.347   9.929  2.1414  0.6866 -1.0303
  143MPD2    H2 2231   0.001   3.971   9.885  0.5642 -1.1373 -0.9354
  143MPD2    H3 2232   0.052   4.206   9.809 -0.5552  0.3813  0.0128
  143MPD2     N 2233   0.342   4.286  10.149 -0.2274 -0.2520  0.0731
  143MPD2    H5 2234   0.353   4.379  10.109  2.0291 -0.4995  0.0934
  143MPD2    N1 2235   0.132   3.836  10.068  0.2587  0.1828 -0.1782
  143MPD2    H7 2236   0.065   3.786  10.011  1.3609 -0.9282 -0.4994
  144TMC2    C1 2237   4.241   4.269   1.090 -0.6177 -0.7969 -0.6856
  144TMC2    C2 2238   4.278   4.141   1.104 -0.3198  0.0702  0.1841
  144TMC2    C3 2239   4.402   4.108   1.148  0.3717 -0.2865  0.0010
  144TMC2    C4 2240   4.322   4.369   1.122 -0.8019  0.0068  0.0514
  144TMC2    C5 2241   4.449   4.334   1.155  0.2388  0.4548 -0.2206
  144TMC2    C6 2242   4.486   4.208   1.187 -0.1559  0.0771 -0.3221
  144TMC2     C 2243   4.119   4.296   1.010 -0.7164  0.4806 -0.2208
  144TMC2     O 2244   4.057   4.196   0.970 -0.0112 -0.3926  0.3167
  144TMC2     H 2245   4.214   4.058   1.075 -0.0542  0.3011 -1.0626
  144TMC2    H1 2246   4.302   4.475   1.111 -2.0248 -0.2285  0.0976
  144TMC2    H2 2247   4.579   4.177   1.234 -0.3275 -1.8038 -1.2125
  144TMC2    C7 2248   4.540   4.436   1.209  0.0807  0.2955 -0.3968
  144TMC2    C8 2249   4.447   3.995   1.070 -0.0465 -0.5189  0.9249
  144TMC2    O1 2250   4.651   4.390   1.232 -0.3398  0.9509  0.2248
  144TMC2    O2 2251   4.398   3.975   0.958  0.0283 -0.2974 -0.6803
  144TMC2    O5 2252   4.576   3.972   1.100  0.1667  0.0971 -0.7874
  144TMC2    H5 2253   4.576   3.991   1.196 -0.7813  0.7657 -0.9174
  145MPD2     C 2254   3.817   4.592   0.734 -0.7165  0.3827  0.3563
  145MPD2    C1 2255   3.795   4.462   0.785  0.5862 -0.2657  0.9267
  145MPD2    C2 2256   3.891   4.417   0.872 -0.0005 -0.8985  0.0544
  145MPD2    C3 2257   4.007   4.483   0.897 -0.4017 -0.0711  0.6777
  145MPD2    C4 2258   4.024   4.612   0.848  0.1690  0.2561 -0.2308
  145MPD2    C5 2259   3.928   4.666   0.767  0.2253  0.0166 -0.0193
  145MPD2     H 2260   3.872   4.324   0.924 -0.1983 -0.9671 -0.1382
  145MPD2    H1 2261   4.115   4.667   0.865  0.4234 -0.6185  1.2368
  145MPD2    H2 2262   3.752   4.628   0.655 -2.0722  1.1119  1.7890
  145MPD2    H3 2263   3.940   0.028   0.721 -2.3505 -0.4349 -1.6205
  145MPD2     N 2264   4.117   4.424   0.968  0.4282  0.1926  0.2963
  145MPD2    H5 2265   4.198   4.481   0.990  1.3191 -1.0691  0.2504
  145MPD2    N1 2266   3.686   4.381   0.747 -0.0190  0.1593  0.4665
  145MPD2    H7 2267   3.676   4.288   0.785 -0.2426 -0.2861 -0.6746
  146TMC2    C1 2268   0.798   2.702  12.527  0.0225  0.4023  0.4855
  146TMC2    C2 2269   0.845   2.716  12.394  0.1815  0.5686  0.6700
  146TMC2    C3 2270   0.791   2.630  12.308 -0.1537 -0.5264  0.0721
  146TMC2    C4 2271   0.715   2.602  12.566  0.3384 -0.2193  0.6468
  146TMC2    C5 2272   0.655   2.528  12.468  0.3185  0.4310 -0.8220
  146TMC2    C6 2273   0.690   2.546  12.339 -0.2453 -0.8812 -0.0060
  146TMC2     C 2274   0.846   2.794  12.621  0.1835 -0.9106  0.3672
  146TMC2     O 2275   0.879   2.902  12.577  0.7700 -0.2269  0.7210
  146TMC2     H 2276   0.911   2.798  12.370  0.1662 -0.0753 -1.5562
  146TMC2    H1 2277   0.686   2.587  12.670  2.4328  1.6147  1.4837
  146TMC2    H2 2278   0.646   2.473  12.273  0.7401 -0.3323 -1.2572
  146TMC2    C7 2279   0.574   2.414  12.508 -0.5642 -0.2961  0.1454
  146TMC2    C8 2280   0.788   2.678  12.177 -0.5848  0.7851  0.6869
  146TMC2    O1 2281   0.485   2.362  12.436  0.9030 -0.3198  0.3591
  146TMC2    O2 2282   0.693   2.660  12.102 -0.2372  0.2752  0.5291
  146TMC2    O5 2283   0.918   2.676  12.143 -0.1445  0.2311 -0.0157
  146TMC2    H5 2284   0.988   2.665  12.210 -0.9918  1.2466  1.0408
  147MPD2     C 2285   0.526   2.018  12.811 -0.0480 -0.3216 -0.1065
  147MPD2    C1 2286   0.621   2.095  12.860  0.2396  0.1079  0.5013
  147MPD2    C2 2287   0.633   2.218  12.803  0.2518 -0.3150 -0.6343
  147MPD2    C3 2288   0.573   2.253  12.690 -0.6538 -0.9138 -0.9661
  147MPD2    C4 2289   0.472   2.172  12.636 -0.2663  0.2259  0.2964
  147MPD2    C5 2290   0.444   2.056  12.706  0.1674  0.0202 -0.1087
  147MPD2     H 2291   0.700   2.292  12.845 -0.1812  0.5370 -1.4501
  147MPD2    H1 2292   0.408   2.197  12.552 -0.5750 -0.6033  0.2896
  147MPD2    H2 2293   0.491   1.932  12.867 -1.5900 -0.1390 -0.7931
  147MPD2    H3 2294   0.355   2.001  12.680 -0.1034  1.0734 -1.4694
  147MPD2     N 2295   0.613   2.372  12.629 -0.3318 -0.0914  0.7568
  147MPD2    H5 2296   0.693   2.421  12.668  0.8756  0.2496 -2.1403
  147MPD2    N1 2297   0.694   2.049  12.974 -0.2507  0.4290 -0.7565
  147MPD2    H7 2298   0.685   1.949  12.993 -1.7084  0.7916  0.4559
  148TMC2    C1 2299   0.318   1.377  10.536  0.2814 -0.3960 -0.6209
  148TMC2    C2 2300   0.436   1.436  10.566  0.2965  0.0086 -0.5601
  148TMC2    C3 2301   0.539   1.361  10.612  0.0074 -0.7030  0.0675
  148TMC2    C4 2302   0.295   1.245  10.561  0.2073 -0.7340 -0.8146
  148TMC2    C5 2303   0.403   1.172  10.607 -0.0063 -0.2342  0.3915
  148TMC2    C6 2304   0.532   1.225  10.627 -0.1864  0.0212  0.4195
  148TMC2     C 2305   0.222   1.455  10.454 -0.6307 -0.0486 -0.1487
  148TMC2     O 2306   0.242   1.577  10.446  0.5565  0.0678  0.2483
  148TMC2     H 2307   0.463   1.538  10.543 -0.5082 -0.0965 -1.9635
  148TMC2    H1 2308   0.193   1.210  10.568  0.8574 -1.9366  2.7559
  148TMC2    H2 2309   0.616   1.161  10.651 -0.0274 -0.6159 -1.8815
  148TMC2    C7 2310   0.373   1.036  10.622  0.2086  0.0006 -0.0423
  148TMC2    C8 2311   0.674   1.411  10.591 -0.5415  0.5060  0.6304
  148TMC2    O1 2312   0.289   0.995  10.545 -0.5595 -0.2177  0.3589
  148TMC2    O2 2313   0.725   1.390  10.481  0.1918 -0.4100 -0.5333
  148TMC2    O5 2314   0.664   1.537  10.636 -0.6587  0.7622 -0.2202
  148TMC2    H5 2315   0.612   1.536  10.719  2.9785  0.0907  2.0311
  149MPD2     C 2316   0.007   1.558  10.267 -0.0542 -0.4178  0.2086
  149MPD2    C1 2317   0.025   1.425  10.306 -0.2777 -0.2017  0.0241
  149MPD2    C2 2318   4.679   1.327  10.257  0.2539 -0.6486  0.2803
  149MPD2    C3 2319   4.570   1.360  10.174 -0.0975  0.4177  0.2542
  149MPD2    C4 2320   4.535   1.493  10.160 -0.1705 -0.7272 -0.0179
  149MPD2    C5 2321   4.627   1.587  10.202  0.3542  0.5521  1.0215
  149MPD2     H 2322   4.698   1.228  10.298  1.0041 -0.9345 -0.7832
  149MPD2    H1 2323   4.437   1.525  10.126 -0.1054 -0.9905 -0.4581
  149MPD2    H2 2324   0.085   1.631  10.282 -0.1593 -0.3066  0.2146
  149MPD2    H3 2325   4.612   1.689  10.167 -0.6085 -0.1936 -0.7803
  149MPD2     N 2326   4.470   1.270  10.137  0.8422  0.2270 -0.2079
  149MPD2    H5 2327   4.390   1.303  10.085  1.8456  0.9349 -1.3140
  149MPD2    N1 2328   0.132   1.379  10.392  0.4035 -0.2127 -0.2112
  149MPD2    H7 2329   0.132   1.281  10.418 -0.8046  0.4375  2.2314
  150TMC2    C1 2330   2.967   0.487  12.391  0.1077 -0.0802 -0.1698
  150TMC2    C2 2331   2.949   0.534  12.268  0.0625 -0.3337  0.1017
  150TMC2    C3 2332   3.045   0.607  12.196  0.6957 -0.6692  0.2235
  150TMC2    C4 2333   3.085   0.522  12.456  0.3544  0.2908 -0.5694
  150TMC2    C5 2334   3.173   0.601  12.385 -0.3160 -0.6791  0.4725
  150TMC2    C6 2335   3.154   0.651  12.258  0.1156 -0.0529  0.0252
  150TMC2     C 2336   2.878   0.399  12.454 -0.3960 -0.1094 -0.5426
  150TMC2     O 2337   2.927   0.321  12.534 -0.6187 -0.0375  0.8015
  150TMC2     H 2338   2.864   0.491  12.216 -0.9275  0.9881  0.6224
  150TMC2    H1 2339   3.104   0.487  12.557 -2.2107 -0.0998 -0.2224
  150TMC2    H2 2340   3.224   0.715  12.207 -1.1613 -0.0068 -1.6616
  150TMC2    C7 2341   3.308   0.624  12.440 -0.1631  0.2784 -0.2456
  150TMC2    C8 2342   3.025   0.649  12.054  0.0580  0.4193  0.4527
  150TMC2    O1 2343   3.358   0.734  12.421 -0.4922  0.0185  0.2314
  150TMC2    O2 2344   3.127   0.696  12.001  0.5669  0.2359 -0.4109
  150TMC2    O5 2345   2.902   0.653  12.009  0.1029 -0.3269 -0.0203
  150TMC2    H5 2346   2.832   0.627  12.073 -0.7612  0.2275 -0.7474
  151MPD2     C 2347   2.428   0.150  12.495  0.4404  0.1501  0.1163
  151MPD2    C1 2348   2.405   0.280  12.465 -0.5446 -0.5822  0.1534
  151MPD2    C2 2349   2.511   0.364  12.435 -0.1533  1.0814 -0.2012
  151MPD2    C3 2350   2.643   0.322  12.451  1.0179 -0.2270  0.2459
  151MPD2    C4 2351   2.668   0.194  12.476 -0.4809  0.5361  0.3214
  151MPD2    C5 2352   2.560   0.111  12.495  0.1378  0.3101 -0.4224
  151MPD2     H 2353   2.493   0.469  12.415 -3.2315  0.8097  1.0907
  151MPD2    H1 2354   2.764   0.146  12.486 -2.0894 -2.8087 -0.0970
  151MPD2    H2 2355   2.345   0.081  12.506 -0.7970  1.2600 -2.3204
  151MPD2    H3 2356   2.600   0.012  12.514 -0.2135 -0.0027 -1.3197
  151MPD2     N 2357   2.746   0.415  12.422  0.3038 -0.0272  0.1179
  151MPD2    H5 2358   2.725   0.505  12.380  1.1211  0.4683  0.7509
  151MPD2    N1 2359   2.268   0.323  12.455 -0.0846 -0.3649 -0.9700
  151MPD2    H7 2360   2.200   0.251  12.477 -0.4861  0.2519 -0.2014
  152TMC2    C1 2361   2.607   0.338  12.826 -0.5468 -0.6265 -0.0154
  152TMC2    C2 2362   2.660   0.215  12.832 -0.1979 -0.2974 -0.1145
  152TMC2    C3 2363   2.798   0.202  12.838  0.2124 -0.3972 -0.5529
  152TMC2    C4 2364   2.691   0.450  12.833 -0.1748 -0.0484  0.2479
  152TMC2    C5 2365   2.829   0.433  12.841 -0.1193 -0.7066 -0.0088
  152TMC2    C6 2366   2.889   0.305  12.851 -0.2121  0.4357  0.6649
  152TMC2     C 2367   2.466   0.359  12.805 -0.0889 -0.4085 -0.2633
  152TMC2     O 2368   2.447   0.479  12.792  0.3646 -0.4942 -0.0183
  152TMC2     H 2369   2.595   0.130  12.816 -1.7992 -0.0525  4.8825
  152TMC2    H1 2370   2.652   0.552  12.832  1.9620  0.7829  1.4569
  152TMC2    H2 2371   2.997   0.294  12.851 -0.4958 -2.1712  3.8025
  152TMC2    C7 2372   2.900   0.548  12.804 -0.1282  0.6678  0.5640
  152TMC2    C8 2373   2.846   0.071  12.793  0.0588  0.2682  0.0605
  152TMC2    O1 2374   2.836   0.616  12.728  0.0006  0.6466  0.1094
  152TMC2    O2 2375   2.776   4.703  12.795  0.3834 -0.3904 -0.4919
  152TMC2    O5 2376   2.928   0.106  12.694 -0.3002  0.1169  0.0258
  152TMC2    H5 2377   2.937   0.204  12.691 -0.0506  0.1021  0.2293
  153MPD2     C 2378   2.185   0.131  12.820  0.2913  0.8653  0.1451
  153MPD2    C1 2379   2.248   0.249  12.805 -0.6304 -0.1492 -0.3770
  153MPD2    C2 2380   2.165   0.357  12.779  0.0815 -0.2876 -0.5414
  153MPD2    C3 2381   2.030   0.340  12.756  0.8363  0.3156 -0.2049
  153MPD2    C4 2382   1.972   0.212  12.757  0.2087 -0.3932  0.1164
  153MPD2    C5 2383   2.053   0.115  12.807 -0.3512 -0.2683 -0.3533
  153MPD2     H 2384   2.210   0.456  12.772 -0.6461  0.2257  1.9050
  153MPD2    H1 2385   1.866   0.193  12.755  0.3121 -0.7643 -1.5964
  153MPD2    H2 2386   2.239   0.041  12.847 -2.0955 -0.6288 -0.0027
  153MPD2    H3 2387   2.016   0.016  12.831  0.1643 -0.0429  1.3718
  153MPD2     N 2388   1.961   0.460  12.715 -0.6730  0.2229  0.2278
  153MPD2    H5 2389   2.012   0.547  12.720  1.8768 -1.1603 -1.1921
  153MPD2    N1 2390   2.388   0.254  12.825  0.2278 -0.8315 -0.2434
  153MPD2    H7 2391   2.429   0.163  12.841 -0.5211 -1.2524 -0.7117
  154TMC2    C1 2392   4.494   0.688   0.915  0.4643 -0.3249  0.3481
  154TMC2    C2 2393   4.518   0.821   0.895  0.3840  0.0570 -0.6011
  154TMC2    C3 2394   4.638   0.859   0.850  0.0250 -0.7045 -0.3889
  154TMC2    C4 2395   4.589   0.595   0.897 -0.6797 -0.3371 -0.1569
  154TMC2    C5 2396   4.711   0.637   0.856  0.3815 -0.1393  0.0526
  154TMC2    C6 2397   0.004   0.772   0.833  0.6811  0.7390 -0.2102
  154TMC2     C 2398   4.348   0.655   0.916 -0.3643 -0.5311  0.5697
  154TMC2     O 2399   4.264   0.737   0.940 -0.6174 -0.3376 -0.1308
  154TMC2     H 2400   4.443   0.890   0.931  0.3774  0.1781 -0.8489
  154TMC2    H1 2401   4.559   0.495   0.926  0.2594  0.0345  2.1556
  154TMC2    H2 2402   0.105   0.798   0.803  0.5969  0.2007 -0.9572
  154TMC2    C7 2403   0.082   0.541   0.866 -0.2619  0.0563  0.0807
  154TMC2    C8 2404   4.655   1.000   0.841  0.4824  0.5199 -0.5378
  154TMC2    O1 2405   0.044   0.425   0.867  0.4431 -0.2922  0.4453
  154TMC2    O2 2406   4.554   1.066   0.833 -0.2041  0.4539  0.2736
  154TMC2    O5 2407   0.025   1.031   0.914 -0.1033 -0.6267 -0.2031
  154TMC2    H5 2408   0.099   0.968   0.903  0.0123 -0.3744 -0.9204
  155MPD2     C 2409   4.221   0.320   0.820  0.0916 -0.8784 -0.4698
  155MPD2    C1 2410   4.214   0.452   0.866  0.5540 -0.3028 -0.1274
  155MPD2    C2 2411   4.093   0.509   0.887 -0.5541  0.4723 -0.1661
  155MPD2    C3 2412   3.975   0.434   0.874 -0.4489 -0.6128 -0.2814
  155MPD2    C4 2413   3.990   0.304   0.831 -0.1907 -0.5614  0.7032
  155MPD2    C5 2414   4.110   0.251   0.798 -0.1399  0.5290  0.8156
  155MPD2     H 2415   4.068   0.610   0.918 -2.0675  1.0420 -3.2795
  155MPD2    H1 2416   3.900   0.244   0.828  0.0761 -1.0501  2.7133
  155MPD2    H2 2417   4.314   0.280   0.782  2.4475  3.1397  1.1847
  155MPD2    H3 2418   4.112   0.148   0.765 -1.3942 -0.1450  2.8159
  155MPD2     N 2419   3.850   0.489   0.918  0.1396  0.2919 -0.4424
  155MPD2    H5 2420   3.858   0.582   0.959  0.1257 -0.0491  0.3322
  155MPD2    N1 2421   4.336   0.528   0.868 -0.0319 -0.0966  0.8516
  155MPD2    H7 2422   4.420   0.477   0.842  0.9769  1.8938  0.2017
  156TMC2    C1 2423   1.822   2.819  11.841 -0.1770  0.2929 -1.0502
  156TMC2    C2 2424   1.692   2.795  11.844 -0.1452 -0.0610  0.3790
  156TMC2    C3 2425   1.622   2.835  11.741 -0.7640 -0.2051 -0.3737
  156TMC2    C4 2426   1.891   2.875  11.736  0.8823  0.5830  0.0980
  156TMC2    C5 2427   1.804   2.920  11.636 -0.6841 -0.0041  0.2139
  156TMC2    C6 2428   1.667   2.893  11.632 -0.4315 -0.1656  0.3063
  156TMC2     C 2429   1.906   2.768  11.950 -0.0273 -0.0843  0.1057
  156TMC2     O 2430   2.017   2.820  11.941  0.6962  0.1582 -0.2154
  156TMC2     H 2431   1.636   2.744  11.922  0.4299 -2.9975 -1.1677
  156TMC2    H1 2432   1.996   2.901  11.738  0.6332  1.7025 -1.0149
  156TMC2    H2 2433   1.591   2.937  11.568  0.9095  0.1137 -1.1013
  156TMC2    C7 2434   1.865   3.008  11.537  0.0476 -0.5859  0.6878
  156TMC2    C8 2435   1.492   2.774  11.740  0.5616 -0.1512 -0.6983
  156TMC2    O1 2436   1.989   3.015  11.541 -0.5263 -0.4458 -0.0906
  156TMC2    O2 2437   1.389   2.815  11.784 -0.1846 -0.4791 -0.0312
  156TMC2    O5 2438   1.516   2.662  11.674  0.4468 -0.7426  0.1584
  156TMC2    H5 2439   1.606   2.642  11.641  0.3696  1.6971 -1.5743
  157MPD2     C 2440   1.797   2.641  12.267  0.1362  0.2539 -0.1356
  157MPD2    C1 2441   1.891   2.674  12.177  0.0636  1.0809 -0.2024
  157MPD2    C2 2442   2.021   2.691  12.211  0.3349 -0.1668  0.0618
  157MPD2    C3 2443   2.064   2.676  12.340 -0.6756  1.0568 -0.2595
  157MPD2    C4 2444   1.974   2.630  12.430  0.4394  0.4189  0.6451
  157MPD2    C5 2445   1.836   2.613  12.399  0.2950  0.9627  1.6146
  157MPD2     H 2446   2.088   2.720  12.131 -0.4983 -0.7596 -0.8546
  157MPD2    H1 2447   2.004   2.605  12.531 -2.0004  0.1161  1.2858
  157MPD2    H2 2448   1.691   2.643  12.247  0.3664  2.1327 -1.1921
  157MPD2    H3 2449   1.756   2.585  12.467 -0.6577  2.6450  1.1884
  157MPD2     N 2450   2.202   2.690  12.356  0.0620  0.1537 -0.1131
  157MPD2    H5 2451   2.249   2.727  12.274  0.8242  0.2134  0.3473
  157MPD2    N1 2452   1.838   2.694  12.043  0.9005 -0.8265 -0.0142
  157MPD2    H7 2453   1.739   2.680  12.032  0.7826 -0.1466  0.1664
  158TMC2    C1 2454   3.065   2.075  13.543 -1.0548 -0.2668 -0.0532
  158TMC2    C2 2455   3.099   2.142  13.434  0.0123  0.1598  0.1924
  158TMC2    C3 2456   3.015   2.128  13.320 -0.1617  0.6826 -0.2658
  158TMC2    C4 2457   2.954   1.989  13.548  0.4488  0.3914  0.5168
  158TMC2    C5 2458   2.880   1.980  13.428 -0.8721 -0.7364  0.3990
  158TMC2    C6 2459   2.903   2.052  13.314  0.0726 -0.5487 -0.1569
  158TMC2     C 2460   3.165   2.083  13.656 -0.4973 -0.3203  0.8388
  158TMC2     O 2461   3.263   2.152  13.635  0.1241  0.4314  0.3957
  158TMC2     H 2462   3.198   2.185  13.428  0.0530 -0.1276 -1.3075
  158TMC2    H1 2463   2.934   1.938  13.641  1.9929  0.3907  0.8438
  158TMC2    H2 2464   2.838   2.040  13.228 -0.0489  2.7109 -0.5165
  158TMC2    C7 2465   2.750   1.911  13.426 -0.1596  0.3193 -0.7103
  158TMC2    C8 2466   3.064   2.192  13.203 -0.0683 -0.2871  0.3292
  158TMC2    O1 2467   2.680   1.939  13.329 -0.2242 -0.0228  0.5090
  158TMC2    O2 2468   3.149   2.276  13.202  0.3098  0.3314  0.1185
  158TMC2    O5 2469   3.045   2.094  13.110 -0.5334  0.3661  0.2708
  158TMC2    H5 2470   2.988   2.023  13.148  1.7229 -0.5032  2.0724
  159MPD2     C 2471   3.422   1.888  14.057 -0.6750 -0.6902  0.2991
  159MPD2    C1 2472   3.292   1.857  14.079 -0.6120  0.0750  0.5683
  159MPD2    C2 2473   3.201   1.898  13.983  0.3507 -0.5335  0.1002
  159MPD2    C3 2474   3.235   1.973  13.864  0.2058  0.6285 -0.2893
  159MPD2    C4 2475   3.366   2.027  13.866  0.2533 -0.6393 -0.1221
  159MPD2    C5 2476   3.455   1.978  13.954  0.1165  0.3403 -0.2484
  159MPD2     H 2477   3.098   1.867  13.996  0.2954 -1.3349 -2.3070
  159MPD2    H1 2478   3.400   2.105  13.799 -0.8037  0.7380  0.9531
  159MPD2    H2 2479   3.492   1.842  14.127 -1.1935 -0.4499  0.9766
  159MPD2    H3 2480   3.559   2.006  13.952 -0.2515  1.5970 -1.3734
  159MPD2     N 2481   3.143   1.995  13.761  0.2333  0.4559 -0.5875
  159MPD2    H5 2482   3.059   1.939  13.754  0.4959 -0.3296  2.6666
  159MPD2    N1 2483   3.253   1.788  14.199  0.3391  0.0478  0.8513
  159MPD2    H7 2484   3.329   1.760  14.261 -0.1943  0.3805  1.6506
  160TMC2    C1 2485   2.532   4.122   1.582 -0.0413 -0.1223  0.0726
  160TMC2    C2 2486   2.489   3.991   1.606 -0.4840 -0.1475  0.5726
  160TMC2    C3 2487   2.590   3.892   1.585  0.1119 -0.1703  0.0210
  160TMC2    C4 2488   2.663   4.149   1.554  0.3767 -0.5041 -0.3308
  160TMC2    C5 2489   2.752   4.049   1.532  0.4297  0.0824 -0.1598
  160TMC2    C6 2490   2.717   3.918   1.543  0.4684  0.2608  0.6109
  160TMC2     C 2491   2.455   4.238   1.636 -0.6297  0.4024 -0.4489
  160TMC2     O 2492   2.386   4.207   1.732 -0.7850  0.3674  0.3926
  160TMC2     H 2493   2.396   3.972   1.658 -1.0343  0.8585 -0.0417
  160TMC2    H1 2494   2.696   4.251   1.569 -3.4883  0.7712 -0.5882
  160TMC2    H2 2495   2.795   3.846   1.519 -0.1611 -0.6874  1.4092
  160TMC2    C7 2496   2.891   4.077   1.502 -0.5865 -1.0209  0.3553
  160TMC2    C8 2497   2.567   3.776   1.669  0.4119  0.0933  1.1295
  160TMC2    O1 2498   2.966   3.984   1.503  0.0746  0.5541 -0.9206
  160TMC2    O2 2499   2.466   3.767   1.734 -0.1218 -0.3231  0.8267
  160TMC2    O5 2500   2.670   3.687   1.662  0.6378 -0.1445  0.7730
  160TMC2    H5 2501   2.734   3.692   1.588 -2.1123 -1.0404 -1.6469
  161MPD2     C 2502   2.292   4.483   1.682 -0.3757  0.6883 -0.4475
  161MPD2    C1 2503   2.374   4.461   1.571  0.1623 -0.3012 -0.4163
  161MPD2    C2 2504   2.381   4.554   1.467  0.2630 -0.8688 -0.3942
  161MPD2    C3 2505   2.300   4.666   1.474 -1.0861 -0.4356 -0.4074
  161MPD2    C4 2506   2.220   4.687   1.586 -0.8028  0.6777  0.3036
  161MPD2    C5 2507   2.216   4.593   1.686  1.0588  0.6017  0.1354
  161MPD2     H 2508   2.444   4.543   1.379 -0.8313  0.3984 -1.3371
  161MPD2    H1 2509   2.166   0.046   1.587 -1.4355  0.3414 -2.6999
  161MPD2    H2 2510   2.292   4.416   1.768  0.2723  0.5813 -0.5344
  161MPD2    H3 2511   2.148   4.623   1.765  2.5560  2.6569  0.6612
  161MPD2     N 2512   2.286   0.032   1.372  0.3928 -0.0584  0.7437
  161MPD2    H5 2513   2.208   0.095   1.390 -0.7142 -0.8114 -1.3722
  161MPD2    N1 2514   2.458   4.347   1.557 -0.0834 -0.3631  0.2099
  161MPD2    H7 2515   2.509   4.342   1.470  1.3060 -1.4613  1.0914
  162TMC2    C1 2516   0.645   2.105   0.951  0.4550 -0.4034  0.2665
  162TMC2    C2 2517   0.562   2.214   0.953  0.4242  0.4466 -0.3365
  162TMC2    C3 2518   0.603   2.326   1.020  0.3188 -0.0006  0.8628
  162TMC2    C4 2519   0.750   2.095   1.039 -0.4434 -0.0508  1.3367
  162TMC2    C5 2520   0.785   2.199   1.113 -0.1360  1.2558 -0.4220
  162TMC2    C6 2521   0.711   2.320   1.104 -0.0521  0.7546 -0.1008
  162TMC2     C 2522   0.588   1.997   0.884  0.9924  0.3033 -0.2507
  162TMC2     O 2523   0.465   2.002   0.881 -0.1117  0.0249 -0.1109
  162TMC2     H 2524   0.477   2.221   0.886 -0.0659 -0.8221  0.1568
  162TMC2    H1 2525   0.797   1.998   1.053 -0.6571  0.2770  4.2431
  162TMC2    H2 2526   0.750   2.417   1.133  0.0806  1.7002 -3.5088
  162TMC2    C7 2527   0.920   2.203   1.173 -0.0947 -0.0528 -0.5998
  162TMC2    C8 2528   0.605   2.444   0.941 -0.1214 -0.2815  0.6190
  162TMC2    O1 2529   0.972   2.312   1.175 -0.2016 -0.0289 -0.4007
  162TMC2    O2 2530   0.706   2.509   0.929 -0.0247  0.9656 -0.7662
  162TMC2    O5 2531   0.494   2.461   0.871  0.8666 -0.2409 -0.1566
  162TMC2    H5 2532   0.428   2.399   0.908 -2.2601  2.6404 -0.8877
  163MPD2     C 2533   0.557   1.603   0.591 -0.8172 -0.3500 -0.8038
  163MPD2    C1 2534   0.691   1.641   0.596 -0.6286  0.2018  0.0979
  163MPD2    C2 2535   0.731   1.740   0.682  0.4662 -0.6027  1.0184
  163MPD2    C3 2536   0.634   1.797   0.758  0.5304  0.3807  0.1040
  163MPD2    C4 2537   0.500   1.756   0.749  0.1459 -0.2570 -0.3545
  163MPD2    C5 2538   0.462   1.653   0.669 -0.5180 -0.0088  0.3193
  163MPD2     H 2539   0.834   1.770   0.698  0.6144 -0.8609  0.5418
  163MPD2    H1 2540   0.417   1.787   0.812  0.4228  1.7560 -1.0076
  163MPD2    H2 2541   0.516   1.533   0.519 -1.3433 -0.6198 -0.2416
  163MPD2    H3 2542   0.357   1.625   0.667 -0.3322 -0.6485 -0.8068
  163MPD2     N 2543   0.676   1.905   0.842  0.4372 -0.6397  0.0124
  163MPD2    H5 2544   0.775   1.922   0.859  0.4727  1.0635 -1.8476
  163MPD2    N1 2545   0.775   1.581   0.495 -0.1461 -0.2288 -0.1271
  163MPD2    H7 2546   0.736   1.504   0.441 -1.5505  0.8980 -0.7405
  164TMC2    C1 2547   1.073   0.860  10.830 -0.3717  0.1707 -0.7309
  164TMC2    C2 2548   1.127   0.875  10.705  0.1135 -0.0698 -0.2069
  164TMC2    C3 2549   1.101   0.984  10.633  0.1048  0.1563  0.3334
  164TMC2    C4 2550   0.992   0.952  10.889 -0.0279  0.5896 -0.1164
  164TMC2    C5 2551   0.963   1.063  10.808  0.3690  0.1933  0.4204
  164TMC2    C6 2552   1.012   1.072  10.683  0.4058 -0.1020  0.4202
  164TMC2     C 2553   1.043   0.728  10.868  0.0672 -1.5146  0.6453
  164TMC2     O 2554   0.931   0.715  10.910  0.7584 -0.0486  0.1560
  164TMC2     H 2555   1.208   0.811  10.674 -2.1915 -2.2638 -1.7124
  164TMC2    H1 2556   0.944   0.933  10.984  0.8358  0.0361  0.2084
  164TMC2    H2 2557   0.992   1.158  10.620  0.0680  0.3244  1.1176
  164TMC2    C7 2558   0.897   1.180  10.868 -0.5785 -0.2553  0.3089
  164TMC2    C8 2559   1.144   1.000  10.498  0.6922  0.3956 -0.1939
  164TMC2    O1 2560   0.860   1.273  10.797 -0.2796  0.0971  0.2180
  164TMC2    O2 2561   1.223   0.933  10.438  0.1033 -0.2021  0.9944
  164TMC2    O5 2562   1.036   1.052  10.434 -0.4747  0.3321 -0.1327
  164TMC2    H5 2563   0.964   1.078  10.496 -0.5595 -0.5646  0.1566
  165TMC2    C1 2564   2.668   3.530   2.229 -0.6865  0.0253 -0.7176
  165TMC2    C2 2565   2.698   3.395   2.228 -0.1504  0.3834  0.2515
  165TMC2    C3 2566   2.813   3.355   2.160 -0.5229  0.9801  0.1821
  165TMC2    C4 2567   2.742   3.620   2.155  0.0008 -0.0808 -0.3686
  165TMC2    C5 2568   2.838   3.569   2.067 -0.2558  0.3420 -0.5553
  165TMC2    C6 2569   2.882   3.436   2.080 -0.3127  1.0492  0.5749
  165TMC2     C 2570   2.533   3.571   2.273  0.6433 -0.6711  0.1835
  165TMC2     O 2571   2.444   3.487   2.258 -0.0921  0.7698 -0.6607
  165TMC2     H 2572   2.637   3.328   2.287  0.9563  0.3207  1.3326
  165TMC2    H1 2573   2.713   3.723   2.171  0.4327  0.1255 -0.9195
  165TMC2    H2 2574   2.944   3.381   2.009  1.7529  1.1761  2.2837
  165TMC2    C7 2575   2.919   3.661   1.995 -0.2876  0.2407  0.8347
  165TMC2    C8 2576   2.825   3.211   2.141  0.1120  0.1162  0.2961
  165TMC2    O1 2577   3.037   3.630   1.987 -0.0722 -0.0783  0.0665
  165TMC2    O2 2578   2.834   3.167   2.029  0.0633 -1.0003 -0.2766
  165TMC2    O5 2579   2.775   3.144   2.251 -0.1542  0.1663 -0.1250
  165TMC2    H5 2580   2.797   3.193   2.333  2.2090 -1.5559  0.2611
  166MPD2     C 2581   2.230   3.965   2.384  0.0776  0.3708 -0.0494
  166MPD2    C1 2582   2.197   3.832   2.366  0.2725  0.8390 -0.4049
  166MPD2    C2 2583   2.302   3.735   2.350  0.1231 -0.2653  0.5007
  166MPD2    C3 2584   2.428   3.782   2.351  0.4931  1.0173 -0.1212
  166MPD2    C4 2585   2.450   3.913   2.361  0.0703 -0.0659  0.2437
  166MPD2    C5 2586   2.356   4.012   2.391  0.1073 -1.0008 -0.0407
  166MPD2     H 2587   2.281   3.633   2.321 -0.3313 -0.8125  2.7785
  166MPD2    H1 2588   2.551   3.950   2.373  0.3880 -0.7274 -0.3585
  166MPD2    H2 2589   2.144   4.030   2.398 -0.3561  0.2021 -1.9826
  166MPD2    H3 2590   2.381   4.116   2.410 -3.7424  0.0747 -0.8933
  166MPD2     N 2591   2.536   3.696   2.320 -0.4134 -0.0941 -0.4067
  166MPD2    H5 2592   2.629   3.735   2.315  0.0312 -1.1565 -0.3728
  166MPD2    N1 2593   2.061   3.797   2.369 -0.3806  0.0703  0.1888
  166MPD2    H7 2594   1.999   3.877   2.357  0.9447  1.3758  1.9808
  167TMC2    C1 2595   0.770   1.293  13.067 -0.3290  0.0013 -0.1038
  167TMC2    C2 2596   0.747   1.328  13.198  0.2893  0.4221 -0.2417
  167TMC2    C3 2597   0.667   1.249  13.271 -0.1233 -0.1759  0.4479
  167TMC2    C4 2598   0.726   1.171  13.018 -0.1053  0.1626  0.4452
  167TMC2    C5 2599   0.638   1.097  13.101 -0.5927 -0.2995 -0.4746
  167TMC2    C6 2600   0.608   1.133  13.230  0.9708 -0.3681  0.0108
  167TMC2     C 2601   0.877   1.369  12.996 -0.7265  0.5330 -0.8103
  167TMC2     O 2602   0.952   1.443  13.056 -0.0913 -0.2016 -0.1689
  167TMC2     H 2603   0.794   1.417  13.238 -1.5382  0.6780  1.3498
  167TMC2    H1 2604   0.754   1.137  12.919 -1.5135  0.1145  0.0564
  167TMC2    H2 2605   0.558   1.058  13.290  0.9898 -2.0361 -2.0452
  167TMC2    C7 2606   0.580   0.967  13.066  0.3184 -0.3880 -0.4659
  167TMC2    C8 2607   0.662   1.265  13.413  0.0652  0.7085 -0.6231
  167TMC2    O1 2608   0.508   0.906  13.144 -0.0072  0.3730  0.2209
  167TMC2    O2 2609   0.652   1.176  13.495 -0.1115  0.2632  0.1661
  167TMC2    O5 2610   0.680   1.394  13.443  0.4852 -0.6930 -0.0195
  167TMC2    H5 2611   0.667   1.450  13.364 -1.0820  1.0209  1.4577
  168MPD2     C 2612   1.061   1.463  12.784  0.6220 -1.3118 -0.2512
  168MPD2    C1 2613   0.947   1.397  12.756  0.5993 -0.1399  0.7072
  168MPD2    C2 2614   0.903   1.386  12.628 -0.1023 -0.4788 -0.2599
  168MPD2    C3 2615   0.990   1.422  12.525  0.5510  0.5988  0.0409
  168MPD2    C4 2616   1.114   1.483  12.553  1.0159 -0.8879  0.0343
  168MPD2    C5 2617   1.144   1.512  12.686  0.5240 -0.2255  0.5646
  168MPD2     H 2618   0.809   1.334  12.612 -0.4015  0.1622 -0.6240
  168MPD2    H1 2619   1.184   1.514  12.476 -1.8197 -1.2246 -2.6869
  168MPD2    H2 2620   1.109   1.473  12.881 -0.5942 -0.6503  0.2819
  168MPD2    H3 2621   1.231   1.569  12.715 -0.7239  2.5537 -1.0907
  168MPD2     N 2622   0.955   1.412  12.389 -0.7446 -0.0165  0.1765
  168MPD2    H5 2623   1.017   1.447  12.316  2.2008 -1.2190  2.1100
  168MPD2    N1 2624   0.862   1.349  12.860 -0.1233  0.0660  0.0767
  168MPD2    H7 2625   0.783   1.301  12.819  0.2037 -0.4446  0.0453
  169MPD1     C 2626   1.960   1.818   9.581  0.3341  0.0368 -1.1091
  169MPD1    C1 2627   2.077   1.786   9.518 -0.0356  0.4978  0.1192
  169MPD1    C2 2628   2.134   1.662   9.524 -0.3644 -0.3653 -0.7346
  169MPD1    C3 2629   2.070   1.564   9.600  0.0246  0.8338 -0.3620
  169MPD1    C4 2630   1.949   1.594   9.659 -0.2554 -0.5332 -0.1246
  169MPD1    C5 2631   1.900   1.721   9.653  0.1749 -0.4165 -0.5203
  169MPD1     H 2632   2.235   1.645   9.487  0.2103 -0.1874  0.7481
  169MPD1    H1 2633   1.908   1.521   9.727 -2.4941  0.9549  0.1220
  169MPD1    H2 2634   1.922   1.918   9.595  1.3758  0.3474 -0.4739
  169MPD1    H3 2635   1.807   1.741   9.706 -0.3680  2.0318 -2.3690
  169MPD1     N 2636   2.142   1.444   9.622 -0.5524  0.2886  0.4675
  169MPD1    H5 2637   2.215   1.430   9.553 -1.6479 -3.3535  0.0363
  169MPD1    N1 2638   2.144   1.893   9.473 -0.1248 -0.3278 -0.1523
  169MPD1    H6 2639   2.084   1.973   9.452 -0.3136 -0.5245 -0.3619
  169MPD1    H7 2640   2.207   1.881   9.394  0.3080 -3.1112  0.6445
  170MPD1     C 2641   1.098   3.269  13.378 -0.6727  0.6804 -0.1655
  170MPD1    C1 2642   1.153   3.393  13.381 -0.2993 -1.1043  0.5839
  170MPD1    C2 2643   1.214   3.439  13.501 -0.2116 -0.4216  0.6375
  170MPD1    C3 2644   1.219   3.371  13.615 -0.0926  0.1422 -0.6925
  170MPD1    C4 2645   1.151   3.253  13.611  0.2156 -0.6566  0.2995
  170MPD1    C5 2646   1.091   3.202  13.501  0.2948  0.4369 -0.5852
  170MPD1     H 2647   1.276   3.529  13.501  2.2126 -2.0957 -0.3807
  170MPD1    H1 2648   1.148   3.186  13.697  0.9315  3.0399  3.2149
  170MPD1    H2 2649   1.050   3.225  13.292  1.5549  2.8987 -2.5230
  170MPD1    H3 2650   1.046   3.103  13.492  2.1139 -0.5713  1.6652
  170MPD1     N 2651   1.287   3.409  13.729 -0.2527 -0.0330 -0.0561
  170MPD1    H5 2652   1.272   3.345  13.807  0.3195  1.5416  1.3512
  170MPD1    N1 2653   1.163   3.464  13.260  0.0293  0.0477 -0.1375
  170MPD1    H6 2654   1.176   3.564  13.270  2.3033 -0.4344  1.5865
  170MPD1    H7 2655   1.070   3.455  13.218  0.1997 -0.5519 -0.3822
  171MPD1     C 2656   0.005   4.011  15.244 -0.2597  0.7855  0.2641
  171MPD1    C1 2657   0.053   4.065  15.359  0.3516 -0.1230  0.4914
  171MPD1    C2 2658   0.146   3.997  15.424  0.1005  0.6771  0.4244
  171MPD1    C3 2659   0.184   3.864  15.394 -0.7733  0.5906  0.8014
  171MPD1    C4 2660   0.153   3.820  15.265  0.6414  0.6135  0.0940
  171MPD1    C5 2661   0.059   3.888  15.197  0.4421  0.1975  0.0795
  171MPD1     H 2662   0.194   4.047  15.507 -1.1189  0.4423  1.2797
  171MPD1    H1 2663   0.204   3.731  15.233 -1.4340 -1.3522  2.2810
  171MPD1    H2 2664   4.663   4.055  15.182 -1.0018  2.6315  2.4850
  171MPD1    H3 2665   0.021   3.857  15.100  1.8447 -1.1271 -0.0411
  171MPD1     N 2666   0.259   3.781  15.485  0.1475 -0.0605  0.0014
  171MPD1    H5 2667   0.292   3.693  15.447 -1.9194 -0.6976 -0.3262
  171MPD1    N1 2668   0.012   4.194  15.407 -0.4433  0.0124  0.0373
  171MPD1    H6 2669   4.651   4.213  15.380  0.3713  2.1114 -1.4314
  171MPD1    H7 2670   0.009   4.194  15.508 -0.4771  2.6657  0.0415
  172MPD1     C 2671   3.633   3.777   0.715 -0.3272  0.2020 -0.4844
  172MPD1    C1 2672   3.648   3.871   0.615 -0.5181  0.8365 -0.0144
  172MPD1    C2 2673   3.762   3.945   0.614  0.4111  0.3798 -0.2119
  172MPD1    C3 2674   3.859   3.931   0.707 -0.5370 -0.4673  0.2394
  172MPD1    C4 2675   3.836   3.852   0.817 -0.4888 -0.4722  0.3861
  172MPD1    C5 2676   3.730   3.766   0.815 -0.4971  0.6172  0.5488
  172MPD1     H 2677   3.770   4.003   0.523 -2.9341  3.8002  1.6721
  172MPD1    H1 2678   3.907   3.842   0.898  0.7591  1.3280 -0.4805
  172MPD1    H2 2679   3.541   3.720   0.726 -0.0709  0.3993  2.4803
  172MPD1    H3 2680   3.705   3.699   0.897 -1.7849  0.2680 -0.1328
  172MPD1     N 2681   3.968   4.015   0.712 -0.0581  0.3150 -0.0768
  172MPD1    H5 2682   4.043   3.997   0.778 -0.8090 -0.5256  0.5475
  172MPD1    N1 2683   3.536   3.907   0.538  0.1214  0.1806 -0.0039
  172MPD1    H6 2684   3.492   3.822   0.503 -1.1839  0.6477  0.4880
  172MPD1    H7 2685   3.555   3.974   0.463 -0.1999  0.8385  0.5023
  173MPD1     C 2686   0.409   2.842  13.955 -0.4175 -0.0698 -0.9820
  173MPD1    C1 2687   0.488   2.747  14.011 -0.3415  0.4679 -0.3749
  173MPD1    C2 2688   0.591   2.787  14.092 -0.1375  0.2743 -0.2609
  173MPD1    C3 2689   0.612   2.923  14.119  0.1063  0.4438 -0.5039
  173MPD1    C4 2690   0.531   3.018  14.060  0.2699  0.0067 -0.2184
  173MPD1    C5 2691   0.426   2.975  13.982  0.2551  0.3465 -0.2026
  173MPD1     H 2692   0.657   2.721  14.148 -0.7434  0.9165  1.2238
  173MPD1    H1 2693   0.540   3.126  14.065 -2.6942  0.1880  0.7363
  173MPD1    H2 2694   0.312   2.817  13.914 -0.5658 -2.1278  0.6347
  173MPD1    H3 2695   0.371   3.054  13.930 -0.2701  0.5512  0.6673
  173MPD1     N 2696   0.715   2.966  14.211 -0.4381  0.5140  0.1476
  173MPD1    H5 2697   0.763   2.894  14.263  0.2419  2.5433  2.3137
  173MPD1    N1 2698   0.477   2.610  13.978 -0.3455 -0.0316 -0.3240
  173MPD1    H6 2699   0.507   2.548  14.053 -1.8200  0.5770  0.7750
  173MPD1    H7 2700   0.381   2.584  13.954 -0.8096  0.2788  1.2085
  174MPD1     C 2701   1.557   3.461  14.510 -0.2523 -0.3072  0.8803
  174MPD1    C1 2702   1.533   3.341  14.574  0.3554 -0.2818  0.0435
  174MPD1    C2 2703   1.403   3.293  14.598 -0.5281 -0.0705 -0.4386
  174MPD1    C3 2704   1.297   3.353  14.533 -0.0131  0.5074  0.3521
  174MPD1    C4 2705   1.327   3.459  14.453 -0.3788  0.6005  0.2224
  174MPD1    C5 2706   1.456   3.507  14.438  0.0892 -0.1758 -0.3498
  174MPD1     H 2707   1.391   3.199  14.651  0.6035 -1.0295 -1.8686
  174MPD1    H1 2708   1.249   3.510  14.397  0.5070  1.7595  0.0575
  174MPD1    H2 2709   1.650   3.516  14.512  0.6286 -1.7036 -2.0918
  174MPD1    H3 2710   1.473   3.598  14.380  1.1710  0.1028  0.4120
  174MPD1     N 2711   1.172   3.305  14.513 -0.0456  0.0944 -0.3005
  174MPD1    H5 2712   1.104   3.357  14.459 -1.8046 -0.5445  1.2873
  174MPD1    N1 2713   1.635   3.288  14.653  0.2664 -0.6634 -0.2468
  174MPD1    H6 2714   1.618   3.197  14.696  2.1559 -0.5150  0.8253
  174MPD1    H7 2715   1.724   3.289  14.603  0.0693  2.3924 -0.5667
  175MPD1     C 2716   4.033   4.423  15.693  0.9659 -0.0108  0.0861
  175MPD1    C1 2717   4.136   4.374  15.773 -0.3949  0.3818  0.7809
  175MPD1    C2 2718   4.107   4.335  15.904  0.0060  0.1209  0.2459
  175MPD1    C3 2719   3.980   4.349  15.956 -0.0734 -0.3978  0.4342
  175MPD1    C4 2720   3.877   4.370  15.867  0.1253  0.6024 -0.4815
  175MPD1    C5 2721   3.902   4.414  15.735 -0.2296 -0.1467  0.6147
  175MPD1     H 2722   4.190   4.296  15.963  1.2954  1.2828 -0.7953
  175MPD1    H1 2723   3.775   4.351  15.895 -0.0293  0.5203 -1.0942
  175MPD1    H2 2724   4.054   4.469  15.598 -1.9019  3.4840  1.1654
  175MPD1    H3 2725   3.827   4.449  15.665  2.4549  0.4456 -1.9964
  175MPD1     N 2726   3.945   4.330  16.091 -0.2379 -0.2910  0.1131
  175MPD1    H5 2727   3.845   4.338  16.107 -0.1851  1.4599 -0.3987
  175MPD1    N1 2728   4.271   4.389  15.742  0.2685 -0.6372  0.2934
  175MPD1    H6 2729   4.339   4.330  15.790  0.4942 -0.3845  0.2768
  175MPD1    H7 2730   4.284   4.374  15.642  0.6696  0.1483  0.2341
  176MPD1     C 2731   0.593   1.685   0.238  0.4695  0.2034 -0.1412
  176MPD1    C1 2732   0.698   1.646   0.155 -0.4967 -0.1911  0.5395
  176MPD1    C2 2733   0.801   1.738   0.133 -0.1723  0.3206  0.0885
  176MPD1    C3 2734   0.793   1.861   0.198  0.0706 -0.5462 -0.7420
  176MPD1    C4 2735   0.695   1.898   0.283  0.4846  0.3872  0.1642
  176MPD1    C5 2736   0.590   1.810   0.300 -0.5442  1.1117 -0.6997
  176MPD1     H 2737   0.885   1.704   0.075 -0.6419  0.0719 -0.4430
  176MPD1    H1 2738   0.672   1.994   0.328  1.5828  0.2435  0.9956
  176MPD1    H2 2739   0.511   1.621   0.264  0.7968  0.0584  0.5238
  176MPD1    H3 2740   0.517   1.824   0.379 -0.9890  1.4177 -1.1615
  176MPD1     N 2741   0.893   1.951   0.164 -0.1186 -0.8640  0.5945
  176MPD1    H5 2742   0.953   1.936   0.083 -0.8045  0.6422 -0.1937
  176MPD1    N1 2743   0.707   1.519   0.096  0.5726  1.0502 -0.1834
  176MPD1    H6 2744   0.763   1.529   0.011  0.2625 -1.2528 -0.6620
  176MPD1    H7 2745   0.616   1.494   0.059  0.3202  0.3578  0.9197
  177MPD1     C 2746   3.684   1.971   9.871 -0.5013 -0.4125  0.2971
  177MPD1    C1 2747   3.602   1.864   9.858  1.3462  0.0936 -0.3823
  177MPD1    C2 2748   3.498   1.871   9.768  1.4518  0.3659  0.5951
  177MPD1    C3 2749   3.481   1.982   9.689 -0.3366 -0.0752 -0.0423
  177MPD1    C4 2750   3.565   2.089   9.703  0.3527 -0.0114  0.1833
  177MPD1    C5 2751   3.668   2.084   9.798  0.3886  0.2914  0.1414
  177MPD1     H 2752   3.417   1.799   9.765  1.8975 -0.1366  0.7598
  177MPD1    H1 2753   3.557   2.178   9.641  0.3350  0.0078  0.2125
  177MPD1    H2 2754   3.771   1.973   9.936 -1.8758 -1.0224  2.1254
  177MPD1    H3 2755   3.725   2.173   9.821 -1.2811  1.1005  1.1241
  177MPD1     N 2756   3.369   1.985   9.596  0.3586  0.9916  0.3902
  177MPD1    H5 2757   3.310   1.903   9.593 -1.5456  2.3748  0.4026
  177MPD1    N1 2758   3.638   1.736   9.911  0.3099  0.3592  0.6605
  177MPD1    H6 2759   3.700   1.744   9.992  0.0608 -0.1135  0.8999
  177MPD1    H7 2760   3.562   1.671   9.929 -0.3618  0.7938 -0.6677
  178MPD1     C 2761   2.679   1.908  16.914 -0.5391  0.2109  0.2901
  178MPD1    C1 2762   2.552   1.864  16.884 -0.1195 -0.1725  0.2822
  178MPD1    C2 2763   2.450   1.951  16.889  0.1509  0.3327 -0.2163
  178MPD1    C3 2764   2.466   2.085  16.913  0.1253 -0.1566 -0.0518
  178MPD1    C4 2765   2.597   2.128  16.939  0.1130  0.2490 -1.0286
  178MPD1    C5 2766   2.696   2.037  16.944  0.1306  0.1361  0.7231
  178MPD1     H 2767   2.348   1.916  16.877  0.8931 -2.5220  1.8769
  178MPD1    H1 2768   2.619   2.228  16.974 -0.8957 -0.2821  1.1120
  178MPD1    H2 2769   2.762   1.839  16.928  0.0236  1.1007  1.3823
  178MPD1    H3 2770   2.798   2.066  16.967  0.3833 -0.4895  0.4138
  178MPD1     N 2771   2.359   2.179  16.925 -0.3510 -0.1233 -0.7996
  178MPD1    H5 2772   2.377   2.274  16.955 -0.6825 -1.2232  2.8980
  178MPD1    N1 2773   2.511   1.734  16.903  0.1760  0.0162 -0.5140
  178MPD1    H6 2774   2.579   1.671  16.859  0.0284 -2.3319  2.6457
  178MPD1    H7 2775   2.421   1.716  16.858 -0.7811  1.7226  0.7095
  179MPD1     C 2776   1.520   4.302  15.442  0.1520  0.0166 -0.6586
  179MPD1    C1 2777   1.393   4.308  15.395 -0.7403  0.1371 -0.7307
  179MPD1    C2 2778   1.318   4.409  15.446  0.0173  0.6825  0.0158
  179MPD1    C3 2779   1.370   4.511  15.524 -0.3696 -0.6422  1.0400
  179MPD1    C4 2780   1.503   4.515  15.557 -0.3710 -0.1652  0.4002
  179MPD1    C5 2781   1.577   4.404  15.518  0.1272  0.6305 -0.1856
  179MPD1     H 2782   1.211   4.400  15.433  0.2400 -2.4625  0.3676
  179MPD1    H1 2783   1.542   4.595  15.620 -0.2242  1.4219 -1.7131
  179MPD1    H2 2784   1.589   4.221  15.422 -1.3764 -1.4403 -0.0971
  179MPD1    H3 2785   1.677   4.398  15.560 -0.9570  3.2781  2.8433
  179MPD1     N 2786   1.284   4.606  15.588  0.5885 -0.0457  0.0813
  179MPD1    H5 2787   1.323   4.671  15.655 -2.0524  1.3408  0.2937
  179MPD1    N1 2788   1.332   4.205  15.314 -0.1830  0.8308 -0.6324
  179MPD1    H6 2789   1.395   4.172  15.242  0.0344  1.2846 -0.6465
  179MPD1    H7 2790   1.249   4.238  15.265 -1.3802 -2.2252 -0.6882
  180MPD1     C 2791   1.995   2.003  14.894 -0.9161 -0.1680  0.2774
  180MPD1    C1 2792   1.962   2.112  14.817 -0.7127  0.3850 -0.3712
  180MPD1    C2 2793   1.829   2.121  14.768 -0.2090  0.3823  0.3166
  180MPD1    C3 2794   1.734   2.029  14.794  0.1970  0.6425  0.8131
  180MPD1    C4 2795   1.770   1.918  14.868 -0.0235  0.2462 -0.7570
  180MPD1    C5 2796   1.895   1.911  14.921 -0.5095  0.8254  0.1545
  180MPD1     H 2797   1.810   2.215  14.718 -1.1867  0.3892  0.6997
  180MPD1    H1 2798   1.702   1.836  14.890 -0.9227  0.6403 -2.0595
  180MPD1    H2 2799   2.098   1.984  14.925 -0.9370 -1.3113 -0.3642
  180MPD1    H3 2800   1.926   1.814  14.959 -1.0555 -0.0834 -1.7006
  180MPD1     N 2801   1.619   2.040  14.716  0.6265  0.1691 -0.3535
  180MPD1    H5 2802   1.625   2.101  14.635  1.5447  0.8117  0.1838
  180MPD1    N1 2803   2.063   2.199  14.774  0.3428  0.0568  0.6252
  180MPD1    H6 2804   2.145   2.203  14.834  0.5578  1.2769  0.2426
  180MPD1    H7 2805   2.036   2.297  14.771  2.3116  0.5349 -1.5575
  181MPD1     C 2806   2.890   0.373   9.739 -0.3003  0.2795 -0.2488
  181MPD1    C1 2807   2.845   0.389   9.873 -0.5138  0.3891 -0.3388
  181MPD1    C2 2808   2.900   0.300   9.967 -0.4415 -1.3422  0.3656
  181MPD1    C3 2809   2.982   0.188   9.931 -0.0266 -0.9286  0.0429
  181MPD1    C4 2810   3.011   0.178   9.800  0.4317  0.0511  0.2548
  181MPD1    C5 2811   2.970   0.269   9.703  0.7136  0.0044  0.3867
  181MPD1     H 2812   2.872   0.329  10.068  0.5482  0.2375  0.1887
  181MPD1    H1 2813   3.067   0.091   9.766 -0.4114 -1.0300  1.6430
  181MPD1    H2 2814   2.864   0.445   9.661 -1.4942  0.2716  0.1377
  181MPD1    H3 2815   2.986   0.250   9.597 -1.9152 -0.0827  0.0112
  181MPD1     N 2816   3.033   0.096  10.031 -0.6129  0.1031 -0.9628
  181MPD1    H5 2817   3.085   0.018   9.993  1.3950  0.3200  1.3605
  181MPD1    N1 2818   2.759   0.496   9.908 -1.0606  0.0954  0.4648
  181MPD1    H6 2819   2.714   0.534   9.825 -0.4715 -1.6704 -0.6381
  181MPD1    H7 2820   2.691   0.480   9.983 -0.9708 -1.1334  0.2726
  182MPD1     C 2821   4.537   2.630   1.308  0.0890 -0.1021  0.0449
  182MPD1    C1 2822   4.471   2.739   1.361 -0.3344 -0.8660  0.1411
  182MPD1    C2 2823   4.350   2.787   1.304  0.5461  0.0321  0.3253
  182MPD1    C3 2824   4.300   2.743   1.185  0.8234  0.0249  0.3551
  182MPD1    C4 2825   4.353   2.621   1.143  0.2298 -0.1794  0.6579
  182MPD1    C5 2826   4.473   2.576   1.200  0.3485  0.2499  0.3138
  182MPD1     H 2827   4.314   2.884   1.338  0.7037 -0.8431  3.0358
  182MPD1    H1 2828   4.304   2.561   1.067  0.2615 -0.9284  1.2291
  182MPD1    H2 2829   4.623   2.577   1.347 -0.2389  1.4992  2.9547
  182MPD1    H3 2830   4.505   2.480   1.160 -1.4588 -0.1149 -0.2225
  182MPD1     N 2831   4.195   2.810   1.109 -0.1290  0.1504 -0.2369
  182MPD1    H5 2832   4.168   2.770   1.020  1.6160  0.6051 -0.9648
  182MPD1    N1 2833   4.538   2.804   1.462  0.7930 -0.5744  0.1570
  182MPD1    H6 2834   4.480   2.867   1.518  0.2559 -0.3938 -0.6140
  182MPD1    H7 2835   4.568   2.739   1.535  1.5644  0.4595  0.7706
  183MPD1     C 2836   3.427   2.956  10.105  0.1713  0.0960  0.1251
  183MPD1    C1 2837   3.510   2.970  10.000 -0.9351  0.2432  0.5683
  183MPD1    C2 2838   3.531   3.102   9.951  0.1902 -1.0744 -0.2924
  183MPD1    C3 2839   3.456   3.211   9.989 -0.5203  0.6122 -0.1227
  183MPD1    C4 2840   3.358   3.181  10.085 -1.3379  0.4842  0.5567
  183MPD1    C5 2841   3.349   3.057  10.150  0.9743 -0.2212 -0.2299
  183MPD1     H 2842   3.610   3.107   9.877  1.5190 -0.4909  1.1562
  183MPD1    H1 2843   3.288   3.258  10.116  0.6774  1.7645  1.9308
  183MPD1    H2 2844   3.412   2.861  10.155 -1.5184 -0.5091 -1.5092
  183MPD1    H3 2845   3.279   3.032  10.229  2.5024 -2.1760  0.4924
  183MPD1     N 2846   3.483   3.343   9.939  0.5139 -0.0947  0.2744
  183MPD1    H5 2847   3.551   3.347   9.864  1.6003  2.1517  1.3931
  183MPD1    N1 2848   3.606   2.872   9.960 -0.2171 -0.5555 -0.0734
  183MPD1    H6 2849   3.582   2.774   9.975  1.0194 -0.3970  2.9776
  183MPD1    H7 2850   3.634   2.880   9.862 -1.0824  0.8773 -0.2137
  184MPD1     C 2851   2.055   1.505  10.096 -0.4426 -0.6339  0.0196
  184MPD1    C1 2852   2.178   1.442  10.070  0.1811  0.4281  0.5254
  184MPD1    C2 2853   2.265   1.511   9.991 -0.1024  0.7254 -0.9729
  184MPD1    C3 2854   2.237   1.635   9.927  0.6522 -0.7024 -0.0518
  184MPD1    C4 2855   2.123   1.695   9.968  0.3349 -0.5685 -0.5594
  184MPD1    C5 2856   2.034   1.632  10.044  0.0964 -0.2310 -0.3444
  184MPD1     H 2857   2.350   1.450   9.964 -0.7178  1.1772 -3.8848
  184MPD1    H1 2858   2.099   1.797   9.941 -1.1335 -0.3873  1.4266
  184MPD1    H2 2859   1.974   1.455  10.148  2.5196 -3.9114  1.4407
  184MPD1    H3 2860   1.934   1.673  10.055  0.4280  0.8973 -1.6482
  184MPD1     N 2861   2.321   1.699   9.834  0.3436  0.1286 -0.1298
  184MPD1    H5 2862   2.277   1.781   9.793  1.3587 -0.1639 -1.8281
  184MPD1    N1 2863   2.203   1.307  10.111 -0.5224  0.3063  0.3194
  184MPD1    H6 2864   2.165   1.296  10.205 -3.0300 -1.7349 -0.9424
  184MPD1    H7 2865   2.302   1.285  10.118 -1.0086 -1.9261  0.1330
  185MPD1     C 2866   2.604   1.852   8.854  0.0387 -0.3716  0.1850
  185MPD1    C1 2867   2.485   1.884   8.919  0.0894  0.2334 -0.5747
  185MPD1    C2 2868   2.486   1.889   9.056 -0.2388 -0.0370 -0.4254
  185MPD1    C3 2869   2.603   1.882   9.127 -0.4441 -0.1605  0.0822
  185MPD1    C4 2870   2.721   1.862   9.061 -0.2649 -0.5668 -0.2008
  185MPD1    C5 2871   2.726   1.842   8.920  0.3386  0.0388  0.5346
  185MPD1     H 2872   2.393   1.888   9.113 -0.2018  0.9472 -0.3373
  185MPD1    H1 2873   2.811   1.860   9.121  0.6238 -1.1856 -1.5512
  185MPD1    H2 2874   2.603   1.831   8.748  2.1287  2.9410 -0.4944
  185MPD1    H3 2875   2.822   1.817   8.877 -0.5588 -0.3903 -1.2292
  185MPD1     N 2876   2.614   1.870   9.268  0.6426 -0.4999 -0.5041
  185MPD1    H5 2877   2.707   1.850   9.302  0.9921  1.2251 -0.4429
  185MPD1    N1 2878   2.362   1.869   8.850 -0.2806  0.1477  0.1248
  185MPD1    H6 2879   2.285   1.913   8.899 -0.8930  0.4814 -1.1282
  185MPD1    H7 2880   2.362   1.917   8.760  1.8093 -2.4820 -1.2819
  186MPD1     C 2881   1.326   0.509  15.615  0.2091 -0.0348 -0.0104
  186MPD1    C1 2882   1.386   0.453  15.724 -0.0859  0.5841 -0.6369
  186MPD1    C2 2883   1.434   0.547  15.816  0.3374  0.0105 -0.3724
  186MPD1    C3 2884   1.402   0.683  15.823  0.4299  0.0193  0.0493
  186MPD1    C4 2885   1.323   0.730  15.720  0.8543  0.0977  0.3879
  186MPD1    C5 2886   1.285   0.643  15.623 -0.5926 -0.9057 -0.0300
  186MPD1     H 2887   1.497   0.513  15.898 -0.8117  0.3830  0.6780
  186MPD1    H1 2888   1.296   0.833  15.701  0.3000 -0.1610 -0.1971
  186MPD1    H2 2889   1.300   0.458  15.523 -0.2165 -1.6813  1.0166
  186MPD1    H3 2890   1.238   0.683  15.535  2.4583 -0.2103 -1.3522
  186MPD1     N 2891   1.458   0.781  15.919 -0.2766  0.1618  0.6936
  186MPD1    H5 2892   1.434   0.879  15.908 -1.4945 -0.2005  0.0949
  186MPD1    N1 2893   1.419   0.316  15.731  1.4146 -0.0667 -0.0628
  186MPD1    H6 2894   1.403   0.280  15.825 -2.2537 -1.9350 -1.3943
  186MPD1    H7 2895   1.369   0.261  15.662  1.8419 -2.0943  1.2667
  187MPD1     C 2896   1.725   2.460  17.690  0.0640  0.1457  0.5383
  187MPD1    C1 2897   1.597   2.483  17.733 -0.2527 -0.0031  0.3710
  187MPD1    C2 2898   1.501   2.534  17.643  0.2362 -0.3203  0.4642
  187MPD1    C3 2899   1.533   2.578  17.514  0.0705 -0.2377 -0.5546
  187MPD1    C4 2900   1.666   2.561  17.479 -0.0037  0.4043 -0.9645
  187MPD1    C5 2901   1.755   2.498  17.564 -0.3174  0.1213  0.5844
  187MPD1     H 2902   1.397   2.544  17.672 -0.3599 -0.5501 -1.5318
  187MPD1    H1 2903   1.701   2.594  17.382  3.4366  0.7559  0.4062
  187MPD1    H2 2904   1.800   2.416   0.015  1.1042 -0.6397 -1.1726
  187MPD1    H3 2905   1.854   2.484  17.522 -1.0548  0.6484 -1.3268
  187MPD1     N 2906   1.446   2.641  17.419  0.4801 -0.2558 -0.4191
  187MPD1    H5 2907   1.493   2.694  17.346 -1.5428  1.7647 -0.2389
  187MPD1    N1 2908   1.555   2.427   0.114  0.1887  0.0054  0.1814
  187MPD1    H6 2909   1.483   2.485   0.158  2.1565  2.0100  0.7664
  187MPD1    H7 2910   1.630   2.423   0.183 -1.6813  1.0292  2.2812
  188MPD1     C 2911   0.709   2.602  10.159  0.6667 -0.0684  0.5450
  188MPD1    C1 2912   0.744   2.508  10.253  0.1730  0.7248  0.0811
  188MPD1    C2 2913   0.701   2.377  10.232 -0.3864 -0.2000 -0.6458
  188MPD1    C3 2914   0.607   2.347  10.135  0.0011 -0.4280 -0.2560
  188MPD1    C4 2915   0.568   2.444  10.046 -0.1399  0.0523 -0.0738
  188MPD1    C5 2916   0.619   2.576  10.058 -0.1618  0.3414  0.1719
  188MPD1     H 2917   0.727   2.295  10.298 -1.1770 -0.1660 -0.2934
  188MPD1    H1 2918   0.515   2.422   9.955 -0.5527  0.9749 -0.0590
  188MPD1    H2 2919   0.767   2.694  10.154  1.4460 -0.5466  0.7358
  188MPD1    H3 2920   0.607   2.646   9.976 -1.4808 -1.0589 -0.8299
  188MPD1     N 2921   0.546   2.219  10.117  0.2345 -0.1422 -0.3278
  188MPD1    H5 2922   0.470   2.222  10.051  0.5917  0.8966 -0.6922
  188MPD1    N1 2923   0.848   2.545  10.339 -0.5596 -0.6980 -0.5848
  188MPD1    H6 2924   0.845   2.640  10.375  1.6430 -1.2369  0.9924
  188MPD1    H7 2925   0.864   2.479  10.414 -3.3041  0.1755  0.7747
  189MPD1     C 2926   3.042   3.515   0.431 -0.3218 -0.0084  0.0809
  189MPD1    C1 2927   2.955   3.614   0.461 -0.0430 -0.1089  0.0575
  189MPD1    C2 2928   2.836   3.620   0.393 -0.3773  0.3534 -0.0689
  189MPD1    C3 2929   2.813   3.523   0.294 -0.3682 -0.0956 -0.0336
  189MPD1    C4 2930   2.895   3.416   0.284  0.2435 -0.0208 -0.2761
  189MPD1    C5 2931   3.018   3.414   0.346  0.1713  0.1232  0.1894
  189MPD1     H 2932   2.772   3.707   0.403 -1.6365 -0.6850  0.9384
  189MPD1    H1 2933   2.867   3.327   0.228  2.3324 -0.9704  0.2059
  189MPD1    H2 2934   3.142   3.514   0.475  0.4140  0.2401 -1.5751
  189MPD1    H3 2935   3.088   3.333   0.328  0.8560  0.1971  2.5127
  189MPD1     N 2936   2.693   3.538   0.214  0.7081 -0.0770 -0.5245
  189MPD1    H5 2937   2.634   3.617   0.239  0.9279 -0.5265  1.3973
  189MPD1    N1 2938   3.000   3.725   0.539 -0.9965 -0.8642 -0.1012
  189MPD1    H6 2939   3.056   3.687   0.615 -0.7307  1.2130  0.7463
  189MPD1    H7 2940   2.918   3.769   0.579 -0.1836  0.6091 -0.0424
  190MPD1     C 2941   1.152   2.592  15.502  0.0656  0.7904  0.4838
  190MPD1    C1 2942   1.115   2.474  15.550  0.2125 -0.7002 -0.0647
  190MPD1    C2 2943   1.207   2.374  15.573  0.0356  0.4241  0.6377
  190MPD1    C3 2944   1.342   2.404  15.554  0.7254 -0.5577 -0.2532
  190MPD1    C4 2945   1.377   2.523  15.494  0.1949  0.1856 -0.2840
  190MPD1    C5 2946   1.282   2.618  15.471  0.0317  0.1697  0.3877
  190MPD1     H 2947   1.187   2.271  15.597  1.2894  0.0191 -0.0738
  190MPD1    H1 2948   1.480   2.551  15.476 -0.3105  1.9944 -0.3294
  190MPD1    H2 2949   1.088   2.676  15.476 -0.0113  0.2635 -1.0292
  190MPD1    H3 2950   1.309   2.722  15.453 -0.4065 -0.1031 -1.8357
  190MPD1     N 2951   1.440   2.311  15.592 -0.5121  0.3070  0.1149
  190MPD1    H5 2952   1.403   2.233  15.645 -1.3761  1.0925  0.6559
  190MPD1    N1 2953   0.977   2.449  15.559 -0.5399 -0.7478  0.3368
  190MPD1    H6 2954   0.948   2.375  15.623 -0.8745 -0.1370  0.8900
  190MPD1    H7 2955   0.929   2.530  15.597 -0.2107 -0.0351 -0.7662
  191MPD1     C 2956   0.404   3.708  13.549 -0.1864  0.2624 -0.1268
  191MPD1    C1 2957   0.285   3.774  13.512  0.0750 -0.4574  0.0481
  191MPD1    C2 2958   0.300   3.902  13.459 -0.9002 -0.2615 -0.3453
  191MPD1    C3 2959   0.420   3.951  13.420 -0.1989  0.1451  0.5075
  191MPD1    C4 2960   0.536   3.888  13.460  0.0249 -0.2790  0.3520
  191MPD1    C5 2961   0.526   3.766  13.527 -0.1972  0.5766  0.4202
  191MPD1     H 2962   0.210   3.949  13.421 -3.1515 -3.6712  0.7801
  191MPD1    H1 2963   0.633   3.936  13.451 -1.0588  1.5256 -1.7684
  191MPD1    H2 2964   0.406   3.607  13.588  1.0155 -0.8011 -2.9289
  191MPD1    H3 2965   0.615   3.716  13.563  0.5968  0.9414 -1.0299
  191MPD1     N 2966   0.414   4.075  13.354  0.6167  0.4383  0.4871
  191MPD1    H5 2967   0.323   4.119  13.347 -0.1754 -1.3598 -0.6732
  191MPD1    N1 2968   0.161   3.723  13.556 -0.1288 -0.3138 -0.0747
  191MPD1    H6 2969   0.080   3.748  13.500  0.0222  1.2015  0.3785
  191MPD1    H7 2970   0.170   3.622  13.558  0.1859 -0.2846  0.0943
  192MPD1     C 2971   4.458   4.552  13.241 -0.0777 -0.2599 -0.5315
  192MPD1    C1 2972   4.549   4.651  13.278 -0.3564  0.2598 -0.3152
  192MPD1    C2 2973   4.686   4.615  13.280 -0.6495 -0.0763  0.5405
  192MPD1    C3 2974   4.729   4.493  13.225  0.3685  0.5158 -0.8542
  192MPD1    C4 2975   4.636   4.402  13.178 -0.4616  0.3345 -0.4705
  192MPD1    C5 2976   4.504   4.433  13.203  0.5499  0.1620 -0.9314
  192MPD1     H 2977   0.024   4.676  13.330 -0.9633  0.2009  0.6658
  192MPD1    H1 2978   4.656   4.309  13.126 -1.5648  0.6933 -1.5358
  192MPD1    H2 2979   4.350   4.559  13.248 -0.0380  0.2879 -0.4748
  192MPD1    H3 2980   4.432   4.362  13.162  0.1589 -0.1272  0.2477
  192MPD1     N 2981   0.125   4.445  13.214 -0.0056  0.1271 -0.6157
  192MPD1    H5 2982   0.144   4.348  13.191  1.4011  0.0837  0.7192
  192MPD1    N1 2983   4.506   0.030  13.350  0.1446  0.3003 -0.0497
  192MPD1    H6 2984   4.410   0.051  13.323  0.3172  1.0112 -0.1185
  192MPD1    H7 2985   4.564   0.112  13.333 -2.4939  2.2298  0.2840
  193MPD1     C 2986   0.922   3.870   0.102  0.1251  0.4706  0.1457
  193MPD1    C1 2987   0.804   3.944   0.071  0.6279  0.9013 -0.2637
  193MPD1    C2 2988   0.782   3.983  17.683 -1.1648  0.1022  0.0616
  193MPD1    C3 2989   0.878   3.971  17.593  0.5894 -0.1001 -0.9466
  193MPD1    C4 2990   0.995   3.902  17.620 -0.5817  0.4859 -0.6431
  193MPD1    C5 2991   1.018   3.856   0.007 -0.2404  0.3618  0.4811
  193MPD1     H 2992   0.689   4.036  17.670 -0.7434  1.2842  1.8443
  193MPD1    H1 2993   1.076   3.906  17.548  0.1755 -2.7558  0.0738
  193MPD1    H2 2994   0.935   3.822   0.199 -0.7492 -1.0218 -0.4835
  193MPD1    H3 2995   1.107   3.798   0.027 -0.6894 -0.7997 -0.9381
  193MPD1     N 2996   0.868   4.013  17.462 -0.0215  0.0161  0.0413
  193MPD1    H5 2997   0.949   3.997  17.402  1.4841  2.3752  1.4311
  193MPD1    N1 2998   0.698   3.934   0.163 -0.0016  0.4199  0.1307
  193MPD1    H6 2999   0.639   4.017   0.156  0.5771  0.9830  2.0448
  193MPD1    H7 3000   0.731   3.925   0.258 -0.7221  3.4071  0.6572
  194MPD1     C 3001   2.967   1.799  16.508  0.0102  0.0020  0.6094
  194MPD1    C1 3002   2.982   1.830  16.634  0.4238 -0.8255  0.3745
  194MPD1    C2 3003   2.998   1.737  16.735  0.3534  0.4742  0.2425
  194MPD1    C3 3004   3.005   1.607  16.695  0.0138 -0.0832  0.1547
  194MPD1    C4 3005   2.991   1.567  16.567  0.8780  0.2755  0.0752
  194MPD1    C5 3006   2.968   1.665  16.478  0.8766  0.0792 -0.2578
  194MPD1     H 3007   3.018   1.777  16.833 -1.5484  3.3575 -0.5411
  194MPD1    H1 3008   2.984   1.464  16.534 -0.7836  0.1862  0.7426
  194MPD1    H2 3009   2.957   1.869  16.426  0.1232 -0.2052  0.4191
  194MPD1    H3 3010   2.957   1.636  16.374 -0.7072  0.7733 -0.2912
  194MPD1     N 3011   2.999   1.500  16.786  0.4537 -0.3586 -0.0942
  194MPD1    H5 3012   3.001   1.412  16.736  0.3398  0.4812 -1.5772
  194MPD1    N1 3013   2.954   1.963  16.672 -0.0540  0.1283 -0.0523
  194MPD1    H6 3014   2.998   1.986  16.761 -0.7224  0.4673  0.1880
  194MPD1    H7 3015   2.998   2.033  16.613  1.7411 -0.4043  0.6428
  195MPD1     C 3016   0.122   3.170  17.615  0.1716 -0.4844  0.4132
  195MPD1    C1 3017   0.027   3.128  17.712  0.3816  0.0277  0.3227
  195MPD1    C2 3018   0.081   3.076   0.088 -0.6306 -0.2987 -0.0690
  195MPD1    C3 3019   0.219   3.057   0.102  0.0792  0.3722 -0.7186
  195MPD1    C4 3020   0.302   3.078  17.734  0.9526  1.0681 -0.8128
  195MPD1    C5 3021   0.251   3.143  17.628  0.1944 -0.2815 -0.5136
  195MPD1     H 3022   0.014   3.049   0.168 -0.7777  0.2516 -0.0024
  195MPD1    H1 3023   0.408   3.055  17.735  0.1529 -2.5598  0.2479
  195MPD1    H2 3024   0.086   3.229  17.532  0.2014 -1.1509 -0.0714
  195MPD1    H3 3025   0.326   3.174  17.556 -0.4149  1.4349 -0.4185
  195MPD1     N 3026   0.280   3.008   0.221 -0.1895 -0.0520  0.5026
  195MPD1    H5 3027   0.379   2.986   0.221 -0.5024 -1.5060 -0.6557
  195MPD1    N1 3028   4.623   3.156  17.695 -0.7552  0.0672 -0.2359
  195MPD1    H6 3029   4.566   3.094   0.011  2.8821 -1.2796  1.9607
  195MPD1    H7 3030   4.600   3.142  17.597  1.1710  1.0028 -0.8395
  196MPD1     C 3031   0.384   3.769   0.279  0.2420  1.0259 -0.0001
  196MPD1    C1 3032   0.263   3.780   0.330  0.3361  1.3206 -0.1960
  196MPD1    C2 3033   0.231   3.718   0.450 -0.7014 -0.4651  0.0275
  196MPD1    C3 3034   0.326   3.636   0.512  0.0004  0.5540  0.0362
  196MPD1    C4 3035   0.447   3.620   0.454 -0.2208  0.8689  0.1947
  196MPD1    C5 3036   0.482   3.692   0.341 -0.8306 -0.5511  0.4476
  196MPD1     H 3037   0.125   3.730   0.472 -0.3720  1.5894  0.4810
  196MPD1    H1 3038   0.524   3.564   0.506 -2.4367 -0.9177  1.5411
  196MPD1    H2 3039   0.410   3.822   0.189 -1.4419  0.9899 -0.5083
  196MPD1    H3 3040   0.583   3.687   0.301 -1.8666 -0.4226 -2.2011
  196MPD1     N 3041   0.303   3.557   0.627  0.3478  0.0654 -0.2675
  196MPD1    H5 3042   0.370   3.483   0.642  0.0510 -0.1119  0.1633
  196MPD1    N1 3043   0.160   3.844   0.263 -0.4397 -0.5072  0.2638
  196MPD1    H6 3044   0.077   3.860   0.320 -1.9231 -1.5027 -1.6144
  196MPD1    H7 3045   0.194   3.919   0.204 -1.4996  0.4788  0.9198
  197MPD1     C 3046   3.404   4.247  17.381  0.9068 -0.3681 -0.4563
  197MPD1    C1 3047   3.505   4.284  17.467 -0.8699  0.0331 -0.4807
  197MPD1    C2 3048   3.621   4.328  17.411 -0.1616 -1.1764 -1.0172
  197MPD1    C3 3049   3.660   4.308  17.280 -0.4198  0.4803  0.1347
  197MPD1    C4 3050   3.561   4.254  17.201  0.1565  0.1975 -0.0212
  197MPD1    C5 3051   3.439   4.217  17.249  0.2104 -0.3384  0.5196
  197MPD1     H 3052   3.696   4.371  17.476 -2.0553  0.5608 -0.0144
  197MPD1    H1 3053   3.577   4.247  17.094  0.2914 -0.3022  0.0331
  197MPD1    H2 3054   3.311   4.220  17.430  0.2825  1.8814 -0.4361
  197MPD1    H3 3055   3.354   4.181  17.192 -0.9144  1.2749  1.1974
  197MPD1     N 3056   3.774   4.353  17.210 -0.1595 -0.1723 -0.1280
  197MPD1    H5 3057   3.782   4.336  17.110 -0.1367  0.8932 -0.2979
  197MPD1    N1 3058   3.478   4.317  17.604 -0.2111  0.8054  0.4964
  197MPD1    H6 3059   3.402   4.265  17.649 -0.8377 -0.9726 -2.6431
  197MPD1    H7 3060   3.557   4.298  17.665 -1.3823  1.0816  2.1168
  198MPD1     C 3061   1.316   2.976  15.213 -0.1504 -0.4710 -0.0574
  198MPD1    C1 3062   1.379   3.078  15.283  0.7786 -0.2571  0.2024
  198MPD1    C2 3063   1.316   3.118  15.399  0.4408  0.2784 -0.0553
  198MPD1    C3 3064   1.189   3.076  15.436 -0.3081  0.1697 -0.1294
  198MPD1    C4 3065   1.123   2.978  15.356 -0.5158 -0.8817  0.0787
  198MPD1    C5 3066   1.191   2.932  15.245 -0.1436  0.1125  0.9490
  198MPD1     H 3067   1.377   3.181  15.463 -0.9324 -0.7884  2.3038
  198MPD1    H1 3068   1.022   2.946  15.377 -0.5753 -0.5373  0.3155
  198MPD1    H2 3069   1.348   2.938  15.116 -0.6674 -2.3245  0.5072
  198MPD1    H3 3070   1.144   2.855  15.184 -1.4599 -0.2015  2.3787
  198MPD1     N 3071   1.146   3.133  15.560  0.2045 -0.0397  0.3168
  198MPD1    H5 3072   1.214   3.195  15.602  0.3217 -0.5452  0.8768
  198MPD1    N1 3073   1.520   3.089  15.270  0.4156  0.4061  0.1837
  198MPD1    H6 3074   1.531   3.080  15.169  2.9910  1.4116  0.3744
  198MPD1    H7 3075   1.561   3.171  15.313 -0.1275  0.8934 -0.2284
  199MPD1     C 3076   2.772   4.690   8.894 -0.1359 -0.1499 -0.0924
  199MPD1    C1 3077   2.846   4.623   8.991 -0.2617 -0.4085  0.6914
  199MPD1    C2 3078   2.836   4.666   9.123 -0.5901 -0.0253 -0.9194
  199MPD1    C3 3079   2.747   0.029   9.158  0.5903  0.2356  0.4770
  199MPD1    C4 3080   2.677   0.098   9.059 -0.1240 -0.0987 -0.0242
  199MPD1    C5 3081   2.689   0.055   8.927  0.2610  0.1184 -0.1820
  199MPD1     H 3082   2.889   4.609   9.198 -0.6668 -0.2639 -1.0473
  199MPD1    H1 3083   2.619   0.182   9.096 -0.1107  0.8554 -2.1794
  199MPD1    H2 3084   2.771   4.657   8.791 -0.8807 -0.0673 -0.1088
  199MPD1    H3 3085   2.631   0.114   8.856  1.2276  0.2045 -0.9085
  199MPD1     N 3086   2.719   0.063   9.289  0.1528 -0.2318 -0.6888
  199MPD1    H5 3087   2.651   0.135   9.311  0.5998  0.1077 -0.3972
  199MPD1    N1 3088   2.904   4.498   8.964 -0.5005  0.5449 -0.7264
  199MPD1    H6 3089   2.916   4.494   8.863 -0.6375 -1.1783 -0.6628
  199MPD1    H7 3090   2.990   4.476   9.014 -0.6975  0.7370 -0.3015
  200MPD1     C 3091   2.301   4.516  15.200 -0.5713 -0.0918 -0.4540
  200MPD1    C1 3092   2.423   4.545  15.146 -0.6585 -0.2127 -0.1716
  200MPD1    C2 3093   2.442   4.517  15.003  0.2433  0.0073 -0.4148
  200MPD1    C3 3094   2.349   4.442  14.934 -0.3417  0.8906  0.0847
  200MPD1    C4 3095   2.239   4.397  14.999 -0.2134 -0.1455 -0.3646
  200MPD1    C5 3096   2.212   4.441  15.124  0.0521  0.0905 -0.0879
  200MPD1     H 3097   2.534   4.549  14.954 -0.1449  1.9542  0.1273
  200MPD1    H1 3098   2.171   4.319  14.968  0.0645 -0.2535 -0.7080
  200MPD1    H2 3099   2.270   4.565  15.292  0.8850  1.7145 -0.9356
  200MPD1    H3 3100   2.118   4.417  15.172 -0.3512  0.4489 -0.6966
  200MPD1     N 3101   2.377   4.381  14.806 -0.3188 -0.3736  0.3482
  200MPD1    H5 3102   2.292   4.357  14.756  0.5789 -3.1287  0.1501
  200MPD1    N1 3103   2.504   4.642  15.212 -0.1233 -0.0122  0.1720
  200MPD1    H6 3104   2.598   4.639  15.174  0.7439 -0.5141  2.3803
  200MPD1    H7 3105   2.501   4.643  15.314 -0.1352  0.1194  0.1698
  201MPD1     C 3106   3.981   3.328  13.423 -0.6545 -0.8686  0.1872
  201MPD1    C1 3107   4.035   3.231  13.340 -0.4300  0.2953 -0.7501
  201MPD1    C2 3108   4.161   3.186  13.370 -0.6973 -0.3095 -0.5659
  201MPD1    C3 3109   4.243   3.260  13.453  0.0041  0.5261 -0.9244
  201MPD1    C4 3110   4.199   3.364  13.526 -0.4016 -0.0031  0.2045
  201MPD1    C5 3111   4.066   3.399  13.510 -0.0547 -0.4153  0.1828
  201MPD1     H 3112   4.204   3.101  13.318  2.6962  0.2002  1.3722
  201MPD1    H1 3113   4.262   3.419  13.595 -0.5005  1.4814 -0.8864
  201MPD1    H2 3114   3.876   3.355  13.423 -0.3092  0.5324  1.0968
  201MPD1    H3 3115   4.019   3.469  13.578  0.6682 -0.7759  1.0542
  201MPD1     N 3116   4.374   3.206  13.462  0.2162 -0.3100  0.8129
  201MPD1    H5 3117   4.392   3.121  13.410  2.0560  0.1386  0.7169
  201MPD1    N1 3118   3.967   3.152  13.257  0.1902  0.0480 -0.2359
  201MPD1    H6 3119   4.031   3.116  13.186 -1.1662 -1.4838 -0.6796
  201MPD1    H7 3120   3.888   3.200  13.214  1.9093  3.0316 -0.0211
  202MPD1     C 3121   3.753   2.299   9.423  0.4902 -0.5552  0.3634
  202MPD1    C1 3122   3.749   2.395   9.321 -0.0622 -0.0170  0.2321
  202MPD1    C2 3123   3.810   2.519   9.347 -0.3990  0.0198  0.5575
  202MPD1    C3 3124   3.907   2.533   9.447 -0.1270 -0.3209 -0.3199
  202MPD1    C4 3125   3.920   2.431   9.542 -1.0541  0.7565  0.3432
  202MPD1    C5 3126   3.836   2.328   9.526  0.4549  0.4620  0.1251
  202MPD1     H 3127   3.797   2.594   9.270 -2.3607 -0.2883  0.5858
  202MPD1    H1 3128   3.981   2.438   9.631  2.5547 -0.9403 -2.0163
  202MPD1    H2 3129   3.696   2.207   9.423 -0.3826 -0.0275 -2.0207
  202MPD1    H3 3130   3.845   2.263   9.613  1.5851  2.7395  1.7013
  202MPD1     N 3131   3.997   2.637   9.466 -0.0581 -0.3966 -0.7494
  202MPD1    H5 3132   4.058   2.630   9.546  1.6707 -1.2616 -2.1342
  202MPD1    N1 3133   3.643   2.385   9.231  0.4530  0.5429  0.2855
  202MPD1    H6 3134   3.648   2.443   9.148  1.8850  1.8139  1.2611
  202MPD1    H7 3135   3.612   2.292   9.205  0.9562 -0.0695  1.8807
  203MPD1     C 3136   3.278   3.926  12.489  0.0613 -0.0463 -0.0297
  203MPD1    C1 3137   3.371   3.854  12.416  0.1636 -0.7623 -0.6436
  203MPD1    C2 3138   3.439   3.753  12.481 -0.4723  0.1723  0.2076
  203MPD1    C3 3139   3.410   3.727  12.615  0.1275 -0.1402 -0.2275
  203MPD1    C4 3140   3.326   3.812  12.683 -0.3527 -0.8724 -0.3663
  203MPD1    C5 3141   3.252   3.904  12.614  0.4132  0.9712 -0.2678
  203MPD1     H 3142   3.516   3.703  12.424 -1.3110 -0.5878 -0.2563
  203MPD1    H1 3143   3.314   3.800  12.790  2.1064  1.4292  0.1500
  203MPD1    H2 3144   3.224   4.011  12.450  2.6149  0.9739 -1.3512
  203MPD1    H3 3145   3.189   3.975  12.666 -0.6742  1.7042 -2.6117
  203MPD1     N 3146   3.468   3.617  12.675 -0.7340 -0.9930  0.3265
  203MPD1    H5 3147   3.533   3.567  12.616 -0.0193 -0.0851  0.3438
  203MPD1    N1 3148   3.404   3.901  12.286 -0.3741 -0.1285  0.0320
  203MPD1    H6 3149   3.466   3.840  12.233  0.7784 -1.0340  2.4192
  203MPD1    H7 3150   3.323   3.939  12.238  1.1880  3.9764  0.6374
  204MPD1     C 3151   2.400   0.365  17.633 -0.2882 -0.3529  0.7423
  204MPD1    C1 3152   2.475   0.358  17.517 -0.6080  0.3411 -0.6303
  204MPD1    C2 3153   2.519   0.236  17.478  0.1631  0.0139  0.0115
  204MPD1    C3 3154   2.476   0.123  17.542 -1.1068 -0.0710  0.2693
  204MPD1    C4 3155   2.387   0.130  17.649  0.0794 -0.2038  1.4382
  204MPD1    C5 3156   2.356   0.252  17.696  0.6800 -0.2536 -0.4041
  204MPD1     H 3157   2.576   0.228  17.386  0.4015 -1.0750  0.2593
  204MPD1    H1 3158   2.354   0.039  17.698  1.2872 -0.3641  1.9744
  204MPD1    H2 3159   2.373   0.461  17.674  0.2477 -0.6550  1.7976
  204MPD1    H3 3160   2.288   0.256   0.040 -1.4689 -0.5455 -2.1168
  204MPD1     N 3161   2.540   0.001  17.507 -0.2938  0.0343 -0.0302
  204MPD1    H5 3162   2.611   0.003  17.434  0.2562  2.5493  0.5690
  204MPD1    N1 3163   2.526   0.471  17.456  0.1609 -0.3707  0.1098
  204MPD1    H6 3164   2.474   0.554  17.483  0.7349  0.1554 -0.4284
  204MPD1    H7 3165   2.537   0.464  17.355 -0.1791  1.0800 -0.0205
  205MPD1     C 3166   3.922   3.513   0.337  1.6177  0.0030 -0.4587
  205MPD1    C1 3167   3.830   3.572   0.419 -0.3952  0.2239 -0.4824
  205MPD1    C2 3168   3.699   3.607   0.373  0.3086 -0.5798 -0.1928
  205MPD1    C3 3169   3.663   3.559   0.246  1.3092 -0.2589  0.1085
  205MPD1    C4 3170   3.757   3.501   0.164  0.7959  0.4846 -0.3873
  205MPD1    C5 3171   3.886   3.476   0.206  0.2318 -0.9670 -1.2828
  205MPD1     H 3172   3.621   3.658   0.429  0.7348 -1.9895  1.6748
  205MPD1    H1 3173   3.735   3.463   0.064  0.4161  0.3007 -0.2331
  205MPD1    H2 3174   4.023   3.497   0.372  0.6811 -0.7877  1.8685
  205MPD1    H3 3175   3.947   3.420   0.137  2.5705  2.1253 -1.7191
  205MPD1     N 3176   3.539   3.571   0.196 -0.0299 -0.3489  0.2204
  205MPD1    H5 3177   3.537   3.550   0.097 -0.3926 -1.1739  0.4004
  205MPD1    N1 3178   3.858   3.605   0.546  0.8401  0.0265  0.0258
  205MPD1    H6 3179   3.793   3.673   0.585  1.2369  0.5928 -0.2868
  205MPD1    H7 3180   3.952   3.642   0.559  1.0497 -0.1313 -1.0375
  206MPD1     C 3181   2.659   1.473  17.313  0.1331 -0.0982 -0.2418
  206MPD1    C1 3182   2.708   1.548  17.211 -0.3118 -0.6853  0.0518
  206MPD1    C2 3183   2.704   1.501  17.077 -0.1853 -1.0530  0.4027
  206MPD1    C3 3184   2.634   1.385  17.046 -0.1119  0.3623  0.0535
  206MPD1    C4 3185   2.579   1.313  17.146 -0.9244 -0.0602 -0.0769
  206MPD1    C5 3186   2.595   1.357  17.277  0.1348 -0.2495  0.2580
  206MPD1     H 3187   2.742   1.566  16.999 -3.1332  0.1981  0.0252
  206MPD1    H1 3188   2.525   1.220  17.130  0.6971 -1.0383  0.0364
  206MPD1    H2 3189   2.642   1.510  17.413  0.6951 -1.5326  0.3851
  206MPD1    H3 3190   2.545   1.302  17.355  0.4654 -0.0530  0.6080
  206MPD1     N 3191   2.612   1.331  16.916  0.1346 -0.1523  0.3616
  206MPD1    H5 3192   2.566   1.241  16.915  0.2079 -0.1884 -0.4478
  206MPD1    N1 3193   2.736   1.684  17.228 -0.3475 -0.4908  0.4630
  206MPD1    H6 3194   2.795   1.719  17.153  1.4838 -0.6308  1.8245
  206MPD1    H7 3195   2.778   1.700  17.320 -1.1707  1.7671  0.4641
  207MPD1     C 3196   4.166   3.468   9.845  0.5354  0.0003  0.6850
  207MPD1    C1 3197   4.190   3.409   9.965  0.7726 -0.4907  0.4789
  207MPD1    C2 3198   4.315   3.413  10.016  0.4632 -0.0071 -0.5763
  207MPD1    C3 3199   4.414   3.485   9.961 -0.6750 -0.1320  0.2026
  207MPD1    C4 3200   4.386   3.560   9.851 -0.4040  0.0293 -0.2827
  207MPD1    C5 3201   4.262   3.550   9.796 -0.5765  0.2718  0.3632
  207MPD1     H 3202   4.339   3.359  10.107 -0.0197 -1.1312 -1.1085
  207MPD1    H1 3203   4.449   3.624   9.791 -0.6052  3.3935  3.1375
  207MPD1    H2 3204   4.075   3.454   9.787  0.6287  0.1966  0.4937
  207MPD1    H3 3205   4.241   3.590   9.698 -0.5146  0.1180  0.2871
  207MPD1     N 3206   4.537   3.498  10.026  0.2181  0.4546  1.2396
  207MPD1    H5 3207   4.604   3.559   9.979 -0.4720 -0.0317 -0.3815
  207MPD1    N1 3208   4.087   3.340  10.027  0.5261  0.6711  0.7150
  207MPD1    H6 3209   4.098   3.324  10.127  0.1324 -1.3709  0.4331
  207MPD1    H7 3210   3.994   3.378  10.008  1.2280  2.7394  1.3216
  208MPD1     C 3211   4.095   1.908  17.661  0.0182 -0.3005 -0.1860
  208MPD1    C1 3212   4.060   1.958   0.048 -0.4106 -0.1126 -0.4807
  208MPD1    C2 3213   3.986   2.066   0.055  0.6947  0.3084  0.4100
  208MPD1    C3 3214   3.940   2.134  17.681 -0.1909  0.3375  1.1444
  208MPD1    C4 3215   3.971   2.079  17.562 -0.0822 -0.5714  0.7191
  208MPD1    C5 3216   4.045   1.964  17.551  0.1785  0.4768 -0.6258
  208MPD1     H 3217   3.984   2.106   0.156 -0.4267 -1.2015  0.9903
  208MPD1    H1 3218   3.950   2.137  17.473 -0.2134  0.0700  1.1648
  208MPD1    H2 3219   4.176   1.836  17.651  1.3726  1.2848 -0.6533
  208MPD1    H3 3220   4.067   1.922  17.453 -2.9174  1.5536 -1.7913
  208MPD1     N 3221   3.878   2.259  17.703  0.1895 -0.1566  0.1959
  208MPD1    H5 3222   3.865   2.279   0.062  1.1606  1.8817 -0.0834
  208MPD1    N1 3223   4.140   1.922   0.163  0.1460  0.7412 -0.1154
  208MPD1    H6 3224   4.108   1.945   0.257 -3.4287  1.0169 -1.3938
  208MPD1    H7 3225   4.158   1.822   0.159 -1.9061  0.2909  2.0179
  209MPD1     C 3226   0.540   2.694  11.533 -0.2604  1.1584  0.1126
  209MPD1    C1 3227   0.418   2.719  11.476  0.9395 -0.1080 -0.1247
  209MPD1    C2 3228   0.400   2.843  11.412  0.3177 -0.1881 -0.0240
  209MPD1    C3 3229   0.495   2.941  11.410 -0.4017  0.5467  0.2535
  209MPD1    C4 3230   0.621   2.911  11.461 -0.1539  0.4528  0.0264
  209MPD1    C5 3231   0.637   2.789  11.530 -0.0054 -0.3604 -0.2836
  209MPD1     H 3232   0.308   2.862  11.358  0.2877  3.9532  1.4703
  209MPD1    H1 3233   0.705   2.979  11.453  0.0536  0.3687  1.6002
  209MPD1    H2 3234   0.566   2.597  11.572 -1.6765  1.0819  0.8432
  209MPD1    H3 3235   0.735   2.772  11.575  0.4856  3.6459  0.2134
  209MPD1     N 3236   0.476   3.062  11.349 -0.4653  0.2437 -0.2474
  209MPD1    H5 3237   0.390   3.062  11.295 -0.1829 -0.3484 -0.6953
  209MPD1    N1 3238   0.320   2.614  11.465  0.1195  0.2352 -0.3225
  209MPD1    H6 3239   0.229   2.659  11.477 -0.8814 -2.5796  2.8065
  209MPD1    H7 3240   0.347   2.562  11.548 -3.0761 -2.3794 -0.9192
  210MPD1     C 3241   0.458   4.162  11.373  0.9110 -0.5335 -0.2132
  210MPD1    C1 3242   0.467   4.061  11.473  0.2897 -0.1827  0.3872
  210MPD1    C2 3243   0.469   3.931  11.437  0.2035 -0.1518  0.6718
  210MPD1    C3 3244   0.436   3.882  11.308 -0.6193 -0.1437 -0.3249
  210MPD1    C4 3245   0.428   3.986  11.215 -0.1738 -0.1666  0.1154
  210MPD1    C5 3246   0.443   4.122  11.249  0.7667 -0.5395  0.0731
  210MPD1     H 3247   0.474   3.860  11.519 -2.3768 -0.4263  0.5975
  210MPD1    H1 3248   0.418   3.962  11.109 -2.2261  0.6193  0.1417
  210MPD1    H2 3249   0.453   4.269  11.391  1.5300 -0.5714  0.1509
  210MPD1    H3 3250   0.438   4.190  11.164  1.9870 -0.0899  0.3643
  210MPD1     N 3251   0.437   3.749  11.270 -0.2351  0.3467  0.2833
  210MPD1    H5 3252   0.412   3.725  11.174  1.5462  0.7606 -0.2769
  210MPD1    N1 3253   0.500   4.097  11.604  1.0134  0.2871  0.4384
  210MPD1    H6 3254   0.467   4.192  11.623  0.5176  0.5750 -1.8859
  210MPD1    H7 3255   0.460   4.026  11.665 -0.6492  0.4856 -0.4201
  211MPD1     C 3256   3.934   3.068  16.618 -0.6275  0.5088 -0.3895
  211MPD1    C1 3257   3.892   3.200  16.593  0.4153  0.6127  0.2403
  211MPD1    C2 3258   3.759   3.220  16.557  0.2872  0.1988  0.3071
  211MPD1    C3 3259   3.671   3.114  16.546 -0.0720 -0.0620 -0.3822
  211MPD1    C4 3260   3.713   2.986  16.566  0.0689  0.6217  0.4755
  211MPD1    C5 3261   3.845   2.961  16.600  0.2319 -0.3820  0.4849
  211MPD1     H 3262   3.718   3.318  16.540  2.3060  1.2563  1.4943
  211MPD1    H1 3263   3.642   2.904  16.563  2.5000 -1.5244  1.5244
  211MPD1    H2 3264   4.033   3.044  16.657 -0.7411 -1.7010 -1.4634
  211MPD1    H3 3265   3.885   2.863  16.622 -1.1809 -1.2330 -0.7455
  211MPD1     N 3266   3.533   3.146  16.526 -0.3205 -0.3281  0.4317
  211MPD1    H5 3267   3.515   3.244  16.544 -2.2010 -0.2618 -1.8212
  211MPD1    N1 3268   3.978   3.309  16.614 -0.6090  0.7946  0.1458
  211MPD1    H6 3269   3.960   3.396  16.564  1.6748  0.6492 -0.9326
  211MPD1    H7 3270   4.076   3.285  16.605 -0.6704  0.2203  1.0231
  212MPD1     C 3271   2.341   1.509  16.641 -0.0537 -0.0326  0.4459
  212MPD1    C1 3272   2.243   1.573  16.710 -0.1151  0.6362 -0.0686
  212MPD1    C2 3273   2.153   1.492  16.779  0.9097  0.3398  0.7416
  212MPD1    C3 3274   2.140   1.358  16.750 -0.6417  0.0873  0.0261
  212MPD1    C4 3275   2.226   1.299  16.665 -0.3821 -0.0652 -0.0950
  212MPD1    C5 3276   2.335   1.370  16.618  0.0157 -0.7345 -0.0751
  212MPD1     H 3277   2.072   1.537  16.835  0.8693 -1.3717  2.0299
  212MPD1    H1 3278   2.213   1.192  16.654  1.1738 -0.3116  0.4504
  212MPD1    H2 3279   2.428   1.563  16.606  0.2912 -1.3505 -0.7094
  212MPD1    H3 3280   2.411   1.314  16.565  1.1148 -2.1224  2.9862
  212MPD1     N 3281   2.041   1.268  16.805  0.8578 -0.2532 -0.0811
  212MPD1    H5 3282   2.051   1.170  16.781  1.0218 -0.8146  2.2507
  212MPD1    N1 3283   2.270   1.708  16.750 -0.3106 -0.0209 -0.2971
  212MPD1    H6 3284   2.316   1.768  16.681 -1.5651  2.8743  1.3776
  212MPD1    H7 3285   2.190   1.756  16.790  0.7431 -0.5935  2.5489
  213MPD1     C 3286   0.826   2.313  15.927  0.4130 -0.4930 -0.2490
  213MPD1    C1 3287   0.866   2.215  15.836  0.4771 -0.0490  1.4087
  213MPD1    C2 3288   0.797   2.213  15.719 -0.2706 -0.3890  0.7983
  213MPD1    C3 3289   0.676   2.275  15.697 -0.0633 -0.1694 -0.8232
  213MPD1    C4 3290   0.623   2.351  15.799 -0.3971  0.1724  0.1496
  213MPD1    C5 3291   0.699   2.372  15.913 -0.2257  0.1262 -0.2783
  213MPD1     H 3292   0.842   2.160  15.637  0.8348  0.6666  0.7255
  213MPD1    H1 3293   0.526   2.398  15.791 -0.6345 -0.2427  0.5679
  213MPD1    H2 3294   0.888   2.328  16.015 -1.0002  2.6407  0.2069
  213MPD1    H3 3295   0.658   2.423  15.999 -0.1497  0.2686 -0.3272
  213MPD1     N 3296   0.604   2.251  15.575  0.0802 -0.5945 -0.1034
  213MPD1    H5 3297   0.661   2.212  15.500  0.4552  0.1946 -0.2206
  213MPD1    N1 3298   0.995   2.160  15.848 -0.6183 -0.0162 -0.3438
  213MPD1    H6 3299   1.021   2.131  15.942 -2.1925 -0.4255 -0.0306
  213MPD1    H7 3300   1.013   2.081  15.786  1.9486  2.1879 -2.3759
  214MPD1     C 3301   4.486   1.812  15.299  0.4637 -0.8292 -0.2170
  214MPD1    C1 3302   4.582   1.761  15.221 -0.1230  0.1072 -0.8099
  214MPD1    C2 3303   4.706   1.828  15.229  0.8261  0.1240 -0.4330
  214MPD1    C3 3304   4.725   1.944  15.305 -0.3998  0.0066 -0.6771
  214MPD1    C4 3305   4.621   1.996  15.376 -1.2492  0.3537 -0.2995
  214MPD1    C5 3306   4.500   1.927  15.379  0.4638  0.7936 -0.4395
  214MPD1     H 3307   0.052   1.778  15.179 -1.9944 -2.8725 -1.9846
  214MPD1    H1 3308   4.643   2.088  15.429 -2.2943  0.0650  0.6423
  214MPD1    H2 3309   4.389   1.764  15.309 -0.4037  0.5390 -2.0595
  214MPD1    H3 3310   4.416   1.973  15.430 -1.8732 -2.1999 -1.5979
  214MPD1     N 3311   0.112   2.016  15.313  0.0217  0.3064 -0.0507
  214MPD1    H5 3312   0.110   2.108  15.357 -0.8355 -0.1869  0.9565
  214MPD1    N1 3313   4.566   1.632  15.174 -0.2370 -0.3120  0.2401
  214MPD1    H6 3314   4.474   1.614  15.134  0.0914  0.4999 -0.8703
  214MPD1    H7 3315   4.638   1.602  15.109 -1.4247  1.7459 -2.0258
  215MPD1     C 3316   4.391   2.768  10.400  0.5849  0.4566 -0.6277
  215MPD1    C1 3317   4.439   2.892  10.360 -0.2205 -0.4057  0.0170
  215MPD1    C2 3318   4.451   2.995  10.456 -0.1910 -0.2580 -0.3111
  215MPD1    C3 3319   4.406   2.979  10.580  0.3474  0.7717  0.5172
  215MPD1    C4 3320   4.358   2.856  10.621 -0.7265 -0.4098 -0.9210
  215MPD1    C5 3321   4.352   2.748  10.531  0.0527  0.8320  0.0732
  215MPD1     H 3322   4.480   3.092  10.417  1.4834  0.0746  1.8023
  215MPD1    H1 3323   4.322   2.834  10.721  1.2016  0.8976  0.0663
  215MPD1    H2 3324   4.387   2.683  10.333  0.8691 -0.8388  0.9826
  215MPD1    H3 3325   4.323   2.648  10.560  2.4506  0.1885  0.2337
  215MPD1     N 3326   4.409   3.096  10.658 -0.1062 -0.3302 -0.1608
  215MPD1    H5 3327   4.442   3.180  10.610  0.2945 -1.3353 -1.6295
  215MPD1    N1 3328   4.498   2.906  10.240 -0.1023  0.3054 -0.8708
  215MPD1    H6 3329   4.468   2.832  10.177  2.3886 -0.8559 -0.7044
  215MPD1    H7 3330   4.489   2.999  10.201 -1.5133  1.1886  1.5793
  216MPD1     C 3331   2.102   1.560  17.172 -0.4374 -0.2322  0.5787
  216MPD1    C1 3332   2.013   1.516  17.270  0.1633 -0.0871  0.2259
  216MPD1    C2 3333   2.010   1.378  17.293 -0.5269  0.6862  0.0679
  216MPD1    C3 3334   2.100   1.289  17.234  0.6421 -0.3477 -0.2082
  216MPD1    C4 3335   2.206   1.338  17.160 -0.1824  0.9416  0.3901
  216MPD1    C5 3336   2.203   1.475  17.126 -0.3266  0.0083  0.6663
  216MPD1     H 3337   1.940   1.326  17.358  0.5089 -0.7549  0.0321
  216MPD1    H1 3338   2.275   1.276  17.104 -1.6805  1.3121 -1.8689
  216MPD1    H2 3339   2.094   1.660  17.131  0.6332 -0.3317  0.1178
  216MPD1    H3 3340   2.267   1.513  17.048  1.0536 -1.8419  0.9137
  216MPD1     N 3341   2.090   1.152  17.256 -0.6464  0.4233  0.1161
  216MPD1    H5 3342   2.037   1.119  17.336  0.7832  1.1600  1.3857
  216MPD1    N1 3343   1.912   1.595  17.323 -0.0382  0.2033 -0.0817
  216MPD1    H6 3344   1.953   1.680  17.362  2.3170  0.6458 -3.5336
  216MPD1    H7 3345   1.863   1.549  17.400 -0.3697 -0.0513 -0.4458
  217MPD1     C 3346   1.858   2.135   8.708 -0.5106 -1.2207 -0.0925
  217MPD1    C1 3347   1.878   2.127   8.845  0.1686  0.7273 -0.3311
  217MPD1    C2 3348   1.903   2.243   8.916 -0.6135  0.4807  0.0667
  217MPD1    C3 3349   1.899   2.364   8.852 -0.1686 -0.0340  0.4327
  217MPD1    C4 3350   1.882   2.369   8.719  0.0248 -0.2527 -1.0504
  217MPD1    C5 3351   1.865   2.256   8.643 -0.3721  0.1423  0.1317
  217MPD1     H 3352   1.933   2.238   9.020  0.9941 -0.6553 -0.4450
  217MPD1    H1 3353   1.913   2.458   8.665  0.6941 -0.3762 -0.8740
  217MPD1    H2 3354   1.844   2.046   8.648  1.5507  0.0146 -2.3838
  217MPD1    H3 3355   1.843   2.265   8.537 -0.9235  2.5619  0.4567
  217MPD1     N 3356   1.940   2.487   8.915  0.0471 -0.0086  0.4844
  217MPD1    H5 3357   1.950   2.570   8.857  0.3224 -0.2239  0.2230
  217MPD1    N1 3358   1.908   2.003   8.901 -0.1749 -0.6908 -0.1519
  217MPD1    H6 3359   1.889   2.003   9.001  2.7932  2.3401  0.4372
  217MPD1    H7 3360   1.871   1.924   8.849 -1.7090 -0.4127  0.5311
  218MPD1     C 3361   4.291   4.211  13.548  0.2081  0.2460  0.4732
  218MPD1    C1 3362   4.215   4.110  13.498  0.1844  0.1181 -0.2244
  218MPD1    C2 3363   4.271   4.034  13.395  0.4473  0.8348  0.2754
  218MPD1    C3 3364   4.395   4.068  13.338 -0.0848  0.6726  0.1281
  218MPD1    C4 3365   4.460   4.175  13.386 -0.1809  0.0558  0.1902
  218MPD1    C5 3366   4.411   4.246  13.488 -0.3930 -0.3436  0.2354
  218MPD1     H 3367   4.221   3.947  13.353  1.5511  0.2187  0.2244
  218MPD1    H1 3368   4.557   4.206  13.347 -0.3969 -0.3113 -0.6279
  218MPD1    H2 3369   4.249   4.269  13.629  0.2049  0.4827  0.3021
  218MPD1    H3 3370   4.468   4.333  13.517  0.7999 -0.1855 -2.6481
  218MPD1     N 3371   4.444   3.985  13.232  0.5327 -0.0867 -0.0466
  218MPD1    H5 3372   4.375   3.918  13.197  1.0587 -1.0778  0.8189
  218MPD1    N1 3373   4.097   4.074  13.565  0.3488 -0.7153  0.5847
  218MPD1    H6 3374   4.057   4.151  13.618  0.7498 -0.2980  0.2753
  218MPD1    H7 3375   4.021   4.039  13.506 -0.4802 -1.0863  1.8650
  219MPD1     C 3376   4.013   3.369  12.626 -0.7603 -0.4796 -0.2442
  219MPD1    C1 3377   3.983   3.484  12.701  0.2500  0.4041 -0.0962
  219MPD1    C2 3378   4.086   3.536  12.774  0.3637 -1.1057 -0.2153
  219MPD1    C3 3379   4.223   3.498  12.758  0.5544  0.3850 -0.4822
  219MPD1    C4 3380   4.249   3.400  12.665  1.1656 -1.0601 -0.1296
  219MPD1    C5 3381   4.142   3.324  12.613 -0.3668 -0.7646  0.0197
  219MPD1     H 3382   4.055   3.618  12.838 -1.8556 -2.1369  0.0529
  219MPD1    H1 3383   4.349   3.371  12.636  1.0477  0.3698 -1.9547
  219MPD1    H2 3384   3.938   3.307  12.578 -0.3130 -0.0860 -1.4509
  219MPD1    H3 3385   4.152   3.233  12.556 -1.6042 -0.3700 -0.8361
  219MPD1     N 3386   4.331   3.564  12.811 -0.1811 -0.0003 -0.4360
  219MPD1    H5 3387   4.421   3.520  12.793  0.3459  1.1362 -0.5334
  219MPD1    N1 3388   3.853   3.531  12.716  0.5060  0.0189 -0.5616
  219MPD1    H6 3389   3.838   3.628  12.744 -2.1247 -0.6497  0.3448
  219MPD1    H7 3390   3.807   3.511  12.627 -0.8941 -0.0332  0.1799
  220MPD1     C 3391   3.935   4.207   9.295  0.0506 -0.0867 -0.3085
  220MPD1    C1 3392   3.840   4.123   9.359  0.5045 -0.2262 -0.5207
  220MPD1    C2 3393   3.882   4.045   9.465  0.0611  0.4208 -0.3480
  220MPD1    C3 3394   4.006   4.059   9.520 -0.0919  0.2367  0.3099
  220MPD1    C4 3395   4.092   4.143   9.460  0.4667 -0.7429 -0.3977
  220MPD1    C5 3396   4.056   4.216   9.353  0.2738  1.0515  0.4773
  220MPD1     H 3397   3.809   3.994   9.528 -0.1545  0.4566 -0.5718
  220MPD1    H1 3398   4.192   4.172   9.490  0.4501  0.4474 -1.5055
  220MPD1    H2 3399   3.919   4.265   9.204  1.2397  0.1157 -0.3786
  220MPD1    H3 3400   4.125   4.274   9.294  1.5953 -2.2459 -1.2006
  220MPD1     N 3401   4.036   3.996   9.645  0.1576  0.0527 -0.3636
  220MPD1    H5 3402   3.957   3.950   9.689 -0.8073  1.6600 -0.4031
  220MPD1    N1 3403   3.718   4.083   9.295  0.3589  0.4689  0.1363
  220MPD1    H6 3404   3.673   4.157   9.242  3.7429  0.5711 -2.6078
  220MPD1    H7 3405   3.654   4.033   9.355 -1.1665  1.4467 -0.6768
  221MPD1     C 3406   2.431   3.619  16.058  0.3119  0.2516  0.3202
  221MPD1    C1 3407   2.409   3.495  15.990  0.2436 -0.3045 -0.5837
  221MPD1    C2 3408   2.500   3.389  15.994  0.3635  0.7653  0.0517
  221MPD1    C3 3409   2.616   3.410  16.068  0.0468  0.2555 -0.1103
  221MPD1    C4 3410   2.634   3.538  16.136 -1.3086  1.0471  0.7963
  221MPD1    C5 3411   2.544   3.636  16.127 -0.4036  0.5173  1.0418
  221MPD1     H 3412   2.476   3.296  15.945 -0.6712  1.4763 -0.7945
  221MPD1    H1 3413   2.724   3.567  16.189 -1.7296  1.9988  0.9982
  221MPD1    H2 3414   2.365   3.705  16.065 -0.3765 -0.2387 -0.0538
  221MPD1    H3 3415   2.568   3.728  16.180 -1.9348  1.8849 -0.6271
  221MPD1     N 3416   2.720   3.320  16.095 -0.2082 -0.2673  0.1109
  221MPD1    H5 3417   2.792   3.352  16.159  0.6297  0.4280 -1.1888
  221MPD1    N1 3418   2.299   3.492  15.901 -0.0299 -0.0751 -0.0427
  221MPD1    H6 3419   2.283   3.395  15.873  1.0231 -0.6018  1.1899
  221MPD1    H7 3420   2.208   3.528  15.929  0.7600  2.1355 -0.3442
  222MPD1     C 3421   1.692   1.151   0.489  0.4229  0.0385 -0.7294
  222MPD1    C1 3422   1.783   1.237   0.429 -0.0951  0.3856  0.5376
  222MPD1    C2 3423   1.787   1.366   0.479 -0.4459 -0.7499 -0.0181
  222MPD1    C3 3424   1.702   1.416   0.571  0.4956  0.4502 -0.5811
  222MPD1    C4 3425   1.593   1.334   0.608  0.0096  0.1008 -0.4413
  222MPD1    C5 3426   1.598   1.202   0.570 -0.4348 -0.4429  0.2219
  222MPD1     H 3427   1.870   1.426   0.443 -1.3326  0.8473  0.6568
  222MPD1    H1 3428   1.517   1.374   0.673 -0.1711  0.8494 -1.1220
  222MPD1    H2 3429   1.683   1.046   0.463 -2.8140  0.1563 -0.0145
  222MPD1    H3 3430   1.533   1.126   0.613  0.9643 -1.3077  0.8322
  222MPD1     N 3431   1.695   1.548   0.622 -0.2234  0.0761 -0.0049
  222MPD1    H5 3432   1.624   1.559   0.694  0.5308 -3.9585  1.3204
  222MPD1    N1 3433   1.882   1.188   0.344  0.5342 -0.4971  0.0860
  222MPD1    H6 3434   1.846   1.119   0.278  0.6234 -1.9210  1.5193
  222MPD1    H7 3435   1.914   1.265   0.286 -0.5447 -0.7517 -0.8440
  223MPD1     C 3436   0.938   2.163   0.606 -0.2700  0.1126 -0.3741
  223MPD1    C1 3437   1.038   2.254   0.603  0.1049 -0.0901  0.0999
  223MPD1    C2 3438   1.167   2.203   0.579  0.1717 -0.6828 -0.5367
  223MPD1    C3 3439   1.196   2.072   0.600 -0.0359 -0.1658  0.2656
  223MPD1    C4 3440   1.089   1.983   0.600  0.0704 -0.2962  0.7681
  223MPD1    C5 3441   0.966   2.036   0.599 -0.7476 -0.9925 -0.1745
  223MPD1     H 3442   1.255   2.266   0.576 -0.7027  0.5036 -1.0860
  223MPD1    H1 3443   1.103   1.877   0.617  2.1582 -0.4211 -1.6824
  223MPD1    H2 3444   0.832   2.186   0.598 -0.5701 -0.7937  1.0950
  223MPD1    H3 3445   0.882   1.968   0.609 -0.7208 -0.7780  1.5717
  223MPD1     N 3446   1.336   2.043   0.618 -0.2089 -0.2788 -0.5281
  223MPD1    H5 3447   1.404   2.116   0.600  1.0956 -1.4678 -0.3418
  223MPD1    N1 3448   1.005   2.390   0.583  0.4781  0.4161 -0.0471
  223MPD1    H6 3449   0.914   2.429   0.604  0.2506  0.5063 -1.2090
  223MPD1    H7 3450   1.083   2.450   0.608  1.3023  0.0900 -1.8281
  224MPD1     C 3451   2.232   4.226   9.541 -0.4707 -0.1445 -0.7488
  224MPD1    C1 3452   2.342   4.199   9.464 -0.1481  0.4372 -0.4058
  224MPD1    C2 3453   2.434   4.102   9.509  0.0220  0.2497 -0.0704
  224MPD1    C3 3454   2.417   4.032   9.631 -0.2165  0.0229 -0.2590
  224MPD1    C4 3455   2.309   4.065   9.711 -0.0146 -0.4942 -0.3515
  224MPD1    C5 3456   2.216   4.159   9.663  0.1228  0.7108  0.1576
  224MPD1     H 3457   2.524   4.091   9.450 -1.0110  0.9131 -1.7628
  224MPD1    H1 3458   2.297   4.021   9.809  2.1634 -0.6101 -0.1264
  224MPD1    H2 3459   2.168   4.311   9.519  1.3726  1.1470 -1.1615
  224MPD1    H3 3460   2.131   4.183   9.725  0.7221  0.4122  1.0881
  224MPD1     N 3461   2.517   3.954   9.687 -0.4091 -0.3269  0.1452
  224MPD1    H5 3462   2.500   3.927   9.783  0.9744 -0.6193  0.3057
  224MPD1    N1 3463   2.355   4.269   9.341 -0.0368 -0.4121  0.1164
  224MPD1    H6 3464   2.274   4.301   9.288  0.9071  2.1713  0.2481
  224MPD1    H7 3465   2.432   4.242   9.280  0.0750 -0.9110  0.4743
  225MPD1     C 3466   0.401   3.497  12.685  0.3039  0.8292 -0.3240
  225MPD1    C1 3467   0.402   3.622  12.753 -0.5353  0.0394 -0.4008
  225MPD1    C2 3468   0.293   3.698  12.726 -0.0890 -0.3480 -0.8279
  225MPD1    C3 3469   0.183   3.655  12.652 -0.9527 -0.2933 -1.0269
  225MPD1    C4 3470   0.185   3.522  12.607  0.7291  0.1305  0.0835
  225MPD1    C5 3471   0.298   3.444  12.621 -0.0443  0.0570 -0.0927
  225MPD1     H 3472   0.289   3.802  12.755 -3.5004 -0.2324 -1.7374
  225MPD1    H1 3473   0.111   3.480  12.538  0.8884  0.9859 -0.6046
  225MPD1    H2 3474   0.494   3.442  12.679  0.8189  2.0360 -3.1247
  225MPD1    H3 3475   0.300   3.353  12.562 -0.8756 -0.6248  0.9256
  225MPD1     N 3476   0.069   3.733  12.629  0.2934  1.1532 -0.2796
  225MPD1    H5 3477   4.730   3.688  12.577  1.1582 -1.5181  0.7880
  225MPD1    N1 3478   0.516   3.679  12.813  0.1335 -0.1875 -1.4321
  225MPD1    H6 3479   0.574   3.605  12.851 -0.6850  1.3695  2.8532
  225MPD1    H7 3480   0.481   3.740  12.886 -0.2733 -1.4103 -0.5929
  226MPD1     C 3481   2.500   3.968  10.397 -0.1061  0.1568 -0.2685
  226MPD1    C1 3482   2.636   3.988  10.359 -0.3564  0.1915 -0.3084
  226MPD1    C2 3483   2.657   4.071  10.246  0.0702 -0.1594 -0.3369
  226MPD1    C3 3484   2.554   4.121  10.167  0.2437  0.6047  0.8270
  226MPD1    C4 3485   2.422   4.103  10.212  0.3666 -0.1423  0.3974
  226MPD1    C5 3486   2.399   4.032  10.321  0.3950 -0.7874  0.0211
  226MPD1     H 3487   2.758   4.099  10.220  0.2042 -0.7617 -0.4648
  226MPD1    H1 3488   2.342   4.156  10.161  1.3608  0.3543 -0.6593
  226MPD1    H2 3489   2.473   3.923  10.492 -0.9817 -2.9375 -1.9689
  226MPD1    H3 3490   2.299   4.020  10.362 -0.1279 -1.3271 -1.3935
  226MPD1     N 3491   2.591   4.185  10.051 -0.5095  0.0774  1.3418
  226MPD1    H5 3492   2.692   4.185  10.037 -0.8436  0.5301 -1.1179
  226MPD1    N1 3493   2.742   3.949  10.447 -0.5803  0.4190  0.0691
  226MPD1    H6 3494   2.818   3.932  10.381 -0.4148  0.8374  0.1497
  226MPD1    H7 3495   2.720   3.862  10.494  1.5298 -0.4608 -0.5544
  227MPD1     C 3496   2.304   0.087   9.199  0.4712 -0.5233 -0.0900
  227MPD1    C1 3497   2.351   4.701   9.152 -0.2742 -0.8392  0.2145
  227MPD1    C2 3498   2.374   4.605   9.247  0.0703  0.1089  0.1206
  227MPD1    C3 3499   2.376   4.628   9.383 -0.1139 -0.7270  0.8111
  227MPD1    C4 3500   2.335   0.016   9.427 -0.1543  0.2065  0.0424
  227MPD1    C5 3501   2.308   0.107   9.334  0.3115 -0.3973  0.4440
  227MPD1     H 3502   2.403   4.507   9.211 -1.0719  0.0227 -0.5675
  227MPD1    H1 3503   2.339   0.053   9.529  0.2505  0.6757 -0.1389
  227MPD1    H2 3504   2.288   0.168   9.128 -1.7952 -0.0050  1.0207
  227MPD1    H3 3505   2.278   0.206   9.365 -0.2676 -0.8968  1.4524
  227MPD1     N 3506   2.422   4.529   9.470 -0.5388 -0.2822 -0.1895
  227MPD1    H5 3507   2.448   4.440   9.428  0.4902  0.3510 -0.8829
  227MPD1    N1 3508   2.349   4.669   9.017  1.0662  0.0531 -0.6795
  227MPD1    H6 3509   2.423   4.603   8.994 -0.3463 -1.6885 -0.2272
  227MPD1    H7 3510   2.360   0.013   8.954 -1.0194  2.4119  1.9173
  228MPD1     C 3511   1.423   2.634  13.304 -0.1921  0.2980 -0.2656
  228MPD1    C1 3512   1.308   2.645  13.230 -0.7224  0.3720 -0.7112
  228MPD1    C2 3513   1.242   2.529  13.205 -0.4273 -0.4997  0.8325
  228MPD1    C3 3514   1.268   2.407  13.268 -0.3071  0.3057 -0.7669
  228MPD1    C4 3515   1.383   2.398  13.349 -0.1437  0.9651 -0.5148
  228MPD1    C5 3516   1.463   2.511  13.363  0.9334  0.5721 -0.3883
  228MPD1     H 3517   1.163   2.541  13.132 -1.5825 -0.4423  2.0921
  228MPD1    H1 3518   1.419   2.311  13.403 -3.8111 -2.4864 -3.6114
  228MPD1    H2 3519   1.491   2.718  13.309  1.0696 -0.7557  0.3734
  228MPD1    H3 3520   1.543   2.514  13.437 -0.6969 -1.9240  1.4705
  228MPD1     N 3521   1.176   2.305  13.240  0.3901  0.4749 -0.0225
  228MPD1    H5 3522   1.111   2.325  13.165  1.0832  1.0203 -0.4779
  228MPD1    N1 3523   1.273   2.763  13.166 -0.0812  0.0592 -0.5966
  228MPD1    H6 3524   1.295   2.839  13.230  0.6973 -0.4601 -0.2463
  228MPD1    H7 3525   1.172   2.763  13.149  0.2874  2.4120 -2.8262
  229MPD1     C 3526   0.946   1.051  15.564 -0.0446 -0.3823  0.5014
  229MPD1    C1 3527   1.015   1.101  15.455  0.2134 -0.7000 -0.4649
  229MPD1    C2 3528   1.100   1.021  15.384  0.0151  0.0057  0.4165
  229MPD1    C3 3529   1.090   0.889  15.394  0.3224  0.7161 -0.2621
  229MPD1    C4 3530   1.017   0.830  15.494 -0.3827  0.1084 -0.0681
  229MPD1    C5 3531   0.945   0.913  15.581 -0.3487 -0.9896 -0.6116
  229MPD1     H 3532   1.165   1.065  15.310 -1.5852 -0.6533 -1.3913
  229MPD1    H1 3533   1.006   0.722  15.494 -3.7320  0.4334 -2.5462
  229MPD1    H2 3534   0.902   1.114  15.641 -2.0216 -1.3978  0.1818
  229MPD1    H3 3535   0.897   0.864  15.666 -2.3708  0.4167 -0.9514
  229MPD1     N 3536   1.163   0.797  15.324 -0.2387 -0.4693  0.2228
  229MPD1    H5 3537   1.168   0.703  15.361  0.2476 -0.0989  1.0981
  229MPD1    N1 3538   1.029   1.235  15.452 -0.3468 -0.6355  0.3315
  229MPD1    H6 3539   1.037   1.262  15.354  1.1237 -1.0093  0.3489
  229MPD1    H7 3540   0.945   1.285  15.480 -2.3827 -2.9889 -1.5112
  230MPD1     C 3541   1.863   0.972  14.596  0.3833 -0.3173 -0.0057
  230MPD1    C1 3542   1.757   1.042  14.638 -0.2000  0.1878 -0.0763
  230MPD1    C2 3543   1.663   0.986  14.724  0.1072  0.1410  0.0385
  230MPD1    C3 3544   1.671   0.850  14.761 -1.1904  0.5544  1.2148
  230MPD1    C4 3545   1.782   0.783  14.708  0.1298  0.4223 -0.1033
  230MPD1    C5 3546   1.881   0.839  14.634  0.2576 -0.3512  0.5827
  230MPD1     H 3547   1.582   1.047  14.762  1.3922  1.8943 -0.0027
  230MPD1    H1 3548   1.793   0.676  14.727  0.4416  0.6294  0.8972
  230MPD1    H2 3549   1.941   1.005  14.529 -0.8270  3.5823  0.5191
  230MPD1    H3 3550   1.961   0.774  14.599  0.1666 -0.5590  0.7618
  230MPD1     N 3551   1.573   0.800  14.852 -0.1125 -0.0766  0.3326
  230MPD1    H5 3552   1.493   0.861  14.866 -0.4236 -1.0957  2.9921
  230MPD1    N1 3553   1.756   1.177  14.602 -0.0742  0.3239  0.6444
  230MPD1    H6 3554   1.789   1.195  14.508  0.5027  1.0151  0.9748
  230MPD1    H7 3555   1.661   1.214  14.597 -0.2303 -0.3812 -1.6640
  231MPD1     C 3556   4.006   2.424  14.966 -1.4417  0.0525 -0.0054
  231MPD1    C1 3557   4.079   2.308  14.956 -0.3594 -0.2845  0.3688
  231MPD1    C2 3558   4.213   2.305  14.988 -0.2503 -0.1523  0.3525
  231MPD1    C3 3559   4.284   2.423  14.999  1.2241 -0.4089 -1.0204
  231MPD1    C4 3560   4.209   2.541  14.994 -0.1346  0.6730  0.1817
  231MPD1    C5 3561   4.076   2.539  14.972 -0.5095  0.7549  0.0821
  231MPD1     H 3562   4.260   2.208  14.996  0.2308  0.2066  1.8783
  231MPD1    H1 3563   4.252   2.640  15.009  3.0772 -0.8077  0.8045
  231MPD1    H2 3564   3.898   2.430  14.955 -1.5135 -2.3254 -0.6347
  231MPD1    H3 3565   4.021   2.630  14.954 -1.5689 -0.1460 -1.1949
  231MPD1     N 3566   4.417   2.412  15.024  0.8641  0.4461 -0.4522
  231MPD1    H5 3567   4.459   2.320  15.019  1.7606  0.7960  0.6144
  231MPD1    N1 3568   4.006   2.190  14.936 -0.5445  0.1794 -0.4229
  231MPD1    H6 3569   4.053   2.114  14.888 -0.2192 -0.4893  0.9425
  231MPD1    H7 3570   3.913   2.207  14.898 -0.7289  0.8482  0.3027
  232MPD1     C 3571   2.109   0.557   0.656  0.9922 -0.7100  0.1626
  232MPD1    C1 3572   2.002   0.584   0.573 -0.8364 -0.1087 -0.4721
  232MPD1    C2 3573   1.917   0.475   0.538  0.2001  0.4069 -0.0508
  232MPD1    C3 3574   1.955   0.338   0.560  0.1476  0.3242 -0.5716
  232MPD1    C4 3575   2.070   0.319   0.639  0.4119 -0.0120  0.5686
  232MPD1    C5 3576   2.144   0.424   0.678  0.3274  0.0525  0.3284
  232MPD1     H 3577   1.840   0.503   0.468 -0.7126 -0.3256  0.6644
  232MPD1    H1 3578   2.105   0.224   0.676 -1.0597 -0.2014  1.4665
  232MPD1    H2 3579   2.170   0.635   0.700 -0.1932  0.6920 -0.6783
  232MPD1    H3 3580   2.240   0.397   0.720  0.1681  1.1788  1.4470
  232MPD1     N 3581   1.873   0.231   0.508  0.0681  0.0418  0.1059
  232MPD1    H5 3582   1.793   0.255   0.452 -0.4355 -0.0382  0.7882
  232MPD1    N1 3583   1.959   0.721   0.567 -0.8704 -0.1151  0.3855
  232MPD1    H6 3584   2.036   0.787   0.560  1.0068 -2.2022  1.1231
  232MPD1    H7 3585   1.890   0.744   0.496 -0.3706  3.5258  1.1028
  233MPD1     C 3586   2.816   3.419   1.586  0.0314  0.1964  0.0864
  233MPD1    C1 3587   2.884   3.531   1.536 -0.5643 -0.1100  0.4324
  233MPD1    C2 3588   3.005   3.565   1.605 -0.3253  0.2404 -0.2637
  233MPD1    C3 3589   3.065   3.477   1.696 -0.1632 -0.6868 -0.2087
  233MPD1    C4 3590   2.993   3.366   1.741  0.2595 -0.2686 -0.1225
  233MPD1    C5 3591   2.864   3.343   1.696  0.5415  0.6747 -0.2963
  233MPD1     H 3592   3.054   3.653   1.565 -1.1812 -0.6514 -3.2662
  233MPD1    H1 3593   3.044   3.287   1.796 -1.3727 -0.4694  1.0782
  233MPD1    H2 3594   2.718   3.384   1.554 -0.0292 -0.0738  0.5708
  233MPD1    H3 3595   2.809   3.256   1.731 -0.0995  1.3542  0.4002
  233MPD1     N 3596   3.199   3.491   1.733 -0.3609 -0.3280  0.4767
  233MPD1    H5 3597   3.244   3.411   1.777  0.3280  0.5666  1.3907
  233MPD1    N1 3598   2.833   3.625   1.449 -0.4323  0.7347 -0.3522
  233MPD1    H6 3599   2.749   3.592   1.402  1.4360 -2.3484 -1.5725
  233MPD1    H7 3600   2.903   3.664   1.386  0.7288  1.5595  1.4439
  234MPD1     C 3601   3.316   2.303   9.063  1.0871  0.2948 -0.8607
  234MPD1    C1 3602   3.268   2.364   8.950 -0.9767  0.2559 -0.2126
  234MPD1    C2 3603   3.239   2.501   8.957 -0.0832  0.5847  0.1795
  234MPD1    C3 3604   3.248   2.565   9.077 -0.4361 -0.0531 -0.0703
  234MPD1    C4 3605   3.291   2.501   9.197  0.0198  0.4118 -0.6640
  234MPD1    C5 3606   3.320   2.369   9.176  0.2494 -0.3650  0.5065
  234MPD1     H 3607   3.201   2.556   8.872 -1.2726 -2.5345 -1.2944
  234MPD1    H1 3608   3.292   2.545   9.296  1.6785  1.0641 -0.9677
  234MPD1    H2 3609   3.360   2.204   9.057 -0.7962 -0.5865 -0.3467
  234MPD1    H3 3610   3.361   2.311   9.258  1.6523 -1.1843 -0.7844
  234MPD1     N 3611   3.189   2.692   9.075 -0.4942  0.0707 -0.1936
  234MPD1    H5 3612   3.164   2.726   8.982  0.0489 -1.2179 -0.8119
  234MPD1    N1 3613   3.301   2.315   8.828  0.4492  0.0338  0.3025
  234MPD1    H6 3614   3.303   2.213   8.825  1.1581  0.0439  0.2992
  234MPD1    H7 3615   3.238   2.362   8.764  1.0824 -0.2445 -0.5143
  235MPD1     C 3616   4.723   4.654   9.380  0.0289 -0.7568 -0.3153
  235MPD1    C1 3617   0.109   4.716   9.350 -0.7820  0.1565  0.3325
  235MPD1    C2 3618   0.114   0.120   9.356  0.6610  0.1714 -0.1133
  235MPD1    C3 3619   0.019   0.187   9.423 -1.0631  0.2502  0.5586
  235MPD1    C4 3620   4.641   0.121   9.469  0.5462  0.2501  0.9688
  235MPD1    C5 3621   4.624   4.724   9.440  0.1652  0.2430  0.7856
  235MPD1     H 3622   0.199   0.170   9.310  0.6443  1.3046  1.0705
  235MPD1    H1 3623   4.564   0.175   9.523 -0.3332  1.4718 -1.4923
  235MPD1    H2 3624   4.702   4.549   9.365  0.5460 -0.7741 -0.9391
  235MPD1    H3 3625   4.533   4.678   9.477  0.3546 -2.7693 -2.4521
  235MPD1     N 3626   0.037   0.326   9.440  0.2948  0.1108 -0.0603
  235MPD1    H5 3627   0.126   0.362   9.409  0.6652 -0.8845 -0.1635
  235MPD1    N1 3628   0.208   4.647   9.278  0.0983  0.0698 -0.4878
  235MPD1    H6 3629   0.295   4.697   9.268  0.8542 -1.2985 -0.7700
  235MPD1    H7 3630   0.229   4.553   9.311  0.9349  1.0048  1.6460
  236MPD1     C 3631   3.870   1.373   9.580  0.5454 -0.1182 -0.3281
  236MPD1    C1 3632   3.817   1.262   9.642  0.9566 -0.2146 -0.4731
  236MPD1    C2 3633   3.895   1.181   9.722 -0.3508  0.6307 -0.4740
  236MPD1    C3 3634   4.024   1.215   9.752  0.2802 -0.1132 -0.0929
  236MPD1    C4 3635   4.075   1.331   9.706 -0.1732 -0.0485  0.5740
  236MPD1    C5 3636   3.996   1.408   9.619  1.0275 -0.0806 -0.1701
  236MPD1     H 3637   3.855   1.088   9.761 -0.0548 -0.2513 -2.2479
  236MPD1    H1 3638   4.178   1.364   9.718  0.1636 -0.8912  0.0024
  236MPD1    H2 3639   3.816   1.421   9.500 -1.7733 -1.8385  0.2059
  236MPD1    H3 3640   4.047   1.493   9.573  2.2698 -0.8370 -0.1910
  236MPD1     N 3641   4.109   1.135   9.830  0.1978  0.1945 -0.1946
  236MPD1    H5 3642   4.205   1.166   9.835  0.0883  0.9876 -2.7181
  236MPD1    N1 3643   3.697   1.207   9.589 -0.3181  0.8001  0.6850
  236MPD1    H6 3644   3.661   1.134   9.650  0.0732  0.8235  0.9443
  236MPD1    H7 3645   3.624   1.278   9.593 -0.5263  0.5182  1.7754
  237MPD1     C 3646   0.138   3.429  14.513 -0.1154 -0.6552  0.1815
  237MPD1    C1 3647   0.174   3.434  14.646 -0.0739  0.8638 -0.4790
  237MPD1    C2 3648   0.096   3.509  14.733  0.0556 -0.2202  0.3621
  237MPD1    C3 3649   4.720   3.574  14.687  0.5463  0.3030  0.2705
  237MPD1    C4 3650   4.691   3.573  14.553 -0.6286 -0.1688  0.2526
  237MPD1    C5 3651   0.030   3.496  14.465 -0.2102  0.6983  0.0540
  237MPD1     H 3652   0.118   3.512  14.839  0.3340  0.4319  0.2916
  237MPD1    H1 3653   4.616   3.642  14.517 -0.8443 -1.4452 -1.7585
  237MPD1    H2 3654   0.202   3.388  14.436  0.8679 -0.0649  0.6888
  237MPD1    H3 3655   0.003   3.499  14.360 -2.1370  0.2743  0.5444
  237MPD1     N 3656   4.633   3.640  14.773  0.4317 -0.1002  0.2616
  237MPD1    H5 3657   4.553   3.681  14.726  0.8632 -1.4743 -1.6878
  237MPD1    N1 3658   0.304   3.390  14.681  0.5304 -0.1433  0.5900
  237MPD1    H6 3659   0.335   3.309  14.629  0.0389 -0.8977  1.4780
  237MPD1    H7 3660   0.322   3.365  14.778  1.0122 -1.1927  0.2275
  238MPD1     C 3661   2.272   2.210  15.177  0.1348  0.4244  0.0201
  238MPD1    C1 3662   2.270   2.319  15.089 -0.1611 -0.1795 -0.1116
  238MPD1    C2 3663   2.143   2.372  15.056 -0.4785  0.0964  0.4435
  238MPD1    C3 3664   2.022   2.320  15.113 -0.2159 -0.2586 -0.0085
  238MPD1    C4 3665   2.030   2.225  15.211 -0.1694 -0.6742 -0.1070
  238MPD1    C5 3666   2.152   2.171  15.239 -0.5987  0.0462 -0.3031
  238MPD1     H 3667   2.151   2.455  14.987  1.2510  1.5225  2.3731
  238MPD1    H1 3668   1.942   2.183  15.258  1.0123 -1.7179  1.1623
  238MPD1    H2 3669   2.362   2.159  15.208  0.3554  0.7279 -0.1199
  238MPD1    H3 3670   2.146   2.081  15.300 -4.3300  1.8555  1.9817
  238MPD1     N 3671   1.894   2.346  15.063 -0.1254 -0.0311 -0.3244
  238MPD1    H5 3672   1.817   2.301  15.113 -2.7359  2.1230 -2.4143
  238MPD1    N1 3673   2.386   2.353  15.013  0.0326 -0.9369  0.0847
  238MPD1    H6 3674   2.388   2.454  15.001  1.6216 -1.1520 -1.4775
  238MPD1    H7 3675   2.468   2.317  15.061 -0.0799  1.8616  2.3097
  239MPD1     C 3676   2.013   2.751  15.038  0.0013  0.9355  0.9552
  239MPD1    C1 3677   2.078   2.785  14.925 -1.0451  0.2874  0.9583
  239MPD1    C2 3678   2.077   2.921  14.885  0.8929  0.3231 -0.7674
  239MPD1    C3 3679   2.001   3.019  14.950  0.7840 -0.3447  0.2467
  239MPD1    C4 3680   1.942   2.977  15.071  0.5896 -0.2589 -0.0106
  239MPD1    C5 3681   1.950   2.848  15.111 -0.2865  0.4901  0.7627
  239MPD1     H 3682   2.125   2.947  14.791 -0.8768 -0.5970 -1.9204
  239MPD1    H1 3683   1.884   3.049  15.128  2.6558  0.2513  1.4641
  239MPD1    H2 3684   2.009   2.647  15.068 -0.6538  1.2167  1.8398
  239MPD1    H3 3685   1.900   2.807  15.198 -0.8839 -0.9962 -0.2890
  239MPD1     N 3686   1.985   3.147  14.905  0.0086  0.2519 -0.2236
  239MPD1    H5 3687   1.922   3.209  14.954 -2.0703 -2.5664  0.6808
  239MPD1    N1 3688   2.155   2.693  14.855  0.5519 -0.1917  0.3499
  239MPD1    H6 3689   2.126   2.595  14.860  1.0914 -0.3381  0.6140
  239MPD1    H7 3690   2.169   2.718  14.758 -1.4895  0.8894  0.3371
  240MPD1     C 3691   1.150   3.477  14.021 -0.1250  0.0438  0.6496
  240MPD1    C1 3692   1.055   3.380  14.028 -0.1314  0.0193  0.1526
  240MPD1    C2 3693   1.087   3.252  14.071 -0.7552 -0.0354 -0.0046
  240MPD1    C3 3694   1.202   3.224  14.135  0.0505  0.0501  0.5234
  240MPD1    C4 3695   1.286   3.332  14.155  0.2836 -0.0607 -0.0516
  240MPD1    C5 3696   1.257   3.456  14.105  0.0333 -0.9384  0.6928
  240MPD1     H 3697   1.009   3.177  14.064  1.0053 -1.4119 -5.0679
  240MPD1    H1 3698   1.367   3.339  14.227  1.0678  2.0920 -1.1312
  240MPD1    H2 3699   1.122   3.571  13.975 -1.5090 -1.7556 -2.2209
  240MPD1    H3 3700   1.307   3.547  14.136 -0.3363 -1.2320  2.1487
  240MPD1     N 3701   1.217   3.090  14.185 -0.4955 -0.4716 -0.5698
  240MPD1    H5 3702   1.141   3.028  14.159  0.0433 -1.0095 -0.8623
  240MPD1    N1 3703   0.934   3.400  13.971 -0.4870 -0.4508  0.2485
  240MPD1    H6 3704   0.892   3.487  14.002  0.3435 -0.9141  2.6874
  240MPD1    H7 3705   0.872   3.325  14.001 -1.6581  1.5597  2.8327
  241MPD1     C 3706   1.463   2.616  15.171  0.1030 -0.1885  0.1311
  241MPD1    C1 3707   1.537   2.683  15.082 -0.0442 -1.0076 -0.0244
  241MPD1    C2 3708   1.493   2.733  14.962  0.4101  0.6749  0.0356
  241MPD1    C3 3709   1.366   2.699  14.919  0.4924 -0.3995 -0.3801
  241MPD1    C4 3710   1.286   2.627  15.005  0.1216  0.0540  0.0130
  241MPD1    C5 3711   1.334   2.593  15.132 -0.7391 -0.3774  0.0588
  241MPD1     H 3712   1.557   2.797  14.902 -1.8215  1.7967 -1.1766
  241MPD1    H1 3713   1.190   2.584  14.982  0.7807 -1.5802  0.3274
  241MPD1    H2 3714   1.491   2.590  15.273  1.0219  0.8961  0.1597
  241MPD1    H3 3715   1.265   2.553  15.204 -0.6765 -0.8081 -0.1186
  241MPD1     N 3716   1.312   2.728  14.786  0.1948 -1.0749 -0.2470
  241MPD1    H5 3717   1.219   2.691  14.770 -0.6864  1.0862 -0.1671
  241MPD1    N1 3718   1.665   2.719  15.127 -0.6864 -0.0920 -0.4917
  241MPD1    H6 3719   1.735   2.738  15.055 -0.8132  1.3626 -0.2270
  241MPD1    H7 3720   1.702   2.645  15.185 -2.3067 -0.1263  0.4994
  242MPD1     C 3721   1.331   1.786  15.873  0.0721  0.3084 -0.4852
  242MPD1    C1 3722   1.245   1.790  15.770 -0.6184  0.1935  0.3378
  242MPD1    C2 3723   1.282   1.731  15.651 -0.1145  0.3802 -0.3278
  242MPD1    C3 3724   1.401   1.666  15.638  0.8540  0.0583 -0.0863
  242MPD1    C4 3725   1.491   1.660  15.743 -0.0234  0.0271  0.6512
  242MPD1    C5 3726   1.459   1.728  15.855  0.1105 -0.5402  0.1786
  242MPD1     H 3727   1.211   1.722  15.569 -0.5512 -0.3999  0.1319
  242MPD1    H1 3728   1.585   1.611  15.723  0.9393  1.3657  1.9245
  242MPD1    H2 3729   1.314   1.845  15.963  0.6373  0.3752 -0.4183
  242MPD1    H3 3730   1.533   1.732  15.934  0.1098  2.1755  0.0361
  242MPD1     N 3731   1.437   1.593  15.526  0.6873 -0.1254 -0.4399
  242MPD1    H5 3732   1.514   1.527  15.537 -0.3413 -1.5640 -2.0772
  242MPD1    N1 3733   1.132   1.874  15.776 -0.8911  0.8889 -0.3046
  242MPD1    H6 3734   1.069   1.866  15.696 -2.2679  2.3884  0.6214
  242MPD1    H7 3735   1.080   1.875  15.863 -0.2404 -0.1215  0.0911
  243MPD1     C 3736   2.365   0.354  16.610  0.3769 -0.7285 -0.0407
  243MPD1    C1 3737   2.399   0.350  16.477  0.2034 -0.8459  0.3970
  243MPD1    C2 3738   2.460   0.240  16.432 -0.5695  0.4212  0.0079
  243MPD1    C3 3739   2.501   0.139  16.517  0.4042 -0.5433 -0.9766
  243MPD1    C4 3740   2.473   0.149  16.653 -0.2110  0.5083  0.4698
  243MPD1    C5 3741   2.412   0.261  16.698  0.2348 -0.1860 -0.6273
  243MPD1     H 3742   2.473   0.240  16.324  1.1116  0.3705  0.2075
  243MPD1    H1 3743   2.515   0.077  16.723  0.3274  0.2541 -0.1227
  243MPD1    H2 3744   2.324   0.446  16.649 -0.4323 -0.2706 -1.9348
  243MPD1    H3 3745   2.399   0.275  16.805  2.2241  1.7348 -0.6400
  243MPD1     N 3746   2.577   0.032  16.457  0.0759  0.2410  0.4569
  243MPD1    H5 3747   2.597   0.026  16.358 -0.0193  0.4095  0.4282
  243MPD1    N1 3748   2.347   0.437  16.379  0.6429 -0.2494 -0.3721
  243MPD1    H6 3749   2.407   0.447  16.298  0.3463  1.2754 -0.4086
  243MPD1    H7 3750   2.319   0.525  16.423  3.6439  0.0790  0.8527
  244MPD1     C 3751   2.992   3.943  16.842 -0.0840  0.1407  0.1864
  244MPD1    C1 3752   2.933   4.064  16.888 -0.4157  0.5314  0.3865
  244MPD1    C2 3753   2.873   4.143  16.795  0.7166  0.5384  0.1682
  244MPD1    C3 3754   2.884   4.124  16.660 -0.0711 -0.0712  0.4095
  244MPD1    C4 3755   2.958   4.010  16.619  0.3618 -0.0278  0.5833
  244MPD1    C5 3756   3.005   3.923  16.709 -0.5028 -0.0944 -0.1992
  244MPD1     H 3757   2.821   4.232  16.829  0.0609  0.3253 -0.2754
  244MPD1    H1 3758   2.970   3.990  16.513 -0.0091 -0.0221  0.5408
  244MPD1    H2 3759   3.041   3.878  16.914 -0.4490 -0.2644  0.0693
  244MPD1    H3 3760   3.061   3.835  16.682  1.2623  0.7875  0.5814
  244MPD1     N 3761   2.822   4.227  16.575  0.6686 -0.6392  0.1191
  244MPD1    H5 3762   2.774   4.300  16.627 -0.6960 -1.4220 -0.0319
  244MPD1    N1 3763   2.941   4.097  17.027 -0.9674  0.0511  0.0645
  244MPD1    H6 3764   2.935   4.016  17.088 -2.1335 -0.1400 -0.3114
  244MPD1    H7 3765   2.877   4.170  17.058 -0.1710 -0.0872  2.0309
  245MPD1     C 3766   4.608   0.429  13.094  0.3264  1.5867  0.4793
  245MPD1    C1 3767   4.648   0.435  13.224 -0.2275 -0.0825  0.3150
  245MPD1    C2 3768   4.647   0.553  13.289 -0.3461  0.4025 -0.2947
  245MPD1    C3 3769   4.608   0.673  13.229  0.0288  0.1607 -0.4147
  245MPD1    C4 3770   4.569   0.672  13.101 -0.6815 -0.2181  1.0577
  245MPD1    C5 3771   4.567   0.550  13.037  0.0159 -0.3726 -0.5205
  245MPD1     H 3772   4.673   0.553  13.394  1.4280  1.7037 -0.7385
  245MPD1    H1 3773   4.539   0.754  13.038  3.0699  0.9378  0.8093
  245MPD1    H2 3774   4.594   0.336  13.040 -0.6446  1.3837  1.0929
  245MPD1    H3 3775   4.524   0.549  12.938 -0.6159  0.4312 -0.2601
  245MPD1     N 3776   4.615   0.783  13.302 -0.5138  0.2318  0.6426
  245MPD1    H5 3777   4.663   0.779  13.391  0.0298  0.9346  0.3795
  245MPD1    N1 3778   4.674   0.309  13.285 -0.1960  0.3055  0.4247
  245MPD1    H6 3779   4.727   0.255  13.217  1.4023  0.9731  1.1283
  245MPD1    H7 3780   4.726   0.317  13.373  0.5023  0.8248 -0.0331
  246MPD1     C 3781   2.327   1.109   9.247 -0.2587  0.0688  1.2594
  246MPD1    C1 3782   2.351   1.203   9.148 -0.1496 -0.0611 -0.1472
  246MPD1    C2 3783   2.486   1.254   9.135  0.2643  0.2416 -0.1019
  246MPD1    C3 3784   2.593   1.210   9.209  0.7105 -0.2925 -1.0649
  246MPD1    C4 3785   2.564   1.109   9.301  0.0697 -1.1109  0.1531
  246MPD1    C5 3786   2.435   1.075   9.325  0.1096  0.0045 -0.9493
  246MPD1     H 3787   2.496   1.310   9.043 -1.6477  0.0731 -0.4222
  246MPD1    H1 3788   2.638   1.087   9.377 -0.9611 -1.6298  1.0034
  246MPD1    H2 3789   2.233   1.058   9.262  0.0908 -1.1079 -0.5508
  246MPD1    H3 3790   2.434   0.993   9.397 -1.7960  0.4173 -0.5099
  246MPD1     N 3791   2.725   1.259   9.174  0.2933 -0.5190 -0.1544
  246MPD1    H5 3792   2.732   1.340   9.113 -1.6521 -2.1704 -2.5907
  246MPD1    N1 3793   2.246   1.240   9.059 -0.0183 -0.2649 -0.2248
  246MPD1    H6 3794   2.248   1.337   9.027 -1.4213  0.6055  2.3570
  246MPD1    H7 3795   2.154   1.227   9.101  0.9637  0.2128  2.0627
  247MPD1     C 3796   4.342   0.286  17.023  0.3933 -0.8630  0.7683
  247MPD1    C1 3797   4.423   0.341  16.927 -0.5051 -0.1691  0.7574
  247MPD1    C2 3798   4.374   0.342  16.795  0.5939  0.0786  1.3157
  247MPD1    C3 3799   4.249   0.289  16.770 -0.8678 -0.6562 -0.1907
  247MPD1    C4 3800   4.172   0.232  16.867 -0.2621  0.7507 -0.5966
  247MPD1    C5 3801   4.223   0.229  16.998  0.2493 -0.1869 -0.5413
  247MPD1     H 3802   4.443   0.377  16.719 -1.1157  1.2501  0.3319
  247MPD1    H1 3803   4.078   0.187  16.839  0.5102 -0.4670 -1.2454
  247MPD1    H2 3804   4.379   0.275  17.125  1.8110  3.1596  0.7073
  247MPD1    H3 3805   4.160   0.189  17.077  1.5145  0.3142  0.7338
  247MPD1     N 3806   4.187   0.284  16.641 -0.2040  0.1025  0.2763
  247MPD1    H5 3807   4.100   0.233  16.628 -0.2754  0.1894  0.4173
  247MPD1    N1 3808   4.538   0.408  16.970  0.0896 -0.6987  0.0495
  247MPD1    H6 3809   4.602   0.405  16.890  0.9381 -2.7087  0.7935
  247MPD1    H7 3810   4.587   0.353  17.040 -1.3517 -0.7291  1.0274
  248MPD1     C 3811   0.571   0.382   0.916  0.8836  0.9651 -0.2370
  248MPD1    C1 3812   0.456   0.326   0.859  0.2551 -0.9483 -0.1898
  248MPD1    C2 3813   0.331   0.382   0.866  0.5435  0.8613  0.3888
  248MPD1    C3 3814   0.322   0.517   0.902  0.2199 -0.5770  0.4327
  248MPD1    C4 3815   0.437   0.577   0.950 -0.1757 -0.4866  0.1970
  248MPD1    C5 3816   0.560   0.513   0.959  0.0315 -0.4536 -0.3168
  248MPD1     H 3817   0.243   0.327   0.834  2.5854 -1.7502 -0.8196
  248MPD1    H1 3818   0.428   0.679   0.986  0.0458  0.2076 -1.6918
  248MPD1    H2 3819   0.669   0.335   0.916 -0.2174 -1.2995 -0.5581
  248MPD1    H3 3820   0.644   0.575   0.989 -1.4611  0.9335  0.9720
  248MPD1     N 3821   0.205   0.593   0.891 -0.9122  0.3951 -0.2663
  248MPD1    H5 3822   0.216   0.692   0.911  2.7687 -0.4885  2.0583
  248MPD1    N1 3823   0.473   0.190   0.820 -0.3860  0.5760  0.4596
  248MPD1    H6 3824   0.397   0.163   0.759 -0.5839  1.4368  0.3261
  248MPD1    H7 3825   0.567   0.173   0.783 -0.6996 -0.7342  0.2553
  249MPD1     C 3826   0.555   2.729  11.131 -0.2742 -0.3092 -0.4265
  249MPD1    C1 3827   0.655   2.780  11.051 -0.0444 -0.0963 -0.5270
  249MPD1    C2 3828   0.613   2.828  10.931  0.0732 -1.1932  0.3851
  249MPD1    C3 3829   0.487   2.829  10.885  0.2880 -0.1191  0.1125
  249MPD1    C4 3830   0.398   2.774  10.966  0.2415  0.0722  0.5889
  249MPD1    C5 3831   0.432   2.721  11.082 -0.7927  0.0581  0.3384
  249MPD1     H 3832   0.679   2.868  10.855 -0.9257 -1.6335 -0.7069
  249MPD1    H1 3833   0.294   2.780  10.937  0.5191 -2.2974 -0.9135
  249MPD1    H2 3834   0.570   2.701  11.235 -0.3166  1.4861  0.0614
  249MPD1    H3 3835   0.355   2.686  11.150  0.4113 -0.6577  1.3228
  249MPD1     N 3836   0.464   2.895  10.763 -0.3358  0.3882 -0.0416
  249MPD1    H5 3837   0.540   2.956  10.734 -1.6885  3.0910  2.1673
  249MPD1    N1 3838   0.781   2.809  11.098  0.0215  0.7463  0.0201
  249MPD1    H6 3839   0.817   2.738  11.162  0.5814  1.6026  0.6554
  249MPD1    H7 3840   0.849   2.830  11.025 -0.1235 -0.5315 -0.4732
  250MPD2     C 3841   3.103   4.028  13.107 -0.5367 -0.5033  0.4990
  250MPD2    C1 3842   2.998   4.099  13.060  0.1066  0.6763  0.0321
  250MPD2    C2 3843   2.889   4.051  12.993 -0.7054 -0.3502  0.0093
  250MPD2    C3 3844   2.905   3.918  12.959  0.7471 -0.5560  0.3719
  250MPD2    C4 3845   3.014   3.839  12.993 -0.2383 -0.0138 -0.1415
  250MPD2    C5 3846   3.104   3.894  13.078  0.1029 -0.3251  0.2623
  250MPD2     H 3847   2.791   4.095  12.978 -0.4346 -0.3342 -1.7540
  250MPD2    H1 3848   3.033   3.737  12.962  1.0576 -0.0098  0.6466
  250MPD2    H2 3849   3.183   4.071  13.165  0.4185 -1.2916 -0.2213
  250MPD2    H3 3850   3.182   3.827  13.114  1.2089  1.0893  0.4975
  250MPD2     N 3851   2.802   3.843  12.890 -0.6178  0.3017  0.1631
  250MPD2    H5 3852   2.822   3.746  12.873 -1.0491 -0.0253  1.5452
  250MPD2    N1 3853   3.002   4.236  13.099 -0.1630  0.2602  0.3968
  250MPD2    H7 3854   3.094   4.272  13.123 -0.7148  1.1995  1.1361
  251TMC3    C1 3855   2.936   4.463  13.129 -0.6188  0.2746  0.6639
  251TMC3    C2 3856   2.846   4.566  13.097  0.2959  0.3169 -0.1844
  251TMC3    C3 3857   2.861   4.682  13.171  0.1145  0.7281  0.0334
  251TMC3    C4 3858   3.029   4.475  13.226 -0.0123 -0.1935 -0.2751
  251TMC3    C5 3859   3.042   4.596  13.286  0.0757  0.4214  0.2839
  251TMC3    C6 3860   2.958   4.696  13.267 -0.5876 -0.2229  0.2295
  251TMC3     C 3861   2.900   4.328  13.091 -0.0135  0.0348 -0.9604
  251TMC3     O 3862   2.785   4.310  13.043  0.2674  0.5641 -0.2428
  251TMC3     H 3863   2.763   4.554  13.027  0.8271 -1.2721 -0.5243
  251TMC3    H1 3864   3.082   4.388  13.262  0.5355  0.0923 -0.3817
  251TMC3    H2 3865   2.976   0.052  13.322  0.9678  0.1799 -0.9741
  251TMC3    C7 3866   3.182   4.614  13.324  0.7044  0.3099 -0.2122
  251TMC3    C8 3867   2.745   0.039  13.180  0.1007  0.3498 -0.2309
  251TMC3    O1 3868   3.258   4.517  13.302  0.0702 -0.1862 -0.0793
  251TMC3    O2 3869   2.639   4.729  13.137  0.6108  0.1433 -0.1165
  252TMC3    C1 3870   2.181   1.212   9.691 -0.4176  0.2815  0.5918
  252TMC3    C2 3871   2.313   1.236   9.672 -0.1734  0.1664  0.1599
  252TMC3    C3 3872   2.399   1.130   9.682  0.6281 -0.3204  0.3559
  252TMC3    C4 3873   2.126   1.085   9.707 -0.2190 -0.0503  0.5572
  252TMC3    C5 3874   2.220   0.985   9.719  0.0906 -0.6518 -0.3027
  252TMC3    C6 3875   2.354   1.000   9.714 -0.0606  0.2055  0.2851
  252TMC3     C 3876   2.092   1.331   9.685  0.1205 -0.2665  0.1446
  252TMC3     O 3877   1.984   1.315   9.737  0.0943 -0.1370  0.4334
  252TMC3     H 3878   2.350   1.337   9.659  2.2461 -1.0121 -2.0265
  252TMC3    H1 3879   2.020   1.077   9.728 -0.7672  1.1544 -1.8165
  252TMC3    H2 3880   2.424   0.921   9.690 -0.5943  0.1752 -1.1592
  252TMC3    C7 3881   2.164   0.855   9.769 -0.5333  0.4838 -0.2214
  252TMC3    C8 3882   2.544   1.157   9.664  0.3411  0.1448  0.2073
  252TMC3    O1 3883   2.053   0.862   9.825 -0.1286 -0.1468 -0.1599
  252TMC3    O2 3884   2.575   1.262   9.615 -0.3533  0.5841 -0.5582
  253MPD2     C 3885   4.344   4.018  15.295  0.4339 -0.2510 -0.4275
  253MPD2    C1 3886   4.209   4.019  15.297 -0.1312 -0.5050  0.3948
  253MPD2    C2 3887   4.145   4.004  15.419 -0.4448  0.9134  0.2989
  253MPD2    C3 3888   4.215   4.027  15.536  0.2673  0.2237 -0.3649
  253MPD2    C4 3889   4.350   4.033  15.525 -0.2701  0.5361  0.1263
  253MPD2    C5 3890   4.417   4.022  15.407  0.0533 -0.5106 -0.5618
  253MPD2     H 3891   4.039   3.980  15.417 -0.1750 -0.0839 -1.7229
  253MPD2    H1 3892   4.403   4.025  15.619  1.6165  0.5131 -0.9370
  253MPD2    H2 3893   4.397   4.018  15.201  0.3010 -0.6110 -0.5009
  253MPD2    H3 3894   4.523   4.045  15.405  0.2088 -1.1976 -0.2991
  253MPD2     N 3895   4.148   4.022  15.665  0.5933  0.1990 -0.3366
  253MPD2    H5 3896   4.213   4.008  15.741 -0.5016 -1.2175  0.3191
  253MPD2    N1 3897   4.123   4.023  15.184  0.0389  0.2794  0.5227
  253MPD2    H7 3898   4.026   4.001  15.202  0.5425  0.3027  3.3498
  254TMC3    C1 3899   3.962   4.000  15.804  0.4124  0.6901  0.0166
  254TMC3    C2 3900   3.830   4.017  15.809  0.6546 -0.0790 -0.6516
  254TMC3    C3 3901   3.758   3.949  15.894 -0.2648 -0.2009 -0.7353
  254TMC3    C4 3902   4.030   3.917  15.886 -0.2632 -0.2896  0.0394
  254TMC3    C5 3903   3.950   3.843  15.968 -0.0933 -0.4935  0.3027
  254TMC3    C6 3904   3.816   3.845  15.968 -0.7450 -0.1216 -0.4016
  254TMC3     C 3905   4.012   4.027  15.678  0.3713 -0.8585 -0.4243
  254TMC3     O 3906   3.935   4.063  15.590  0.2138 -0.4744 -0.2522
  254TMC3     H 3907   3.782   4.093  15.748 -0.2995  1.0670  1.4744
  254TMC3    H1 3908   4.130   3.878  15.867 -0.8205 -0.1138 -3.2385
  254TMC3    H2 3909   3.761   3.791  16.044  1.2389 -1.6405 -0.0383
  254TMC3    C7 3910   4.021   3.789  16.085 -0.3710 -0.1610 -0.4770
  254TMC3    C8 3911   3.619   3.982  15.917  0.3394  0.5502  0.2081
  254TMC3    O1 3912   3.963   3.699  16.147 -0.0142  0.2079  0.0702
  254TMC3    O2 3913   3.556   3.900  15.984  0.1916 -0.0746  0.1367
  255MPD2     C 3914   1.287   2.121  10.442 -0.7332  0.8529 -0.0149
  255MPD2    C1 3915   1.341   2.236  10.390  0.0951  0.0169 -0.2228
  255MPD2    C2 3916   1.415   2.224  10.269 -0.6193  0.5682  0.1139
  255MPD2    C3 3917   1.428   2.104  10.202  0.1392  0.2098 -0.2055
  255MPD2    C4 3918   1.378   1.990  10.259  0.4560  0.4394  0.4333
  255MPD2    C5 3919   1.303   2.005  10.371  0.8384  0.0769 -0.2558
  255MPD2     H 3920   1.449   2.315  10.221  3.9824  0.0029  2.3153
  255MPD2    H1 3921   1.386   1.894  10.209  2.2985  0.9745 -0.2777
  255MPD2    H2 3922   1.230   2.119  10.533  1.3138  0.0502  1.2489
  255MPD2    H3 3923   1.273   1.916  10.426 -2.9719  2.9552  2.2652
  255MPD2     N 3924   1.503   2.106  10.084 -0.2700 -0.1126  0.7383
  255MPD2    H5 3925   1.532   2.196  10.047 -0.1926 -0.7794 -0.8517
  255MPD2    N1 3926   1.328   2.368  10.441 -0.7119 -0.2677 -0.0508
  255MPD2    H7 3927   1.363   2.446  10.387 -0.0438  0.5593  1.5730
  256TMC3    C1 3928   1.225   2.535  10.563  0.2847 -0.4225  0.0600
  256TMC3    C2 3929   1.291   2.621  10.648 -0.2714 -0.6665  0.5699
  256TMC3    C3 3930   1.302   2.753  10.603 -0.2210  0.5348 -0.9081
  256TMC3    C4 3931   1.167   2.577  10.442  0.4150 -0.2714  0.6921
  256TMC3    C5 3932   1.175   2.713  10.418 -0.1158  0.1884  0.0920
  256TMC3    C6 3933   1.242   2.801  10.490 -0.6445 -0.2373  0.2235
  256TMC3     C 3934   1.277   2.397  10.564 -0.0254 -0.5543  0.7010
  256TMC3     O 3935   1.245   2.323  10.656  0.2647 -1.0981 -0.2463
  256TMC3     H 3936   1.360   2.578  10.720 -0.7363  0.1261  1.4967
  256TMC3    H1 3937   1.118   2.504  10.379 -0.1609  1.1897 -0.5555
  256TMC3    H2 3938   1.251   2.903  10.455 -4.1944 -0.4893 -1.3855
  256TMC3    C7 3939   1.130   2.747  10.281 -0.3325  0.0217 -0.0876
  256TMC3    C8 3940   1.415   2.822  10.657  0.1213  0.2584 -0.2066
  256TMC3    O1 3941   1.140   2.663  10.191 -0.5992  0.3216 -0.3508
  256TMC3    O2 3942   1.427   2.813  10.779 -0.1111  0.4213 -0.1915
  257MPD2     C 3943   1.939   4.022  13.577  0.9277  0.3694 -0.3689
  257MPD2    C1 3944   1.809   3.994  13.548  0.1756 -0.3869 -0.3129
  257MPD2    C2 3945   1.736   3.917  13.634 -0.5163 -0.4699  0.3377
  257MPD2    C3 3946   1.794   3.865  13.751 -0.3924 -0.4114  0.1906
  257MPD2    C4 3947   1.927   3.902  13.778 -0.0727  0.1998 -0.1828
  257MPD2    C5 3948   2.002   3.980  13.687  0.2108 -0.6125 -0.1654
  257MPD2     H 3949   1.632   3.892  13.616 -1.2348  3.2633 -0.6304
  257MPD2    H1 3950   1.983   3.868  13.864  1.6825  0.3900 -1.2384
  257MPD2    H2 3951   1.994   4.091  13.514  2.1081  0.3469  0.6380
  257MPD2    H3 3952   2.107   4.006  13.699  0.1243  0.1524 -1.0276
  257MPD2     N 3953   1.705   3.793  13.831 -0.2201 -0.2817 -0.4803
  257MPD2    H5 3954   1.607   3.792  13.803 -0.7532 -0.4416  1.4058
  257MPD2    N1 3955   1.750   4.053  13.431 -0.2296 -0.0483 -0.0550
  257MPD2    H7 3956   1.815   4.103  13.371 -0.8457  0.9849  0.1425
  258TMC3    C1 3957   1.636   3.618  13.964  0.1008  0.5011  0.6624
  258TMC3    C2 3958   1.517   3.631  13.891  0.0411  0.3860  0.1183
  258TMC3    C3 3959   1.442   3.517  13.868 -0.2873 -0.5136  1.0028
  258TMC3    C4 3960   1.672   3.501  14.027  0.7722 -0.2862 -0.7287
  258TMC3    C5 3961   1.600   3.388  13.996  0.0766  0.2302 -0.0134
  258TMC3    C6 3962   1.489   3.394  13.913 -0.0600 -0.2591 -0.0785
  258TMC3     C 3963   1.741   3.716  13.934 -0.8288 -0.6286 -0.3994
  258TMC3     O 3964   1.848   3.709  13.993 -0.8308 -0.5365  0.4145
  258TMC3     H 3965   1.488   3.719  13.835 -2.6910 -0.3028  0.4473
  258TMC3    H1 3966   1.759   3.494  14.092 -0.0320  1.1255  0.4971
  258TMC3    H2 3967   1.438   3.300  13.898  0.0761 -0.8973  3.3207
  258TMC3    C7 3968   1.657   3.260  14.026  0.3307 -0.3229 -0.4688
  258TMC3    C8 3969   1.361   3.522  13.744  0.4415 -0.1678  0.0581
  258TMC3    O1 3970   1.587   3.165  14.016 -0.1684  0.5271  0.2726
  258TMC3    O2 3971   1.377   3.613  13.665  0.3191 -0.4204  0.3965
  259MPD2     C 3972   0.622   1.099   0.132 -0.1212 -0.2863  0.0877
  259MPD2    C1 3973   0.629   1.019   0.248  1.0752  0.6420  0.1012
  259MPD2    C2 3974   0.612   0.880   0.236 -0.3941  0.8461  0.0236
  259MPD2    C3 3975   0.612   0.818   0.111 -0.6503 -0.7655 -0.6421
  259MPD2    C4 3976   0.604   0.900  17.734 -0.0979 -0.5850  0.0442
  259MPD2    C5 3977   0.622   1.036   0.011 -0.4772 -0.4149 -0.5639
  259MPD2     H 3978   0.606   0.813   0.320 -0.2746  0.8757  0.0555
  259MPD2    H1 3979   0.603   0.864  17.632 -0.1381  2.5177 -1.0322
  259MPD2    H2 3980   0.639   1.205   0.139 -3.6999  0.2033  1.0609
  259MPD2    H3 3981   0.628   1.093  17.659  1.1183 -1.1714 -0.9262
  259MPD2     N 3982   0.609   0.677   0.113 -0.0830  0.0415 -0.0640
  259MPD2    H5 3983   0.641   0.638   0.201 -2.3813 -0.5436  0.5023
  259MPD2    N1 3984   0.636   1.086   0.371 -0.5461  0.7166  0.7561
  259MPD2    H7 3985   0.631   1.188   0.376 -0.6212  0.6706  1.7966
  260TMC3    C1 3986   0.625   0.467   0.034 -0.3857  0.4959  0.6634
  260TMC3    C2 3987   0.748   0.444  17.729  0.2288 -0.8850 -0.2756
  260TMC3    C3 3988   0.834   0.382   0.066 -0.2555  0.3772  0.0917
  260TMC3    C4 3989   0.590   0.431   0.164 -0.0050  0.1347 -0.3138
  260TMC3    C5 3990   0.677   0.372   0.243  0.1390  0.5964 -0.2929
  260TMC3    C6 3991   0.800   0.349   0.200 -0.5042  0.3904  0.8555
  260TMC3     C 3992   0.583   0.599   0.003  0.2652 -0.0049  0.2812
  260TMC3     O 3993   0.552   0.627  17.629 -0.0254 -0.4458  0.1106
  260TMC3     H 3994   0.779   0.472  17.629  0.0893  1.4893  0.3429
  260TMC3    H1 3995   0.495   0.460   0.206  1.5219  1.2351  2.3960
  260TMC3    H2 3996   0.872   0.301   0.264 -2.3334 -2.5244  0.7467
  260TMC3    C7 3997   0.635   0.291   0.358  0.1488 -0.5259 -0.2684
  260TMC3    C8 3998   0.953   0.324   0.010  0.4011  0.5694  0.0377
  260TMC3    O1 3999   0.716   0.198   0.383  0.4195 -0.4977  1.0778
  260TMC3    O2 4000   0.954   0.308  17.632 -0.2302 -0.4131  0.2580
  261MPD2     C 4001   2.351   3.748  12.214  0.1827 -0.0021 -0.2108
  261MPD2    C1 4002   2.342   3.871  12.286 -0.0264  0.2729  0.4385
  261MPD2    C2 4003   2.340   3.988  12.212 -0.1319  0.0709  0.1255
  261MPD2    C3 4004   2.339   3.985  12.069  0.7627 -0.3775  0.7326
  261MPD2    C4 4005   2.334   3.860  12.004 -0.2668  0.1287  0.0803
  261MPD2    C5 4006   2.339   3.748  12.087  0.2186  0.3266  0.3547
  261MPD2     H 4007   2.366   4.082  12.260 -2.5223  1.4913 -1.3938
  261MPD2    H1 4008   2.335   3.850  11.896 -0.8589  1.8108 -0.0814
  261MPD2    H2 4009   2.348   3.655  12.269  2.7270  1.1115  1.8268
  261MPD2    H3 4010   2.333   3.652  12.036  1.3702  0.2080  0.4577
  261MPD2     N 4011   2.346   4.104  12.004 -0.6477  0.1326  0.4127
  261MPD2    H5 4012   2.354   4.187  12.063 -0.6246  1.2194 -1.1139
  261MPD2    N1 4013   2.370   3.876  12.431  0.5022  0.1513 -0.4682
  261MPD2    H7 4014   2.402   3.964  12.470  2.9169 -0.7955 -0.2881
  262TMC3    C1 4015   2.361   4.259  11.828 -0.2510  0.1237 -1.2845
  262TMC3    C2 4016   2.280   4.340  11.898 -0.0549  0.4367 -0.3503
  262TMC3    C3 4017   2.271   4.470  11.848  0.4395  0.1230 -0.2258
  262TMC3    C4 4018   2.416   4.288  11.707  0.4340  0.3825 -0.1903
  262TMC3    C5 4019   2.404   4.417  11.664  0.0362 -0.3641 -0.4875
  262TMC3    C6 4020   2.330   4.506  11.734 -0.6054 -0.5355 -0.2650
  262TMC3     C 4021   2.377   4.119  11.870  0.1988  0.9885  0.1419
  262TMC3     O 4022   2.396   4.035  11.784  0.0854 -0.4890  0.1499
  262TMC3     H 4023   2.230   4.310  11.989  0.8080  0.9654  0.3007
  262TMC3    H1 4024   2.476   4.217  11.652 -0.8646 -2.1996  1.7049
  262TMC3    H2 4025   2.308   4.605  11.695  3.7109  1.1306  1.5744
  262TMC3    C7 4026   2.473   4.455  11.546 -0.4222 -0.1894 -0.5930
  262TMC3    C8 4027   2.174   4.568  11.898  0.3180 -0.8715 -0.0357
  262TMC3    O1 4028   2.563   4.379  11.501  0.4706 -0.0973 -0.1768
  262TMC3    O2 4029   2.189   4.687  11.869 -0.4178  0.5957 -0.1928
  263MPD2     C 4030   2.845   2.734  11.727  0.4892  0.5686  0.5556
  263MPD2    C1 4031   2.943   2.826  11.748 -0.3215 -0.4398  0.5373
  263MPD2    C2 4032   2.927   2.952  11.686  0.4707  0.3788 -0.5299
  263MPD2    C3 4033   2.825   2.985  11.601 -0.1545 -0.2557 -0.6344
  263MPD2    C4 4034   2.725   2.889  11.578  0.9073  0.6020  0.4073
  263MPD2    C5 4035   2.741   2.768  11.644 -0.5105  0.9294 -0.1624
  263MPD2     H 4036   2.996   3.029  11.716  1.5510 -0.7280 -0.1695
  263MPD2    H1 4037   2.640   2.885  11.511 -0.5554 -0.2149  2.2997
  263MPD2    H2 4038   2.858   2.629  11.749 -0.0323 -0.0654 -2.1784
  263MPD2    H3 4039   2.669   2.688  11.628  1.8874 -0.3122 -4.8897
  263MPD2     N 4040   2.826   3.109  11.539  0.0518 -0.3744  0.1403
  263MPD2    H5 4041   2.896   3.176  11.569 -0.4959 -0.1583  0.9591
  263MPD2    N1 4042   3.051   2.783  11.829  0.2333  0.0930 -0.3241
  263MPD2    H7 4043   3.066   2.685  11.852  0.4825  0.6840  1.9962
  264TMC3    C1 4044   2.749   3.276  11.390 -0.4083 -0.1003 -0.4938
  264TMC3    C2 4045   2.795   3.372  11.475  0.0406  0.7213 -0.4351
  264TMC3    C3 4046   2.826   3.494  11.422 -0.6342 -0.1379  0.1409
  264TMC3    C4 4047   2.746   3.297  11.251 -0.2641 -0.3155 -0.5070
  264TMC3    C5 4048   2.788   3.416  11.205 -0.6388 -0.0459 -0.1923
  264TMC3    C6 4049   2.828   3.519  11.288 -0.4095 -0.7975 -0.4026
  264TMC3     C 4050   2.741   3.137  11.435 -0.1829 -0.1412 -0.3283
  264TMC3     O 4051   2.659   3.062  11.378  0.1150  0.9507  0.4208
  264TMC3     H 4052   2.776   3.359  11.581  1.9161 -0.0041 -0.1820
  264TMC3    H1 4053   2.722   3.216  11.184 -1.3547 -1.3499  1.1398
  264TMC3    H2 4054   2.867   3.611  11.247  0.7530 -1.0994  0.0440
  264TMC3    C7 4055   2.833   3.424  11.066 -0.0700 -0.4306  0.0060
  264TMC3    C8 4056   2.870   3.595  11.515  0.4689  0.0914  0.0275
  264TMC3    O1 4057   2.932   3.495  11.046 -0.3855 -0.0843  0.2425
  264TMC3    O2 4058   2.946   3.555  11.599  0.1719  0.7112  0.8638
  265MPD2     C 4059   0.422   3.097  15.553 -0.2650  0.5373  0.2564
  265MPD2    C1 4060   0.485   3.217  15.505 -0.0674  0.9024 -0.1957
  265MPD2    C2 4061   0.576   3.219  15.407 -0.1609 -0.5776 -0.6643
  265MPD2    C3 4062   0.625   3.092  15.363  0.6426  0.6454  0.2115
  265MPD2    C4 4063   0.562   2.977  15.405 -0.8968  0.0697  0.6726
  265MPD2    C5 4064   0.454   2.980  15.494 -0.0722 -0.3784 -0.0571
  265MPD2     H 4065   0.617   3.316  15.381  0.2987 -0.4830  0.4342
  265MPD2    H1 4066   0.598   2.882  15.367 -0.7598  0.2536  0.3490
  265MPD2    H2 4067   0.341   3.101  15.625  0.4249  1.5402  0.9814
  265MPD2    H3 4068   0.401   2.889  15.517  0.5077 -0.9074 -0.8182
  265MPD2     N 4069   0.723   3.079  15.259  0.3338  0.1897  0.2026
  265MPD2    H5 4070   0.757   2.984  15.245  0.0120  0.0011  0.7014
  265MPD2    N1 4071   0.469   3.337  15.575 -0.2328  0.0023 -0.6145
  265MPD2    H7 4072   0.511   3.417  15.528 -0.4304  1.7000  2.1513
  266TMC3    C1 4073   0.381   3.491  15.745  0.1390 -0.3739  0.6589
  266TMC3    C2 4074   0.434   3.527  15.865  0.2536  0.0814  0.0214
  266TMC3    C3 4075   0.448   3.659  15.896 -0.8198  0.0779  0.6164
  266TMC3    C4 4076   0.330   3.587  15.660 -0.4315 -0.0083  0.2016
  266TMC3    C5 4077   0.339   3.720  15.697  0.2019 -0.1173 -0.3974
  266TMC3    C6 4078   0.405   3.761  15.811 -0.0207 -0.1731  0.8338
  266TMC3     C 4079   0.407   3.353  15.695  0.6464  0.1802 -0.2893
  266TMC3     O 4080   0.355   3.267  15.763  0.1045  0.0370  0.4234
  266TMC3     H 4081   0.481   3.450  15.925 -0.3991 -2.2978 -2.4808
  266TMC3    H1 4082   0.291   3.544  15.569  1.2965  0.9830 -1.0189
  266TMC3    H2 4083   0.404   3.863  15.848 -0.7478  0.1613 -0.0897
  266TMC3    C7 4084   0.283   3.823  15.611 -0.3193  0.1023 -0.5589
  266TMC3    C8 4085   0.510   3.687  16.025 -0.1447  0.5014  0.8327
  266TMC3    O1 4086   0.251   3.921  15.671  0.2573  0.4259  0.7112
  266TMC3    O2 4087   0.540   3.593  16.100 -0.1169  0.0752 -0.5006
  267MPD2     C 4088   2.233   0.540   0.294 -0.5056 -0.6180  0.6200
  267MPD2    C1 4089   2.319   0.615   0.218 -0.0631  0.2695 -0.6210
  267MPD2    C2 4090   2.285   0.653   0.090 -0.0926  0.5961 -0.4967
  267MPD2    C3 4091   2.169   0.606   0.033 -0.0385 -0.3567  0.3607
  267MPD2    C4 4092   2.085   0.520   0.103 -0.1147  0.2899 -0.0355
  267MPD2    C5 4093   2.116   0.494   0.233 -0.5990  0.0413 -0.4918
  267MPD2     H 4094   2.345   0.725   0.036  3.8154 -1.3645  1.1999
  267MPD2    H1 4095   1.985   0.496   0.069  0.4483 -1.4868 -0.4728
  267MPD2    H2 4096   2.252   0.512   0.397  2.8658  0.6319  0.3367
  267MPD2    H3 4097   2.045   0.435   0.289  0.7390 -0.8300  0.2702
  267MPD2     N 4098   2.131   0.640  17.642 -0.2529  0.4425  0.2199
  267MPD2    H5 4099   2.065   0.582  17.590  1.6230 -1.5346  0.0245
  267MPD2    N1 4100   2.429   0.671   0.278  0.1659 -0.1667  0.0761
  267MPD2    H7 4101   2.435   0.660   0.379  0.2634  0.2041  0.1122
  268TMC3    C1 4102   2.649   0.759   0.305  0.3068 -0.3232  0.2329
  268TMC3    C2 4103   2.736   0.848   0.254  0.0470  0.4739  0.2151
  268TMC3    C3 4104   2.859   0.860   0.313 -0.1881  0.3432  0.2135
  268TMC3    C4 4105   2.678   0.681   0.412 -0.5512  0.3382  0.2356
  268TMC3    C5 4106   2.796   0.710   0.479  0.4982 -0.6099 -0.0073
  268TMC3    C6 4107   2.887   0.799   0.432  0.3930 -1.0640 -0.1627
  268TMC3     C 4108   2.537   0.740   0.221  0.4459  0.0076 -0.5137
  268TMC3     O 4109   2.553   0.772   0.103  0.2577 -0.4874 -0.3150
  268TMC3     H 4110   2.718   0.914   0.170 -0.3080 -1.4262 -1.1808
  268TMC3    H1 4111   2.610   0.600   0.437  0.7471 -0.3469  1.5526
  268TMC3    H2 4112   2.982   0.821   0.479 -0.1701  0.4388  0.2853
  268TMC3    C7 4113   2.825   0.649   0.606  0.5566 -0.0748  0.2179
  268TMC3    C8 4114   2.956   0.957   0.265  0.0225  0.4752 -0.5997
  268TMC3    O1 4115   2.945   0.654   0.635 -0.5143 -0.2010 -0.2922
  268TMC3    O2 4116   3.023   1.009   0.345 -0.5448 -0.4998  0.1929
  269MPD2     C 4117   3.318   4.353  15.526 -1.3883 -0.6183 -0.6068
  269MPD2    C1 4118   3.190   4.371  15.555 -0.9607 -0.0969  0.4239
  269MPD2    C2 4119   3.134   4.493  15.522  0.5347 -0.3096 -0.3371
  269MPD2    C3 4120   3.209   4.592  15.460 -0.2299 -0.5054 -0.4226
  269MPD2    C4 4121   3.342   4.574  15.428 -0.1086  0.0562 -0.1909
  269MPD2    C5 4122   3.393   4.448  15.455 -0.7151 -0.1721  0.2112
  269MPD2     H 4123   3.035   4.520  15.555  0.8212  1.8928 -1.2697
  269MPD2    H1 4124   3.410   4.652  15.397 -0.5884  1.6836  2.8546
  269MPD2    H2 4125   3.363   4.255  15.533  1.7951  0.8255 -0.7045
  269MPD2    H3 4126   3.493   4.415  15.426  0.4190  1.5407  2.2161
  269MPD2     N 4127   3.142   4.709  15.426 -0.4718  1.1233 -0.0535
  269MPD2    H5 4128   3.053   4.716  15.474  0.0988  0.3479  1.1195
  269MPD2    N1 4129   3.125   4.260  15.617  0.0811  0.2682 -0.3562
  269MPD2    H7 4130   3.179   4.175  15.618  0.9467  0.8122 -1.2173
  270TMC3    C1 4131   2.972   4.145  15.744  0.8057 -0.8900 -0.5392
  270TMC3    C2 4132   2.845   4.113  15.704 -0.1195 -0.5239  0.2465
  270TMC3    C3 4133   2.828   3.983  15.684 -0.4758 -0.5070  0.0825
  270TMC3    C4 4134   3.070   4.057  15.774  0.6267  0.4150 -0.5947
  270TMC3    C5 4135   3.036   3.921  15.774  0.2409  0.6390  0.1752
  270TMC3    C6 4136   2.912   3.890  15.729 -0.2115 -0.1992  0.2962
  270TMC3     C 4137   3.016   4.275  15.693 -0.8096  0.0721  0.4133
  270TMC3     O 4138   2.935   4.368  15.692 -0.2017 -0.3595  0.1245
  270TMC3     H 4139   2.777   4.182  15.657 -0.2341 -1.3670 -0.7942
  270TMC3    H1 4140   3.167   4.090  15.811  0.9269  2.2613 -2.9703
  270TMC3    H2 4141   2.877   3.788  15.714  0.3830 -0.1352 -1.5815
  270TMC3    C7 4142   3.131   3.816  15.812 -0.0643  0.1931  0.9344
  270TMC3    C8 4143   2.720   3.937  15.599  0.6171 -0.6163  0.2636
  270TMC3    O1 4144   3.248   3.855  15.816  0.3834  0.2754 -0.1075
  270TMC3    O2 4145   2.614   4.000  15.597 -0.9196  0.4559 -0.2444
  271MPD2     C 4146   2.592   4.343  13.833  0.4543  0.4603  0.0540
  271MPD2    C1 4147   2.514   4.250  13.901  0.4992  0.8040  0.1577
  271MPD2    C2 4148   2.380   4.259  13.886  0.1299  0.0968 -0.4686
  271MPD2    C3 4149   2.322   4.350  13.802  0.6897 -0.6308 -0.0021
  271MPD2    C4 4150   2.398   4.439  13.726 -0.0660 -0.3347  0.7597
  271MPD2    C5 4151   2.534   4.422  13.733  0.0762 -0.9852  0.3138
  271MPD2     H 4152   2.325   4.186  13.946 -1.4129  0.5984 -1.2769
  271MPD2    H1 4153   2.348   4.509  13.660  2.0516 -2.3631 -3.0080
  271MPD2    H2 4154   2.700   4.334  13.829  0.4299  0.5609 -0.9243
  271MPD2    H3 4155   2.589   4.489  13.668 -0.2379 -0.2175  0.8437
  271MPD2     N 4156   2.182   4.358  13.788  0.5583 -0.0622 -0.4802
  271MPD2    H5 4157   2.142   4.410  13.711  2.5593  0.9096 -0.8657
  271MPD2    N1 4158   2.564   4.149  13.985  0.2554  0.4127  0.2898
  271MPD2    H7 4159   2.497   4.081  14.019  1.6450 -1.8355 -1.4142
  272TMC3    C1 4160   2.700   4.024  14.116 -0.0171  0.1761  0.2329
  272TMC3    C2 4161   2.821   3.969  14.132  0.5910  0.1760 -0.0223
  272TMC3    C3 4162   2.836   3.879  14.239 -0.1478 -0.7328 -0.0026
  272TMC3    C4 4163   2.601   4.006  14.208 -0.5552 -0.0451 -0.3514
  272TMC3    C5 4164   2.614   3.915  14.308  0.2227 -0.4815  0.0228
  272TMC3    C6 4165   2.737   3.854  14.332 -0.3847 -0.2708 -0.1972
  272TMC3     C 4166   2.694   4.121  14.012 -0.0995  0.9005  0.1925
  272TMC3     O 4167   2.792   4.169  13.963  0.2726  0.2860  0.4439
  272TMC3     H 4168   2.901   3.985  14.061 -1.1577 -0.1642 -2.0790
  272TMC3    H1 4169   2.506   4.056  14.199 -0.8194 -0.7313 -1.3501
  272TMC3    H2 4170   2.744   3.794  14.422  0.7424 -0.3010 -0.3081
  272TMC3    C7 4171   2.510   3.919  14.409  0.2755  0.3738 -0.0627
  272TMC3    C8 4172   2.950   3.790  14.234 -0.5290 -0.4315  0.2579
  272TMC3    O1 4173   2.393   3.926  14.378 -0.2402 -0.3515 -0.7015
  272TMC3    O2 4174   3.010   3.781  14.125  0.2512 -0.1194  0.3958
  273MPD2     C 4175   3.041   2.021  11.983 -0.0416 -0.1341 -0.7129
  273MPD2    C1 4176   3.168   1.966  11.963 -0.5592 -0.1507 -0.4812
  273MPD2    C2 4177   3.202   1.912  11.840 -0.1740  0.0977  0.2072
  273MPD2    C3 4178   3.116   1.914  11.730 -0.0905 -0.4002  0.2639
  273MPD2    C4 4179   2.994   1.979  11.742 -0.0209  0.2405 -0.4300
  273MPD2    C5 4180   2.960   2.032  11.866 -0.3839 -0.2108 -0.9272
  273MPD2     H 4181   3.299   1.865  11.831 -0.3813 -0.0897 -0.9976
  273MPD2    H1 4182   2.931   1.978  11.654 -2.0580  2.1781  0.9971
  273MPD2    H2 4183   3.006   2.074  12.071  3.7758  2.2104 -0.6060
  273MPD2    H3 4184   2.866   2.086  11.865 -0.8118 -0.9377  0.1770
  273MPD2     N 4185   3.155   1.873  11.595 -0.6446  0.2921  0.0690
  273MPD2    H5 4186   3.092   1.900  11.519 -0.0546 -0.8219 -0.8164
  273MPD2    N1 4187   3.249   1.978  12.078 -0.1756  0.0753 -0.0049
  273MPD2    H7 4188   3.199   2.007  12.161 -0.8540  1.7531 -0.9918
  274TMC3    C1 4189   3.311   1.863  11.426  0.2132  0.0878 -0.3404
  274TMC3    C2 4190   3.217   1.855  11.324  1.2260 -0.8174  0.6980
  274TMC3    C3 4191   3.251   1.900  11.200  0.1046  0.1174  0.5790
  274TMC3    C4 4192   3.428   1.935  11.412  0.2273 -0.2877  0.3750
  274TMC3    C5 4193   3.455   1.988  11.294  0.1134 -0.3390 -0.2910
  274TMC3    C6 4194   3.371   1.974  11.186 -0.3860  0.2641  0.0293
  274TMC3     C 4195   3.277   1.819  11.562 -0.5127  0.2286  0.0653
  274TMC3     O 4196   3.375   1.778  11.632  0.4789  0.7843  0.3504
  274TMC3     H 4197   3.124   1.799  11.329  0.1643  0.8058 -0.8993
  274TMC3    H1 4198   3.488   1.938  11.502 -1.0681 -2.5254  1.3048
  274TMC3    H2 4199   3.376   2.049  11.108  0.7322  0.2283  0.0730
  274TMC3    C7 4200   3.522   2.113  11.291  0.8475  0.6142  0.8028
  274TMC3    C8 4201   3.147   1.922  11.110 -0.1782  0.6528 -0.2315
  274TMC3    O1 4202   3.601   2.135  11.202  0.5265 -0.0843 -0.1361
  274TMC3    O2 4203   3.034   1.945  11.156 -0.1032 -0.0110  0.2305
  275MPD2     C 4204   3.554   0.682  14.284 -0.2512  0.0156  0.2483
  275MPD2    C1 4205   3.584   0.564  14.338 -0.5150  0.2624  0.6140
  275MPD2    C2 4206   3.483   0.478  14.378 -0.1387 -0.0464  0.0963
  275MPD2    C3 4207   3.354   0.519  14.376  0.2536  0.8027  0.0605
  275MPD2    C4 4208   3.328   0.640  14.316  0.1053  0.0973  0.1701
  275MPD2    C5 4209   3.428   0.725  14.272 -0.6664  0.4390 -0.3510
  275MPD2     H 4210   3.504   0.376  14.410  0.1406 -0.3374 -1.0221
  275MPD2    H1 4211   3.224   0.672  14.312  0.3250  0.5588 -1.7890
  275MPD2    H2 4212   3.633   0.746  14.246 -0.3218 -0.1134 -0.1147
  275MPD2    H3 4213   3.415   0.820  14.221 -0.2937 -0.0123 -1.2942
  275MPD2     N 4214   3.244   0.439  14.421  0.4326 -0.6079 -0.0127
  275MPD2    H5 4215   3.153   0.481  14.405  1.0587  0.5780 -0.5386
  275MPD2    N1 4216   3.717   0.522  14.366  0.4255 -0.0066 -0.2487
  275MPD2    H7 4217   3.720   0.427  14.401 -0.5285 -0.1646 -0.5830
  276TMC3    C1 4218   3.950   0.509  14.352  0.4601  0.0917 -0.2861
  276TMC3    C2 4219   3.930   0.377  14.355 -0.2319 -0.0343 -0.5337
  276TMC3    C3 4220   3.954   0.303  14.467  1.1776 -1.1496 -0.1565
  276TMC3    C4 4221   4.031   0.569  14.446 -0.2326  0.7961  0.4553
  276TMC3    C5 4222   4.074   0.495  14.548 -0.0023  0.0363  0.4983
  276TMC3    C6 4223   4.026   0.371  14.567  0.4216  0.5435 -0.9877
  276TMC3     C 4224   3.830   0.584  14.315 -0.4291 -0.8807 -0.3855
  276TMC3     O 4225   3.856   0.701  14.288  0.6424  0.2904 -0.3543
  276TMC3     H 4226   3.869   0.340  14.273  0.5344 -0.8348 -0.7435
  276TMC3    H1 4227   4.045   0.676  14.437  1.4082  0.6054  0.8455
  276TMC3    H2 4228   4.037   0.327  14.666  0.7381 -1.5755 -1.9671
  276TMC3    C7 4229   4.131   0.561  14.659 -0.6245 -0.3719 -0.0932
  276TMC3    C8 4230   3.845   0.219  14.498 -0.8518  0.0462  0.0792
  276TMC3    O1 4231   4.135   0.497  14.763 -0.9843 -0.5875  0.1635
  276TMC3    O2 4232   3.739   0.251  14.443 -0.4877 -0.1037 -0.0018
  277MPD2     C 4233   0.795   4.509  13.424  0.1506  0.2517 -0.4189
  277MPD2    C1 4234   0.668   4.540  13.468  0.3688  0.6397 -0.4102
  277MPD2    C2 4235   0.596   4.436  13.541 -0.1298  0.3181 -0.4619
  277MPD2    C3 4236   0.664   4.329  13.594 -0.2828 -0.3752 -0.7500
  277MPD2    C4 4237   0.799   4.311  13.556 -0.3090 -0.3218  0.7612
  277MPD2    C5 4238   0.859   4.400  13.470 -0.0586 -0.6758 -0.6058
  277MPD2     H 4239   0.489   4.445  13.558 -0.0676  1.2449 -0.5491
  277MPD2    H1 4240   0.853   4.223  13.587  1.2848 -0.2993 -1.9313
  277MPD2    H2 4241   0.846   4.568  13.350 -1.2321 -1.6961 -2.9332
  277MPD2    H3 4242   0.958   4.375  13.432  1.1026  0.0867  1.9874
  277MPD2     N 4243   0.583   4.240  13.667 -0.1646  0.3363 -0.2801
  277MPD2    H5 4244   0.483   4.257  13.676 -0.5585 -3.0281  1.6505
  277MPD2    N1 4245   0.613   4.656  13.430 -0.2863 -0.3109 -0.2777
  277MPD2    H7 4246   0.674   4.716  13.376 -0.3589 -1.7740 -2.0084
  278TMC3    C1 4247   0.528   4.068  13.812  0.4167 -0.4990  1.2651
  278TMC3    C2 4248   0.553   3.942  13.839 -0.0393  0.2377  0.3013
  278TMC3    C3 4249   0.471   3.874  13.920 -0.2717  0.1049 -0.3200
  278TMC3    C4 4250   0.416   4.130  13.860 -0.3686 -0.4087  0.0337
  278TMC3    C5 4251   0.328   4.052  13.926 -0.2519  0.4458 -0.4557
  278TMC3    C6 4252   0.358   3.929  13.971 -0.2736  0.0588  0.1656
  278TMC3     C 4253   0.626   4.129  13.731 -0.5819  0.3112 -0.3149
  278TMC3     O 4254   0.734   4.078  13.729 -0.4191  0.3742 -0.2789
  278TMC3     H 4255   0.640   3.886  13.805 -0.0882  0.6126 -0.4432
  278TMC3    H1 4256   0.389   4.232  13.837  0.1971 -0.0123  1.0985
  278TMC3    H2 4257   0.279   3.864  14.008  0.3462 -1.4556 -1.1543
  278TMC3    C7 4258   0.198   4.116  13.969 -0.5110  0.1160 -0.2167
  278TMC3    C8 4259   0.502   3.730  13.934  1.0006 -0.4097  0.6556
  278TMC3    O1 4260   0.169   4.225  13.935 -0.1186  0.1298  0.3717
  278TMC3    O2 4261   0.618   3.704  13.970  0.1203  0.0574 -0.2264
  279MPD2     C 4262   4.444   3.736   0.654 -0.2479  0.4665 -0.2933
  279MPD2    C1 4263   4.460   3.858   0.591 -0.5584 -0.2997 -0.3660
  279MPD2    C2 4264   4.475   3.861   0.452 -0.7603  0.5575 -0.8564
  279MPD2    C3 4265   4.487   3.744   0.380 -0.6536  0.6618 -0.0366
  279MPD2    C4 4266   4.480   3.624   0.443  0.6136  0.4003 -0.1113
  279MPD2    C5 4267   4.452   3.624   0.578 -0.3922 -0.0142 -0.8738
  279MPD2     H 4268   4.462   3.956   0.402 -0.1546  0.5567 -1.0154
  279MPD2    H1 4269   4.505   3.529   0.397 -0.3671  1.1690 -2.1785
  279MPD2    H2 4270   4.420   3.725   0.759 -1.1085  1.9700 -0.3357
  279MPD2    H3 4271   4.442   3.526   0.623  0.6739  0.9023  1.4158
  279MPD2     N 4272   4.502   3.741   0.237 -0.0290  0.3464 -0.2141
  279MPD2    H5 4273   4.513   3.649   0.197 -2.9900 -0.2583  0.3669
  279MPD2    N1 4274   4.430   3.977   0.664 -0.0752 -0.5534  0.1722
  279MPD2    H7 4275   4.397   3.967   0.759  0.4988  1.5293  0.5810
  280TMC3    C1 4276   4.343   4.194   0.642 -0.4910  0.0944 -0.3104
  280TMC3    C2 4277   4.220   4.136   0.671 -0.0179 -1.1085  0.5998
  280TMC3    C3 4278   4.104   4.205   0.646 -0.8999  0.0720  0.5753
  280TMC3    C4 4279   4.354   4.318   0.582 -0.4971  0.6045  0.7324
  280TMC3    C5 4280   4.235   4.386   0.563  0.5567 -1.4593  0.2084
  280TMC3    C6 4281   4.106   4.338   0.600 -0.1088 -0.1845  0.6342
  280TMC3     C 4282   4.450   4.104   0.614 -0.3181  0.2144  0.3661
  280TMC3     O 4283   4.532   4.135   0.529  0.7847  0.0055 -0.3299
  280TMC3     H 4284   4.212   4.037   0.715 -1.8994 -0.8355  0.8744
  280TMC3    H1 4285   4.451   4.351   0.545 -0.3808 -0.3349  0.1964
  280TMC3    H2 4286   4.013   4.392   0.586  0.1448  0.0821 -0.0339
  280TMC3    C7 4287   4.249   4.528   0.535 -0.3134 -0.3078 -0.6529
  280TMC3    C8 4288   3.978   4.130   0.636  0.4161  0.0624  0.0504
  280TMC3    O1 4289   4.354   4.568   0.583 -0.4167 -0.6631  0.2343
  280TMC3    O2 4290   3.892   4.197   0.577 -0.3328  0.6873 -0.3940
  281TMC3    C1 4291   3.506   4.447  13.675  0.0768 -0.6385  0.2921
  281TMC3    C2 4292   3.562   4.551  13.599  0.2836 -0.2836  0.2205
  281TMC3    C3 4293   3.687   4.534  13.545 -0.4050  0.1682  0.4022
  281TMC3    C4 4294   3.576   4.335  13.707  0.0558 -0.2690  0.2047
  281TMC3    C5 4295   3.698   4.326  13.654 -0.0073  0.6185 -0.1335
  281TMC3    C6 4296   3.756   4.419  13.569 -0.1739 -0.3522  0.5369
  281TMC3     C 4297   3.363   4.446  13.699  0.4496  0.2542 -0.9006
  281TMC3     O 4298   3.306   4.343  13.729  0.0501 -0.3080 -0.5630
  281TMC3     H 4299   3.514   4.648  13.588  0.4101 -0.0727  1.5124
  281TMC3    H1 4300   3.523   4.262  13.766  0.2224  0.3516  1.1092
  281TMC3    H2 4301   3.851   4.393  13.524 -0.5221 -0.2847 -0.2284
  281TMC3    C7 4302   3.791   4.230  13.708  0.2756 -0.0231 -0.4823
  281TMC3    C8 4303   3.755   4.618  13.449  0.2114 -0.2117 -0.0065
  281TMC3    O1 4304   3.910   4.257  13.687 -0.5915  0.3001  0.0217
  281TMC3    O2 4305   3.870   4.578  13.427  0.4166 -0.2636 -0.1346
  282MPD2     C 4306   0.416   0.696  14.971  0.3198  0.2462 -0.9483
  282MPD2    C1 4307   0.337   0.638  15.065 -0.1111 -0.7934 -0.0759
  282MPD2    C2 4308   0.252   0.535  15.025 -0.6863  0.1637  0.2408
  282MPD2    C3 4309   0.232   0.484  14.898  0.0823 -0.3351 -0.5795
  282MPD2    C4 4310   0.320   0.548  14.810 -0.4280  0.2556 -0.5496
  282MPD2    C5 4311   0.406   0.653  14.840  0.3436  0.3254  0.1891
  282MPD2     H 4312   0.198   0.484  15.103 -0.4545  1.8236  1.4788
  282MPD2    H1 4313   0.319   0.524  14.704  0.1876  0.3676 -0.5798
  282MPD2    H2 4314   0.487   0.775  14.988  0.2135  0.2286 -0.4141
  282MPD2    H3 4315   0.439   0.712  14.754  1.7297  1.1826  1.3049
  282MPD2     N 4316   0.132   0.387  14.876  0.2566 -0.6399 -0.0102
  282MPD2    H5 4317   0.089   0.344  14.958 -1.2758  1.1577  0.1230
  282MPD2    N1 4318   0.343   0.666  15.197  0.3087 -0.1129  0.1454
  282MPD2    H7 4319   0.284   0.607  15.255  3.1098 -0.8858  2.2046
  283TMC3    C1 4320   0.412   0.766  15.401  0.8342 -0.0605 -0.0186
  283TMC3    C2 4321   0.444   0.873  15.475  0.1766  0.5658 -0.1546
  283TMC3    C3 4322   0.459   0.863  15.610  0.1461  0.6937 -0.8455
  283TMC3    C4 4323   0.400   0.642  15.465 -0.6583  0.1762  0.1775
  283TMC3    C5 4324   0.430   0.631  15.603 -0.1445 -0.0441 -0.2004
  283TMC3    C6 4325   0.454   0.745  15.679  0.4699  0.2529  0.3039
  283TMC3     C 4326   0.408   0.774  15.256  1.0337  0.1316  0.2440
  283TMC3     O 4327   0.470   0.862  15.197 -0.5420  0.1866 -0.0182
  283TMC3     H 4328   0.450   0.970  15.426  0.5105  0.1214 -1.0040
  283TMC3    H1 4329   0.374   0.553  15.408  0.1915  0.5709 -0.8418
  283TMC3    H2 4330   0.461   0.741  15.788 -1.2733  0.9138  0.4407
  283TMC3    C7 4331   0.386   0.513  15.678 -0.4955 -0.0849 -0.4159
  283TMC3    C8 4332   0.488   0.977  15.696  0.2048  0.0752  0.1243
  283TMC3    O1 4333   0.433   0.499  15.789  0.0878  0.3919 -0.1958
  283TMC3    O2 4334   0.518   0.953  15.812  0.0927  0.0993 -0.3592
  284MPD2     C 4335   3.275   0.210  12.369  0.5864 -0.6827  0.0866
  284MPD2    C1 4336   3.394   0.198  12.306 -0.0268  0.5468  0.4987
  284MPD2    C2 4337   3.497   0.130  12.369 -0.0967  0.6388 -0.5294
  284MPD2    C3 4338   3.483   0.083  12.500 -0.2271 -0.4655  0.6288
  284MPD2    C4 4339   3.360   0.100  12.561 -1.0667 -0.4145 -0.7744
  284MPD2    C5 4340   3.253   0.149  12.488 -0.8098  0.0687  0.4926
  284MPD2     H 4341   3.590   0.114  12.315  1.0094 -1.0928  1.8700
  284MPD2    H1 4342   3.358   0.073  12.666 -2.2844  0.7503 -0.4939
  284MPD2    H2 4343   3.184   0.239  12.319  0.1937  0.5039  1.4936
  284MPD2    H3 4344   3.151   0.159  12.524 -0.9542  1.1640 -0.2188
  284MPD2     N 4345   3.588   0.022  12.576  0.5358 -0.3812 -0.4602
  284MPD2    H5 4346   3.565   4.720  12.667 -0.9259  1.3405 -0.1231
  284MPD2    N1 4347   3.410   0.225  12.166 -0.7274  0.2612  0.0039
  284MPD2    H7 4348   3.494   0.184  12.128 -0.8377 -0.0696  0.1104
  285TMC3    C1 4349   3.377   0.339  11.947  0.3055  0.0731 -0.1042
  285TMC3    C2 4350   3.469   0.251  11.892 -0.0482 -0.2212  0.1947
  285TMC3    C3 4351   3.513   0.285  11.764 -0.1800 -0.7461 -0.0743
  285TMC3    C4 4352   3.337   0.454  11.886 -0.6851 -0.4269 -0.1108
  285TMC3    C5 4353   3.398   0.488  11.770  0.6842 -0.7038  0.3414
  285TMC3    C6 4354   3.481   0.403  11.700 -0.3376 -0.6166  0.0691
  285TMC3     C 4355   3.332   0.306  12.083 -0.9390 -0.1367  0.6448
  285TMC3     O 4356   3.229   0.368  12.112 -0.0264 -0.1761 -0.2902
  285TMC3     H 4357   3.502   0.160  11.942 -0.5440  0.6215  2.0719
  285TMC3    H1 4358   3.283   0.522  11.951 -0.1941 -0.0660 -0.0759
  285TMC3    H2 4359   3.518   0.428  11.601 -1.3681  1.7295  0.2641
  285TMC3    C7 4360   3.387   0.620  11.708 -0.1530  0.2230  0.1133
  285TMC3    C8 4361   3.607   0.197  11.692 -0.2074  0.4286 -0.2889
  285TMC3    O1 4362   3.455   0.631  11.607  0.3637 -0.4485 -0.3154
  285TMC3    O2 4363   3.650   0.255  11.594  0.1396 -0.0506 -0.2213
  286MPD2     C 4364   3.832   3.488   1.877 -0.6012 -0.2397  0.0699
  286MPD2    C1 4365   3.846   3.547   1.750  0.0152  0.8056  0.1127
  286MPD2    C2 4366   3.935   3.494   1.653 -0.1337 -0.0411  0.1960
  286MPD2    C3 4367   4.002   3.374   1.681  0.2424 -0.1066  0.5172
  286MPD2    C4 4368   3.979   3.310   1.802 -0.7698 -0.9985  0.2609
  286MPD2    C5 4369   3.902   3.373   1.898 -0.3604  0.1711 -0.0404
  286MPD2     H 4370   3.942   3.556   1.564  0.2083  2.4858  1.9741
  286MPD2    H1 4371   4.017   3.212   1.827 -0.7888 -0.8126  1.0254
  286MPD2    H2 4372   3.775   3.537   1.955  0.2984  1.8714 -0.5890
  286MPD2    H3 4373   3.877   3.328   1.993  1.1457 -0.5503  0.0150
  286MPD2     N 4374   4.103   3.324   1.597  0.1948 -0.0671 -0.0041
  286MPD2    H5 4375   4.148   3.240   1.633  0.4376 -0.4820 -1.2797
  286MPD2    N1 4376   3.779   3.668   1.707  0.0743 -0.0171 -0.4758
  286MPD2    H7 4377   3.793   3.698   1.612 -0.2731  0.7737 -0.2803
  287TMC3    C1 4378   4.237   3.288   1.410  0.2088 -0.7038  0.4103
  287TMC3    C2 4379   4.260   3.302   1.272 -0.4559  0.0520  0.1985
  287TMC3    C3 4380   4.381   3.267   1.227  0.7334 -0.4346  0.4750
  287TMC3    C4 4381   4.333   3.234   1.491  0.4027  0.2208 -0.2583
  287TMC3    C5 4382   4.453   3.191   1.436 -0.4205  0.6155 -0.1341
  287TMC3    C6 4383   4.488   3.214   1.306 -0.7837  0.6302 -0.2628
  287TMC3     C 4384   4.134   3.368   1.466  0.0257  0.3691  0.6686
  287TMC3     O 4385   4.089   3.463   1.404 -0.1594  0.3715 -0.4972
  287TMC3     H 4386   4.175   3.327   1.210 -0.3250  0.0782  0.0308
  287TMC3    H1 4387   4.323   3.224   1.598  0.0679  2.1169 -0.1213
  287TMC3    H2 4388   4.580   3.183   1.259  1.2297  1.4690  3.1631
  287TMC3    C7 4389   4.564   3.156   1.523  0.3602  0.4528  0.1079
  287TMC3    C8 4390   4.394   3.239   1.084 -0.3832  0.3558  0.3031
  287TMC3    O1 4391   4.540   3.116   1.634 -0.1527  0.5915  0.6272
  287TMC3    O2 4392   4.468   3.150   1.043  0.2784 -0.4172 -0.3845
  288TMC3    C1 4393   0.986   3.152  14.523 -0.7409 -0.3920 -0.4301
  288TMC3    C2 4394   0.940   3.061  14.617  0.4899  0.4339  0.2769
  288TMC3    C3 4395   0.821   3.000  14.599 -0.3277  0.4459  0.4513
  288TMC3    C4 4396   0.932   3.162  14.403  0.0175 -0.0491  0.3542
  288TMC3    C5 4397   0.829   3.078  14.372  0.1441  0.2747  0.5470
  288TMC3    C6 4398   0.770   3.008  14.474  0.5146 -0.4307  0.4491
  288TMC3     C 4399   1.126   3.181  14.559 -0.2837  0.7457 -0.1819
  288TMC3     O 4400   1.178   3.097  14.634  0.0014  0.1889  0.3790
  288TMC3     H 4401   0.980   3.073  14.717 -2.0595  2.1679  1.0814
  288TMC3    H1 4402   0.971   3.228  14.327  1.7507  0.7090  1.9187
  288TMC3    H2 4403   0.673   2.965  14.455  0.6428 -0.4065 -0.2899
  288TMC3    C7 4404   0.754   3.091  14.245  0.6271  0.2581  0.3120
  288TMC3    C8 4405   0.737   3.027  14.716 -0.0117 -0.5571  1.1495
  288TMC3    O1 4406   0.783   3.187  14.174 -0.2878  0.8228  0.0711
  288TMC3    O2 4407   0.747   3.141  14.761  0.1615  0.1573 -0.2628
  289MPD2     C 4408   0.902   2.374  14.391  0.0971 -0.1261 -0.4953
  289MPD2    C1 4409   0.876   2.511  14.391 -0.8860  0.4545 -0.8928
  289MPD2    C2 4410   0.743   2.550  14.365  0.0302  0.3299 -0.3122
  289MPD2    C3 4411   0.639   2.461  14.328 -0.4655 -0.9608  0.4735
  289MPD2    C4 4412   0.668   2.332  14.322  0.8102 -0.1969 -0.3817
  289MPD2    C5 4413   0.794   2.292  14.356 -0.1887 -0.0962 -0.0919
  289MPD2     H 4414   0.718   2.654  14.381  1.9156  0.5119  1.4520
  289MPD2    H1 4415   0.592   2.262  14.289  0.6456  0.9277 -2.3845
  289MPD2    H2 4416   0.990   2.336  14.441 -0.2471  0.5419  0.6133
  289MPD2    H3 4417   0.811   2.185  14.361  1.8853  0.2738  0.6151
  289MPD2     N 4418   0.508   2.493  14.314  0.0370  0.2375 -0.1277
  289MPD2    H5 4419   0.442   2.425  14.277 -0.1942 -0.3015  1.2724
  289MPD2    N1 4420   0.988   2.593  14.424  0.9915 -0.3405 -0.2465
  289MPD2    H7 4421   1.077   2.557  14.455  1.7167  0.8828 -0.9144
  290TMC3    C1 4422   0.303   2.616  14.316  0.3723  0.6258  0.1575
  290TMC3    C2 4423   0.253   2.732  14.267 -0.2730 -0.2899 -0.7001
  290TMC3    C3 4424   0.118   2.738  14.249 -0.3286  0.7736 -0.0472
  290TMC3    C4 4425   0.219   2.502  14.340 -0.0298 -0.4528  0.3246
  290TMC3    C5 4426   0.087   2.505  14.305  0.6099 -0.6082 -0.5091
  290TMC3    C6 4427   0.035   2.622  14.253 -0.4522 -0.4344 -0.2658
  290TMC3     C 4428   0.446   2.612  14.351  0.5261 -0.5418  0.2737
  290TMC3     O 4429   0.495   2.710  14.405 -0.1869  0.4916 -0.4556
  290TMC3     H 4430   0.317   2.819  14.259 -2.7903  1.4446 -2.2628
  290TMC3    H1 4431   0.253   2.416  14.397  0.1293 -0.7245 -0.1833
  290TMC3    H2 4432   4.666   2.632  14.227 -0.6894  2.9020  1.9238
  290TMC3    C7 4433   4.730   2.398  14.314  0.0010 -1.5234 -0.3612
  290TMC3    C8 4434   0.055   2.864  14.234  0.4456  0.1643  0.3699
  290TMC3    O1 4435   4.614   2.419  14.271 -0.3788 -0.4383 -1.0342
  290TMC3    O2 4436   4.664   2.867  14.208  0.1525  0.5713 -0.8834
  291MPD2     C 4437   0.384   2.061   0.497  0.0588 -0.2632  0.0126
  291MPD2    C1 4438   0.281   2.142   0.470  0.2757  0.2919 -0.0796
  291MPD2    C2 4439   0.291   2.284   0.485 -0.1855 -0.3208  0.5522
  291MPD2    C3 4440   0.406   2.342   0.536 -0.1047  0.2368 -1.4299
  291MPD2    C4 4441   0.507   2.258   0.576  0.3574  0.1110  0.8817
  291MPD2    C5 4442   0.492   2.118   0.558  0.0782  0.7656  0.2558
  291MPD2     H 4443   0.220   2.339   0.424 -0.3064 -0.1390  0.8565
  291MPD2    H1 4444   0.596   2.303   0.619  0.1039  1.0698  0.4068
  291MPD2    H2 4445   0.381   1.953   0.484  1.9562 -0.1057 -1.6404
  291MPD2    H3 4446   0.574   2.058   0.596 -1.6766 -1.5609  0.4009
  291MPD2     N 4447   0.424   2.484   0.543 -0.3635  0.6214  0.1738
  291MPD2    H5 4448   0.514   2.512   0.581 -0.8764  2.0527  0.3278
  291MPD2    N1 4449   0.161   2.086   0.416 -0.2032  0.2947 -0.2364
  291MPD2    H7 4450   0.092   2.156   0.394 -1.1652 -0.2782  0.9679
  292TMC3    C1 4451   0.003   1.939   0.313 -0.3817 -0.3874  0.2238
  292TMC3    C2 4452   4.638   2.007   0.368 -0.2407  0.2838 -0.5228
  292TMC3    C3 4453   4.511   1.945   0.373  0.3726  0.5182 -0.9831
  292TMC3    C4 4454   4.724   1.830   0.235 -0.0955 -0.3995 -0.1150
  292TMC3    C5 4455   4.602   1.775   0.236  0.5848 -0.1270 -0.1042
  292TMC3    C6 4456   4.496   1.834   0.299 -0.0552  0.5974  0.6861
  292TMC3     C 4457   0.142   1.959   0.365 -0.1145 -0.4252 -0.5165
  292TMC3     O 4458   0.231   1.878   0.331  0.0551 -0.7466  0.7291
  292TMC3     H 4459   4.654   2.093   0.431 -1.5549  0.1639 -0.0334
  292TMC3    H1 4460   0.074   1.795   0.179 -0.0337  1.7629 -1.3801
  292TMC3    H2 4461   4.397   1.799   0.269  0.4622  0.7231 -1.1879
  292TMC3    C7 4462   4.601   1.635   0.203  0.7152 -0.6644  0.1454
  292TMC3    C8 4463   4.404   2.038   0.401 -0.5954 -0.1726 -1.1184
  292TMC3    O1 4464   4.695   1.591   0.139  0.2681 -0.3994  0.2311
  292TMC3    O2 4465   4.414   2.152   0.365 -0.8060 -0.2448  0.4098
  293MPD2     C 4466   1.552   3.304  13.499  0.3208  0.0234 -0.3823
  293MPD2    C1 4467   1.580   3.427  13.452  0.2848 -0.8462 -0.4344
  293MPD2    C2 4468   1.690   3.489  13.501  0.7795 -0.4179 -0.2390
  293MPD2    C3 4469   1.759   3.446  13.611 -0.3798  0.3938 -0.0018
  293MPD2    C4 4470   1.711   3.330  13.667 -0.4231  0.2989 -0.1098
  293MPD2    C5 4471   1.606   3.260  13.614 -0.1898 -0.0676  0.3730
  293MPD2     H 4472   1.721   3.584  13.460  0.4360  0.3819  1.3532
  293MPD2    H1 4473   1.741   3.295  13.766  1.4568 -2.4363 -1.6556
  293MPD2    H2 4474   1.476   3.238  13.458  1.5173 -1.4345 -0.2448
  293MPD2    H3 4475   1.571   3.175  13.670 -1.2926  0.5448  0.6010
  293MPD2     N 4476   1.871   3.520  13.653 -0.4055 -0.3089 -0.6376
  293MPD2    H5 4477   1.899   3.595  13.592  1.3639 -1.2704 -0.9977
  293MPD2    N1 4478   1.523   3.465  13.330  0.1110 -0.2473 -1.1752
  293MPD2    H7 4479   1.442   3.414  13.295  0.5274  0.3191 -2.9823
  294TMC3    C1 4480   1.459   3.623  13.160 -0.6187  0.3958  0.1225
  294TMC3    C2 4481   1.449   3.521  13.064  0.3278 -0.6770 -0.2837
  294TMC3    C3 4482   1.388   3.554  12.945  0.2478  0.1648 -0.0630
  294TMC3    C4 4483   1.432   3.753  13.135  0.4942  0.1590 -0.2297
  294TMC3    C5 4484   1.394   3.784  13.009 -0.5320  0.1589 -0.2646
  294TMC3    C6 4485   1.371   3.688  12.913 -0.2800 -0.1881 -0.3785
  294TMC3     C 4486   1.543   3.591  13.275  0.2528 -1.0290  0.4662
  294TMC3     O 4487   1.624   3.679  13.297  0.4554  0.8324 -0.5796
  294TMC3     H 4488   1.472   3.419  13.092  0.4239 -0.0336  1.9560
  294TMC3    H1 4489   1.435   3.833  13.208  0.4849 -0.5749  0.5696
  294TMC3    H2 4490   1.322   3.718  12.821 -2.1162 -0.3168  0.5671
  294TMC3    C7 4491   1.365   3.923  12.973  0.7548 -0.4644 -0.0540
  294TMC3    C8 4492   1.338   3.454  12.857  0.8812  0.5641  0.3723
  294TMC3    O1 4493   1.317   3.992  13.059  0.3307 -0.1026 -0.0018
  294TMC3    O2 4494   1.295   3.506  12.754 -0.1661 -0.2139 -0.2194
  295MPD2     C 4495   1.577   3.219   0.721  0.5678 -0.2556 -0.0702
  295MPD2    C1 4496   1.645   3.123   0.792 -1.0265 -0.0715  0.1437
  295MPD2    C2 4497   1.614   3.098   0.923  0.1964  0.1398  0.3864
  295MPD2    C3 4498   1.505   3.165   0.980 -0.2459 -0.9705 -0.0948
  295MPD2    C4 4499   1.438   3.263   0.908 -0.6094  0.1787 -0.2508
  295MPD2    C5 4500   1.476   3.285   0.776 -0.3142  0.2043 -0.2241
  295MPD2     H 4501   1.678   3.032   0.981  1.8137  0.5573 -0.9386
  295MPD2    H1 4502   1.347   3.308   0.947 -0.6579 -0.1004 -0.0398
  295MPD2    H2 4503   1.603   3.252   0.621  0.0370  0.9692  0.1893
  295MPD2    H3 4504   1.428   3.362   0.716 -3.1544 -1.0297  0.4798
  295MPD2     N 4505   1.471   3.151   1.115  0.5649 -0.5344 -0.6097
  295MPD2    H5 4506   1.415   3.228   1.151 -0.9357 -1.8067 -0.2237
  295MPD2    N1 4507   1.744   3.043   0.732 -0.5737 -0.2131 -0.1051
  295MPD2    H7 4508   1.788   2.971   0.788  1.0207  1.0978  0.3239
  296TMC3    C1 4509   1.480   3.095   1.333 -1.1366 -0.8859  0.7174
  296TMC3    C2 4510   1.439   3.220   1.369 -0.9472  0.0202 -0.3335
  296TMC3    C3 4511   1.407   3.243   1.500  0.1208  0.2224 -0.8283
  296TMC3    C4 4512   1.499   2.998   1.427 -0.2067 -0.4363  0.1598
  296TMC3    C5 4513   1.474   3.029   1.552 -0.0627  0.8901 -0.2471
  296TMC3    C6 4514   1.418   3.147   1.596  0.7534  0.3401  0.1935
  296TMC3     C 4515   1.519   3.058   1.201  0.0358 -0.1936 -0.3808
  296TMC3     O 4516   1.579   2.952   1.183  0.0828 -0.5677 -0.1731
  296TMC3     H 4517   1.447   3.305   1.302 -0.9781  0.9550  0.8554
  296TMC3    H1 4518   1.538   2.902   1.396  1.6253  0.3446  0.0201
  296TMC3    H2 4519   1.399   3.172   1.700 -0.4937 -0.0322  0.0629
  296TMC3    C7 4520   1.494   2.922   1.656 -0.0516 -0.7471  0.3872
  296TMC3    C8 4521   1.377   3.381   1.536 -0.1014 -0.6135 -0.1843
  296TMC3    O1 4522   1.432   2.949   1.759  0.0796  0.4965  0.0522
  296TMC3    O2 4523   1.307   3.445   1.458  0.1960  0.5161  0.2248
  297MPD2     C 4524   4.289   4.303  16.842 -0.6491  0.0497 -0.1296
  297MPD2    C1 4525   4.305   4.276  16.703 -0.1992 -1.0574 -0.3169
  297MPD2    C2 4526   4.433   4.277  16.650 -0.7911 -1.0947 -0.2638
  297MPD2    C3 4527   4.546   4.284  16.724 -0.5871  0.5525  0.3915
  297MPD2    C4 4528   4.526   4.305  16.860  0.2902  0.0132 -0.2487
  297MPD2    C5 4529   4.402   4.316  16.914 -0.2750 -0.3104 -0.1335
  297MPD2     H 4530   4.440   4.264  16.542  0.5508 -1.5278 -0.1211
  297MPD2    H1 4531   4.612   4.307  16.926 -0.4830  1.1841  0.7107
  297MPD2    H2 4532   4.192   4.301  16.891 -1.9464  0.6666 -2.6918
  297MPD2    H3 4533   4.401   4.332  17.021  1.6336  0.1739 -0.1944
  297MPD2     N 4534   4.668   4.265  16.660  0.0231  0.7296  0.3526
  297MPD2    H5 4535   4.681   4.247  16.561  0.7458  1.8998  0.2352
  297MPD2    N1 4536   4.197   4.257  16.622  0.2943 -0.0711 -0.3615
  297MPD2    H7 4537   4.216   4.245  16.523 -0.2049  1.4139 -0.6459
  298TMC3    C1 4538   3.978   4.246  16.548 -0.0370  0.4610  0.3012
  298TMC3    C2 4539   4.030   4.225  16.424  0.1618 -0.1525 -0.6917
  298TMC3    C3 4540   3.957   4.278  16.320  0.7533 -0.2601  0.3397
  298TMC3    C4 4541   3.851   4.285  16.575 -0.0459  1.2231  0.1244
  298TMC3    C5 4542   3.771   4.333  16.466 -0.5964 -0.2357 -0.3015
  298TMC3    C6 4543   3.836   4.341  16.342  0.4305  0.0411 -0.4461
  298TMC3     C 4544   4.068   4.234  16.665 -0.1923  0.0506 -0.3416
  298TMC3     O 4545   4.020   4.211  16.774  0.7591 -0.0689 -0.0469
  298TMC3     H 4546   4.118   4.169  16.395  0.5897  0.7331 -1.1104
  298TMC3    H1 4547   3.808   4.301  16.673 -1.2926 -0.5246 -0.1367
  298TMC3    H2 4548   3.792   4.408  16.269 -0.3486 -1.9073 -1.7710
  298TMC3    C7 4549   3.660   4.418  16.498 -0.3366 -0.1296  0.6785
  298TMC3    C8 4550   4.031   4.297  16.194 -0.1942 -0.0330 -0.5248
  298TMC3    O1 4551   3.643   4.442  16.614  0.5322 -0.0982 -0.7826
  298TMC3    O2 4552   4.146   4.257  16.190 -0.7800  0.7345 -0.1694
  299MPD2     C 4553   4.392   4.162  10.402 -0.3832 -0.1699  0.0522
  299MPD2    C1 4554   4.401   4.075  10.503 -0.4671  1.0758  0.4660
  299MPD2    C2 4555   4.306   3.976  10.498  0.8998 -0.1367  0.0428
  299MPD2    C3 4556   4.199   3.972  10.407  0.2936  0.5358 -0.3277
  299MPD2    C4 4557   4.183   4.068  10.317 -0.0936 -0.3957 -0.8936
  299MPD2    C5 4558   4.289   4.161  10.313 -0.3784 -0.0016  0.1021
  299MPD2     H 4559   4.305   3.892  10.566 -1.1902  0.0490  0.2257
  299MPD2    H1 4560   4.099   4.080  10.251 -0.5621 -0.8765 -0.3772
  299MPD2    H2 4561   4.465   4.243  10.400 -1.2586  0.6034 -0.6552
  299MPD2    H3 4562   4.280   4.243  10.242  1.2577  0.0283 -0.0673
  299MPD2     N 4563   4.092   3.876  10.426  0.1795 -0.1055  0.2205
  299MPD2    H5 4564   3.999   3.907  10.400  0.6193  0.6354 -0.4748
  299MPD2    N1 4565   4.500   4.089  10.605 -0.4298 -0.5517  0.7793
  299MPD2    H7 4566   4.568   4.162  10.588 -0.5483 -1.4640 -3.6235
  300TMC3    C1 4567   3.980   3.699  10.518 -0.3630 -0.0609  0.1015
  300TMC3    C2 4568   3.873   3.773  10.479 -0.1421  0.4281  0.3897
  300TMC3    C3 4569   3.790   3.822  10.580  0.0397  0.3946  0.3716
  300TMC3    C4 4570   3.994   3.658  10.651  0.2197 -0.4556  0.3341
  300TMC3    C5 4571   3.911   3.711  10.744 -0.0145 -0.1492 -0.0613
  300TMC3    C6 4572   3.804   3.793  10.712  0.1745  0.0331 -0.4739
  300TMC3     C 4573   4.109   3.748  10.476 -0.5489 -0.4183  0.6782
  300TMC3     O 4574   4.204   3.695  10.528  0.2307 -0.3156  0.2952
  300TMC3     H 4575   3.846   3.786  10.375  0.4897  1.3162  0.3297
  300TMC3    H1 4576   4.067   3.582  10.677  1.2937  0.7700  0.9642
  300TMC3    H2 4577   3.746   3.843  10.789  1.7266  1.3990 -0.1954
  300TMC3    C7 4578   3.918   3.650  10.877  0.5234  0.0487 -0.8180
  300TMC3    C8 4579   3.677   3.914  10.549  0.2773  0.5737 -0.2827
  300TMC3    O1 4580   3.986   3.548  10.888 -0.1509 -0.5328 -0.3490
  300TMC3    O2 4581   3.575   3.872  10.494 -0.2834 -0.6184 -0.2613
  301MPD2     C 4582   2.386   0.970   1.247 -0.0875 -0.8673  0.8452
  301MPD2    C1 4583   2.277   0.926   1.174  0.7378 -0.0724  0.7374
  301MPD2    C2 4584   2.256   0.791   1.155  0.1018  0.1267  0.5535
  301MPD2    C3 4585   2.343   0.698   1.209  0.5018  0.1302 -0.0583
  301MPD2    C4 4586   2.454   0.741   1.278 -0.2098  0.6580  0.7701
  301MPD2    C5 4587   2.475   0.878   1.299  0.3226 -0.0097  0.0705
  301MPD2     H 4588   2.173   0.759   1.093  1.7980  0.2528 -1.7934
  301MPD2    H1 4589   2.521   0.667   1.320 -1.0427 -1.2164 -1.2376
  301MPD2    H2 4590   2.403   1.077   1.255 -0.6514 -0.7518  0.4862
  301MPD2    H3 4591   2.560   0.913   1.356 -1.2554  0.2606  2.3020
  301MPD2     N 4592   2.333   0.555   1.183  0.0086 -0.3579  0.5969
  301MPD2    H5 4593   2.393   0.492   1.235  0.0006  0.4912  1.6123
  301MPD2    N1 4594   2.178   1.014   1.123  0.0461  0.1445 -0.0218
  301MPD2    H7 4595   2.110   0.970   1.062 -0.7632 -1.0765  1.7389
  302TMC3    C1 4596   2.249   0.353   1.086 -0.2285 -1.3893  0.2420
  302TMC3    C2 4597   2.324   0.288   1.183 -0.3378  0.5676  0.2194
  302TMC3    C3 4598   2.311   0.153   1.171  0.7571  0.1365  0.4750
  302TMC3    C4 4599   2.166   0.300   0.988  0.6958 -0.4016  1.0117
  302TMC3    C5 4600   2.156   0.165   0.998  0.1085  0.0137 -0.3557
  302TMC3    C6 4601   2.225   0.092   1.092 -0.1704  0.3172 -0.1477
  302TMC3     C 4602   2.238   0.499   1.097  0.2868  0.0304  0.1555
  302TMC3     O 4603   2.183   0.555   1.004  0.7481 -0.3087 -0.7085
  302TMC3     H 4604   2.379   0.329   1.268  0.4775 -0.7756  0.3361
  302TMC3    H1 4605   2.108   0.352   0.913  3.2592 -0.3530 -0.9314
  302TMC3    H2 4606   2.200   4.723   1.109  0.4642  0.3936  1.2125
  302TMC3    C7 4607   2.047   0.089   0.942 -0.0973  0.0710  0.1616
  302TMC3    C8 4608   2.365   0.054   1.266  0.0477 -0.5966 -0.4037
  302TMC3    O1 4609   2.066   4.703   0.924  0.3805  0.4825  0.3842
  302TMC3    O2 4610   2.476   0.009   1.246 -0.4391  0.2647  0.0450
  303MPD2     C 4611   2.185   3.889  10.889 -0.1145  0.7450  0.4216
  303MPD2    C1 4612   2.114   3.989  10.955  0.0399  0.4719 -0.5018
  303MPD2    C2 4613   2.124   4.116  10.899  0.1026 -0.4301  0.1268
  303MPD2    C3 4614   2.208   4.150  10.795  0.2782 -0.0896  0.1802
  303MPD2    C4 4615   2.288   4.046  10.750 -0.1772 -1.1570  0.2720
  303MPD2    C5 4616   2.286   3.918  10.800 -0.0375  0.2643  0.1217
  303MPD2     H 4617   2.043   4.182  10.926  0.3365 -0.5273  1.0891
  303MPD2    H1 4618   2.350   4.057  10.662 -0.5027 -1.8545 -0.0438
  303MPD2    H2 4619   2.162   3.789  10.924  1.7654  1.0640  2.5838
  303MPD2    H3 4620   2.333   3.836  10.747  0.2516  0.8362 -0.5061
  303MPD2     N 4621   2.216   4.278  10.732 -0.2594  0.3463 -0.9170
  303MPD2    H5 4622   2.277   4.278  10.651 -0.3400 -1.7595 -0.9856
  303MPD2    N1 4623   2.022   3.961  11.058  0.0542 -0.2900  0.2901
  303MPD2    H7 4624   2.008   3.865  11.088 -1.3177 -0.1375  0.1446
  304TMC3    C1 4625   1.872   3.984  11.225  0.4114  0.1885  0.2807
  304TMC3    C2 4626   1.864   4.057  11.340 -0.0700  0.1863  0.4273
  304TMC3    C3 4627   1.747   4.045  11.404 -0.2741  0.1904 -0.1274
  304TMC3    C4 4628   1.773   3.905  11.163  0.2427 -0.2079 -0.3852
  304TMC3    C5 4629   1.649   3.903  11.226 -0.2008  0.4395  1.1643
  304TMC3    C6 4630   1.647   3.976  11.345 -0.4009  0.3268 -0.4521
  304TMC3     C 4631   1.956   4.054  11.131 -0.2022 -0.2800 -0.2488
  304TMC3     O 4632   1.957   4.178  11.128 -0.2419 -0.2395 -0.2628
  304TMC3     H 4633   1.935   4.132  11.375  0.2000  0.2479 -0.2578
  304TMC3    H1 4634   1.788   3.871  11.061 -3.3953 -1.4672 -0.4842
  304TMC3    H2 4635   1.556   3.969  11.405 -1.6651 -1.1938 -2.5300
  304TMC3    C7 4636   1.525   3.934  11.147  0.1891 -0.0611 -0.0822
  304TMC3    C8 4637   1.697   4.167  11.462 -0.4388 -0.1521 -0.4225
  304TMC3    O1 4638   1.450   4.010  11.204  0.3768  0.1329  0.1883
  304TMC3    O2 4639   1.770   4.226  11.541  0.1588  0.1980  0.0607
  305MPD2     C 4640   0.330   1.401  14.060 -0.2423 -0.1386  0.1610
  305MPD2    C1 4641   0.408   1.294  14.089 -0.0418  0.5733 -0.2665
  305MPD2    C2 4642   0.436   1.204  13.987  0.7301 -0.2190  0.1710
  305MPD2    C3 4643   0.369   1.203  13.864  0.0322  0.4601 -0.5160
  305MPD2    C4 4644   0.275   1.300  13.842 -0.3874  0.0851 -0.0102
  305MPD2    C5 4645   0.266   1.402  13.938 -0.6108 -0.1081  0.3170
  305MPD2     H 4646   0.519   1.136  14.002  0.6970 -0.3562 -0.2655
  305MPD2    H1 4647   0.217   1.299  13.751 -0.5974  1.2751  0.1195
  305MPD2    H2 4648   0.290   1.468  14.137  0.5739 -0.1242  0.5714
  305MPD2    H3 4649   0.210   1.492  13.917 -0.6460  0.3868  2.5648
  305MPD2     N 4650   0.403   1.120  13.753 -0.1580  0.2005 -0.0106
  305MPD2    H5 4651   0.345   1.142  13.673 -0.4595 -0.5975 -0.0179
  305MPD2    N1 4652   0.474   1.293  14.214  0.3485 -0.2201 -0.1609
  305MPD2    H7 4653   0.492   1.383  14.257 -0.5135 -0.5771  0.9413
  306TMC3    C1 4654   0.599   1.191  14.384 -0.6267  0.0870 -0.1575
  306TMC3    C2 4655   0.592   1.102  14.490  0.2190  1.0558 -0.2977
  306TMC3    C3 4656   0.677   1.125  14.601 -0.1717  0.0971  0.8117
  306TMC3    C4 4657   0.707   1.283  14.382 -0.4789  0.4318  0.3417
  306TMC3    C5 4658   0.802   1.288  14.481 -0.1538  0.2214 -0.2155
  306TMC3    C6 4659   0.785   1.213  14.599  0.1678 -0.0264  0.6038
  306TMC3     C 4660   0.516   1.171  14.267  0.5248 -0.0346 -0.8784
  306TMC3     O 4661   0.471   1.059  14.243  0.3806  0.0420  0.0612
  306TMC3     H 4662   0.502   1.042  14.487 -0.1419  1.6097 -0.6323
  306TMC3    H1 4663   0.726   1.353  14.301  0.2902  0.0792  0.2213
  306TMC3    H2 4664   0.860   1.199  14.675  0.3277  1.0741  0.6515
  306TMC3    C7 4665   0.894   1.391  14.484  0.2706  0.2789 -0.1355
  306TMC3    C8 4666   0.656   1.036  14.708  0.2134 -0.4140  0.5261
  306TMC3    O1 4667   0.908   1.463  14.384 -0.4229  0.3217  0.6930
  306TMC3    O2 4668   0.585   0.937  14.693  0.2067  0.6175 -0.2769
  307MPD2     C 4669   3.401   4.593   0.941 -0.0382  0.2803  0.7324
  307MPD2    C1 4670   3.268   4.602   0.922 -0.0642  0.7344  0.0520
  307MPD2    C2 4671   3.189   4.497   0.970  0.7797 -0.2786 -0.1443
  307MPD2    C3 4672   3.246   4.383   1.024  0.0479 -0.4022 -0.1297
  307MPD2    C4 4673   3.387   4.367   1.027 -0.0686  0.2502  0.1893
  307MPD2    C5 4674   3.462   4.472   0.981 -0.2477  0.4909  0.1393
  307MPD2     H 4675   3.081   4.496   0.961  1.1300 -0.3346 -4.2377
  307MPD2    H1 4676   3.443   4.280   1.059  1.2041  1.2368  0.6903
  307MPD2    H2 4677   3.464   4.672   0.902 -3.1919  1.7795 -1.3304
  307MPD2    H3 4678   3.570   4.475   0.986 -0.2748  0.9347  0.4572
  307MPD2     N 4679   3.166   4.273   1.064  0.0322  0.5192 -0.2108
  307MPD2    H5 4680   3.066   4.286   1.073  0.2890  2.3881  0.0908
  307MPD2    N1 4681   3.201   4.707   0.860  0.4013 -0.8472  0.7835
  307MPD2    H7 4682   3.102   4.690   0.843  0.3748 -0.4298  0.5260
  308TMC3    C1 4683   3.034   3.824   1.085  0.3610 -1.0492  0.2023
  308TMC3    C2 4684   2.909   3.847   1.128  0.0441  0.1678 -0.2237
  308TMC3    C3 4685   2.884   3.979   1.161  0.8375 -0.0851 -0.1781
  308TMC3    C4 4686   3.138   3.912   1.088 -0.2694 -0.2881  0.1124
  308TMC3    C5 4687   3.109   4.045   1.122  0.4278  0.6357 -0.9561
  308TMC3    C6 4688   2.981   4.081   1.155  0.1827  0.1523  0.7137
  308TMC3     C 4689   3.055   3.711   1.003  0.2463 -0.8320 -0.0137
  308TMC3     O 4690   3.168   3.669   0.994 -0.5573  0.1281  0.8158
  308TMC3     H 4691   2.830   3.773   1.124 -0.4623  0.7313 -0.6595
  308TMC3    H1 4692   3.235   3.879   1.052  0.9849  4.1123 -0.5000
  308TMC3    H2 4693   2.962   4.184   1.180 -1.7698 -0.0124 -0.0830
  308TMC3    C7 4694   3.210   4.145   1.088 -0.2547 -0.3942 -0.6124
  308TMC3    C8 4695   2.746   4.010   1.181 -0.0984 -0.2576  0.0684
  308TMC3    O1 4696   3.322   4.097   1.071  0.1148  0.4808  0.0728
  308TMC3    O2 4697   2.673   3.923   1.227 -0.6002  0.1941 -0.4644
  309MPD2     C 4698   2.441   4.517  17.047  0.7126 -0.2025  0.0344
  309MPD2    C1 4699   2.430   4.382  17.071  0.7676 -0.5709  0.6598
  309MPD2    C2 4700   2.356   4.334  17.176 -0.2541 -0.5209 -0.2830
  309MPD2    C3 4701   2.278   4.425  17.248  0.2252  0.4066 -0.0263
  309MPD2    C4 4702   2.296   4.556  17.229 -0.3673 -0.5472  0.2869
  309MPD2    C5 4703   2.377   4.601  17.133  0.4467 -0.1196 -0.1261
  309MPD2     H 4704   2.354   4.227  17.194 -1.8451 -0.6458 -1.2110
  309MPD2    H1 4705   2.231   4.630  17.275  0.1057  0.1956 -0.2372
  309MPD2    H2 4706   2.497   4.567  16.969 -0.1223 -0.9391 -1.0321
  309MPD2    H3 4707   2.375   4.708  17.112  2.0185 -0.4047 -1.7809
  309MPD2     N 4708   2.185   4.390  17.351  0.4552 -0.1170 -0.4567
  309MPD2    H5 4709   2.141   4.461  17.407 -0.1882 -0.8609 -0.0199
  309MPD2    N1 4710   2.491   4.294  16.981 -0.2187 -0.1283  0.6545
  309MPD2    H7 4711   2.528   4.328  16.893  0.9487 -3.4482 -0.1342
  310TMC3    C1 4712   2.539   4.097  16.858 -0.3211  0.1208  0.1204
  310TMC3    C2 4713   2.493   4.151  16.742  0.5736 -0.3223 -0.7793
  310TMC3    C3 4714   2.506   4.073  16.631  0.2049 -0.3597 -0.8690
  310TMC3    C4 4715   2.576   3.964  16.869  0.0070 -0.0439  0.0774
  310TMC3    C5 4716   2.564   3.886  16.756  0.0658 -0.1851  0.3478
  310TMC3    C6 4717   2.539   3.941  16.631 -0.2791  0.6061 -0.1187
  310TMC3     C 4718   2.508   4.161  16.989  0.1435 -0.4669  0.3611
  310TMC3     O 4719   2.512   4.090  17.087 -0.2743  0.3239 -0.1393
  310TMC3     H 4720   2.441   4.246  16.743  1.0087 -0.1021  0.9340
  310TMC3    H1 4721   2.583   3.918  16.967 -0.5396  1.0303  0.6122
  310TMC3    H2 4722   2.520   3.876  16.547 -0.6085  0.3761  0.1338
  310TMC3    C7 4723   2.642   3.763  16.755 -0.4720  0.0822 -0.3786
  310TMC3    C8 4724   2.461   4.122  16.503 -0.4152 -0.0010  0.2076
  310TMC3    O1 4725   2.645   3.698  16.653  0.4582  0.1708  0.4318
  310TMC3    O2 4726   2.371   4.200  16.487 -0.4351 -0.3478  0.2508
  311MPD2     C 4727   4.312   0.554  12.635 -0.5086 -0.2958 -0.5770
  311MPD2    C1 4728   4.334   0.656  12.722 -0.7360 -0.0216 -0.0103
  311MPD2    C2 4729   4.248   0.668  12.829 -0.2551 -0.1278 -0.7097
  311MPD2    C3 4730   4.153   0.568  12.852 -0.5244 -0.0198 -0.1660
  311MPD2    C4 4731   4.136   0.467  12.769 -0.2000 -0.0249 -0.1363
  311MPD2    C5 4732   4.217   0.460  12.651 -0.0213  0.1012  0.1308
  311MPD2     H 4733   4.257   0.748  12.902 -1.3879  0.0175 -0.7206
  311MPD2    H1 4734   4.057   0.395  12.783 -0.7036  0.1975 -1.8688
  311MPD2    H2 4735   4.370   0.539  12.545 -0.3724 -2.1677 -0.1776
  311MPD2    H3 4736   4.191   0.399  12.564  0.5067  0.7920 -0.5035
  311MPD2     N 4737   4.063   0.593  12.953 -0.2492  0.2412 -0.3300
  311MPD2    H5 4738   4.069   0.681  13.003 -0.3706  0.0355  0.0444
  311MPD2    N1 4739   4.421   0.762  12.698  0.3723  0.1946  0.2711
  311MPD2    H7 4740   4.426   0.831  12.773  2.4694  1.2662 -0.8741
  312TMC3    C1 4741   3.865   0.585  13.092  0.5710  0.1566  0.3212
  312TMC3    C2 4742   3.734   0.563  13.058 -0.0813 -0.1211 -0.9338
  312TMC3    C3 4743   3.646   0.663  13.049 -0.1964 -0.7960 -0.0772
  312TMC3    C4 4744   3.904   0.712  13.142 -0.1606  0.1721  0.1894
  312TMC3    C5 4745   3.808   0.803  13.148 -0.3110 -0.2422 -0.2448
  312TMC3    C6 4746   3.683   0.788  13.091 -0.2008 -0.2457  0.3906
  312TMC3     C 4747   3.963   0.514  13.006 -0.3502 -0.0656 -0.9395
  312TMC3     O 4748   3.918   0.406  12.970  0.1952  0.2375 -0.4850
  312TMC3     H 4749   3.700   0.470  13.014  1.6320 -1.1043 -0.1726
  312TMC3    H1 4750   4.007   0.744  13.156  0.8373 -2.4008 -1.2744
  312TMC3    H2 4751   3.614   0.871  13.087 -1.2094 -0.9864  2.1517
  312TMC3    C7 4752   3.855   0.930  13.198 -0.7683  0.4729  0.2641
  312TMC3    C8 4753   3.517   0.628  13.000  0.5392  0.6734  0.5987
  312TMC3    O1 4754   3.863   1.023  13.121 -0.3213 -0.0342  0.3210
  312TMC3    O2 4755   3.469   0.517  13.013 -0.1984  0.4452 -0.2756
  313MPD2     C 4756   3.171   0.270  11.626 -0.7197  0.1935  0.4114
  313MPD2    C1 4757   3.217   0.281  11.495 -0.3787 -0.1372  0.3711
  313MPD2    C2 4758   3.294   0.181  11.443 -0.2859 -0.1437  0.0059
  313MPD2    C3 4759   3.312   0.056  11.511  0.0385  0.2473 -0.5387
  313MPD2    C4 4760   3.275   0.054  11.650 -0.7231  0.3417  0.1287
  313MPD2    C5 4761   3.205   0.158  11.697  0.3894  0.4947 -0.0401
  313MPD2     H 4762   3.337   0.190  11.344 -0.8131 -1.3447 -0.3213
  313MPD2    H1 4763   3.280   4.703  11.715  1.2443  0.9229  0.7472
  313MPD2    H2 4764   3.109   0.347  11.670 -1.3192  0.7079 -1.3278
  313MPD2    H3 4765   3.146   0.141  11.787 -1.3960  2.0341 -0.9362
  313MPD2     N 4766   3.366   4.682  11.444  0.0066 -0.1612 -0.0589
  313MPD2    H5 4767   3.409   4.697  11.353 -0.1022 -1.2870 -0.2899
  313MPD2    N1 4768   3.214   0.409  11.423  0.2962  0.4355  0.1908
  313MPD2    H7 4769   3.260   0.415  11.333  1.9119  0.4060  1.0310
  314TMC3    C1 4770   3.167   0.626  11.359  0.0099  0.0758 -0.1731
  314TMC3    C2 4771   3.296   0.645  11.328 -0.8767 -0.5249  0.3717
  314TMC3    C3 4772   3.315   0.750  11.242 -0.3807 -0.1778  0.3803
  314TMC3    C4 4773   3.060   0.696  11.310 -0.2445 -0.1469 -0.5021
  314TMC3    C5 4774   3.079   0.791  11.215 -0.2647 -0.0809 -0.5050
  314TMC3    C6 4775   3.204   0.813  11.174 -0.6156  0.6093 -0.3605
  314TMC3     C 4776   3.129   0.516  11.443  1.0310  0.0115  0.1123
  314TMC3     O 4777   3.030   0.542  11.512  0.2039 -0.2850 -0.0120
  314TMC3     H 4778   3.371   0.589  11.383 -0.6025  0.5958  1.1471
  314TMC3    H1 4779   2.962   0.652  11.328  0.3277 -1.3916 -0.3920
  314TMC3    H2 4780   3.228   0.890  11.100 -0.8634 -1.4524 -2.5912
  314TMC3    C7 4781   2.962   0.814  11.126 -0.2225  0.5088  0.3231
  314TMC3    C8 4782   3.451   0.790  11.203  0.7472  0.0111 -0.4045
  314TMC3    O1 4783   2.848   0.833  11.170 -0.1717 -0.9667 -0.6403
  314TMC3    O2 4784   3.458   0.863  11.102  0.2233  0.0462 -0.6914
  315MPD2     C 4785   3.035   4.621   0.422  0.2763 -0.2372  0.4154
  315MPD2    C1 4786   3.165   4.623   0.462  0.6922 -0.9223 -0.3747
  315MPD2    C2 4787   3.249   4.719   0.425  0.0051  0.0375 -0.0706
  315MPD2    C3 4788   3.209   0.090   0.347 -0.8940  0.6628  0.0489
  315MPD2    C4 4789   3.075   0.087   0.307  0.5341 -0.2621  0.3076
  315MPD2    C5 4790   2.987   4.726   0.345 -0.0348 -0.2137  0.1648
  315MPD2     H 4791   3.348   4.716   0.468 -0.2287 -0.5486  0.4338
  315MPD2    H1 4792   3.020   0.160   0.249 -0.9166 -2.4302 -1.0345
  315MPD2    H2 4793   2.966   4.546   0.459 -0.2484  0.9215  1.7877
  315MPD2    H3 4794   2.884   4.730   0.310  0.8853  2.5302 -2.2586
  315MPD2     N 4795   3.307   0.175   0.289 -0.4759 -0.0702  0.1866
  315MPD2    H5 4796   3.405   0.153   0.298 -0.8612 -2.4345 -1.3718
  315MPD2    N1 4797   3.224   4.514   0.535  0.3115  0.3968  0.6567
  315MPD2    H7 4798   3.325   4.524   0.539  0.4645  0.0463 -1.8217
  316TMC3    C1 4799   3.415   0.292   0.130  0.6533 -0.3405  0.0055
  316TMC3    C2 4800   3.510   0.300   0.222  0.0267  0.0379  0.0988
  316TMC3    C3 4801   3.627   0.238   0.198  0.1504  0.3158  0.2314
  316TMC3    C4 4802   3.428   0.210   0.017  0.1598 -0.1552 -0.1709
  316TMC3    C5 4803   3.548   0.145  17.730  0.8590 -0.9742  0.2876
  316TMC3    C6 4804   3.645   0.166   0.086 -0.6350 -0.8736 -1.1325
  316TMC3     C 4805   3.289   0.273   0.191 -0.1831  0.0153  0.0306
  316TMC3     O 4806   3.183   0.297   0.136 -0.1270 -0.7015  0.3125
  316TMC3     H 4807   3.494   0.369   0.304  1.0006  1.7723 -1.1733
  316TMC3    H1 4808   3.348   0.200  17.684 -2.5088  1.4917  2.5084
  316TMC3    H2 4809   3.744   0.130   0.061  0.7402  1.9556  0.3804
  316TMC3    C7 4810   3.599   0.102  17.598  0.3265 -0.2969  0.2596
  316TMC3    C8 4811   3.739   0.259   0.291 -0.2966 -0.0115 -0.1032
  316TMC3    O1 4812   3.718   0.080  17.582  0.0461  0.2922 -0.1316
  316TMC3    O2 4813   3.758   0.364   0.341 -0.0432  0.7031 -0.0955
  317MPD2     C 4814   0.864   2.967  12.870  0.4290  0.8783 -0.1322
  317MPD2    C1 4815   0.878   2.829  12.867  0.2091 -0.3515  0.1472
  317MPD2    C2 4816   0.916   2.754  12.980  0.3729 -0.5838 -0.3652
  317MPD2    C3 4817   0.934   2.821  13.099  0.3751  0.8303  0.4519
  317MPD2    C4 4818   0.926   2.955  13.106 -0.3606 -0.5951 -0.3269
  317MPD2    C5 4819   0.885   3.027  12.992  0.4051 -0.2308 -0.4342
  317MPD2     H 4820   0.912   2.647  12.966  1.9013 -0.8745  1.4646
  317MPD2    H1 4821   0.950   3.008  13.198 -0.4918 -1.8572  0.4272
  317MPD2    H2 4822   0.823   3.021  12.786 -0.6127 -1.1122 -0.8991
  317MPD2    H3 4823   0.872   3.135  12.994  0.0453 -0.2753 -0.4341
  317MPD2     N 4824   0.947   2.737  13.213 -0.2927 -0.1671 -0.4783
  317MPD2    H5 4825   0.909   2.644  13.200 -0.5876 -0.3515  1.7570
  317MPD2    N1 4826   0.860   2.751  12.755  0.4307  0.7578 -0.5669
  317MPD2    H7 4827   0.853   2.651  12.768 -0.0587  0.7046 -1.2657
  318TMC3    C1 4828   1.005   2.682  13.444  1.2669  0.6733 -0.3850
  318TMC3    C2 4829   0.939   2.565  13.431  0.0327 -0.6033 -0.5872
  318TMC3    C3 4830   0.954   2.469  13.532  0.1986 -0.2110  0.7066
  318TMC3    C4 4831   1.092   2.706  13.544  0.0145  0.3416  0.4447
  318TMC3    C5 4832   1.115   2.610  13.633  0.4046  0.5142  0.5736
  318TMC3    C6 4833   1.045   2.487  13.630 -0.0826  0.4810 -0.2190
  318TMC3     C 4834   0.994   2.780  13.337  0.2073  0.5546  0.8153
  318TMC3     O 4835   1.051   2.884  13.364  0.2328  0.2659 -0.3738
  318TMC3     H 4836   0.858   2.561  13.360 -0.5506  0.8603 -0.0082
  318TMC3    H1 4837   1.167   2.784  13.537  1.7878 -1.2758  1.4434
  318TMC3    H2 4838   1.061   2.411  13.705  2.2608 -0.0370 -1.2621
  318TMC3    C7 4839   1.240   2.625  13.702  0.5988 -0.6883 -0.0745
  318TMC3    C8 4840   0.880   2.349  13.542  0.4491  0.5158  0.5571
  318TMC3    O1 4841   1.255   2.740  13.747 -0.2797 -0.4645 -0.2564
  318TMC3    O2 4842   0.884   2.286  13.647 -0.0347 -0.1995  0.3348
  319MPD2     C 4843   1.732   3.644  16.206 -0.0150  0.4543  0.2461
  319MPD2    C1 4844   1.667   3.670  16.327 -0.3463 -0.5779  0.6431
  319MPD2    C2 4845   1.529   3.678  16.326  0.4321  0.0673 -0.4243
  319MPD2    C3 4846   1.462   3.675  16.203  0.5291  0.2775 -0.2353
  319MPD2    C4 4847   1.534   3.637  16.087 -0.2874  0.4586 -0.6239
  319MPD2    C5 4848   1.667   3.627  16.086  0.0234 -0.0355  0.2117
  319MPD2     H 4849   1.484   3.682  16.424 -0.2876 -1.2880 -0.6898
  319MPD2    H1 4850   1.482   3.620  15.993 -0.1021 -1.5087 -0.3674
  319MPD2    H2 4851   1.838   3.625  16.209 -0.0828  0.2310  1.3590
  319MPD2    H3 4852   1.721   3.602  15.996 -0.2050 -0.7885  0.2873
  319MPD2     N 4853   1.317   3.682  16.180 -0.3416  0.4226 -0.2861
  319MPD2    H5 4854   1.286   3.662  16.085  0.1281  2.8621 -0.9487
  319MPD2    N1 4855   1.733   3.690  16.456  0.0373  0.7711  0.1622
  319MPD2    H7 4856   1.673   3.711  16.535  0.1582  1.0898  0.1715
  320TMC3    C1 4857   1.094   3.672  16.238  0.3037  0.3587 -0.0019
  320TMC3    C2 4858   1.061   3.741  16.125  0.4957 -0.1400  0.3643
  320TMC3    C3 4859   0.953   3.692  16.054  0.2687  0.1576  0.1440
  320TMC3    C4 4860   1.017   3.576  16.288  0.3801 -0.1082  0.2099
  320TMC3    C5 4861   0.912   3.537  16.216 -0.1262  0.0034 -0.4514
  320TMC3    C6 4862   0.883   3.589  16.095 -0.1187 -0.6128 -0.3075
  320TMC3     C 4863   1.233   3.680  16.283 -0.1966 -0.7732  0.3325
  320TMC3     O 4864   1.252   3.695  16.403 -0.2531 -0.2606  0.4570
  320TMC3     H 4865   1.120   3.827  16.097 -0.2407  0.4410  0.5927
  320TMC3    H1 4866   1.046   3.526  16.380 -2.5008 -0.7332  0.7890
  320TMC3    H2 4867   0.793   3.548  16.051  0.1660  0.0582 -1.5139
  320TMC3    C7 4868   0.849   3.403  16.228 -0.1509  1.3606  0.3956
  320TMC3    C8 4869   0.914   3.760  15.936  0.0348  0.4264 -0.8788
  320TMC3    O1 4870   0.813   3.342  16.125  0.2641  0.4206  0.6321
  320TMC3    O2 4871   0.962   3.867  15.916 -0.1791 -0.1296 -0.2430
  321TMC3    C1 4872   1.896   3.721  16.620 -0.2693  0.3512 -0.0910
  321TMC3    C2 4873   2.025   3.761  16.648 -0.1390  0.3129  0.4794
  321TMC3    C3 4874   2.044   3.809  16.775 -0.6430  0.8895 -0.0459
  321TMC3    C4 4875   1.793   3.713  16.710 -0.4049  1.0751 -1.0585
  321TMC3    C5 4876   1.820   3.752  16.836  0.8239  0.0205  0.7152
  321TMC3    C6 4877   1.945   3.814  16.870  0.1336  0.0474 -0.0549
  321TMC3     C 4878   1.866   3.693  16.482  0.2487  0.1558 -0.5010
  321TMC3     O 4879   1.958   3.693  16.399 -1.1701  0.1897 -0.2560
  321TMC3     H 4880   2.106   3.762  16.576  0.2766  1.4458  0.9430
  321TMC3    H1 4881   1.698   3.671  16.681  0.9046 -1.6213 -1.4111
  321TMC3    H2 4882   1.969   3.841  16.972  0.1045  0.8963 -0.2800
  321TMC3    C7 4883   1.821   3.646  16.941  0.1946  0.0233 -0.1620
  321TMC3    C8 4884   2.175   3.775  16.832  0.0526  0.9035 -0.1015
  321TMC3    O1 4885   1.828   3.683  17.058  0.2789  0.7038  0.2318
  321TMC3    O2 4886   2.226   3.674  16.787 -0.0857 -0.1469 -0.0023
  322MPD2     C 4887   0.394   0.586  13.906 -0.4812 -0.1174 -0.0497
  322MPD2    C1 4888   0.445   0.512  14.005  0.1232  0.4387  0.2727
  322MPD2    C2 4889   0.524   0.401  13.981 -0.4948  0.3796 -0.3160
  322MPD2    C3 4890   0.542   0.369  13.847 -0.6064 -0.0701 -0.1058
  322MPD2    C4 4891   0.485   0.444  13.748 -0.4600  0.4596  0.2321
  322MPD2    C5 4892   0.409   0.553  13.775 -0.5685  1.0658  0.3187
  322MPD2     H 4893   0.562   0.343  14.064  0.0607  0.8923 -0.2141
  322MPD2    H1 4894   0.504   0.420  13.644  0.4884  3.2435 -0.2362
  322MPD2    H2 4895   0.341   0.678  13.926 -0.9688 -0.6261  0.9845
  322MPD2    H3 4896   0.370   0.615  13.695  0.9398 -0.0098 -1.2439
  322MPD2     N 4897   0.629   0.258  13.833 -0.4514 -0.0621  0.2987
  322MPD2    H5 4898   0.659   0.201  13.911  1.4428  1.2592  0.5491
  322MPD2    N1 4899   0.414   0.563  14.134 -0.1070 -0.1672  0.6652
  322MPD2    H7 4900   0.385   0.660  14.138 -0.3775 -0.2553  0.8038
  323TMC3    C1 4901   0.421   0.589  14.363 -0.8578 -0.4913 -0.6305
  323TMC3    C2 4902   0.484   0.700  14.320 -0.1659 -0.0161  0.6152
  323TMC3    C3 4903   0.584   0.750  14.400  0.6448  0.5185 -0.4358
  323TMC3    C4 4904   0.450   0.522  14.478  0.2272  0.4652 -0.1177
  323TMC3    C5 4905   0.559   0.576  14.552 -1.1390 -0.2820  0.3617
  323TMC3    C6 4906   0.622   0.687  14.511  0.0656 -0.2500 -0.2789
  323TMC3     C 4907   0.418   0.494  14.253 -0.1814  0.0418  0.2048
  323TMC3     O 4908   0.454   0.377  14.274  0.3000  0.0818  0.0399
  323TMC3     H 4909   0.443   0.770  14.248 -2.9307  0.4536  2.6314
  323TMC3    H1 4910   0.386   0.438  14.498 -0.0524  1.4714  3.2420
  323TMC3    H2 4911   0.690   0.732  14.582 -0.8049 -0.7490  0.8660
  323TMC3    C7 4912   0.651   0.466  14.554  0.1985  0.9344 -0.3514
  323TMC3    C8 4913   0.697   0.801  14.327 -0.2510 -0.7017 -0.3426
  323TMC3    O1 4914   0.610   0.356  14.577  0.2598  0.1019  0.3599
  323TMC3    O2 4915   0.798   0.803  14.393  0.3810  0.1274  0.6475
  324MPD2     C 4916   2.218   1.357  14.635  0.8180 -0.3692 -0.1380
  324MPD2    C1 4917   2.274   1.461  14.565 -0.0868  0.0045  0.3573
  324MPD2    C2 4918   2.210   1.508  14.450 -0.0234 -0.7529 -0.1211
  324MPD2    C3 4919   2.087   1.453  14.409 -0.9432  0.8249  0.5669
  324MPD2    C4 4920   2.039   1.348  14.478 -0.0036  0.2886  0.7482
  324MPD2    C5 4921   2.106   1.298  14.586  0.4817  0.8459  0.1187
  324MPD2     H 4922   2.249   1.602  14.411 -1.9593 -0.3029 -0.9496
  324MPD2    H1 4923   1.946   1.305  14.443  2.0539 -2.6590 -1.0983
  324MPD2    H2 4924   2.253   1.309  14.726  1.7160 -0.5524 -0.5856
  324MPD2    H3 4925   2.063   1.213  14.639  0.4040 -0.2320 -1.6599
  324MPD2     N 4926   2.013   1.502  14.298  0.4511  0.1716 -0.3631
  324MPD2    H5 4927   1.924   1.455  14.289  1.0146 -1.0776  0.6391
  324MPD2    N1 4928   2.392   1.522  14.608  0.6639  0.1150  0.3500
  324MPD2    H7 4929   2.424   1.602  14.554  2.1659  0.1474  1.2999
  325TMC3    C1 4930   1.944   1.613  14.109 -0.2821  0.0553 -0.1770
  325TMC3    C2 4931   1.872   1.502  14.075 -0.5516 -0.8670  0.3767
  325TMC3    C3 4932   1.753   1.514  14.011 -0.4260 -0.0374 -0.4336
  325TMC3    C4 4933   1.897   1.736  14.070  0.5273 -0.3142 -0.6022
  325TMC3    C5 4934   1.781   1.742  14.003 -0.0530  0.1594 -0.7715
  325TMC3    C6 4935   1.705   1.629  13.975  0.7481 -0.5147  0.1746
  325TMC3     C 4936   2.049   1.603  14.209 -0.0123  0.4607  0.7437
  325TMC3     O 4937   2.154   1.661  14.190 -0.4133 -0.2759  0.1751
  325TMC3     H 4938   1.913   1.403  14.090  0.3003 -1.0044 -2.7300
  325TMC3    H1 4939   1.960   1.823  14.085 -0.7513  0.7644 -1.5487
  325TMC3    H2 4940   1.620   1.631  13.908 -0.5125  0.1735  1.7898
  325TMC3    C7 4941   1.709   1.864  13.985 -0.0914  0.3816  0.3437
  325TMC3    C8 4942   1.695   1.387  13.985 -0.3052  0.0888 -0.4995
  325TMC3    O1 4943   1.585   1.865  13.978  0.2981 -0.1791 -0.2341
  325TMC3    O2 4944   1.777   1.295  13.980  0.4582  0.1367 -0.4888
  326MPD2     C 4945   2.691   2.552  11.258  0.6536  0.4864  0.1469
  326MPD2    C1 4946   2.787   2.534  11.158  0.5049  0.0905  0.2710
  326MPD2    C2 4947   2.915   2.516  11.185  0.6356 -0.6573 -0.6198
  326MPD2    C3 4948   2.965   2.522  11.312  0.0617  0.3055  0.0808
  326MPD2    C4 4949   2.876   2.541  11.416 -0.4928 -0.5945  0.4070
  326MPD2    C5 4950   2.745   2.541  11.384 -0.4726  0.7938 -0.2864
  326MPD2     H 4951   2.981   2.508  11.099  1.1546 -1.0966 -0.1864
  326MPD2    H1 4952   2.910   2.534  11.519 -3.0937 -2.2164  1.1571
  326MPD2    H2 4953   2.584   2.557  11.241  0.4544  0.4491  1.4187
  326MPD2    H3 4954   2.670   2.540  11.462 -0.9979  2.7955 -0.7568
  326MPD2     N 4955   3.101   2.510  11.342 -0.2517  0.1772  0.3380
  326MPD2    H5 4956   3.129   2.524  11.438  0.7038 -0.5585  0.1727
  326MPD2    N1 4957   2.744   2.515  11.027  0.4166  0.1021  0.0013
  326MPD2    H7 4958   2.821   2.495  10.964  0.7531 -2.3200  1.1961
  327TMC3    C1 4959   2.597   2.482  10.848  0.0535 -0.1995  0.0701
  327TMC3    C2 4960   2.538   2.549  10.748 -0.4869 -0.3002  0.3034
  327TMC3    C3 4961   2.532   2.495  10.624 -0.1968  0.4495 -0.3495
  327TMC3    C4 4962   2.667   2.363  10.834  0.7215  0.1585  0.1368
  327TMC3    C5 4963   2.658   2.312  10.707 -0.6505 -0.2354 -0.5920
  327TMC3    C6 4964   2.595   2.373  10.606  0.0178 -0.1518 -0.0821
  327TMC3     C 4965   2.627   2.547  10.974  0.7565  0.3438  0.7003
  327TMC3     O 4966   2.549   2.628  11.021 -0.4580 -0.8461 -0.5816
  327TMC3     H 4967   2.495   2.643  10.779 -0.2112  0.2647 -1.0536
  327TMC3    H1 4968   2.717   2.310  10.914  1.6111  1.5015  0.4699
  327TMC3    H2 4969   2.597   2.319  10.512 -0.6462  1.0899 -0.8099
  327TMC3    C7 4970   2.759   2.213  10.660 -0.5026 -0.0079 -1.0189
  327TMC3    C8 4971   2.552   2.598  10.512 -0.1325  0.9803 -0.4827
  327TMC3    O1 4972   2.761   2.182  10.543  0.5352 -0.2931 -0.0102
  327TMC3    O2 4973   2.546   2.709  10.555  0.0225  0.1508  0.2778
  328MPD2     C 4974   1.534   2.187  17.426 -0.2981  0.2613  0.4043
  328MPD2    C1 4975   1.399   2.200  17.437  0.0879 -0.1793 -0.4346
  328MPD2    C2 4976   1.334   2.271  17.340  0.4750 -0.3328  0.7950
  328MPD2    C3 4977   1.408   2.320  17.229  0.5703  0.1970 -0.3044
  328MPD2    C4 4978   1.543   2.297  17.223 -0.5881 -0.3081 -0.1337
  328MPD2    C5 4979   1.609   2.235  17.325 -0.1401 -0.1117 -0.0878
  328MPD2     H 4980   1.231   2.299  17.355  1.2851  3.0325  0.0823
  328MPD2    H1 4981   1.603   2.322  17.136 -0.1392 -1.2316 -0.0851
  328MPD2    H2 4982   1.591   2.130  17.499 -0.5022 -0.9720 -0.3983
  328MPD2    H3 4983   1.713   2.204  17.324  0.3387  1.5906 -2.9640
  328MPD2     N 4984   1.342   2.383  17.120 -0.1346  0.0342 -1.1639
  328MPD2    H5 4985   1.399   2.416  17.043  0.4282 -2.3171 -1.7629
  328MPD2    N1 4986   1.338   2.165  17.559  0.0207 -0.0612 -0.5516
  328MPD2    H7 4987   1.406   2.139  17.630 -0.1672 -0.9966 -0.7182
  329TMC3    C1 4988   1.181   2.173  17.735 -0.2306  0.5317  0.0073
  329TMC3    C2 4989   1.236   2.278   0.056  0.0858 -0.2297  0.3527
  329TMC3    C3 4990   1.186   2.315   0.183 -0.3208 -0.6769  0.1986
  329TMC3    C4 4991   1.072   2.109   0.043 -0.4222 -0.2469  0.7101
  329TMC3    C5 4992   1.025   2.148   0.165  0.1528 -0.3013 -0.1837
  329TMC3    C6 4993   1.084   2.244   0.241 -0.1328 -0.4191 -0.1485
  329TMC3     C 4994   1.205   2.182  17.589 -0.8589  0.3506  0.2593
  329TMC3     O 4995   1.114   2.190  17.507  0.6408 -0.1880 -0.1522
  329TMC3     H 4996   1.304   2.345   0.005 -1.1283  1.6750  1.2034
  329TMC3    H1 4997   1.021   2.035  17.723 -1.4592 -0.1082  1.4094
  329TMC3    H2 4998   1.046   2.268   0.340 -1.2575 -1.2893 -0.3763
  329TMC3    C7 4999   0.913   2.073   0.221  0.5836 -0.2146 -0.1477
  329TMC3    C8 5000   1.183   2.459   0.205 -0.5633 -0.2305  0.3437
  329TMC3    O1 5001   0.854   2.136   0.306 -0.1092  0.1320 -0.5994
  329TMC3    O2 5002   1.236   2.536   0.125 -0.3205  0.5200  0.1042
  330TMC3    C1 5003   3.070   2.126   9.280  0.2190 -0.4937 -0.3128
  330TMC3    C2 5004   3.076   2.006   9.219 -0.2740  0.4460 -0.5675
  330TMC3    C3 5005   3.147   1.904   9.270 -0.3476  0.2495 -0.1425
  330TMC3    C4 5006   3.143   2.151   9.388 -0.2752  0.0788 -0.0475
  330TMC3    C5 5007   3.228   2.051   9.425 -0.2777 -0.4618  0.0580
  330TMC3    C6 5008   3.236   1.926   9.373 -0.8191 -0.4940  0.3122
  330TMC3     C 5009   2.938   2.186   9.264  0.2039  0.9254 -0.0495
  330TMC3     O 5010   2.904   2.210   9.149  0.6955 -0.2407 -0.3619
  330TMC3     H 5011   2.996   1.982   9.149 -0.5824  2.6771 -0.9838
  330TMC3    H1 5012   3.139   2.250   9.434 -0.6151  0.4766 -0.9380
  330TMC3    H2 5013   3.327   1.869   9.389  0.4198  1.4003  0.0968
  330TMC3    C7 5014   3.329   2.092   9.515 -0.5866 -0.1014  0.0098
  330TMC3    C8 5015   3.078   1.777   9.255 -0.4283  0.0303 -0.2439
  330TMC3    O1 5016   3.359   2.214   9.528  0.4197  0.3912 -0.8060
  330TMC3    O2 5017   3.037   1.741   9.146 -0.5018 -0.6079 -0.2899
  331MPD2     C 5018   1.825   1.444  12.831  0.3601 -0.2926 -0.2017
  331MPD2    C1 5019   1.799   1.414  12.696  0.5031  0.1115 -0.3853
  331MPD2    C2 5020   1.798   1.284  12.656  0.2033 -0.0097  0.0514
  331MPD2    C3 5021   1.827   1.177  12.748  0.2328 -0.3541 -0.2222
  331MPD2    C4 5022   1.862   1.207  12.878  0.6280  0.1469 -0.8236
  331MPD2    C5 5023   1.870   1.343  12.910 -0.0885 -0.0809  0.4946
  331MPD2     H 5024   1.779   1.262  12.551  0.6133 -2.6265  0.5364
  331MPD2    H1 5025   1.892   1.132  12.950 -1.5265 -1.6189 -1.7751
  331MPD2    H2 5026   1.831   1.545  12.869 -1.0222  0.0981 -1.0236
  331MPD2    H3 5027   1.903   1.362  13.012 -0.4292 -1.5166  0.8762
  331MPD2     N 5028   1.802   1.046  12.697  0.2434 -0.0888 -0.5456
  331MPD2    H5 5029   1.778   1.038  12.599 -2.4530  0.3355  0.0601
  331MPD2    N1 5030   1.791   1.522  12.605  0.0541  0.2265  0.0178
  331MPD2    H7 5031   1.779   1.613  12.648 -1.0306  0.4576 -0.7892
  332TMC3    C1 5032   1.771   0.817  12.678  0.4785 -0.4371 -0.0726
  332TMC3    C2 5033   1.671   0.839  12.589  0.5682  0.2524 -0.2078
  332TMC3    C3 5034   1.630   0.726  12.521  0.9050 -0.0008 -0.1582
  332TMC3    C4 5035   1.828   0.697  12.705  0.3681  0.4085  0.5434
  332TMC3    C5 5036   1.789   0.595  12.629 -1.0938  0.1269 -0.0656
  332TMC3    C6 5037   1.689   0.600  12.535  0.4434 -0.3021  0.5208
  332TMC3     C 5038   1.817   0.927  12.761  0.4735  0.1662  0.2175
  332TMC3     O 5039   1.868   0.905  12.872 -0.0027  0.6283 -0.4274
  332TMC3     H 5040   1.621   0.934  12.581 -2.0442 -1.1743 -0.8322
  332TMC3    H1 5041   1.892   0.692  12.792  0.9223  2.8292  0.2768
  332TMC3    H2 5042   1.652   0.510  12.488  0.3212  0.6362 -1.1540
  332TMC3    C7 5043   1.840   0.461  12.662  0.0435 -0.1168  0.2026
  332TMC3    C8 5044   1.549   0.762  12.405 -0.6251  0.6643 -0.5417
  332TMC3    O1 5045   1.768   0.365  12.624 -0.4606  0.3253  0.0603
  332TMC3    O2 5046   1.560   0.877  12.363  0.1578  0.2989  0.6482
  333MPD2     C 5047   1.350   1.292  11.239 -0.8103  0.1923  0.7491
  333MPD2    C1 5048   1.467   1.228  11.239  0.0344 -0.2376  0.3527
  333MPD2    C2 5049   1.465   1.089  11.247  0.6938  0.0868 -0.4574
  333MPD2    C3 5050   1.344   1.020  11.238  0.5600  0.2941  0.1009
  333MPD2    C4 5051   1.226   1.086  11.218  0.1744  0.1333 -0.3827
  333MPD2    C5 5052   1.227   1.223  11.225 -0.4127 -0.3558 -0.2054
  333MPD2     H 5053   1.559   1.036  11.259  0.5230  0.0523  0.8027
  333MPD2    H1 5054   1.137   1.033  11.187  0.6706  0.1552 -1.8592
  333MPD2    H2 5055   1.340   1.398  11.259 -1.2310  0.5744 -1.5109
  333MPD2    H3 5056   1.137   1.281  11.214  1.1038  1.9063 -0.5873
  333MPD2     N 5057   1.353   0.878  11.231  0.1723 -0.0734  0.5733
  333MPD2    H5 5058   1.448   0.841  11.233 -0.2534 -0.9758  3.7684
  333MPD2    N1 5059   1.582   1.308  11.242  0.1590 -0.4159  0.7473
  333MPD2    H7 5060   1.572   1.407  11.219 -0.6172 -0.8390 -0.7549
  334TMC3    C1 5061   1.822   1.346  11.243 -0.8715 -0.1021 -1.0367
  334TMC3    C2 5062   1.931   1.334  11.317  0.8861  0.5721  0.3434
  334TMC3    C3 5063   2.040   1.414  11.289 -0.3605 -0.3810  0.1197
  334TMC3    C4 5064   1.811   1.449  11.158  0.3290  0.0876 -0.0854
  334TMC3    C5 5065   1.920   1.535  11.125  0.0238  0.4489 -0.2629
  334TMC3    C6 5066   2.038   1.513  11.196 -0.4046  0.1469  0.4861
  334TMC3     C 5067   1.707   1.259  11.271  0.3730 -0.9351  0.2354
  334TMC3     O 5068   1.735   1.156  11.332  0.4423  1.0363  0.0182
  334TMC3     H 5069   1.940   1.246  11.380  0.6786  0.1127 -0.2754
  334TMC3    H1 5070   1.722   1.451  11.096  1.1781 -0.5461 -1.3167
  334TMC3    H2 5071   2.130   1.569  11.184 -0.0968 -0.4979 -0.1503
  334TMC3    C7 5072   1.910   1.648  11.047  0.0049  0.5571  0.5623
  334TMC3    C8 5073   2.164   1.363  11.335 -0.0565 -0.2174  0.0417
  334TMC3    O1 5074   2.013   1.711  11.019 -0.1024 -0.4165 -0.4053
  334TMC3    O2 5075   2.156   1.306  11.442 -0.0667  0.1612 -0.1996
  335TMC3    C1 5076   2.145   2.271  16.934 -0.3231 -0.5460 -0.5356
  335TMC3    C2 5077   2.010   2.261  16.933 -0.1972 -0.5783 -1.1185
  335TMC3    C3 5078   1.936   2.373  16.934  0.1766 -0.1446 -0.3226
  335TMC3    C4 5079   2.199   2.399  16.941 -0.6766  0.5420 -0.7288
  335TMC3    C5 5080   2.114   2.511  16.938  0.0860 -0.4941  0.6689
  335TMC3    C6 5081   1.980   2.501  16.943  0.0135 -0.0891  0.3247
  335TMC3     C 5082   2.223   2.151  16.912 -0.1200  0.7075  0.8692
  335TMC3     O 5083   2.173   2.049  16.865  0.4846 -0.1000  0.2474
  335TMC3     H 5084   1.975   2.158  16.940  0.4548 -0.7050  0.2658
  335TMC3    H1 5085   2.304   2.424  16.949 -0.2720 -1.2679 -0.4057
  335TMC3    H2 5086   1.912   2.585  16.953  0.4154  0.1658  0.9016
  335TMC3    C7 5087   2.173   2.641  16.945 -0.2049  0.1468  0.5353
  335TMC3    C8 5088   1.790   2.367  16.928  0.1617 -0.7057 -0.5048
  335TMC3    O1 5089   2.277   2.653  17.010 -0.1526 -0.3872 -0.2122
  335TMC3    O2 5090   1.725   2.469  16.920 -0.3070 -0.1288  0.3018
  336MPD2     C 5091   1.143   4.727  16.310  0.0490 -0.7749  0.0779
  336MPD2    C1 5092   1.138   4.638  16.198 -0.1160  0.2894 -0.1069
  336MPD2    C2 5093   1.189   4.513  16.212 -0.5884 -0.2783 -0.0168
  336MPD2    C3 5094   1.239   4.471  16.333  0.2345 -0.4741 -0.0602
  336MPD2    C4 5095   1.236   4.557  16.440 -0.2794  0.8310  0.3689
  336MPD2    C5 5096   1.194   4.688  16.425 -0.7069 -0.4895 -0.2929
  336MPD2     H 5097   1.189   4.447  16.126  1.7902 -0.0758 -0.1584
  336MPD2    H1 5098   1.283   4.517  16.529  0.8347  2.2057  0.3971
  336MPD2    H2 5099   1.117   0.096  16.303 -2.2003 -1.0702  3.8557
  336MPD2    H3 5100   1.209   0.022  16.507 -0.6510 -1.3729  0.4372
  336MPD2     N 5101   1.296   4.339  16.355 -0.4909  0.4545  0.1530
  336MPD2    H5 5102   1.326   4.320  16.450 -1.1772 -1.8068 -0.1004
  336MPD2    N1 5103   1.077   4.672  16.071 -0.9617  0.2007  0.6593
  336MPD2    H7 5104   1.057   4.600  16.001  3.1220 -1.3324  1.0891
  337TMC3    C1 5105   1.030   0.066  15.882 -0.4717 -0.4105 -0.4033
  337TMC3    C2 5106   0.976   0.175  15.828  0.0495 -0.5406 -0.1360
  337TMC3    C3 5107   0.970   0.187  15.688  0.1635  0.2275 -0.5854
  337TMC3    C4 5108   1.091   4.707  15.804  0.1842 -0.9358 -0.0890
  337TMC3    C5 5109   1.093   4.725  15.661  0.1308 -0.7647 -0.0709
  337TMC3    C6 5110   1.022   0.088  15.606  0.1025 -1.0319 -0.1731
  337TMC3     C 5111   1.044   0.061  16.030 -0.0303  0.0887  0.2728
  337TMC3     O 5112   1.015   0.165  16.090  0.6276 -0.0270 -0.7593
  337TMC3     H 5113   0.938   0.257  15.887 -1.4276 -0.3792 -1.3186
  337TMC3    H1 5114   1.161   4.637  15.848  0.6138  0.1209  0.9143
  337TMC3    H2 5115   1.027   0.099  15.498  1.2205 -0.1593 -0.0246
  337TMC3    C7 5116   1.150   4.622  15.575  0.1678  0.1630 -0.2987
  337TMC3    C8 5117   0.881   0.284  15.633 -0.0968 -0.1089  0.4725
  337TMC3    O1 5118   1.076   4.577  15.486 -0.2145 -0.3514 -0.1300
  337TMC3    O2 5119   0.864   0.394  15.682  0.0079  0.5957 -0.0045
  338MPD2     C 5120   2.015   3.269   0.864  0.3339 -0.4310 -0.2954
  338MPD2    C1 5121   2.000   3.349   0.755 -0.2053  0.1526  0.1251
  338MPD2    C2 5122   1.895   3.444   0.754 -0.3657  0.5043 -0.6055
  338MPD2    C3 5123   1.813   3.468   0.855  1.2238  0.3443 -0.2269
  338MPD2    C4 5124   1.829   3.391   0.967 -0.3557 -0.1052 -0.0714
  338MPD2    C5 5125   1.936   3.301   0.969  0.6185 -0.0411  0.4292
  338MPD2     H 5126   1.895   3.510   0.667 -1.1757  3.0699  1.3346
  338MPD2    H1 5127   1.768   3.395   1.056  0.3521 -2.0775  0.4975
  338MPD2    H2 5128   2.082   3.184   0.872 -1.4475 -1.8886 -0.8490
  338MPD2    H3 5129   1.943   3.248   1.063 -0.4478 -1.4974 -0.3252
  338MPD2     N 5130   1.711   3.562   0.840 -0.3610  0.3427  0.4541
  338MPD2    H5 5131   1.684   3.590   0.746 -1.1715 -1.9866 -0.0151
  338MPD2    N1 5132   2.085   3.354   0.648  0.3214 -0.0260 -0.4377
  338MPD2    H7 5133   2.058   3.422   0.578 -1.0472 -1.7743 -1.5814
  339TMC3    C1 5134   1.510   3.663   0.875 -0.4629  0.1904  0.3329
  339TMC3    C2 5135   1.392   3.661   0.945 -0.1822 -0.2592 -0.3092
  339TMC3    C3 5136   1.282   3.729   0.892 -0.5838  0.2211 -0.5313
  339TMC3    C4 5137   1.513   3.723   0.753  0.4199 -0.5912  0.6330
  339TMC3    C5 5138   1.398   3.784   0.702  0.3704  0.2596 -0.5617
  339TMC3    C6 5139   1.284   3.785   0.768 -0.3212 -0.0154  1.0485
  339TMC3     C 5140   1.624   3.598   0.940 -0.5591  0.0170 -0.2293
  339TMC3     O 5141   1.603   3.549   1.050 -0.1225 -0.3762 -0.4263
  339TMC3     H 5142   1.391   3.618   1.045 -0.9714  0.6914  0.0905
  339TMC3    H1 5143   1.607   3.732   0.700 -1.6879 -0.5812 -3.1479
  339TMC3    H2 5144   1.199   3.836   0.725  0.1005  0.5068  0.8378
  339TMC3    C7 5145   1.419   3.884   0.600  0.0791  0.0856  0.4568
  339TMC3    C8 5146   1.174   3.782   0.978  0.3009  0.3150 -0.0894
  339TMC3    O1 5147   1.345   3.980   0.595  0.1032 -0.4147  0.5441
  339TMC3    O2 5148   1.086   3.850   0.926 -0.3009 -0.4688 -0.0751
  340MPD2     C 5149   1.031   3.078   9.893 -1.2152 -0.4177 -0.0113
  340MPD2    C1 5150   1.009   2.940   9.901 -0.0704 -0.0027 -0.4551
  340MPD2    C2 5151   1.044   2.874  10.018 -0.7231 -0.5958  0.2939
  340MPD2    C3 5152   1.094   2.938  10.127 -0.8679  0.1527  0.5827
  340MPD2    C4 5153   1.123   3.072  10.119  0.6650 -0.8225  0.2284
  340MPD2    C5 5154   1.096   3.141  10.003 -0.2729  0.0472  0.2019
  340MPD2     H 5155   1.041   2.765  10.022 -0.0077 -0.6512 -0.6580
  340MPD2    H1 5156   1.167   3.132  10.198  1.4521  2.1192 -2.4460
  340MPD2    H2 5157   0.998   3.136   9.808  2.8104  1.6663 -0.1748
  340MPD2    H3 5158   1.123   3.246   9.998 -0.6689  0.1212 -0.4039
  340MPD2     N 5159   1.122   2.877  10.259 -0.5128  0.0469 -0.2627
  340MPD2    H5 5160   1.138   2.941  10.336  0.8928  0.7013 -1.0804
  340MPD2    N1 5161   0.941   2.879   9.797 -0.1892 -0.3696 -0.5518
  340MPD2    H7 5162   0.907   2.944   9.726 -0.6821 -1.1120 -0.9937
  341TMC3    C1 5163   0.816   2.707   9.679 -0.4547  0.1029 -0.0171
  341TMC3    C2 5164   0.726   2.605   9.681  0.5211 -0.9227  0.1189
  341TMC3    C3 5165   0.678   2.558   9.556 -0.7793  0.4416 -0.0222
  341TMC3    C4 5166   0.867   2.756   9.558  0.1208 -0.4733 -0.0127
  341TMC3    C5 5167   0.829   2.696   9.439 -0.3181 -0.4708 -0.4283
  341TMC3    C6 5168   0.736   2.599   9.436  0.2022 -0.1761  0.0474
  341TMC3     C 5169   0.891   2.743   9.799  0.6223 -0.0070  0.1755
  341TMC3     O 5170   0.883   2.669   9.893 -0.0262  0.4728  0.4936
  341TMC3     H 5171   0.685   2.572   9.776 -1.3546 -2.0126 -1.0571
  341TMC3    H1 5172   0.950   2.825   9.552  1.3875 -2.0844 -1.0350
  341TMC3    H2 5173   0.714   2.540   9.348 -0.9118  0.4714 -0.1172
  341TMC3    C7 5174   0.927   2.700   9.340 -0.0999  0.7412 -0.8741
  341TMC3    C8 5175   0.590   2.438   9.557  0.4178  0.9496  0.2316
  341TMC3    O1 5176   0.960   2.594   9.297 -0.3904 -0.1117 -0.3316
  341TMC3    O2 5177   0.563   2.391   9.452 -0.1026 -0.0864 -0.0546
  342MPD2     C 5178   4.409   0.285   0.146 -0.6140 -0.3510  0.4901
  342MPD2    C1 5179   4.516   0.281   0.054  0.6318  0.1109 -0.1013
  342MPD2    C2 5180   4.583   0.392   0.009  0.3111  0.3878  0.6781
  342MPD2    C3 5181   4.543   0.518   0.063  0.1050 -0.1971  0.7287
  342MPD2    C4 5182   4.452   0.522   0.166 -0.4223  0.1596  0.1009
  342MPD2    C5 5183   4.385   0.408   0.210  0.6168  0.0623  0.7404
  342MPD2     H 5184   4.655   0.389  17.669 -1.5688  0.6648 -1.0287
  342MPD2    H1 5185   4.432   0.621   0.207  1.0944 -0.3383  2.0780
  342MPD2    H2 5186   4.359   0.197   0.183 -0.0357 -1.3765 -1.2033
  342MPD2    H3 5187   4.303   0.416   0.281 -0.2049  0.9599 -0.3201
  342MPD2     N 5188   4.605   0.642   0.016  0.1219 -0.2829 -0.3173
  342MPD2    H5 5189   4.582   0.725   0.071 -0.1081  1.3555 -2.8941
  342MPD2    N1 5190   4.548   0.159  17.729  0.0611  1.5088 -0.8318
  342MPD2    H7 5191   4.623   0.172  17.662 -0.8027  0.1525 -2.0711
  343TMC3    C1 5192   4.537   4.685  17.632  0.9163  0.0899 -0.1314
  343TMC3    C2 5193   4.662   4.719  17.592 -0.0376 -0.7017  0.5525
  343TMC3    C3 5194   4.696   4.668  17.475  0.1883 -0.1283  0.1294
  343TMC3    C4 5195   4.458   4.593  17.572 -0.2718 -0.0693 -0.3687
  343TMC3    C5 5196   4.516   4.534  17.462  0.0146  0.5284 -0.3787
  343TMC3    C6 5197   4.629   4.575  17.399  1.1539 -0.0130 -0.0130
  343TMC3     C 5198   4.469   0.048  17.718 -0.5646 -1.3541  0.5553
  343TMC3     O 5199   4.375   0.010   0.046 -0.1043  0.1912  0.7773
  343TMC3     H 5200   4.733   0.042  17.649 -0.1708  2.5942 -2.7192
  343TMC3    H1 5201   4.366   4.558  17.618 -0.9861  1.1437 -0.8978
  343TMC3    H2 5202   4.651   4.539  17.299 -1.9671  0.3413 -0.8255
  343TMC3    C7 5203   4.449   4.412  17.421  0.3972  0.8087  0.2549
  343TMC3    C8 5204   0.083   4.721  17.422 -0.5637 -0.0377  0.6371
  343TMC3    O1 5205   4.345   4.394  17.486  0.6176  0.5125 -0.2037
  343TMC3    O2 5206   0.122   0.089  17.471  0.3846 -0.2974  0.1665
  344MPD2     C 5207   0.373   4.438  10.737 -0.1262  0.2366 -0.1497
  344MPD2    C1 5208   0.242   4.433  10.702 -0.1994  0.5573  0.8983
  344MPD2    C2 5209   0.189   4.539  10.625 -0.8647  0.1106 -0.3645
  344MPD2    C3 5210   0.269   4.646  10.590 -0.1697 -0.5881 -0.0542
  344MPD2    C4 5211   0.404   4.645  10.625  0.1493  0.1704  0.1385
  344MPD2    C5 5212   0.447   4.543  10.699 -0.2596 -0.4330 -0.3734
  344MPD2     H 5213   0.084   4.539  10.598 -0.6659 -0.9041 -1.1322
  344MPD2    H1 5214   0.469   4.732  10.628 -1.6248  1.5558 -1.2581
  344MPD2    H2 5215   0.423   4.357  10.789 -0.5712  0.3327  0.4262
  344MPD2    H3 5216   0.550   4.538  10.732 -0.1002 -2.5027 -1.1806
  344MPD2     N 5217   0.221   0.038  10.547  1.3180 -0.1871 -0.0801
  344MPD2    H5 5218   0.288   0.114  10.553  0.3956  0.5156  1.1826
  344MPD2    N1 5219   0.160   4.326  10.737 -0.1508 -0.1841  0.0357
  344MPD2    H7 5220   0.063   4.340  10.714  0.4108  0.6644 -1.8115
  345TMC3    C1 5221   0.071   0.196  10.465 -0.2391  0.1219 -0.2157
  345TMC3    C2 5222   0.149   0.289  10.535 -0.2265  0.2650 -0.2336
  345TMC3    C3 5223   0.151   0.418  10.480  0.6950 -0.3860  0.2213
  345TMC3    C4 5224   0.000   0.217  10.349  0.4410  0.5819 -1.0505
  345TMC3    C5 5225   0.017   0.344  10.302 -0.1632 -0.6325  0.0294
  345TMC3    C6 5226   0.082   0.447  10.367 -0.5843  0.6106 -0.4662
  345TMC3     C 5227   0.095   0.060  10.491 -0.5554 -0.2382  0.8065
  345TMC3     O 5228   0.021   4.715  10.439 -0.7854  0.4210 -0.1577
  345TMC3     H 5229   0.207   0.268  10.624 -0.4045 -0.3482 -0.2598
  345TMC3    H1 5230   4.689   0.141  10.288 -0.9287  1.4073 -1.0388
  345TMC3    H2 5231   0.093   0.549  10.334  2.1389  0.3972 -0.2165
  345TMC3    C7 5232   4.693   0.398  10.179  0.3801  0.3173 -0.6669
  345TMC3    C8 5233   0.204   0.533  10.556  0.0115  0.6526 -0.5700
  345TMC3    O1 5234   0.035   0.481  10.132 -0.0602  0.4221 -0.5676
  345TMC3    O2 5235   0.141   0.637  10.532 -0.0132  1.1243  0.7176
  346MPD2     C 5236   0.552   1.902  14.570 -0.1546 -0.8861  0.0141
  346MPD2    C1 5237   0.618   1.890  14.441  0.1168 -1.2213 -0.2298
  346MPD2    C2 5238   0.755   1.922  14.436 -0.3366  0.1654  0.2505
  346MPD2    C3 5239   0.816   1.980  14.544 -0.0476 -0.7394 -0.7050
  346MPD2    C4 5240   0.749   2.001  14.662  0.1377 -0.4261 -0.3904
  346MPD2    C5 5241   0.619   1.959  14.674  0.2072  0.0230  0.2165
  346MPD2     H 5242   0.817   1.911  14.348 -0.8403  1.7661 -0.2953
  346MPD2    H1 5243   0.800   2.031  14.752  2.2476  0.3888 -1.8513
  346MPD2    H2 5244   0.447   1.873  14.579 -0.2480 -0.3359  0.6583
  346MPD2    H3 5245   0.567   1.983  14.766 -0.2560  1.7198 -0.5006
  346MPD2     N 5246   0.957   2.008  14.526 -0.3399 -0.0959  0.2289
  346MPD2    H5 5247   1.001   1.999  14.435  0.0144  0.8832  0.3113
  346MPD2    N1 5248   0.555   1.823  14.338  0.2155 -0.2619  0.0206
  346MPD2    H7 5249   0.619   1.799  14.263 -0.1943  1.4322 -0.8764
  347TMC3    C1 5250   1.179   2.040  14.589 -1.3242  0.5832  0.0207
  347TMC3    C2 5251   1.211   2.095  14.465 -0.2745 -0.4128 -0.1306
  347TMC3    C3 5252   1.346   2.136  14.447  0.1314 -0.9091  0.5374
  347TMC3    C4 5253   1.275   2.000  14.677  0.4231 -0.5099 -0.2106
  347TMC3    C5 5254   1.398   2.025  14.645 -0.3360 -0.4319  0.2432
  347TMC3    C6 5255   1.441   2.106  14.543 -0.4876  0.2538 -0.3945
  347TMC3     C 5256   1.045   2.022  14.630  0.3036 -0.4715 -0.1366
  347TMC3     O 5257   1.021   1.999  14.750 -0.1745 -0.1290  0.1912
  347TMC3     H 5258   1.144   2.127  14.386 -1.1474 -0.4464  0.5851
  347TMC3    H1 5259   1.245   1.960  14.774 -1.0259  2.4538  0.5581
  347TMC3    H2 5260   1.545   2.124  14.518  0.5321  0.8716  4.1545
  347TMC3    C7 5261   1.502   1.985  14.742 -0.1661  0.4857  0.4884
  347TMC3    C8 5262   1.394   2.154  14.308 -0.4708 -0.4543  0.5479
  347TMC3    O1 5263   1.466   1.930  14.848  0.3944 -0.4159 -0.3771
  347TMC3    O2 5264   1.343   2.101  14.216 -0.5345  0.7275  0.3957
  348MPD2     C 5265   3.638   1.204  12.193 -0.4478 -0.0010 -0.0429
  348MPD2    C1 5266   3.733   1.245  12.098 -0.8759 -0.1299  0.4617
  348MPD2    C2 5267   3.695   1.299  11.975  0.0478 -0.0980 -0.0444
  348MPD2    C3 5268   3.563   1.288  11.932  0.5037 -0.2998 -0.0481
  348MPD2    C4 5269   3.461   1.271  12.023  0.7176  0.0522 -0.5879
  348MPD2    C5 5270   3.506   1.224  12.146  0.3249  0.5926 -0.7910
  348MPD2     H 5271   3.772   1.351  11.920 -0.8435 -2.7380 -3.8129
  348MPD2    H1 5272   3.355   1.288  12.009  0.8238  0.9417 -0.3065
  348MPD2    H2 5273   3.649   1.175  12.296  1.9130  0.7026 -0.0903
  348MPD2    H3 5274   3.429   1.202  12.219  0.9051 -1.7965 -0.8903
  348MPD2     N 5275   3.530   1.350  11.812 -0.4114 -0.2348  0.4020
  348MPD2    H5 5276   3.433   1.373  11.793 -0.6568 -0.5293  1.3162
  348MPD2    N1 5277   3.868   1.248  12.123 -0.0819 -0.5425  0.6759
  348MPD2    H7 5278   3.924   1.271  12.041  0.5192  0.4052  1.3454
  349TMC3    C1 5279   4.075   1.239  12.216 -0.5979  0.6794 -0.3850
  349TMC3    C2 5280   4.148   1.129  12.233 -0.4330 -0.3908 -0.8291
  349TMC3    C3 5281   4.242   1.090  12.142  0.2959 -0.0359  0.1164
  349TMC3    C4 5282   4.110   1.321  12.112 -0.0317  0.0602 -0.2968
  349TMC3    C5 5283   4.211   1.282  12.023 -0.3583  0.2060  0.0450
  349TMC3    C6 5284   4.280   1.169  12.031  0.1893  0.3725 -0.1968
  349TMC3     C 5285   3.930   1.219  12.241 -0.4824 -0.2121  0.7547
  349TMC3     O 5286   3.888   1.178  12.348 -0.0137 -0.5292  0.9463
  349TMC3     H 5287   4.121   1.062  12.314  0.0478 -2.4004 -2.3522
  349TMC3    H1 5288   4.053   1.410  12.090  0.7225  0.5550 -0.2498
  349TMC3    H2 5289   4.338   1.137  11.945 -2.1302  0.0295 -1.6515
  349TMC3    C7 5290   4.150   1.294  11.889 -0.1542  0.0721  0.4794
  349TMC3    C8 5291   4.327   0.980  12.173 -0.2793  0.0698  0.6556
  349TMC3    O1 5292   4.027   1.315  11.882  0.3149  0.1438  0.0231
  349TMC3    O2 5293   4.324   0.929  12.281 -0.4091  0.2946  0.2692
  350MPD2     C 5294   3.536   0.035  10.692 -0.2088  0.4822 -0.3926
  350MPD2    C1 5295   3.461   4.658  10.694  0.0506 -0.6715  0.0896
  350MPD2    C2 5296   3.483   4.558  10.794 -0.4290  0.4799 -0.1713
  350MPD2    C3 5297   3.566   4.584  10.902 -0.1954  0.1440 -0.0504
  350MPD2    C4 5298   3.633   4.703  10.900 -0.9692  0.4834  0.1275
  350MPD2    C5 5299   3.620   0.055  10.795  0.6812 -0.4905 -0.4903
  350MPD2     H 5300   3.416   4.474  10.802  1.3369 -0.7605  1.6046
  350MPD2    H1 5301   3.701   0.001  10.977  1.7263 -0.6776 -1.7053
  350MPD2    H2 5302   3.550   0.100  10.606 -2.4528  0.2298 -0.9273
  350MPD2    H3 5303   3.685   0.140  10.775 -1.6198  2.2440  3.8140
  350MPD2     N 5304   3.565   4.500  11.019  0.0424 -0.1674 -0.4290
  350MPD2    H5 5305   3.501   4.421  11.014  1.5117 -1.5106  2.3975
  350MPD2    N1 5306   3.361   4.633  10.598 -0.3163  0.5792 -0.1161
  350MPD2    H7 5307   3.332   4.539  10.572 -1.6279 -0.1317  3.8740
  351TMC3    C1 5308   3.205   4.684  10.429 -0.3034  0.3517 -0.0995
  351TMC3    C2 5309   3.210   4.550  10.389 -0.4009 -0.1847  0.3001
  351TMC3    C3 5310   3.128   4.524  10.283 -0.2346  0.2387  0.4293
  351TMC3    C4 5311   3.141   0.049  10.359  0.2641  0.2914 -0.1277
  351TMC3    C5 5312   3.087   0.013  10.239  0.2361  0.8900  0.2316
  351TMC3    C6 5313   3.072   4.613  10.199  0.0506 -0.3116  0.3311
  351TMC3     C 5314   3.291   4.735  10.540 -0.6312 -0.3406  0.1625
  351TMC3     O 5315   3.305   0.119  10.557 -0.2388 -0.7588 -0.0464
  351TMC3     H 5316   3.252   4.467  10.444 -2.4098 -0.9302  0.6987
  351TMC3    H1 5317   3.130   0.149  10.398  0.9102  0.3160 -0.0037
  351TMC3    H2 5318   3.012   4.586  10.113 -0.6560  1.0675  0.3924
  351TMC3    C7 5319   3.023   0.117  10.167  0.1914  0.2456 -0.5482
  351TMC3    C8 5320   3.102   4.383  10.235 -0.5661 -0.4804  0.8056
  351TMC3    O1 5321   2.978   0.205  10.237 -0.7241 -0.3533 -0.5649
  351TMC3    O2 5322   3.070   4.371  10.119  0.0380 -0.2237  0.6116
  352MPD2     C 5323   1.884   2.013   1.002 -0.3758  0.3537 -1.2696
  352MPD2    C1 5324   1.779   1.924   1.005 -0.1202 -0.2917 -0.3396
  352MPD2    C2 5325   1.814   1.788   1.013  0.4120  0.6291  0.0826
  352MPD2    C3 5326   1.943   1.742   1.008  0.2023 -0.7083 -0.3052
  352MPD2    C4 5327   2.044   1.830   1.012  0.5356  0.8795 -0.3348
  352MPD2    C5 5328   2.012   1.963   1.002  0.0972 -0.0583 -0.7494
  352MPD2     H 5329   1.737   1.713   0.995  0.5253  0.6048 -0.3149
  352MPD2    H1 5330   2.148   1.800   1.014  0.3006  0.1960  1.2772
  352MPD2    H2 5331   1.872   2.121   1.006 -1.9714  0.1613 -0.6769
  352MPD2    H3 5332   2.088   2.041   0.999  2.1134 -1.9929 -0.4010
  352MPD2     N 5333   1.982   1.605   0.990 -0.3341  0.1445  0.2529
  352MPD2    H5 5334   2.079   1.577   0.994 -0.3665 -0.1816 -1.1653
  352MPD2    N1 5335   1.644   1.971   1.007  0.3771 -0.0802  0.4801
  352MPD2    H7 5336   1.628   2.071   0.998 -1.0457 -0.2687  0.8913
  353TMC3    C1 5337   1.942   1.369   0.965  0.9047  0.3783 -0.5736
  353TMC3    C2 5338   2.042   1.336   1.052 -0.7803 -0.4043 -0.3568
  353TMC3    C3 5339   2.042   1.202   1.092 -0.0408  0.3556  0.0785
  353TMC3    C4 5340   1.851   1.277   0.919  0.5978 -0.0294  0.5342
  353TMC3    C5 5341   1.852   1.148   0.971 -0.4936 -0.3690  0.2911
  353TMC3    C6 5342   1.945   1.108   1.056  0.2006  0.0401 -0.0662
  353TMC3     C 5343   1.886   1.504   0.964  0.2736  0.2213 -0.0945
  353TMC3     O 5344   1.771   1.511   0.929 -0.7096  0.1261 -0.1858
  353TMC3     H 5345   2.115   1.408   1.086 -0.1096 -1.0490 -0.4296
  353TMC3    H1 5346   1.777   1.307   0.846 -1.2762 -2.9986  1.1783
  353TMC3    H2 5347   1.938   1.006   1.093  1.3380  0.4482  1.2785
  353TMC3    C7 5348   1.739   1.070   0.949 -0.1277  0.1563  0.8146
  353TMC3    C8 5349   2.164   1.149   1.150 -0.1626  0.1912 -0.7825
  353TMC3    O1 5350   1.745   0.956   0.994  0.0883 -0.1398  0.3652
  353TMC3    O2 5351   2.242   1.231   1.196  0.4673 -0.0885  0.4554
  354TMC3    C1 5352   3.644   2.700  13.892 -0.4652 -0.8755  0.0983
  354TMC3    C2 5353   3.615   2.835  13.868 -0.2314 -0.0307  0.0528
  354TMC3    C3 5354   3.629   2.882  13.744  0.1971  0.4238  0.2089
  354TMC3    C4 5355   3.693   2.625  13.791  0.4934 -0.4228 -0.0523
  354TMC3    C5 5356   3.709   2.678  13.665 -0.3081 -0.3497  1.1362
  354TMC3    C6 5357   3.677   2.808  13.636 -0.0862 -0.3683 -0.1296
  354TMC3     C 5358   3.589   2.628  14.013  0.2914 -0.1575 -0.1632
  354TMC3     O 5359   3.488   2.663  14.068  0.8693 -0.4297  0.4624
  354TMC3     H 5360   3.575   2.903  13.942 -0.2964  1.0235 -0.9528
  354TMC3    H1 5361   3.704   2.517  13.788 -1.2688 -0.5580 -1.8248
  354TMC3    H2 5362   3.675   2.845  13.534 -0.2068 -0.0088  0.0063
  354TMC3    C7 5363   3.749   2.587  13.566 -0.5551  0.8482  0.0045
  354TMC3    C8 5364   3.618   3.023  13.732  0.5177  0.7360 -0.0893
  354TMC3    O1 5365   3.731   2.465  13.587 -0.3367  0.8306  0.1748
  354TMC3    O2 5366   3.593   3.092  13.828 -0.4880  0.1942 -0.3263
  355MPD2     C 5367   3.139   3.528  12.354 -0.0354 -0.3107  0.4978
  355MPD2    C1 5368   3.197   3.523  12.228  0.1973 -0.8860 -0.1390
  355MPD2    C2 5369   3.304   3.431  12.211  1.6041  0.7130 -0.3191
  355MPD2    C3 5370   3.356   3.360  12.317 -0.1721 -0.4500 -0.0984
  355MPD2    C4 5371   3.292   3.355  12.438 -0.0163  0.3882  0.2844
  355MPD2    C5 5372   3.191   3.449  12.453  0.3286 -0.1731 -0.5819
  355MPD2     H 5373   3.349   3.417  12.114  1.6536 -1.4091  0.0092
  355MPD2    H1 5374   3.325   3.295  12.522  3.4658 -1.3612 -2.3089
  355MPD2    H2 5375   3.047   3.580  12.380  0.9854  1.1180  1.2632
  355MPD2    H3 5376   3.133   3.459  12.544  0.9018 -0.9769 -0.1278
  355MPD2     N 5377   3.472   3.276  12.317  0.1967 -0.6280 -0.2921
  355MPD2    H5 5378   3.496   3.231  12.405 -1.1517 -1.4327 -0.3331
  355MPD2    N1 5379   3.134   3.589  12.121  0.0203 -0.6750  0.7503
  355MPD2    H7 5380   3.041   3.616  12.150 -0.6438  0.5593 -2.4421
  356TMC3    C1 5381   3.666   3.248  12.209 -0.2989  0.0335 -0.0556
  356TMC3    C2 5382   3.703   3.275  12.080  0.4268 -0.9149  0.6064
  356TMC3    C3 5383   3.771   3.389  12.051  0.0239 -0.8331  0.5723
  356TMC3    C4 5384   3.704   3.323  12.322 -0.4845  0.2835  0.3063
  356TMC3    C5 5385   3.783   3.429  12.286 -0.1157 -0.0865  0.6773
  356TMC3    C6 5386   3.812   3.461  12.157 -0.5391 -0.5767 -0.1850
  356TMC3     C 5387   3.520   3.219  12.206  0.2640 -0.5939  0.2490
  356TMC3     O 5388   3.468   3.212  12.096  0.3058  0.2200  0.4498
  356TMC3     H 5389   3.659   3.222  11.995  0.1804  2.1384 -1.1557
  356TMC3    H1 5390   3.683   3.302  12.426 -1.7128  0.1549  0.0365
  356TMC3    H2 5391   3.854   3.557  12.130 -0.2518 -0.7463 -0.3375
  356TMC3    C7 5392   3.777   3.538  12.381 -0.0954  0.0666 -0.2421
  356TMC3    C8 5393   3.825   3.409  11.911 -0.3596 -0.2980 -0.1530
  356TMC3    O1 5394   3.699   3.521  12.477 -0.3485  0.8274  0.3158
  356TMC3    O2 5395   3.775   3.348  11.815  0.3010  0.7147  0.6769
  357MPD2     C 5396   3.583   3.462   0.897 -0.0525  0.2584  0.0792
  357MPD2    C1 5397   3.688   3.408   0.969  0.2009 -0.1409  0.1222
  357MPD2    C2 5398   3.691   3.435   1.110  0.2838 -0.5759 -1.0257
  357MPD2    C3 5399   3.583   3.498   1.166  0.1543  0.4778  0.3431
  357MPD2    C4 5400   3.478   3.546   1.089 -0.7953 -0.4900  0.0383
  357MPD2    C5 5401   3.484   3.531   0.957  0.5063 -0.3634 -0.1183
  357MPD2     H 5402   3.780   3.406   1.165  0.9414 -1.6044 -2.6481
  357MPD2    H1 5403   3.404   3.604   1.143  0.7889 -0.5374  2.2577
  357MPD2    H2 5404   3.582   3.462   0.789 -0.5592  1.7306  0.0864
  357MPD2    H3 5405   3.395   3.554   0.899 -1.3375 -3.6888  1.3678
  357MPD2     N 5406   3.568   3.516   1.308 -0.0427  0.1176  0.3484
  357MPD2    H5 5407   3.485   3.561   1.344  1.0505 -0.9794  4.1678
  357MPD2    N1 5408   3.777   3.327   0.904 -0.6329 -0.7288  0.3124
  357MPD2    H7 5409   3.749   3.286   0.815  3.7024 -4.2379  0.5520
  358TMC3    C1 5410   3.966   3.174   0.928  0.0265  0.5331 -0.1251
  358TMC3    C2 5411   3.908   3.099   0.829  0.2565 -0.2943  0.1685
  358TMC3    C3 5412   3.927   2.966   0.836  0.0995 -0.3122 -0.2144
  358TMC3    C4 5413   4.036   3.123   1.035  0.0098  0.0411 -0.4660
  358TMC3    C5 5414   4.059   2.989   1.037  0.2326 -0.0023  0.7374
  358TMC3    C6 5415   4.008   2.909   0.938 -0.2213 -0.6772  0.3559
  358TMC3     C 5416   3.901   3.297   0.958  0.0750 -0.3760 -0.4362
  358TMC3     O 5417   3.957   3.373   1.036  0.0202 -0.0930  0.4631
  358TMC3     H 5418   3.849   3.134   0.745  0.0251  0.2720  0.5640
  358TMC3    H1 5419   4.054   3.187   1.121  0.8584 -1.1309  0.2236
  358TMC3    H2 5420   4.009   2.802   0.956  1.3668 -0.7449 -0.1159
  358TMC3    C7 5421   4.130   2.926   1.148 -0.1360  0.2914  0.7537
  358TMC3    C8 5422   3.873   2.887   0.727  0.6465  0.0767 -0.4918
  358TMC3    O1 5423   4.141   2.991   1.254 -0.8580  0.1486 -0.2802
  358TMC3    O2 5424   3.853   2.951   0.625 -0.2418  0.3912 -0.0608
  359MPD2     C 5425   3.275   1.867  12.798  0.1185  0.2471  0.8399
  359MPD2    C1 5426   3.400   1.836  12.746  0.1161 -0.1815 -0.3807
  359MPD2    C2 5427   3.470   1.729  12.803 -0.5615 -0.0339  0.0833
  359MPD2    C3 5428   3.417   1.659  12.912 -1.1045  0.3606 -0.5655
  359MPD2    C4 5429   3.288   1.679  12.949 -0.5657  0.6613  0.4162
  359MPD2    C5 5430   3.225   1.795  12.903  0.1252 -0.6987 -0.1279
  359MPD2     H 5431   3.570   1.704  12.772 -0.1417  0.3853  1.0977
  359MPD2    H1 5432   3.243   1.630  13.034  0.9536 -0.1107  0.7670
  359MPD2    H2 5433   3.216   1.954  12.772 -0.1099 -0.3314 -0.5590
  359MPD2    H3 5434   3.130   1.819  12.949  1.1452 -0.2936  1.7447
  359MPD2     N 5435   3.486   1.563  12.984 -0.4589  0.1041  0.0572
  359MPD2    H5 5436   3.454   1.538  13.077  2.6937  0.1771  1.1403
  359MPD2    N1 5437   3.449   1.891  12.626  0.3193 -0.0254  0.3601
  359MPD2    H7 5438   3.541   1.859  12.599  0.7116  0.0807  1.5830
  360TMC3    C1 5439   3.454   2.017  12.424  0.6660  0.1129 -0.2146
  360TMC3    C2 5440   3.591   2.042  12.435  0.8382  0.7272 -0.5034
  360TMC3    C3 5441   3.648   2.067  12.317 -0.1453  0.1443  0.6533
  360TMC3    C4 5442   3.388   1.979  12.311  0.3818 -0.2019 -0.2177
  360TMC3    C5 5443   3.455   2.012  12.191 -0.0662  0.1378  0.1878
  360TMC3    C6 5444   3.587   2.056  12.196  0.3575  0.5062 -0.2054
  360TMC3     C 5445   3.385   1.986  12.549 -0.2748  0.0258 -0.2411
  360TMC3     O 5446   3.265   1.999  12.545 -0.3542  0.0281 -0.4608
  360TMC3     H 5447   3.626   2.080  12.530  2.4946 -0.4391 -0.6551
  360TMC3    H1 5448   3.288   1.935  12.312  0.2757  0.0310 -0.4556
  360TMC3    H2 5449   3.626   2.094  12.102 -2.0145  1.3075 -0.8816
  360TMC3    C7 5450   3.390   1.978  12.068  0.2991 -0.0966  0.2823
  360TMC3    C8 5451   3.792   2.101  12.320  0.4342 -0.2183  0.3767
  360TMC3    O1 5452   3.465   1.981  11.968  0.1615 -0.1757 -0.0303
  360TMC3    O2 5453   3.830   2.140  12.427  0.8338  0.2066  0.0193
  361MPD2     C 5454   0.952   0.716  16.837  0.4411 -0.8877 -0.7749
  361MPD2    C1 5455   0.948   0.762  16.968 -0.2691 -0.4221  0.2505
  361MPD2    C2 5456   0.993   0.682  17.063  0.3591  0.1875 -0.0840
  361MPD2    C3 5457   1.056   0.559  17.038  0.0737  0.0577  0.2836
  361MPD2    C4 5458   1.060   0.517  16.907 -0.7272  0.2611  0.4074
  361MPD2    C5 5459   1.005   0.594  16.805  0.1893  0.0639 -0.0221
  361MPD2     H 5460   0.973   0.709  17.166 -0.4214  1.1998 -0.5108
  361MPD2    H1 5461   1.095   0.420  16.872 -1.3260  0.3057 -0.3255
  361MPD2    H2 5462   0.913   0.767  16.749 -3.6765 -0.3347  1.4191
  361MPD2    H3 5463   1.000   0.570  16.699  1.0796  2.5132 -0.6134
  361MPD2     N 5464   1.117   0.477  17.131  0.0963 -0.6572 -0.7130
  361MPD2    H5 5465   1.163   0.394  17.095  1.8303 -1.0228  2.4205
  361MPD2    N1 5466   0.890   0.885  17.012 -0.3433  0.0560 -0.4544
  361MPD2    H7 5467   0.893   0.912  17.110  0.8221  1.9082 -0.9914
  362TMC3    C1 5468   0.800   1.109  16.992 -0.8500  0.4570  0.3814
  362TMC3    C2 5469   0.768   1.112  17.123  0.1725 -0.3929  0.5652
  362TMC3    C3 5470   0.728   1.229  17.183 -0.4854 -0.2850  0.3793
  362TMC3    C4 5471   0.775   1.217  16.922  0.2109 -0.4588 -1.1711
  362TMC3    C5 5472   0.740   1.339  16.977  0.5391 -0.0516 -0.3609
  362TMC3    C6 5473   0.712   1.345  17.108  0.6507 -0.2705 -0.4220
  362TMC3     C 5474   0.844   0.986  16.927  0.1223  0.0925 -0.1657
  362TMC3     O 5475   0.823   0.980  16.805 -0.4091 -0.2035  0.1371
  362TMC3     H 5476   0.779   1.028  17.190 -1.8417 -1.0165  0.1118
  362TMC3    H1 5477   0.809   1.217  16.819  0.9659 -0.5265 -0.9181
  362TMC3    H2 5478   0.668   1.436  17.148  0.5254 -0.8354  0.7203
  362TMC3    C7 5479   0.714   1.457  16.894 -0.6623  0.0911  0.1143
  362TMC3    C8 5480   0.648   1.209  17.304  0.0677  0.1435 -1.3449
  362TMC3    O1 5481   0.630   1.531  16.938 -0.2789 -0.2760  0.2218
  362TMC3    O2 5482   0.633   1.098  17.345 -0.2599  0.2259 -0.6136
  363TMC3    C1 5483   3.448   3.577   9.904  0.6164  0.2913  0.1343
  363TMC3    C2 5484   3.565   3.570   9.836  0.3677  0.3209  0.6608
  363TMC3    C3 5485   3.621   3.685   9.788  0.4882  0.0483 -0.2521
  363TMC3    C4 5486   3.371   3.686   9.898  0.2096 -0.3649  0.2982
  363TMC3    C5 5487   3.428   3.798   9.837 -0.1030  0.6889  0.4192
  363TMC3    C6 5488   3.552   3.799   9.778 -0.5137 -0.7799 -0.1906
  363TMC3     C 5489   3.400   3.451   9.966 -0.0519  0.2821 -0.6996
  363TMC3     O 5490   3.307   3.459  10.049  0.2787  0.1116  0.3896
  363TMC3     H 5491   3.634   3.487   9.844  1.4779  1.1232 -0.6901
  363TMC3    H1 5492   3.270   3.686   9.938  1.0983 -0.7813  2.5640
  363TMC3    H2 5493   3.581   3.885   9.719 -0.6970  0.6255  1.7763
  363TMC3    C7 5494   3.328   3.904   9.808 -0.3187 -0.0011  0.3232
  363TMC3    C8 5495   3.744   3.683   9.700 -0.9657  0.3070 -0.6884
  363TMC3    O1 5496   3.252   3.932   9.899 -0.7761 -0.2768  0.0103
  363TMC3    O2 5497   3.782   3.794   9.669  0.1650 -0.5239 -0.0430
  364MPD2     C 5498   2.756   2.734  10.049  0.3103 -0.9600 -0.1830
  364MPD2    C1 5499   2.707   2.815  10.147  0.5185 -0.4116  0.4489
  364MPD2    C2 5500   2.653   2.755  10.262  1.0177  0.1373  0.1350
  364MPD2    C3 5501   2.640   2.615  10.275  0.9334  0.1179 -0.0051
  364MPD2    C4 5502   2.666   2.542  10.158 -0.1388 -0.6820 -0.1237
  364MPD2    C5 5503   2.731   2.603  10.056  0.4529 -0.5701  0.7608
  364MPD2     H 5504   2.627   2.804  10.355  1.0916 -1.7417  1.1665
  364MPD2    H1 5505   2.648   2.435  10.152 -2.0274 -0.3487 -0.4127
  364MPD2    H2 5506   2.811   2.774   9.965 -0.7387  1.6396  0.3608
  364MPD2    H3 5507   2.761   2.542   9.972  1.3275 -1.5867  1.8071
  364MPD2     N 5508   2.590   2.552  10.388 -0.1162 -0.3833 -0.2403
  364MPD2    H5 5509   2.583   2.450  10.386  1.3479 -0.5078  0.9925
  364MPD2    N1 5510   2.727   2.961  10.130 -0.1741 -0.0658 -0.8670
  364MPD2    H7 5511   2.797   2.998  10.067  0.1244 -0.8743 -1.0057
  365TMC3    C1 5512   2.704   3.190  10.167  0.0456  0.3100 -0.0203
  365TMC3    C2 5513   2.727   3.209  10.034 -0.2736  0.1397 -0.1666
  365TMC3    C3 5514   2.773   3.326   9.992 -0.8320  0.2075  0.5232
  365TMC3    C4 5515   2.743   3.283  10.259  0.1708  0.4477  0.1277
  365TMC3    C5 5516   2.797   3.402  10.208 -0.0572  0.3959  0.0485
  365TMC3    C6 5517   2.809   3.424  10.073  0.1834  0.2203 -0.1841
  365TMC3     C 5518   2.666   3.061  10.208  0.3130 -0.0811 -0.0157
  365TMC3     O 5519   2.620   3.051  10.320 -0.4833  0.9033  0.1082
  365TMC3     H 5520   2.671   3.145   9.967 -0.0061  0.8917 -1.1115
  365TMC3    H1 5521   2.742   3.271  10.367 -0.0616 -0.6441  0.0022
  365TMC3    H2 5522   2.853   3.516  10.036  0.5148  0.6659  1.2851
  365TMC3    C7 5523   2.838   3.505  10.310  0.3428  0.7415 -0.0307
  365TMC3    C8 5524   2.746   3.377   9.858 -0.7712 -0.0083  0.2458
  365TMC3    O1 5525   2.928   3.578  10.281 -0.5042 -0.4194  0.3241
  365TMC3    O2 5526   2.719   3.498   9.860  0.2562 -0.1596  0.1839
  366MPD2     C 5527   1.264   3.470  15.332  0.1085 -0.3185  0.2021
  366MPD2    C1 5528   1.292   3.577  15.416  0.3786  0.4979  0.3144
  366MPD2    C2 5529   1.421   3.624  15.420  0.1781  0.4618 -0.0022
  366MPD2    C3 5530   1.521   3.565  15.342 -0.0713 -0.2249  0.7087
  366MPD2    C4 5531   1.499   3.450  15.266  0.2274 -0.5406  0.2867
  366MPD2    C5 5532   1.364   3.411  15.260  0.2851 -0.1978 -0.2774
  366MPD2     H 5533   1.437   3.712  15.480 -0.0885 -0.1820  1.0136
  366MPD2    H1 5534   1.581   3.405  15.211  1.5584  1.9489  0.2044
  366MPD2    H2 5535   1.159   3.441  15.335  0.3693 -1.3319 -0.7973
  366MPD2    H3 5536   1.346   3.330  15.190  1.2872 -0.9882  0.3807
  366MPD2     N 5537   1.643   3.630  15.350 -0.1464  0.3277  0.0760
  366MPD2    H5 5538   1.644   3.716  15.403 -0.0083  1.4372 -1.7037
  366MPD2    N1 5539   1.198   3.654  15.487  0.7874  0.1218 -0.0773
  366MPD2    H7 5540   1.242   3.737  15.525  0.6041  0.0763  0.2345
  367TMC3    C1 5541   1.008   3.756  15.535 -0.4796 -0.0025  1.1142
  367TMC3    C2 5542   1.097   3.825  15.613  0.5383  0.2575 -0.7867
  367TMC3    C3 5543   1.100   3.963  15.600 -0.4391  0.4659 -0.6736
  367TMC3    C4 5544   0.930   3.825  15.448  0.0797  0.7442  0.7486
  367TMC3    C5 5545   0.944   3.959  15.429 -0.4501 -0.8184  0.1956
  367TMC3    C6 5546   1.030   4.033  15.507 -0.4814 -0.2045  0.2601
  367TMC3     C 5547   1.064   3.640  15.486  0.3274  0.1646 -0.0633
  367TMC3     O 5548   0.986   3.579  15.418  0.1423 -0.1731 -0.2410
  367TMC3     H 5549   1.150   3.782  15.697 -0.4599 -0.0531 -0.3162
  367TMC3    H1 5550   0.855   3.766  15.396  0.6756  0.3218  0.3615
  367TMC3    H2 5551   1.041   4.140  15.493  0.8709 -0.8002 -3.4900
  367TMC3    C7 5552   0.876   4.026  15.320  0.0236 -0.4279  0.3567
  367TMC3    C8 5553   1.208   4.019  15.674 -0.7344  0.1645  0.6146
  367TMC3    O1 5554   0.895   4.148  15.321  0.1825 -0.7494  0.2872
  367TMC3    O2 5555   1.295   3.941  15.706  0.4244  0.8586 -0.0006
  368MPD2     C 5556   1.957   1.553  13.268  0.5213  0.1785 -0.7785
  368MPD2    C1 5557   2.051   1.647  13.244  0.0848  0.3430 -0.7556
  368MPD2    C2 5558   2.188   1.604  13.231  0.1023  0.5244  0.5783
  368MPD2    C3 5559   2.222   1.474  13.250  0.0195 -0.2029  0.1036
  368MPD2    C4 5560   2.127   1.387  13.304 -0.0389  0.3352  0.5259
  368MPD2    C5 5561   1.994   1.423  13.300 -0.0664  0.3744 -0.1092
  368MPD2     H 5562   2.256   1.683  13.200 -2.5451  1.7510 -2.0871
  368MPD2    H1 5563   2.149   1.283  13.324 -0.2971 -0.4223 -3.0430
  368MPD2    H2 5564   1.852   1.572  13.254  0.3932  0.5901  0.6672
  368MPD2    H3 5565   1.918   1.346  13.304  1.6953 -1.5466 -3.3068
  368MPD2     N 5566   2.349   1.422  13.236  0.4387  0.4833  0.3227
  368MPD2    H5 5567   2.369   1.330  13.271 -1.5050  0.3544  1.0958
  368MPD2    N1 5568   2.004   1.777  13.224  0.1210 -0.4227  0.0836
  368MPD2    H7 5569   1.906   1.773  13.196  0.4626 -0.3054 -1.1566
  369TMC3    C1 5570   2.003   1.992  13.146 -0.3319 -0.6211  0.4903
  369TMC3    C2 5571   2.048   2.020  13.021  0.6484 -0.1244 -0.1155
  369TMC3    C3 5572   1.959   2.026  12.917 -0.0482  0.1577  0.4810
  369TMC3    C4 5573   1.869   1.967  13.174 -0.1387 -0.7513 -0.2280
  369TMC3    C5 5574   1.783   1.961  13.071  0.3608 -0.2098 -0.2085
  369TMC3    C6 5575   1.823   2.004  12.946  0.2058  0.1545 -0.0233
  369TMC3     C 5576   2.080   1.894  13.217  0.0492 -0.4635  0.9378
  369TMC3     O 5577   2.195   1.912  13.214 -0.4018  0.3663  0.3377
  369TMC3     H 5578   2.152   2.046  13.005  0.6775  0.7711  1.4939
  369TMC3    H1 5579   1.833   1.947  13.274 -2.0245  1.0873 -0.5462
  369TMC3    H2 5580   1.756   1.998  12.861 -1.4700 -0.3908  1.3422
  369TMC3    C7 5581   1.701   1.842  13.079 -0.0873  0.0325  0.9326
  369TMC3    C8 5582   2.003   2.061  12.783  0.1507  1.1612  0.1362
  369TMC3    O1 5583   1.728   1.785  13.181 -0.9281 -0.1058 -0.8267
  369TMC3    O2 5584   1.920   2.057  12.698 -0.1614  0.4003 -0.8748
  370TMC3    C1 5585   1.775   1.742  16.222  0.1506 -0.8216  0.0586
  370TMC3    C2 5586   1.695   1.673  16.311 -0.1056  0.6188  0.2239
  370TMC3    C3 5587   1.637   1.557  16.281  0.5988 -0.0380 -0.2227
  370TMC3    C4 5588   1.787   1.697  16.090  0.4948 -0.4162  0.5473
  370TMC3    C5 5589   1.722   1.583  16.059  0.5112 -0.0245 -0.3899
  370TMC3    C6 5590   1.655   1.508  16.151 -0.3174 -0.5428  0.0909
  370TMC3     C 5591   1.875   1.823  16.282 -0.2064 -0.0173  0.6596
  370TMC3     O 5592   1.885   1.834  16.405  0.8128 -0.3965 -0.2800
  370TMC3     H 5593   1.679   1.719  16.408 -0.3251  1.1645 -0.0675
  370TMC3    H1 5594   1.844   1.747  16.012 -0.0472 -0.7935 -0.0900
  370TMC3    H2 5595   1.615   1.410  16.126 -1.9608 -0.1864  1.3497
  370TMC3    C7 5596   1.772   1.521  15.937 -0.2983 -0.0836  0.0382
  370TMC3    C8 5597   1.581   1.468  16.386 -1.6416 -0.2988  0.0422
  370TMC3    O1 5598   1.790   1.589  15.836  0.0892  0.1185 -0.0506
  370TMC3    O2 5599   1.557   1.351  16.351 -0.3379 -0.1697  0.6952
  371TMC3    C1 5600   3.114   0.205  15.364 -0.8653 -0.7733  0.0823
  371TMC3    C2 5601   3.021   0.230  15.472 -0.4458 -1.0652 -0.3344
  371TMC3    C3 5602   2.989   0.359  15.505 -0.4065  0.0050  0.3680
  371TMC3    C4 5603   3.164   0.314  15.298 -0.0734 -0.2626 -0.3417
  371TMC3    C5 5604   3.127   0.440  15.341  0.0353  0.0399  0.3845
  371TMC3    C6 5605   3.026   0.469  15.430  0.5500  0.1583 -0.8401
  371TMC3     C 5606   3.190   0.082  15.349 -0.5880 -0.8073 -0.2411
  371TMC3     O 5607   3.285   0.085  15.279 -0.8099  0.4333  0.4373
  371TMC3     H 5608   2.960   0.159  15.526 -2.3422  1.3155  0.6424
  371TMC3    H1 5609   3.247   0.310  15.228  0.3122 -1.4861  0.1929
  371TMC3    H2 5610   3.002   0.570  15.462 -3.3760 -1.6322  1.9536
  371TMC3    C7 5611   3.207   0.557  15.314 -0.7207  0.8092 -0.1855
  371TMC3    C8 5612   2.992   0.374  15.649  0.4208  0.1461  0.0016
  371TMC3    O1 5613   3.187   0.654  15.385 -0.2809 -0.2746  0.0809
  371TMC3    O2 5614   3.071   0.310  15.719 -0.5737 -0.2585 -0.4557
  372MPD2     C 5615   2.489   1.784  13.460 -0.3576 -0.1572 -0.0372
  372MPD2    C1 5616   2.605   1.738  13.521  0.0803 -0.2562  0.1001
  372MPD2    C2 5617   2.601   1.623  13.598 -0.1254 -0.7409  0.1187
  372MPD2    C3 5618   2.488   1.548  13.604 -0.4795  0.8086 -0.0499
  372MPD2    C4 5619   2.377   1.582  13.533 -0.5701  0.6575  0.5053
  372MPD2    C5 5620   2.383   1.700  13.461 -0.6440 -0.4147  0.1046
  372MPD2     H 5621   2.689   1.611  13.660 -0.1867  1.1643  0.5642
  372MPD2    H1 5622   2.283   1.529  13.525 -0.5172  1.0098 -2.7124
  372MPD2    H2 5623   2.476   1.870  13.396 -0.1049 -1.2405 -1.5544
  372MPD2    H3 5624   2.303   1.737  13.398 -0.1691 -0.3385 -0.4636
  372MPD2     N 5625   2.473   1.450  13.703 -0.1953 -0.3070  0.9290
  372MPD2    H5 5626   2.550   1.437  13.768  0.1923 -0.1588  0.4983
  372MPD2    N1 5627   2.727   1.812  13.516  0.4665  0.1750 -0.0574
  372MPD2    H7 5628   2.807   1.780  13.570 -1.9954 -1.9844  2.3070
  373TMC3    C1 5629   2.385   1.260  13.808  0.9688  0.2237 -0.3086
  373TMC3    C2 5630   2.423   1.309  13.930 -0.1223  0.7666  0.5024
  373TMC3    C3 5631   2.409   1.226  14.041 -0.4206  0.4988 -0.3127
  373TMC3    C4 5632   2.349   1.129  13.790  0.2361  0.4228  0.8328
  373TMC3    C5 5633   2.327   1.054  13.904  0.0588 -0.4047 -0.1488
  373TMC3    C6 5634   2.363   1.098  14.027 -0.8273  0.4687  0.7482
  373TMC3     C 5635   2.376   1.355  13.694 -0.4612  0.7464  0.4361
  373TMC3     O 5636   2.318   1.316  13.597  0.1579  0.3847  0.3735
  373TMC3     H 5637   2.454   1.409  13.956 -0.6300  0.9419  0.4438
  373TMC3    H1 5638   2.317   1.090  13.694 -0.3604  1.8611  0.4510
  373TMC3    H2 5639   2.330   1.044  14.115 -1.0681  0.4943  0.6717
  373TMC3    C7 5640   2.290   0.918  13.885  0.0572 -0.1331 -0.0934
  373TMC3    C8 5641   2.477   1.268  14.163  0.3585 -0.2640  0.2007
  373TMC3    O1 5642   2.172   0.892  13.890  0.4177 -0.2606  0.1834
  373TMC3    O2 5643   2.515   1.385  14.169 -0.3075 -0.5689 -0.3535
  374TMC3    C1 5644   2.512   1.763   9.712 -0.5000  0.6567  0.2113
  374TMC3    C2 5645   2.646   1.781   9.744  0.0899  0.4913  0.1441
  374TMC3    C3 5646   2.721   1.849   9.649  0.7384  0.0297 -0.0180
  374TMC3    C4 5647   2.461   1.793   9.587  0.2399 -0.1326 -0.5927
  374TMC3    C5 5648   2.547   1.853   9.499  0.2251 -0.1009 -0.2574
  374TMC3    C6 5649   2.672   1.886   9.530 -0.8000 -0.0315  0.3461
  374TMC3     C 5650   2.448   1.670   9.798 -1.1427  0.8976  0.0683
  374TMC3     O 5651   2.513   1.585   9.860  0.3699  0.5711 -0.6263
  374TMC3     H 5652   2.686   1.755   9.842 -1.9930  0.2141  0.9023
  374TMC3    H1 5653   2.362   1.763   9.557  0.0192  1.3896 -1.3855
  374TMC3    H2 5654   2.738   1.935   9.460 -0.6188 -2.6176 -1.2750
  374TMC3    C7 5655   2.506   1.858   9.356 -0.8179 -0.3468  0.7080
  374TMC3    C8 5656   2.853   1.912   9.680 -0.2031  0.1151  0.0244
  374TMC3    O1 5657   2.388   1.838   9.328 -0.1826  0.2595  0.4293
  374TMC3    O2 5658   2.898   1.999   9.605 -0.1910 -0.4522  0.4291
  375MPD2     C 5659   3.277   2.850  16.757 -0.3520 -0.4116 -0.5274
  375MPD2    C1 5660   3.184   2.749  16.763 -1.3655 -0.0802  0.0606
  375MPD2    C2 5661   3.228   2.618  16.754  0.5123  0.1696 -0.2237
  375MPD2    C3 5662   3.355   2.575  16.751  0.1640 -0.0706  0.4935
  375MPD2    C4 5663   3.442   2.682  16.749  0.2483 -0.3212 -0.1663
  375MPD2    C5 5664   3.405   2.812  16.747 -0.1256  0.0149 -0.4160
  375MPD2     H 5665   3.145   2.548  16.763  0.5108  0.5485  2.8228
  375MPD2    H1 5666   3.545   2.650  16.753  0.1775 -0.7450 -1.6589
  375MPD2    H2 5667   3.245   2.954  16.757  0.9775  0.0039 -0.9995
  375MPD2    H3 5668   3.489   2.881  16.751 -1.4852  1.7582 -2.0422
  375MPD2     N 5669   3.389   2.439  16.761  0.5071  0.2453 -0.3660
  375MPD2    H5 5670   3.490   2.425  16.759  0.6163  0.3672  3.4202
  375MPD2    N1 5671   3.046   2.771  16.781 -0.0305 -0.1749 -0.3075
  375MPD2    H7 5672   2.989   2.688  16.777  1.2419 -1.0698  0.1896
  376TMC3    C1 5673   3.358   2.210  16.711 -0.3587  0.3805  0.7718
  376TMC3    C2 5674   3.478   2.176  16.759 -0.1377 -0.4922  0.2790
  376TMC3    C3 5675   3.542   2.058  16.714 -0.3142  0.5374 -0.1463
  376TMC3    C4 5676   3.298   2.130  16.615 -0.7404 -0.2134 -0.6379
  376TMC3    C5 5677   3.355   2.012  16.583 -0.2247 -0.3536 -0.6803
  376TMC3    C6 5678   3.476   1.973  16.624 -0.0821  0.0720 -1.0723
  376TMC3     C 5679   3.297   2.335  16.728 -0.0042 -0.0766 -0.2997
  376TMC3     O 5680   3.172   2.338  16.714 -0.4009  0.4085 -0.2863
  376TMC3     H 5681   3.531   2.242  16.827  0.0415 -1.0465  0.6732
  376TMC3    H1 5682   3.199   2.154  16.576 -0.7750  2.9368  1.4150
  376TMC3    H2 5683   3.518   1.880  16.586  1.9485  1.2245 -1.6567
  376TMC3    C7 5684   3.302   1.943  16.470 -0.0099  0.0338 -0.4787
  376TMC3    C8 5685   3.687   2.054  16.693 -0.0350 -0.0791  0.1683
  376TMC3    O1 5686   3.327   1.827  16.453 -0.0767 -0.1336  0.3994
  376TMC3    O2 5687   3.733   2.013  16.585  0.0344 -0.0647  0.1551
  377MPD2     C 5688   0.996   1.867  12.754  0.0324  0.6997  0.1530
  377MPD2    C1 5689   1.130   1.872  12.791  0.2424 -0.5725 -0.9593
  377MPD2    C2 5690   1.175   1.820  12.907 -0.0318  0.0488 -0.3265
  377MPD2    C3 5691   1.088   1.743  12.982  0.0161 -0.1601 -0.7629
  377MPD2    C4 5692   0.960   1.726  12.940  0.3887 -0.5710  0.3487
  377MPD2    C5 5693   0.911   1.796  12.836  0.1730 -0.2131  0.2703
  377MPD2     H 5694   1.281   1.820  12.931 -0.0551  0.0434 -0.2225
  377MPD2    H1 5695   0.886   1.677  13.002 -1.1309  1.1328 -0.1188
  377MPD2    H2 5696   0.956   1.907  12.662 -3.0802 -0.8473  0.8450
  377MPD2    H3 5697   0.804   1.793  12.820  0.2886  1.0969 -0.7381
  377MPD2     N 5698   1.125   1.670  13.096  0.0250 -0.8214 -1.0747
  377MPD2    H5 5699   1.060   1.606  13.140 -1.8636  0.8717 -1.3561
  377MPD2    N1 5700   1.206   1.960  12.704  0.7240 -0.0707 -0.0501
  377MPD2    H7 5701   1.148   2.001  12.631  2.0904  1.4936 -0.2572
  378TMC3    C1 5702   1.345   2.153  12.383 -0.3625 -0.0915 -0.3384
  378TMC3    C2 5703   1.310   2.119  12.508  0.3025 -1.0307  0.4037
  378TMC3    C3 5704   1.398   2.055  12.590 -0.1576  0.8399  0.4315
  378TMC3    C4 5705   1.467   2.117  12.330  0.1364  0.6213  0.3161
  378TMC3    C5 5706   1.552   2.048  12.419 -0.1124 -0.1002  0.3311
  378TMC3    C6 5707   1.522   2.017  12.549  0.1197  0.5311  0.5057
  378TMC3     C 5708   1.234   2.187  12.293 -0.0082 -0.6635 -0.5480
  378TMC3     O 5709   1.126   2.208  12.344 -0.1788 -0.6030 -0.6472
  378TMC3     H 5710   1.211   2.148  12.542 -0.2864 -2.4316 -0.0969
  378TMC3    H1 5711   1.507   2.153  12.236  0.5949  0.0165  0.2838
  378TMC3    H2 5712   1.590   1.965  12.616 -1.8581  1.5861  3.3674
  378TMC3    C7 5713   1.688   2.016  12.388 -0.2915  0.3113 -0.3073
  378TMC3    C8 5714   1.343   1.988  12.707  0.2009 -0.8218 -0.1903
  378TMC3    O1 5715   1.755   1.972  12.479  0.3613  0.0055  0.0191
  378TMC3    O2 5716   1.428   1.949  12.781  0.2963 -0.6467 -0.4208
  379MPD2     C 5717   2.532   4.058  15.990 -0.5758 -0.0938 -0.4390
  379MPD2    C1 5718   2.423   4.109  16.058  0.0504 -0.0946 -0.9824
  379MPD2    C2 5719   2.429   4.126  16.197 -0.2807 -0.3056 -0.0598
  379MPD2    C3 5720   2.541   4.081  16.265 -0.0894  0.3670  0.2987
  379MPD2    C4 5721   2.649   4.025  16.190  0.1964 -0.6193 -0.2128
  379MPD2    C5 5722   2.644   4.013  16.058 -0.5711 -0.9783 -0.5796
  379MPD2     H 5723   2.342   4.162  16.252  1.1705 -0.1632  2.1523
  379MPD2    H1 5724   2.738   3.993  16.244 -0.2796 -0.3874  0.7180
  379MPD2    H2 5725   2.537   4.032  15.885 -0.7381  0.5011 -0.5954
  379MPD2    H3 5726   2.723   3.961  16.006 -1.4494 -2.1724 -0.7006
  379MPD2     N 5727   2.551   4.072  16.408 -0.6893  0.6010 -0.0693
  379MPD2    H5 5728   2.626   4.014  16.445 -0.3514  2.4270  2.1127
  379MPD2    N1 5729   2.316   4.154  15.979  0.2617  0.4923  0.5380
  379MPD2    H7 5730   2.322   4.133  15.880 -1.0916 -0.4290  0.6505
  380TMC3    C1 5731   2.106   4.236  15.915  0.2371 -0.6531 -1.0224
  380TMC3    C2 5732   2.135   4.202  15.788  0.1646 -0.4915 -0.4430
  380TMC3    C3 5733   2.037   4.214  15.693 -0.0538  0.5661  0.5846
  380TMC3    C4 5734   1.982   4.282  15.949  0.2322 -0.6532  0.6295
  380TMC3    C5 5735   1.881   4.290  15.852  0.1208 -0.7183 -0.1352
  380TMC3    C6 5736   1.907   4.255  15.718  0.5254  0.1201  0.3707
  380TMC3     C 5737   2.193   4.198  16.028  0.3431  0.3164 -0.0093
  380TMC3     O 5738   2.150   4.216  16.142  0.1675 -0.3734  0.0635
  380TMC3     H 5739   2.238   4.180  15.762 -0.4041 -1.8980 -1.5210
  380TMC3    H1 5740   1.958   4.299  16.054  1.7253 -0.7619  0.9902
  380TMC3    H2 5741   1.832   4.263  15.640 -0.8573 -0.4225  1.6593
  380TMC3    C7 5742   1.743   4.308  15.898 -0.1171 -0.1860 -0.0932
  380TMC3    C8 5743   2.072   4.222  15.556  0.1286 -0.8351 -0.4348
  380TMC3    O1 5744   1.721   4.326  16.014 -0.4989  0.5866 -0.3840
  380TMC3    O2 5745   2.004   4.301  15.495 -0.0805  0.7005 -0.0606
  381TMC3    C1 5746   1.574   0.870  16.103 -0.3691  0.1481  0.2782
  381TMC3    C2 5747   1.705   0.891  16.149  0.2140 -0.2425 -0.3469
  381TMC3    C3 5748   1.711   0.978  16.253  0.5562 -0.5879  0.3009
  381TMC3    C4 5749   1.464   0.931  16.146 -0.7172  0.6880  0.1869
  381TMC3    C5 5750   1.483   1.019  16.252  0.2974 -0.6860  0.4773
  381TMC3    C6 5751   1.604   1.048  16.307 -0.5090 -0.6594  0.9030
  381TMC3     C 5752   1.564   0.762  16.005 -0.2776  0.0388  0.3303
  381TMC3     O 5753   1.643   0.669  16.002  0.1315  0.0242 -0.1559
  381TMC3     H 5754   1.785   0.837  16.101  0.4925  0.4800 -0.6955
  381TMC3    H1 5755   1.364   0.902  16.116 -0.6097  0.0156  0.4692
  381TMC3    H2 5756   1.612   1.120  16.389  2.1582 -1.7714  1.5949
  381TMC3    C7 5757   1.376   1.012  16.345 -0.3594 -0.6997 -0.0138
  381TMC3    C8 5758   1.846   1.029  16.283  0.9279  0.0786  0.2499
  381TMC3    O1 5759   1.335   0.901  16.362  0.8960  0.5980  0.7286
  381TMC3    O2 5760   1.940   0.969  16.224 -0.0795 -0.2162 -0.6525
  382MPD2     C 5761   1.546   3.513  17.294 -0.2542  0.5729  0.1929
  382MPD2    C1 5762   1.463   3.472  17.399  0.5988  0.8363 -0.3977
  382MPD2    C2 5763   1.411   3.339  17.396 -0.3444  0.0272 -0.1136
  382MPD2    C3 5764   1.439   3.254  17.286  1.1892 -0.6584 -0.0026
  382MPD2    C4 5765   1.519   3.295  17.180  0.5439 -0.9983 -0.1074
  382MPD2    C5 5766   1.565   3.425  17.182  0.3587 -0.1534 -0.3926
  382MPD2     H 5767   1.358   3.298  17.481 -1.5031  1.1514 -0.2928
  382MPD2    H1 5768   1.541   3.233  17.094 -1.7923 -0.3369 -1.1691
  382MPD2    H2 5769   1.595   3.607  17.273 -0.3574  0.1368 -1.9949
  382MPD2    H3 5770   1.632   3.460  17.105  2.3451 -0.0009  1.3841
  382MPD2     N 5771   1.377   3.131  17.274  0.0499  0.1642 -0.4267
  382MPD2    H5 5772   1.392   3.083  17.186 -1.7138 -0.5097 -0.3673
  382MPD2    N1 5773   1.448   3.558  17.509 -0.1881  0.2260  0.0154
  382MPD2    H7 5774   1.400   3.515  17.588  0.0282 -1.9962 -1.0685
  383TMC3    C1 5775   1.227   2.950  17.289  0.6124 -0.4541 -0.0736
  383TMC3    C2 5776   1.087   2.937  17.306 -0.0759  0.7965 -0.1287
  383TMC3    C3 5777   1.037   2.813  17.332 -0.5786  0.0416  0.5269
  383TMC3    C4 5778   1.311   2.843  17.309  0.2225  0.0387 -0.0654
  383TMC3    C5 5779   1.254   2.720  17.329 -0.2212 -0.8352  1.0342
  383TMC3    C6 5780   1.114   2.703  17.331 -0.4709 -0.4986 -0.0093
  383TMC3     C 5781   1.270   3.077  17.342 -0.1845 -0.3830 -0.3247
  383TMC3     O 5782   1.201   3.125  17.428 -0.5545 -0.1822  0.0927
  383TMC3     H 5783   1.030   3.029  17.309  0.5381  1.2276 -1.5616
  383TMC3    H1 5784   1.415   2.866  17.324  0.5039 -1.8984  0.8949
  383TMC3    H2 5785   1.069   2.604  17.341  0.2870 -0.7549  0.8631
  383TMC3    C7 5786   1.314   2.628  17.426  0.3835  0.8100 -0.0092
  383TMC3    C8 5787   0.892   2.809  17.349  0.3033 -0.4046  0.7457
  383TMC3    O1 5788   1.235   2.581  17.506 -0.2308 -0.2233 -0.0892
  383TMC3    O2 5789   0.831   2.913  17.352 -0.0047  0.7334  0.1396
  384MPD2     C 5790   2.484   4.678  11.995  0.4103 -0.0086  0.2686
  384MPD2    C1 5791   2.465   4.559  12.063  0.4544  0.1409  0.7113
  384MPD2    C2 5792   2.546   4.450  12.038 -0.4868 -0.6573 -0.2452
  384MPD2    C3 5793   2.635   4.458  11.924  0.0351  0.1152  0.0098
  384MPD2    C4 5794   2.662   4.575  11.865 -0.3589 -0.6560 -0.0700
  384MPD2    C5 5795   2.579   4.685  11.898 -0.2333 -0.0693  0.8030
  384MPD2     H 5796   2.546   4.365  12.106  1.5671 -1.4442 -1.2201
  384MPD2    H1 5797   2.741   4.579  11.791 -0.2036 -1.1919  0.0662
  384MPD2    H2 5798   2.432   0.034  12.023 -1.2133 -0.6134 -0.7672
  384MPD2    H3 5799   2.594   0.042  11.843  0.9009  1.4138  3.6030
  384MPD2     N 5800   2.724   4.354  11.882  0.2319 -0.0728 -0.7142
  384MPD2    H5 5801   2.799   4.381  11.819  1.9828  0.1291  1.4704
  384MPD2    N1 5802   2.379   4.561  12.172  0.6795 -0.2177  0.3201
  384MPD2    H7 5803   2.346   4.650  12.207  1.9128  0.2847  0.2246
  385TMC3    C1 5804   2.817   4.137  11.884  0.3469 -0.1861  0.8031
  385TMC3    C2 5805   2.761   4.009  11.862 -0.3462 -0.2677  0.7617
  385TMC3    C3 5806   2.832   3.906  11.904 -0.0079 -0.6587  0.3551
  385TMC3    C4 5807   2.938   4.149  11.948 -0.7445  0.2058 -0.5148
  385TMC3    C5 5808   3.005   4.035  11.994 -0.2934  0.7140  0.6884
  385TMC3    C6 5809   2.952   3.915  11.975 -0.1026  0.1289  0.4114
  385TMC3     C 5810   2.719   4.226  11.928 -0.3783  0.9390 -0.0964
  385TMC3     O 5811   2.648   4.177  12.017 -0.4059  0.1335 -0.3031
  385TMC3     H 5812   2.659   4.007  11.826 -0.6509  0.6288  1.5721
  385TMC3    H1 5813   2.980   4.249  11.957  0.0654 -0.0800 -1.1581
  385TMC3    H2 5814   3.000   3.828  12.017  0.2050  0.4469  0.7184
  385TMC3    C7 5815   3.061   4.062  12.123 -0.1733 -0.1239  0.0142
  385TMC3    C8 5816   2.766   3.774  11.900  0.6302  0.3245  0.2901
  385TMC3    O1 5817   3.170   4.013  12.149 -0.1330  0.5596  0.4931
  385TMC3    O2 5818   2.788   3.682  11.982 -0.0958 -0.0593  0.0084
  386TMC3    C1 5819   2.583   1.748  11.276 -0.6096 -0.6287  0.0488
  386TMC3    C2 5820   2.573   1.797  11.148  0.9940  1.0250  0.2229
  386TMC3    C3 5821   2.544   1.927  11.132 -0.6484  0.0364  0.1649
  386TMC3    C4 5822   2.556   1.827  11.387 -0.2450  0.0345  0.1744
  386TMC3    C5 5823   2.531   1.961  11.365 -1.1143  0.5235 -0.3331
  386TMC3    C6 5824   2.526   2.008  11.237 -0.4230  0.2926 -0.5862
  386TMC3     C 5825   2.644   1.617  11.290  0.6457  0.1401 -0.2847
  386TMC3     O 5826   2.667   1.552  11.190 -0.5634  0.5987 -0.3080
  386TMC3     H 5827   2.581   1.732  11.062  0.5347 -1.4746  2.0853
  386TMC3    H1 5828   2.556   1.788  11.488  3.3873 -0.7676 -0.1395
  386TMC3    H2 5829   2.507   2.111  11.212  1.3949  0.4208 -1.4742
  386TMC3    C7 5830   2.415   2.004  11.435  0.8244 -0.2318  0.2546
  386TMC3    C8 5831   2.544   1.979  11.008  0.0616 -1.0943 -1.1307
  386TMC3    O1 5832   2.406   1.968  11.553  0.5864  0.2829  0.2233
  386TMC3    O2 5833   2.489   2.086  10.994 -0.3572  0.0882 -0.1603
  387MPD2     C 5834   4.620   1.815   9.916 -0.1451  0.0885  0.2145
  387MPD2    C1 5835   0.005   1.751   9.911  0.7763 -0.5186 -0.1716
  387MPD2    C2 5836   0.012   1.628   9.854 -0.4197  0.3199  0.1608
  387MPD2    C3 5837   4.620   1.566   9.839  0.2046  0.8070 -0.1449
  387MPD2    C4 5838   4.501   1.628   9.840 -0.1312 -0.4487 -0.4068
  387MPD2    C5 5839   4.502   1.753   9.885 -0.2052  0.5487  0.2339
  387MPD2     H 5840   0.100   1.565   9.845  2.0043  3.9297 -1.2645
  387MPD2    H1 5841   4.407   1.578   9.821 -1.5082  1.8783  0.1856
  387MPD2    H2 5842   4.608   1.919   9.946 -0.6400  0.8506 -2.5268
  387MPD2    H3 5843   4.409   1.807   9.897 -0.0960  0.9515 -0.7688
  387MPD2     N 5844   4.618   1.432   9.803  0.0812  0.3299  0.4967
  387MPD2    H5 5845   4.710   1.396   9.779 -0.2909 -0.3410  0.0577
  387MPD2    N1 5846   0.123   1.795   9.976  0.4893  0.7225  0.2260
  387MPD2    H7 5847   0.203   1.735   9.958  0.7906  1.1944 -0.0038
  388TMC3    C1 5848   0.275   1.907  10.110  0.2900 -0.1527  0.3049
  388TMC3    C2 5849   0.355   2.016  10.119  0.0560 -0.5632  0.0193
  388TMC3    C3 5850   0.479   1.998  10.159 -0.4431  0.4883 -0.5484
  388TMC3    C4 5851   0.323   1.783  10.135 -0.5254  0.3528 -0.2629
  388TMC3    C5 5852   0.449   1.768  10.176 -0.4228  0.5127 -0.2319
  388TMC3    C6 5853   0.539   1.872  10.177  0.2468 -0.0966  0.1525
  388TMC3     C 5854   0.154   1.916  10.034 -0.5463 -0.7376  0.0438
  388TMC3     O 5855   0.091   2.021  10.028  0.4488 -0.1033 -0.7123
  388TMC3     H 5856   0.315   2.116  10.117 -0.0716 -0.6051  0.6359
  388TMC3    H1 5857   0.260   1.695  10.140  0.2797 -0.1258  1.2741
  388TMC3    H2 5858   0.638   1.856  10.219  0.7187  0.5245 -0.7365
  388TMC3    C7 5859   0.506   1.636  10.201 -0.0936 -0.6171 -0.5916
  388TMC3    C8 5860   0.574   2.106  10.186 -0.0885 -0.2506 -0.2282
  388TMC3    O1 5861   0.609   1.629  10.267  0.0176  0.2581 -0.3950
  388TMC3    O2 5862   0.678   2.077  10.244 -0.1048  0.1121 -0.1612
  389MPD2     C 5863   4.425   4.726  11.042 -0.0848 -0.3378 -0.5296
  389MPD2    C1 5864   4.296   4.680  11.045  0.0016  0.1798 -0.2851
  389MPD2    C2 5865   4.245   4.616  11.155 -0.6063  0.1463 -0.3758
  389MPD2    C3 5866   4.330   4.602  11.268  0.1702  0.2093  0.9804
  389MPD2    C4 5867   4.458   4.655  11.270 -0.3921  0.1530  0.5191
  389MPD2    C5 5868   4.503   4.712  11.155 -0.0832 -0.0766 -0.3815
  389MPD2     H 5869   4.143   4.581  11.162 -0.4583  0.1048  1.6496
  389MPD2    H1 5870   4.528   4.643  11.351 -0.3877 -1.9739  0.1879
  389MPD2    H2 5871   4.479   0.029  10.956 -0.5935  0.0575 -0.6702
  389MPD2    H3 5872   4.607   0.007  11.156 -0.4585  1.1739  0.7520
  389MPD2     N 5873   4.293   4.546  11.388  0.3893 -0.8733  0.5643
  389MPD2    H5 5874   4.350   4.566  11.470  0.6686  1.8727 -0.3018
  389MPD2    N1 5875   4.216   4.708  10.927 -0.0363  0.0317 -0.2060
  389MPD2    H7 5876   4.267   0.010  10.847 -2.8429  2.4974 -0.8875
  390TMC3    C1 5877   4.166   4.460  11.557 -0.2952  0.4163 -0.7990
  390TMC3    C2 5878   4.100   4.351  11.601  0.1673 -0.0002  0.5982
  390TMC3    C3 5879   4.099   4.316  11.740 -0.2643 -0.0739  0.3831
  390TMC3    C4 5880   4.233   4.548  11.644  0.1761  0.1578 -0.1917
  390TMC3    C5 5881   4.221   4.515  11.776  0.4598 -0.2645 -1.1154
  390TMC3    C6 5882   4.149   4.406  11.831 -0.5607  0.0435 -0.1360
  390TMC3     C 5883   4.178   4.477  11.414  0.0845 -0.0252  0.4319
  390TMC3     O 5884   4.091   4.433  11.341  0.0809  0.7043  0.0553
  390TMC3     H 5885   4.054   4.294  11.521 -1.1821  0.6523  0.9075
  390TMC3    H1 5886   4.285   4.636  11.608  1.4157 -0.8271 -0.8122
  390TMC3    H2 5887   4.148   4.378  11.935  0.9161 -1.4691 -0.5247
  390TMC3    C7 5888   4.293   4.602  11.866  0.4716 -0.4403 -0.2099
  390TMC3    C8 5889   4.011   4.206  11.770 -0.7241 -0.4083 -0.6656
  390TMC3    O1 5890   4.383   4.674  11.820  0.6756  0.1062  0.0381
  390TMC3    O2 5891   3.970   4.139  11.679  0.0899  0.9543  0.0724
  391MPD2     C 5892   3.089   1.492  11.157 -0.5938  0.2506 -0.3532
  391MPD2    C1 5893   3.228   1.528  11.137 -0.3145  0.3862  0.4294
  391MPD2    C2 5894   3.265   1.570  11.013  0.2024  0.1149  0.0412
  391MPD2    C3 5895   3.178   1.572  10.912 -0.0833 -0.4206  0.0225
  391MPD2    C4 5896   3.040   1.553  10.934 -0.5275  0.0046  0.5433
  391MPD2    C5 5897   3.002   1.503  11.052 -0.2529  0.2171 -0.2299
  391MPD2     H 5898   3.368   1.601  10.995 -0.0822  1.1852  0.3123
  391MPD2    H1 5899   2.968   1.566  10.854 -0.3741 -1.2039  0.2057
  391MPD2    H2 5900   3.050   1.465  11.254  2.6142  1.2781  1.2378
  391MPD2    H3 5901   2.896   1.486  11.069 -0.6945  2.5659 -0.5853
  391MPD2     N 5902   3.232   1.609  10.788 -0.8187 -0.5078  0.2270
  391MPD2    H5 5903   3.333   1.615  10.788 -0.9367  1.2492 -0.1444
  391MPD2    N1 5904   3.330   1.540  11.234 -0.7617  0.8200  0.0977
  391MPD2    H7 5905   3.416   1.588  11.209 -0.2632 -1.6537 -2.9302
  392TMC3    C1 5906   3.256   1.657  10.552  1.2672 -0.1532 -0.1612
  392TMC3    C2 5907   3.197   1.650  10.430 -0.1607  1.0414 -0.3690
  392TMC3    C3 5908   3.274   1.696  10.325  0.1575 -0.3567  0.5308
  392TMC3    C4 5909   3.381   1.715  10.572 -0.5784  0.0399  0.0947
  392TMC3    C5 5910   3.449   1.767  10.468 -0.1188  0.5532 -0.1365
  392TMC3    C6 5911   3.401   1.745  10.342  0.8115  0.2190 -0.7167
  392TMC3     C 5912   3.167   1.610  10.661 -0.5430 -0.0201  0.6372
  392TMC3     O 5913   3.057   1.566  10.629 -0.4732  0.8156  0.2262
  392TMC3     H 5914   3.093   1.621  10.428 -0.2118  1.0930  1.4083
  392TMC3    H1 5915   3.419   1.728  10.673  0.0280  0.4517 -0.1896
  392TMC3    H2 5916   3.453   1.783  10.255  1.0463  1.4197 -0.0534
  392TMC3    C7 5917   3.575   1.827  10.500 -0.5001 -0.5011  0.1282
  392TMC3    C8 5918   3.206   1.718  10.199  0.0232  0.7445 -0.0857
  392TMC3    O1 5919   3.615   1.816  10.614  0.2441  0.0754  0.0331
  392TMC3    O2 5920   3.104   1.655  10.179 -0.8230 -0.2605 -0.3584
  393TMC3    C1 5921   2.521   4.315  10.986 -0.7171 -0.5683 -0.0359
  393TMC3    C2 5922   2.408   4.289  11.056 -0.1202 -0.7055 -0.0229
  393TMC3    C3 5923   2.390   4.165  11.113 -0.1695 -0.5311 -0.1279
  393TMC3    C4 5924   2.617   4.217  10.968 -0.2830 -0.2987  0.3121
  393TMC3    C5 5925   2.596   4.095  11.022 -0.2915  0.0165  0.0921
  393TMC3    C6 5926   2.485   4.067  11.100 -0.2846 -0.0678 -0.0992
  393TMC3     C 5927   2.524   4.436  10.901 -0.6003 -0.0005  0.6157
  393TMC3     O 5928   2.430   4.511  10.902  0.0430 -0.2873  0.1100
  393TMC3     H 5929   2.330   4.363  11.058  1.0974  0.5400  1.2658
  393TMC3    H1 5930   2.708   4.231  10.912 -0.4696  0.6556  0.2530
  393TMC3    H2 5931   2.475   3.976  11.158  1.8150 -0.8067 -0.9378
  393TMC3    C7 5932   2.707   4.005  11.052 -0.1383  0.6665  0.5358
  393TMC3    C8 5933   2.313   4.157  11.238  0.6369  0.1113 -0.3419
  393TMC3    O1 5934   2.689   3.885  11.062  1.0544 -0.4263 -0.1285
  393TMC3    O2 5935   2.318   4.049  11.300 -0.1629  0.1228 -0.0084
  394TMC3    C1 5936   4.037   0.003  10.775  0.1355 -0.6186 -0.1258
  394TMC3    C2 5937   3.924   4.685  10.725 -0.3828 -0.3385 -0.2409
  394TMC3    C3 5938   3.890   4.709  10.598  0.4650 -0.3177 -0.0022
  394TMC3    C4 5939   4.112   0.098  10.707  0.1072  0.0097  0.0758
  394TMC3    C5 5940   4.061   0.129  10.581  0.7415 -0.3150 -0.1586
  394TMC3    C6 5941   3.954   0.075  10.531  0.1138  0.5730  0.3980
  394TMC3     C 5942   4.080   4.683  10.905  0.2747 -0.4919  0.0713
  394TMC3     O 5943   4.006   4.626  10.980  0.5207  0.2984 -0.3380
  394TMC3     H 5944   3.864   4.621  10.788  1.9391 -2.1129  0.1501
  394TMC3    H1 5945   4.191   0.159  10.750  1.2329 -1.0790 -0.4294
  394TMC3    H2 5946   3.921   0.118  10.437 -1.6498 -1.1416  0.2328
  394TMC3    C7 5947   4.109   0.239  10.511 -0.7343  0.1545 -0.3876
  394TMC3    C8 5948   3.779   4.635  10.534 -0.3924  0.3598  0.1871
  394TMC3    O1 5949   4.050   0.287  10.413  0.5970  0.2843  0.3814
  394TMC3    O2 5950   3.727   4.668  10.429  0.2520 -0.3022  0.1557
  395TMC3    C1 5951   4.176   1.643  14.626  0.4541 -0.5256 -0.9220
  395TMC3    C2 5952   4.150   1.515  14.662  0.4806  0.6423  0.7362
  395TMC3    C3 5953   4.226   1.467  14.767  0.6226  0.7310  0.1903
  395TMC3    C4 5954   4.271   1.717  14.683  1.1424 -0.5290  0.1608
  395TMC3    C5 5955   4.350   1.664  14.780  0.5951 -0.0137 -0.4280
  395TMC3    C6 5956   4.314   1.546  14.830  0.2440  0.2872  0.1207
  395TMC3     C 5957   4.068   1.721  14.586  0.1013  0.1364  0.5690
  395TMC3     O 5958   4.022   1.691  14.476  0.0035 -0.6610 -0.2367
  395TMC3     H 5959   4.055   1.485  14.621 -0.1633  3.3171  0.2612
  395TMC3    H1 5960   4.294   1.822  14.669 -1.4213  0.4321  3.0584
  395TMC3    H2 5961   4.377   1.505  14.908 -0.9312 -2.4848 -0.4029
  395TMC3    C7 5962   4.439   1.755  14.845 -0.0878 -0.0783  0.2392
  395TMC3    C8 5963   4.188   1.348  14.831 -0.0724  0.0297 -0.3554
  395TMC3    O1 5964   4.384   1.859  14.871 -0.4744 -0.4880  0.0152
  395TMC3    O2 5965   4.231   1.330  14.948  0.1646  0.2960 -0.0493
  396MPD2     C 5966   3.441   2.981  17.019  0.3355 -0.4808  0.4826
  396MPD2    C1 5967   3.573   2.970  17.045 -0.5240 -1.2911  0.0459
  396MPD2    C2 5968   3.656   3.079  17.016  0.1162  0.4452  0.8197
  396MPD2    C3 5969   3.603   3.186  16.953  0.5947 -0.5055 -0.1251
  396MPD2    C4 5970   3.471   3.195  16.916  0.1077  0.0039 -0.0836
  396MPD2    C5 5971   3.390   3.089  16.953  0.1746  0.5992 -0.2361
  396MPD2     H 5972   3.763   3.065  17.027 -0.1832 -0.7898  2.0844
  396MPD2    H1 5973   3.437   3.282  16.861  0.4443 -1.3003 -2.3226
  396MPD2    H2 5974   3.375   2.898  17.043 -1.3464  0.2888 -1.3991
  396MPD2    H3 5975   3.284   3.091  16.932  0.1864  0.3531 -0.3169
  396MPD2     N 5976   3.693   3.285  16.906 -0.0455 -0.2750 -0.0308
  396MPD2    H5 5977   3.789   3.260  16.927  0.5849  2.3054  0.0984
  396MPD2    N1 5978   3.608   2.846  17.104 -0.1804 -0.0625  0.4245
  396MPD2    H7 5979   3.545   2.767  17.111 -1.0521  0.6786  0.8628
  397TMC3    C1 5980   3.762   2.686  17.192  0.5087  0.2829 -0.5807
  397TMC3    C2 5981   3.739   2.599  17.089  0.0220  0.0151  0.3381
  397TMC3    C3 5982   3.841   2.528  17.040  0.6533 -0.1360  0.1250
  397TMC3    C4 5983   3.880   2.669  17.262  0.3564  0.3533 -0.4534
  397TMC3    C5 5984   3.976   2.592  17.208  0.4201 -0.0742 -0.3793
  397TMC3    C6 5985   3.959   2.520  17.093  0.9029 -0.8533  0.3526
  397TMC3     C 5986   3.729   2.824  17.165  0.1973  0.4469 -0.0990
  397TMC3     O 5987   3.813   2.901  17.211  0.2982  0.4660 -0.5411
  397TMC3     H 5988   3.646   2.607  17.034  0.5732 -0.0404 -0.6008
  397TMC3    H1 5989   3.889   2.720  17.357  3.0017  0.2706 -0.6781
  397TMC3    H2 5990   4.027   2.452  17.043  0.3153 -1.7333  0.7666
  397TMC3    C7 5991   4.088   2.558  17.294  0.1717 -0.4310  0.4244
  397TMC3    C8 5992   3.822   2.481  16.902  0.3982  0.1174  0.7504
  397TMC3    O1 5993   4.154   2.460  17.259 -1.1660 -0.3945 -0.0615
  397TMC3    O2 5994   3.707   2.444  16.878 -0.4181  0.0577 -0.2135
  398MPD2     C 5995   2.375   4.112  17.696  0.1562  0.2457 -0.3458
  398MPD2    C1 5996   2.389   4.036   0.070 -0.3717 -0.5073  0.5357
  398MPD2    C2 5997   2.373   4.094   0.198 -0.7667 -0.4186  0.3877
  398MPD2    C3 5998   2.339   4.227   0.202 -0.6384  0.5433 -0.0490
  398MPD2    C4 5999   2.325   4.299   0.087  0.0425 -0.1287  0.0133
  398MPD2    C5 6000   2.345   4.244  17.704 -0.2877 -0.4168 -0.8260
  398MPD2     H 6001   2.388   4.038   0.289  0.0312  2.6065  2.1419
  398MPD2    H1 6002   2.288   4.401   0.092 -2.0828 -0.9069  0.2187
  398MPD2    H2 6003   2.402   4.068  17.601  1.1311 -2.0541  0.9845
  398MPD2    H3 6004   2.335   4.298  17.611 -0.1757  0.6650 -0.2043
  398MPD2     N 6005   2.317   4.287   0.328 -0.5517 -0.2196  0.2962
  398MPD2    H5 6006   2.336   4.230   0.410  2.4317 -0.3534 -0.4769
  398MPD2    N1 6007   2.407   3.900   0.064  0.0407 -0.8412 -0.0468
  398MPD2    H7 6008   2.431   3.849   0.148  2.0651  1.5383  0.8255
  399TMC3    C1 6009   2.406   3.687  17.695  0.3052 -0.1240 -0.4411
  399TMC3    C2 6010   2.518   3.651   0.029  0.6200  0.2094  0.4558
  399TMC3    C3 6011   2.547   3.514   0.036  0.9093 -0.0885  0.6414
  399TMC3    C4 6012   2.322   3.601  17.633 -0.1401  0.5012  0.1268
  399TMC3    C5 6013   2.357   3.467  17.654 -0.2926  0.0755  0.0144
  399TMC3    C6 6014   2.471   3.425  17.713 -0.1313 -0.1194  0.2593
  399TMC3     C 6015   2.370   3.829  17.690  0.1705  0.4155 -0.1890
  399TMC3     O 6016   2.294   3.861  17.597  0.3777 -0.0633 -0.1361
  399TMC3     H 6017   2.582   3.729   0.066 -1.1489  1.4207  0.9576
  399TMC3    H1 6018   2.229   3.638  17.594 -0.7728  0.4079  1.5424
  399TMC3    H2 6019   2.488   3.319  17.730  0.7818  0.1901  1.2910
  399TMC3    C7 6020   2.266   3.360  17.626 -0.1317  0.3641  0.3846
  399TMC3    C8 6021   2.659   3.457   0.105 -0.2785  0.1398  0.3762
  399TMC3    O1 6022   2.270   3.263  17.698  0.5537  0.1849  0.3480
  399TMC3    O2 6023   2.692   3.346   0.072  0.3232  0.2270  0.1276
  400TMC3    C1 6024   1.171   2.474  16.990 -0.2206 -0.0898  0.0131
  400TMC3    C2 6025   1.032   2.491  16.966  0.0521 -0.2497 -0.2232
  400TMC3    C3 6026   0.988   2.614  16.933  0.6489 -0.5602 -0.0234
  400TMC3    C4 6027   1.263   2.575  16.967 -0.0656  0.1161  0.5137
  400TMC3    C5 6028   1.212   2.696  16.927  0.1080 -0.1779  0.1221
  400TMC3    C6 6029   1.074   2.719  16.924 -0.6023 -0.5174 -1.0910
  400TMC3     C 6030   1.211   2.375  17.096 -0.0771  0.2586  0.5105
  400TMC3     O 6031   1.115   2.329  17.154  0.2652  0.2138  0.2996
  400TMC3     H 6032   0.963   2.409  16.982 -1.4071  1.6527  3.2104
  400TMC3    H1 6033   1.370   2.556  16.967 -0.0940 -0.0519 -0.1567
  400TMC3    H2 6034   1.038   2.820  16.916  1.0706  0.2490  1.2328
  400TMC3    C7 6035   1.300   2.798  16.896 -0.0345  0.0282  0.2691
  400TMC3    C8 6036   0.854   2.636  16.890 -0.5766  0.1676 -0.0984
  400TMC3    O1 6037   1.412   2.751  16.912  0.1717 -0.3679  0.6794
  400TMC3    O2 6038   0.825   2.754  16.879  0.3736  0.2745  0.0112
  401MPD2     C 6039   3.320   1.203   0.599  0.6206 -0.1888  0.1461
  401MPD2    C1 6040   3.396   1.224   0.714  0.0826  0.3145 -0.2281
  401MPD2    C2 6041   3.426   1.109   0.783 -0.4485  0.6168 -0.0566
  401MPD2    C3 6042   3.391   0.983   0.743  0.3784 -0.2558 -0.3369
  401MPD2    C4 6043   3.305   0.967   0.634  0.7628  0.6784 -0.3976
  401MPD2    C5 6044   3.267   1.079   0.567 -0.4775 -0.6208 -0.1646
  401MPD2     H 6045   3.488   1.114   0.872 -1.8299 -0.4161  0.9593
  401MPD2    H1 6046   3.258   0.871   0.620  2.2460  0.3412 -3.0152
  401MPD2    H2 6047   3.315   1.282   0.524  0.6169 -1.4622 -1.1861
  401MPD2    H3 6048   3.220   1.070   0.470 -1.4698 -0.3886  0.2967
  401MPD2     N 6049   3.432   0.875   0.824 -0.0754 -0.1586  0.4873
  401MPD2    H5 6050   3.501   0.899   0.895  1.2360  1.5530 -1.3954
  401MPD2    N1 6051   3.477   1.341   0.737  0.0814  0.6535 -0.5628
  401MPD2    H7 6052   3.537   1.332   0.818  0.4942  1.0954 -0.8208
  402TMC3    C1 6053   3.458   0.664   0.913 -0.2075  0.3813  0.0600
  402TMC3    C2 6054   3.480   0.729   1.032  0.1174  0.0943 -0.4039
  402TMC3    C3 6055   3.575   0.673   1.105  0.2279  0.1620 -0.0072
  402TMC3    C4 6056   3.524   0.550   0.865 -0.0510 -0.0420  0.3606
  402TMC3    C5 6057   3.624   0.511   0.945  0.2513 -0.2947  0.6002
  402TMC3    C6 6058   3.643   0.561   1.069  0.3025  0.2038 -0.1873
  402TMC3     C 6059   3.392   0.742   0.811  0.8017 -0.0202  0.2871
  402TMC3     O 6060   3.336   0.681   0.723 -0.7277 -0.0851  0.6562
  402TMC3     H 6061   3.423   0.817   1.060 -0.1608  0.5032 -2.2926
  402TMC3    H1 6062   3.521   0.520   0.761  0.7363  0.7895  0.1038
  402TMC3    H2 6063   3.702   0.518   1.149 -1.0175 -1.8090 -0.3029
  402TMC3    C7 6064   3.734   0.440   0.884  0.5122  0.8016  0.1792
  402TMC3    C8 6065   3.663   0.778   1.151  0.4819 -0.2706  0.3081
  402TMC3    O1 6066   3.707   0.351   0.806  0.2465 -0.0277  1.0341
  402TMC3    O2 6067   3.777   0.748   1.135  0.0762  0.4362 -0.2373
  403MPD2     C 6068   2.071   3.890  13.229  0.2101  0.4602 -0.2886
  403MPD2    C1 6069   2.162   3.903  13.327 -0.5192  0.7072  1.3343
  403MPD2    C2 6070   2.248   4.011  13.332 -0.1037 -0.9304 -0.6003
  403MPD2    C3 6071   2.230   4.117  13.241 -0.2641  0.1474  0.1419
  403MPD2    C4 6072   2.133   4.100  13.150  0.6383  0.1397  0.2418
  403MPD2    C5 6073   2.051   3.990  13.143 -0.2968 -0.5124  0.3257
  403MPD2     H 6074   2.319   4.019  13.413  1.3109 -1.7729 -1.7595
  403MPD2    H1 6075   2.121   4.182  13.080  0.4942  0.0972  0.2172
  403MPD2    H2 6076   2.003   3.805  13.221  0.8837 -0.0170 -0.9697
  403MPD2    H3 6077   1.979   3.988  13.062  0.5711  1.1692 -0.5125
  403MPD2     N 6078   2.316   4.227  13.256  0.2263 -0.3165  0.1157
  403MPD2    H5 6079   2.382   4.216  13.333 -0.2371 -0.9951  0.4167
  403MPD2    N1 6080   2.175   3.786  13.407  0.3659 -0.1267  0.2025
  403MPD2    H7 6081   2.101   3.717  13.395 -0.0636  0.0787  1.7307
  404TMC3    C1 6082   2.226   3.687  13.619  0.5461  0.1549 -0.5660
  404TMC3    C2 6083   2.309   3.686  13.726  0.1991 -0.4114 -0.0944
  404TMC3    C3 6084   2.284   3.614  13.837 -0.7470 -0.2241 -0.4284
  404TMC3    C4 6085   2.102   3.622  13.622  0.6605 -0.7009  0.1561
  404TMC3    C5 6086   2.080   3.544  13.737  0.2694 -0.1112 -0.2957
  404TMC3    C6 6087   2.173   3.540  13.838  0.1939  0.2206  0.8452
  404TMC3     C 6088   2.268   3.774  13.509  0.3428  0.2096 -0.5591
  404TMC3     O 6089   2.375   3.839  13.526  0.2919  0.0463  0.5002
  404TMC3     H 6090   2.405   3.737  13.725 -0.0183 -0.0209 -0.7931
  404TMC3    H1 6091   2.026   3.653  13.551  1.5962 -0.2857 -0.6611
  404TMC3    H2 6092   2.150   3.478  13.924  1.5355 -0.0346  1.0087
  404TMC3    C7 6093   1.947   3.490  13.765  0.2613  0.4664 -0.4925
  404TMC3    C8 6094   2.378   3.613  13.953 -0.8889 -0.6102 -0.6212
  404TMC3    O1 6095   1.924   3.431  13.873 -0.0595  0.1356 -0.0756
  404TMC3    O2 6096   2.488   3.671  13.944 -0.4945 -0.4797 -0.5340
  405MPD2     C 6097   2.613   0.095  14.388  0.1233  0.2804  0.2771
  405MPD2    C1 6098   2.520   0.010  14.335  0.5799 -0.0578 -0.2342
  405MPD2    C2 6099   2.402   0.068  14.288 -0.2260 -0.4623 -0.2514
  405MPD2    C3 6100   2.373   0.204  14.303 -0.1696  0.6702 -0.8955
  405MPD2    C4 6101   2.470   0.287  14.355 -0.1834 -0.4901  0.1283
  405MPD2    C5 6102   2.590   0.231  14.395  0.3875  0.0311 -0.4257
  405MPD2     H 6103   2.326   4.731  14.263 -0.7695  0.4011 -1.1060
  405MPD2    H1 6104   2.442   0.387  14.387  0.1313 -0.1968 -0.5145
  405MPD2    H2 6105   2.697   0.057  14.445 -0.7950 -0.5159  1.1163
  405MPD2    H3 6106   2.670   0.291  14.437  0.0928  0.3312 -0.2918
  405MPD2     N 6107   2.234   0.242  14.295 -0.3905  0.2513  0.1206
  405MPD2    H5 6108   2.172   0.188  14.235  0.1828 -0.8731  0.5322
  405MPD2    N1 6109   2.544   4.612  14.338 -0.0483  0.2080  0.2435
  405MPD2    H7 6110   2.626   4.586  14.392  0.6462  1.0373 -0.4094
  406TMC3    C1 6111   1.813   0.424  14.381 -0.5083  0.0840 -0.6151
  406TMC3    C2 6112   1.759   0.298  14.390 -0.2929 -0.3457 -0.7559
  406TMC3    C3 6113   1.837   0.186  14.400  0.0476  0.0568  0.1321
  406TMC3    C4 6114   1.949   0.440  14.363  0.2367  0.0190 -0.2301
  406TMC3    C5 6115   2.033   0.331  14.365  0.0489 -0.6471  0.0844
  406TMC3    C6 6116   1.980   0.205  14.390 -0.4540 -0.3078  0.1208
  406TMC3     C 6117   1.742   0.540  14.425  0.5041  0.2161 -0.0565
  406TMC3     O 6118   1.781   0.655  14.397  0.2638 -0.6395  0.2131
  406TMC3     H 6119   1.652   0.287  14.373  0.0774 -1.9613 -1.9546
  406TMC3    H1 6120   2.001   0.530  14.331  1.6710 -0.0771  1.7682
  406TMC3    H2 6121   2.039   0.116  14.407 -0.0170  0.2675  1.6340
  406TMC3    C7 6122   2.178   0.352  14.354 -0.4943 -0.6341 -0.2296
  406TMC3    C8 6123   1.776   0.056  14.382  0.2223  0.4462 -0.0751
  406TMC3    O1 6124   2.224   0.435  14.430 -0.0745 -0.2880  0.1922
  406TMC3    O2 6125   1.665   0.022  14.424  0.5322 -0.2162 -0.8478
  407MPD2     C 6126   4.211   1.787  10.119  0.5849 -0.2536 -0.5556
  407MPD2    C1 6127   4.210   1.892  10.030  0.6034 -0.0213  0.4782
  407MPD2    C2 6128   4.287   2.000  10.058 -0.4461 -0.0016  0.0876
  407MPD2    C3 6129   4.377   1.998  10.163  0.2422 -0.3945  0.9357
  407MPD2    C4 6130   4.380   1.885  10.236 -0.0716  0.4715  0.5172
  407MPD2    C5 6131   4.302   1.776  10.215 -0.4860  0.1063  0.2336
  407MPD2     H 6132   4.291   2.086   9.993 -1.0021  0.9628  1.3439
  407MPD2    H1 6133   4.456   1.871  10.313  3.3160  2.5168 -2.4697
  407MPD2    H2 6134   4.166   1.693  10.092  0.0912 -0.0375 -0.4734
  407MPD2    H3 6135   4.321   1.691  10.279 -0.1614 -1.5570 -2.0624
  407MPD2     N 6136   4.465   2.102  10.199 -0.6656  0.3215  0.6299
  407MPD2    H5 6137   4.529   2.089  10.277  0.9889 -0.8470 -0.9240
  407MPD2    N1 6138   4.139   1.888   9.905  0.0965 -0.1659 -0.3976
  407MPD2    H7 6139   4.130   1.977   9.857  0.2944 -0.4693 -0.9900
  408TMC3    C1 6140   4.008   1.795   9.719 -0.2781 -0.5894  0.1597
  408TMC3    C2 6141   4.043   1.899   9.637 -0.2303  0.2815  0.5524
  408TMC3    C3 6142   3.983   1.911   9.515 -0.4319  1.1301  0.1137
  408TMC3    C4 6143   3.897   1.729   9.693  0.1395  1.0162 -0.5151
  408TMC3    C5 6144   3.837   1.739   9.569 -0.0978 -0.1310 -0.5193
  408TMC3    C6 6145   3.876   1.834   9.474  0.1265  0.0655  0.3276
  408TMC3     C 6146   4.080   1.780   9.848  0.0828 -0.2745  0.2289
  408TMC3     O 6147   4.073   1.664   9.885 -0.1570 -0.1085 -0.1148
  408TMC3     H 6148   4.136   1.950   9.659  0.1398  0.3510 -1.1603
  408TMC3    H1 6149   3.867   1.650   9.761  1.1294 -0.4454 -1.7856
  408TMC3    H2 6150   3.844   1.841   9.371  0.7704  1.0823  0.1902
  408TMC3    C7 6151   3.704   1.691   9.549 -0.1824 -0.1653  0.6394
  408TMC3    C8 6152   4.025   2.014   9.428 -0.8109  0.1097 -0.6686
  408TMC3    O1 6153   3.669   1.704   9.433  0.4265  0.4948  0.0015
  408TMC3    O2 6154   4.001   2.005   9.311  0.1391 -0.2992  0.2237
  409MPD2     C 6155   4.608   2.167  17.569  0.9110 -0.2799  0.2118
  409MPD2    C1 6156   4.730   2.227  17.594  1.4363 -0.4299 -0.0105
  409MPD2    C2 6157   0.018   2.350  17.537  0.2238  0.1318  0.6293
  409MPD2    C3 6158   4.663   2.424  17.459 -0.5769  0.0448 -0.6145
  409MPD2    C4 6159   4.539   2.364  17.444 -0.4509  0.4267 -0.5348
  409MPD2    C5 6160   4.523   2.237  17.490 -0.5205 -0.1754  0.9107
  409MPD2     H 6161   0.116   2.396  17.546 -0.3433  1.6025 -0.6105
  409MPD2    H1 6162   4.461   2.408  17.382 -1.8947  1.4871  2.0335
  409MPD2    H2 6163   4.586   2.071  17.615  3.0269 -0.8147  0.1437
  409MPD2    H3 6164   4.430   2.187  17.464  0.9707 -1.3927 -2.0183
  409MPD2     N 6165   4.685   2.552  17.413  0.3266  0.0322 -0.8189
  409MPD2    H5 6166   4.626   2.583  17.336 -0.0764  0.3079 -0.4001
  409MPD2    N1 6167   0.105   2.156  17.652  0.3440  0.0900 -0.2947
  409MPD2    H7 6168   0.195   2.203  17.653 -0.6148  1.9043  0.2982
  410TMC3    C1 6169   0.059   2.764  17.372 -0.0301 -0.1232  0.2509
  410TMC3    C2 6170   0.149   2.851  17.428 -0.0082 -0.5795  0.6521
  410TMC3    C3 6171   0.206   2.940  17.349  0.1206  0.6316 -0.1870
  410TMC3    C4 6172   0.041   2.748  17.232 -0.0510 -0.6141  0.2500
  410TMC3    C5 6173   0.109   2.839  17.152  0.0410  0.4305 -0.1318
  410TMC3    C6 6174   0.189   2.936  17.214  1.0633  0.2909 -0.3494
  410TMC3     C 6175   0.052   2.641  17.452  0.5628  0.0586  0.4016
  410TMC3     O 6176   0.138   2.627  17.538  0.2778 -0.2069  0.6175
  410TMC3     H 6177   0.161   2.866  17.534 -1.7137 -2.8293  1.1630
  410TMC3    H1 6178   0.003   2.658  17.186 -2.2800 -0.0728  1.0282
  410TMC3    H2 6179   0.244   3.002  17.148  1.9903  0.2491  0.3840
  410TMC3    C7 6180   0.111   2.818  17.014  0.5192  0.4342 -0.8018
  410TMC3    C8 6181   0.351   2.918  17.372 -0.7786  0.1997 -0.9116
  410TMC3    O1 6182   0.064   2.712  16.981  0.1020  0.1255 -0.3004
  410TMC3    O2 6183   0.437   2.986  17.319 -0.0827  0.0293  0.3630
  411MPD2     C 6184   0.050   2.620  14.671  0.3333  0.3377  0.4147
  411MPD2    C1 6185   4.678   2.703  14.694 -0.0025 -0.4030  0.2698
  411MPD2    C2 6186   4.552   2.654  14.689 -1.3197 -0.4713  0.8745
  411MPD2    C3 6187   4.526   2.522  14.654  0.5623 -0.3161 -0.3506
  411MPD2    C4 6188   4.635   2.438  14.649  0.7462  0.0415 -0.1526
  411MPD2    C5 6189   0.028   2.488  14.652  0.5371 -0.0828  0.1595
  411MPD2     H 6190   4.465   2.718  14.703 -0.0367  1.4221  0.1497
  411MPD2    H1 6191   4.625   2.336  14.613 -2.5466  0.6932 -1.1547
  411MPD2    H2 6192   0.151   2.650  14.693 -0.7352  2.4726  2.4449
  411MPD2    H3 6193   0.114   2.421  14.650  0.2271 -0.4466 -1.0978
  411MPD2     N 6194   4.397   2.471  14.652 -0.8925  0.2474 -0.0784
  411MPD2    H5 6195   4.386   2.374  14.626 -0.0642  0.3097 -0.6585
  411MPD2    N1 6196   4.688   2.838  14.731 -0.7979  0.0698 -0.0761
  411MPD2    H7 6197   4.607   2.886  14.771 -0.5328  1.1760 -0.8738
  412TMC3    C1 6198   4.171   2.454  14.617  0.6513  0.2588 -0.3870
  412TMC3    C2 6199   4.064   2.504  14.544  0.4902 -0.6726  0.0132
  412TMC3    C3 6200   3.971   2.413  14.499 -0.3297 -0.8060  0.8925
  412TMC3    C4 6201   4.182   2.321  14.636 -0.1867 -0.5767  0.6315
  412TMC3    C5 6202   4.086   2.234  14.592  0.8111  0.2430 -0.3177
  412TMC3    C6 6203   3.979   2.280  14.525 -0.1619  0.3574  0.3087
  412TMC3     C 6204   4.277   2.541  14.658 -0.2122 -0.3798  0.4279
  412TMC3     O 6205   4.254   2.657  14.688 -0.5091  0.6567 -0.6223
  412TMC3     H 6206   4.064   2.608  14.514 -1.3040 -0.8949 -0.7823
  412TMC3    H1 6207   4.264   2.271  14.687  0.1370  0.4340  1.1078
  412TMC3    H2 6208   3.903   2.216  14.482 -0.2539 -0.1429  1.2143
  412TMC3    C7 6209   4.140   2.123  14.526 -0.2810 -0.2111  0.2606
  412TMC3    C8 6210   3.953   2.430  14.357  0.1819  0.4370 -0.4905
  412TMC3    O1 6211   4.217   2.056  14.594 -0.3499  0.6973  0.1609
  412TMC3    O2 6212   3.974   2.330  14.291 -0.2933  0.6330 -0.4507
  413MPD2     C 6213   1.555   0.832  15.390  0.2960  0.2114 -0.3415
  413MPD2    C1 6214   1.583   0.920  15.286 -0.3646  0.5927  0.0636
  413MPD2    C2 6215   1.682   0.884  15.199 -0.8337  0.2881  0.6292
  413MPD2    C3 6216   1.746   0.763  15.208 -0.0909  0.5479 -0.3201
  413MPD2    C4 6217   1.728   0.680  15.314  0.2022  0.7620 -0.1995
  413MPD2    C5 6218   1.626   0.713  15.403  1.3910 -0.9824 -0.1088
  413MPD2     H 6219   1.703   0.954  15.120 -0.2287 -0.3164  0.2614
  413MPD2    H1 6220   1.777   0.585  15.332  1.3257  1.3271 -0.2645
  413MPD2    H2 6221   1.479   0.846  15.467  0.7638 -1.6078  0.4509
  413MPD2    H3 6222   1.601   0.644  15.483  0.9086 -2.0765 -1.2109
  413MPD2     N 6223   1.839   0.725  15.108 -0.3879 -0.1834  0.0903
  413MPD2    H5 6224   1.868   0.797  15.043 -0.3136 -0.5746 -0.3041
  413MPD2    N1 6225   1.519   1.049  15.269  0.6139 -0.1562  0.0579
  413MPD2    H7 6226   1.546   1.106  15.189  1.0628  0.1401  0.4177
  414TMC3    C1 6227   1.968   0.586  14.967 -0.3884  0.5664  0.6125
  414TMC3    C2 6228   1.930   0.499  14.874  0.2253  0.5375  0.5486
  414TMC3    C3 6229   2.027   0.474  14.778  0.5810  0.5237 -0.2051
  414TMC3    C4 6230   2.082   0.663  14.959 -0.0793  0.5089  0.3688
  414TMC3    C5 6231   2.166   0.651  14.847 -0.1349 -0.2640 -0.8484
  414TMC3    C6 6232   2.144   0.550  14.756  0.5009  0.4266 -0.0443
  414TMC3     C 6233   1.878   0.598  15.080  0.5424 -0.0693 -0.3467
  414TMC3     O 6234   1.827   0.495  15.121 -0.0539 -0.1397  0.2696
  414TMC3     H 6235   1.848   0.430  14.891  0.8332 -0.0023  1.3435
  414TMC3    H1 6236   2.107   0.734  15.037  1.0515  0.6394 -0.1069
  414TMC3    H2 6237   2.199   0.531  14.665  1.6803 -0.8717  0.9380
  414TMC3    C7 6238   2.293   0.713  14.849  0.5642 -0.1364  0.9080
  414TMC3    C8 6239   2.019   0.344  14.717  0.6076 -0.0196 -0.1350
  414TMC3    O1 6240   2.325   0.764  14.956  0.6661 -0.1837  0.1918
  414TMC3    O2 6241   1.907   0.297  14.725 -0.2537  0.0211 -0.5621
  415TMC3    C1 6242   2.157   4.507  10.680 -0.1219  0.0300  0.0435
  415TMC3    C2 6243   2.264   4.522  10.595  0.7646  0.4799 -0.0518
  415TMC3    C3 6244   2.258   4.636  10.519  0.4338  0.3673 -0.0093
  415TMC3    C4 6245   2.050   4.588  10.683 -0.6917  0.0145  0.6607
  415TMC3    C5 6246   2.051   4.701  10.609 -0.0417 -0.5123 -0.4270
  415TMC3    C6 6247   2.158   4.727  10.531  0.4524 -0.6425  0.2059
  415TMC3     C 6248   2.135   4.384  10.757  0.9989  0.1166 -0.2115
  415TMC3     O 6249   2.061   4.394  10.851 -0.5506 -0.0014 -0.1937
  415TMC3     H 6250   2.353   4.464  10.619 -0.6295 -2.4110 -1.7814
  415TMC3    H1 6251   1.971   4.567  10.755 -0.5384 -1.8419  0.2735
  415TMC3    H2 6252   2.180   0.091  10.494 -1.1330 -0.7065 -0.8967
  415TMC3    C7 6253   1.931   0.047  10.605 -0.6802 -0.5941  0.7370
  415TMC3    C8 6254   2.350   4.646  10.410  0.0505  0.7286 -0.5135
  415TMC3    O1 6255   1.951   0.149  10.544 -0.1003  0.1082 -0.5920
  415TMC3    O2 6256   2.336   0.010  10.343 -0.1920  0.1462 -0.5206
  416MPD2     C 6257   3.663   2.534  11.537  0.0966 -0.0259  0.5212
  416MPD2    C1 6258   3.541   2.496  11.592  0.1252 -0.2721 -0.3869
  416MPD2    C2 6259   3.478   2.382  11.543  0.1425  0.6489 -0.6225
  416MPD2    C3 6260   3.535   2.320  11.436 -0.7237  0.1362  0.5780
  416MPD2    C4 6261   3.652   2.372  11.380  0.5669 -1.1390 -0.5167
  416MPD2    C5 6262   3.724   2.476  11.429 -0.4659 -0.2348 -0.2093
  416MPD2     H 6263   3.386   2.345  11.586  1.3807  0.2331  1.6337
  416MPD2    H1 6264   3.688   2.337  11.284  2.7647  2.8447 -1.1468
  416MPD2    H2 6265   3.731   2.611  11.573  0.2356 -0.5797  1.4371
  416MPD2    H3 6266   3.819   2.510  11.390  0.1081 -0.5335  0.9519
  416MPD2     N 6267   3.471   2.197  11.388  0.1057  0.2452 -0.8624
  416MPD2    H5 6268   3.391   2.169  11.444  0.9128 -0.8578 -0.2647
  416MPD2    N1 6269   3.482   2.574  11.691 -0.5759 -0.6582 -0.3139
  416MPD2    H7 6270   3.397   2.540  11.735 -1.4161  1.2999 -0.4402
  417TMC3    C1 6271   3.456   2.731  11.865 -0.4756 -0.2646 -0.1000
  417TMC3    C2 6272   3.520   2.781  11.982  0.4016 -0.0100  0.0768
  417TMC3    C3 6273   3.445   2.849  12.075 -0.0276  0.4360  0.1372
  417TMC3    C4 6274   3.327   2.760  11.833  0.2835  0.6104  0.2414
  417TMC3    C5 6275   3.253   2.813  11.938  0.4260  0.2302  0.5485
  417TMC3    C6 6276   3.311   2.854  12.056 -0.3566 -0.3072 -0.3070
  417TMC3     C 6277   3.548   2.668  11.773  0.2793  0.1283 -0.0685
  417TMC3     O 6278   3.664   2.697  11.781  0.2334 -0.2617 -0.1541
  417TMC3     H 6279   3.627   2.768  11.984  0.7232  2.6682  0.3953
  417TMC3    H1 6280   3.287   2.759  11.733 -0.9244  0.5248  0.7252
  417TMC3    H2 6281   3.241   2.897  12.127 -0.3563  1.8284 -1.5925
  417TMC3    C7 6282   3.139   2.879  11.888  0.2444 -0.2027  0.1990
  417TMC3    C8 6283   3.504   2.893  12.192  0.7301  0.6029  0.0683
  417TMC3    O1 6284   3.131   3.003  11.894  0.1488  0.3632 -0.1796
  417TMC3    O2 6285   3.426   2.935  12.277  0.0473  0.2295 -0.2909
  418TMC3    C1 6286   2.255   4.625   0.638  0.2352  0.1551  0.0670
  418TMC3    C2 6287   2.231   4.575   0.517  0.4763 -0.5553  0.0836
  418TMC3    C3 6288   2.267   4.450   0.492  0.6406 -0.4346 -0.1066
  418TMC3    C4 6289   2.293   4.548   0.739  0.3154 -0.1119  0.2525
  418TMC3    C5 6290   2.318   4.420   0.714  0.7341 -0.1725 -0.5459
  418TMC3    C6 6291   2.303   4.365   0.592 -0.1256 -0.5907 -0.3126
  418TMC3     C 6292   2.317   0.018   0.643  0.3903  0.0981  1.0861
  418TMC3     O 6293   2.399   0.033   0.738 -0.0249  0.0842  0.4258
  418TMC3     H 6294   2.202   4.640   0.435 -2.5257  0.0976  1.6815
  418TMC3    H1 6295   2.324   4.585   0.836  0.6730 -0.9478  0.4572
  418TMC3    H2 6296   2.334   4.261   0.578  0.3941 -0.6861  1.5363
  418TMC3    C7 6297   2.393   4.349   0.807  0.1116 -0.4178 -0.4700
  418TMC3    C8 6298   2.262   4.408   0.357 -0.5430 -0.3813  0.0144
  418TMC3    O1 6299   2.485   4.292   0.759 -0.2393 -0.1897  0.0686
  418TMC3    O2 6300   2.208   4.485   0.281 -0.1443 -0.4165 -0.0954
  419MPD2     C 6301   0.488   2.852  12.420 -0.2880  0.5718  0.1433
  419MPD2    C1 6302   0.540   2.968  12.470 -0.9772 -0.3483  0.1284
  419MPD2    C2 6303   0.524   2.986  12.608  0.0271  0.4869  0.4881
  419MPD2    C3 6304   0.476   2.887  12.693 -0.3047 -0.4478 -0.0505
  419MPD2    C4 6305   0.420   2.775  12.637 -0.1520 -0.3764 -0.6550
  419MPD2    C5 6306   0.439   2.754  12.500  0.7554 -0.0132 -0.1449
  419MPD2     H 6307   0.565   3.076  12.653  1.0646  0.6873 -0.8441
  419MPD2    H1 6308   0.395   2.690  12.698 -1.2646  1.4944  1.4751
  419MPD2    H2 6309   0.494   2.829  12.315 -0.7644  1.9329 -0.1741
  419MPD2    H3 6310   0.408   2.659  12.456 -0.1915 -0.9946  2.6501
  419MPD2     N 6311   0.470   2.917  12.833 -0.4426  0.4117  0.2234
  419MPD2    H5 6312   0.462   3.011  12.869 -2.6110  0.3378 -0.0297
  419MPD2    N1 6313   0.620   3.053  12.403 -0.4177  0.2301  0.8875
  419MPD2    H7 6314   0.655   3.128  12.462  2.5982 -0.5276  0.0721
  420TMC3    C1 6315   0.477   2.879  13.062 -0.0859 -0.4850  0.6977
  420TMC3    C2 6316   0.387   2.979  13.081 -0.1813 -1.0044 -0.5856
  420TMC3    C3 6317   0.396   3.053  13.195 -0.4705 -0.3596 -0.1132
  420TMC3    C4 6318   0.568   2.843  13.156  0.0224  0.1268 -0.4559
  420TMC3    C5 6319   0.569   2.925  13.273 -0.3534 -0.4720  0.4776
  420TMC3    C6 6320   0.490   3.035  13.291  0.7201  0.4539  0.2391
  420TMC3     C 6321   0.487   2.815  12.928  0.5099 -0.4276 -0.4349
  420TMC3     O 6322   0.522   2.701  12.916  0.4706  0.0630  0.2656
  420TMC3     H 6323   0.314   2.997  13.003 -0.6784  0.8705  0.2881
  420TMC3    H1 6324   0.639   2.762  13.148 -0.2987 -0.3837  1.9205
  420TMC3    H2 6325   0.483   3.090  13.385 -1.3490  1.7561 -0.6869
  420TMC3    C7 6326   0.649   2.894  13.391  0.8852  0.2245  0.1745
  420TMC3    C8 6327   0.335   3.185  13.177  0.4280 -0.5119 -0.6529
  420TMC3    O1 6328   0.660   2.771  13.415 -0.1179 -0.5033 -0.6715
  420TMC3    O2 6329   0.243   3.198  13.095 -0.0755  0.2811  0.1496
  421TMC3    C1 6330   2.423   4.425  13.210 -0.1553 -0.4134 -0.0390
  421TMC3    C2 6331   2.408   4.544  13.279 -0.1572 -0.0211  0.2560
  421TMC3    C3 6332   2.507   4.583  13.361 -0.1455  0.1464 -0.1288
  421TMC3    C4 6333   2.538   4.347  13.219  0.1767 -0.3883  0.1365
  421TMC3    C5 6334   2.629   4.380  13.308 -0.3455 -0.2477 -0.1619
  421TMC3    C6 6335   2.617   4.502  13.367  0.7538 -0.6168  0.8377
  421TMC3     C 6336   2.304   4.350  13.190  0.5138 -0.1889  0.2612
  421TMC3     O 6337   2.224   4.383  13.104  0.8321  0.5108 -0.4423
  421TMC3     H 6338   2.320   4.605  13.259 -0.6499 -0.9551 -0.4285
  421TMC3    H1 6339   2.546   4.259  13.158 -1.8485  1.0634 -2.2407
  421TMC3    H2 6340   2.698   4.529  13.434  1.5374 -1.0262  0.0649
  421TMC3    C7 6341   2.728   4.293  13.367 -0.2337 -0.2175  0.4880
  421TMC3    C8 6342   2.485   4.683  13.468  1.4023 -0.5956  0.2688
  421TMC3    O1 6343   2.814   4.348  13.437  0.2882 -0.3315 -0.0696
  421TMC3    O2 6344   2.585   4.723  13.524  0.2612  0.0770  0.0766
  422TMC3    C1 6345   0.008   1.024  12.474  0.6360 -0.5828  0.3507
  422TMC3    C2 6346   4.723   1.127  12.564 -0.0580  0.2485 -0.3637
  422TMC3    C3 6347   4.624   1.117  12.659 -0.3769 -0.2267 -0.4318
  422TMC3    C4 6348   4.677   0.907  12.485  0.0057 -0.7283  0.3537
  422TMC3    C5 6349   4.572   0.903  12.573 -0.3859  0.0734 -0.6406
  422TMC3    C6 6350   4.545   1.007  12.655 -0.0700 -0.2844  0.9025
  422TMC3     C 6351   0.102   1.043  12.370 -0.8061 -0.8086 -0.3816
  422TMC3     O 6352   0.184   1.131  12.392  0.4539 -0.4643  0.3208
  422TMC3     H 6353   0.051   1.213  12.550  1.9735 -0.9666  1.3612
  422TMC3    H1 6354   4.692   0.821  12.420  1.1506 -0.2215 -0.0456
  422TMC3    H2 6355   4.457   1.003  12.717 -0.0505 -0.9736  0.8792
  422TMC3    C7 6356   4.503   0.776  12.583 -0.0979 -0.0045 -0.3511
  422TMC3    C8 6357   4.558   1.242  12.681 -0.3593  0.0205 -0.0617
  422TMC3    O1 6358   4.531   0.690  12.504  0.5272  0.4186 -0.2013
  422TMC3    O2 6359   4.438   1.237  12.694 -0.1595 -0.6711 -0.2957
  423MPD2     C 6360   0.943   1.570   0.864 -0.9731 -0.5604 -0.7496
  423MPD2    C1 6361   1.061   1.615   0.807 -0.3211 -0.2528  0.0720
  423MPD2    C2 6362   1.131   1.541   0.716 -0.2297  0.2624 -0.5736
  423MPD2    C3 6363   1.092   1.418   0.672 -0.1201  0.2802 -0.1155
  423MPD2    C4 6364   0.975   1.371   0.727  0.9964 -0.5647 -0.6508
  423MPD2    C5 6365   0.900   1.447   0.821 -0.7744  0.4583  0.8988
  423MPD2     H 6366   1.225   1.580   0.680 -1.1823  1.3900 -1.8451
  423MPD2    H1 6367   0.919   1.288   0.685  0.3252 -0.0212 -0.8406
  423MPD2    H2 6368   0.888   1.613   0.947 -0.0563  2.5442 -1.7844
  423MPD2    H3 6369   0.807   1.402   0.852 -0.5030 -1.4996 -1.0902
  423MPD2     N 6370   1.162   1.346   0.576 -0.8408 -0.3174 -0.0102
  423MPD2    H5 6371   1.127   1.252   0.562 -0.7213 -0.6562  2.1159
  423MPD2    N1 6372   1.121   1.742   0.832  0.4742  0.0727  0.3313
  423MPD2    H7 6373   1.212   1.762   0.792  0.4142 -2.8060 -1.2314
  424TMC3    C1 6374   1.179   1.934   0.934 -0.1176  0.2158  0.1724
  424TMC3    C2 6375   1.300   1.878   0.975 -0.5252  0.4694  0.1921
  424TMC3    C3 6376   1.405   1.957   1.002  0.0433 -0.7786  0.5724
  424TMC3    C4 6377   1.161   2.073   0.935  0.6843 -0.4227 -0.1843
  424TMC3    C5 6378   1.275   2.148   0.976 -0.8530 -0.3205 -0.0009
  424TMC3    C6 6379   1.392   2.095   1.007  0.3747 -0.3507 -0.7568
  424TMC3     C 6380   1.070   1.844   0.905 -0.1406 -0.1005  0.4042
  424TMC3     O 6381   0.960   1.887   0.939  0.3450 -0.0862  0.5278
  424TMC3     H 6382   1.312   1.771   0.972 -1.0131  0.4006  0.7283
  424TMC3    H1 6383   1.078   2.117   0.883 -2.6099 -2.1565  3.5594
  424TMC3    H2 6384   1.478   2.156   1.033 -0.6624  0.1633  1.4555
  424TMC3    C7 6385   1.283   2.287   0.935  0.1972 -0.5723  0.6335
  424TMC3    C8 6386   1.534   1.892   1.021 -0.2591  0.1726  0.4326
  424TMC3    O1 6387   1.391   2.320   0.885  0.2262 -0.1915  0.4715
  424TMC3    O2 6388   1.527   1.767   1.031  0.2129 -0.1408  0.2150
  425MPD2     C 6389   0.579   0.772  17.066  0.8901  0.1039  0.3868
  425MPD2    C1 6390   0.578   0.683  17.176 -0.7749 -0.0245 -0.4629
  425MPD2    C2 6391   0.484   0.706  17.276 -1.4125  0.3136  0.6507
  425MPD2    C3 6392   0.400   0.822  17.278  0.3560  0.2930  0.3297
  425MPD2    C4 6393   0.406   0.909  17.164  0.9190  0.3019 -0.0387
  425MPD2    C5 6394   0.493   0.883  17.062  0.2405  0.3149 -0.0488
  425MPD2     H 6395   0.477   0.638  17.361  1.6099 -0.5692  0.2104
  425MPD2    H1 6396   0.362   1.008  17.166 -2.5147 -1.2549  1.3294
  425MPD2    H2 6397   0.645   0.771  16.980 -1.9749  0.5304 -1.8068
  425MPD2    H3 6398   0.509   0.959  16.986 -0.6094 -0.7934 -1.3185
  425MPD2     N 6399   0.301   0.837  17.379 -0.2565  0.0757 -0.4151
  425MPD2    H5 6400   0.299   0.763  17.449 -0.5408  1.4778  1.0692
  425MPD2    N1 6401   0.673   0.577  17.180 -0.8416  0.0494 -0.4056
  425MPD2    H7 6402   0.741   0.560  17.107  0.0806 -2.3335  1.0032
  426TMC3    C1 6403   0.769   0.369  17.244  0.1692  0.0019 -0.4723
  426TMC3    C2 6404   0.818   0.334  17.123  1.2114 -0.1302  0.5304
  426TMC3    C3 6405   0.885   0.214  17.117  0.4712 -0.4587 -0.5767
  426TMC3    C4 6406   0.785   0.284  17.352  0.2622  0.6271 -0.9268
  426TMC3    C5 6407   0.831   0.157  17.337 -0.3644  0.2304  0.3112
  426TMC3    C6 6408   0.882   0.121  17.221 -0.6545  0.1168  0.5326
  426TMC3     C 6409   0.668   0.475  17.269 -0.0862 -0.3502 -0.4774
  426TMC3     O 6410   0.594   0.456  17.365  0.0647  0.2296  0.1560
  426TMC3     H 6411   0.803   0.383  17.027 -1.1048 -0.2030  0.8459
  426TMC3    H1 6412   0.790   0.331  17.450  0.5053 -2.7151  0.6803
  426TMC3    H2 6413   0.924   0.021  17.220 -0.1976  0.3111  0.1701
  426TMC3    C7 6414   0.808   0.063  17.445  0.1070 -0.1069 -0.5271
  426TMC3    C8 6415   0.944   0.166  16.990  0.1797  0.8604  1.2861
  426TMC3    O1 6416   0.882   4.703  17.464  0.0465  0.2891 -0.2562
  426TMC3    O2 6417   0.908   0.229  16.895  0.7855 -0.0870 -0.8458
  427MPD2     C 6418   3.996   3.292  14.857  0.0944  0.3492 -0.1909
  427MPD2    C1 6419   3.932   3.203  14.941  0.1795 -0.1718  0.1924
  427MPD2    C2 6420   3.795   3.216  14.962 -0.0004  0.8478  0.1645
  427MPD2    C3 6421   3.729   3.324  14.916  0.0140  0.3461  0.1750
  427MPD2    C4 6422   3.794   3.401  14.826  0.5247 -0.0301  0.7454
  427MPD2    C5 6423   3.924   3.387  14.797 -0.6855  0.2279  0.6500
  427MPD2     H 6424   3.748   3.143  15.027  1.4302 -1.3414 -1.2463
  427MPD2    H1 6425   3.745   3.486  14.780  0.8379  0.5278  1.4388
  427MPD2    H2 6426   4.100   3.279  14.828  0.3543  0.3338  0.7404
  427MPD2    H3 6427   3.960   3.453  14.719  1.3957 -0.3299  1.1353
  427MPD2     N 6428   3.590   3.346  14.943  0.4391 -0.0218 -0.4980
  427MPD2    H5 6429   3.563   3.441  14.918  0.7997 -0.2890 -1.9444
  427MPD2    N1 6430   3.992   3.083  14.995  0.0010 -0.2252 -0.3915
  427MPD2    H7 6431   3.943   3.039  15.073  1.6631 -2.3233 -0.5111
  428TMC3    C1 6432   4.144   2.949  15.087 -0.3249  0.4863  0.0311
  428TMC3    C2 6433   4.048   2.862  15.123 -0.7642 -0.3276  0.0508
  428TMC3    C3 6434   4.078   2.772  15.223  0.4484  0.2094 -0.6080
  428TMC3    C4 6435   4.267   2.945  15.148 -0.3078  0.2343  0.5351
  428TMC3    C5 6436   4.298   2.852  15.241  0.4758 -0.0824  0.2200
  428TMC3    C6 6437   4.206   2.760  15.280 -0.4772 -0.4666  0.0322
  428TMC3     C 6438   4.120   3.040  14.979 -0.0003  0.4184  0.1683
  428TMC3     O 6439   4.209   3.081  14.903  0.5206  0.5790  0.3659
  428TMC3     H 6440   3.957   2.855  15.065 -1.4589  2.1752  0.8341
  428TMC3    H1 6441   4.339   3.026  15.138 -0.5238  0.0457 -2.5536
  428TMC3    H2 6442   4.229   2.689  15.359  1.8784  0.6313  0.3321
  428TMC3    C7 6443   4.413   2.865  15.333 -1.4539 -0.3949 -0.3915
  428TMC3    C8 6444   3.979   2.680  15.260 -0.6733 -0.3898  0.4598
  428TMC3    O1 6445   4.385   2.866  15.451  0.0161 -0.3186 -0.0201
  428TMC3    O2 6446   4.008   2.581  15.319 -0.2521  0.0862  0.1924
  429MPD2     C 6447   0.827   3.417  17.596  0.1700  0.0101  0.4296
  429MPD2    C1 6448   0.940   3.357  17.551 -0.0078 -0.2625 -0.1881
  429MPD2    C2 6449   1.025   3.432  17.474  0.3136 -0.2525  0.1165
  429MPD2    C3 6450   1.009   3.561  17.438  0.3827  0.0422  0.2398
  429MPD2    C4 6451   0.893   3.627  17.484 -0.1898 -0.5869 -0.0024
  429MPD2    C5 6452   0.796   3.550  17.556 -0.5576  0.0200  0.0257
  429MPD2     H 6453   1.110   3.381  17.429  1.2284  0.1087  1.4359
  429MPD2    H1 6454   0.862   3.724  17.446 -0.0299  0.3583  2.2874
  429MPD2    H2 6455   0.760   3.376  17.671 -0.7313 -0.4997 -0.6437
  429MPD2    H3 6456   0.700   3.596  17.577  0.1103  1.3767  0.1075
  429MPD2     N 6457   1.101   3.622  17.347 -0.3911  0.0026  0.6356
  429MPD2    H5 6458   1.168   3.552  17.317 -1.2966 -0.6826  0.1971
  429MPD2    N1 6459   0.975   3.217  17.583  0.3886  0.3749 -0.1793
  429MPD2    H7 6460   1.062   3.183  17.544  0.4244  1.5894 -1.1298
  430TMC3    C1 6461   1.143   3.715  17.132 -0.0641 -1.0198 -0.6224
  430TMC3    C2 6462   1.082   3.784  17.033 -0.3721 -0.7018  0.2207
  430TMC3    C3 6463   1.095   3.744  16.908  0.5054 -0.6188 -0.1343
  430TMC3    C4 6464   1.223   3.607  17.108  0.4296  0.4649  0.5009
  430TMC3    C5 6465   1.237   3.574  16.979  0.2912  0.6657 -0.3570
  430TMC3    C6 6466   1.184   3.637  16.879  0.2999  0.4963 -0.0484
  430TMC3     C 6467   1.081   3.730  17.265 -0.5149  0.3059 -0.2544
  430TMC3     O 6468   0.995   3.811  17.278 -0.5069  0.1943 -0.1778
  430TMC3     H 6469   1.025   3.875  17.051  0.8237  0.1855 -0.4853
  430TMC3    H1 6470   1.294   3.560  17.174 -0.0162  1.2867  1.5570
  430TMC3    H2 6471   1.187   3.590  16.782  0.2068 -2.3860  1.3614
  430TMC3    C7 6472   1.230   3.435  16.963  0.3463 -0.4273  0.1562
  430TMC3    C8 6473   0.995   3.769  16.812  0.2554 -0.6798  0.0379
  430TMC3    O1 6474   1.159   3.369  17.042  0.4417 -0.3342  0.5752
  430TMC3    O2 6475   0.980   3.686  16.726  0.1184  0.3442  0.7259
  431MPD2     C 6476   1.238   3.109  12.909 -0.1785 -0.0256  0.0010
  431MPD2    C1 6477   1.248   3.231  12.844  0.4317  0.5952 -0.1310
  431MPD2    C2 6478   1.204   3.234  12.716  0.1784  0.2732  0.2746
  431MPD2    C3 6479   1.143   3.126  12.657  0.6980 -0.0364 -0.0450
  431MPD2    C4 6480   1.132   3.010  12.722 -0.1813 -0.0615  0.1454
  431MPD2    C5 6481   1.190   3.000  12.847 -0.8258 -0.3567 -0.2193
  431MPD2     H 6482   1.206   3.327  12.659 -0.8335  0.6434  0.8332
  431MPD2    H1 6483   1.089   2.922  12.676 -0.2078 -0.1750  0.3870
  431MPD2    H2 6484   1.272   3.093  13.011  0.7585 -1.6403 -0.5609
  431MPD2    H3 6485   1.167   2.913  12.908  1.1499 -0.5435  0.2771
  431MPD2     N 6486   1.075   3.133  12.535  0.2043  0.3864 -0.3238
  431MPD2    H5 6487   1.011   3.057  12.513 -1.0111  1.2131  0.3496
  431MPD2    N1 6488   1.304   3.335  12.912 -0.1901  0.5280 -0.3077
  431MPD2    H7 6489   1.331   3.314  13.008 -1.9065 -4.3768 -0.9071
  432TMC3    C1 6490   0.986   3.204  12.325 -0.1537 -0.6546 -0.0042
  432TMC3    C2 6491   1.009   3.249  12.201 -0.3628  0.5404  0.6631
  432TMC3    C3 6492   0.913   3.234  12.105 -0.4075  0.6713 -0.4839
  432TMC3    C4 6493   0.881   3.126  12.349  0.3881 -0.2580 -0.1093
  432TMC3    C5 6494   0.789   3.111  12.246  0.0991  0.5980 -0.0867
  432TMC3    C6 6495   0.799   3.160  12.119 -0.3046  0.8168  0.3209
  432TMC3     C 6496   1.083   3.227  12.433  0.5026  0.0031 -0.9916
  432TMC3     O 6497   1.154   3.327  12.421 -0.6509 -0.0016 -0.3923
  432TMC3     H 6498   1.102   3.299  12.178  1.2592 -2.3228  0.9941
  432TMC3    H1 6499   0.854   3.099  12.450 -2.6416  0.4138 -0.7320
  432TMC3    H2 6500   0.729   3.154  12.037 -1.3537  0.3784  1.2458
  432TMC3    C7 6501   0.669   3.033  12.275  0.1741  0.4042 -0.6101
  432TMC3    C8 6502   0.943   3.265  11.971  0.0465  0.0064 -0.1814
  432TMC3    O1 6503   0.632   2.955  12.189 -0.2082  0.1136 -0.7451
  432TMC3    O2 6504   0.863   3.312  11.892  0.2285 -0.2705 -0.0390
  433MPD2     C 6505   4.086   1.712  10.907  0.1390 -0.7867  0.3119
  433MPD2    C1 6506   4.213   1.765  10.905 -0.1608 -0.4753 -0.1695
  433MPD2    C2 6507   4.269   1.820  11.024 -0.1930  0.5598  1.1462
  433MPD2    C3 6508   4.202   1.810  11.142  0.2279  0.3254  0.3176
  433MPD2    C4 6509   4.071   1.757  11.143 -0.5881  0.8329 -0.3974
  433MPD2    C5 6510   4.016   1.717  11.028 -0.3111 -0.2247  0.1433
  433MPD2     H 6511   4.369   1.861  11.025  0.3416 -0.7125 -0.0071
  433MPD2    H1 6512   4.002   1.747  11.226  3.0335 -1.9557  2.2571
  433MPD2    H2 6513   4.041   1.680  10.814 -0.0586  1.3919 -0.3423
  433MPD2    H3 6514   3.920   1.668  11.038 -0.2700 -0.6667 -1.5981
  433MPD2     N 6515   4.268   1.853  11.253  0.2152  0.3539  0.8376
  433MPD2    H5 6516   4.351   1.907  11.235  0.1377 -0.8935 -3.3518
  433MPD2    N1 6517   4.283   1.754  10.780 -0.1433 -0.1457 -0.3871
  433MPD2    H7 6518   4.242   1.694  10.709 -0.8004 -1.2706  0.9394
  434TMC3    C1 6519   4.481   1.717  10.647 -0.4847  0.2545 -0.7519
  434TMC3    C2 6520   4.593   1.666  10.693  0.1895 -0.2514 -0.0970
  434TMC3    C3 6521   4.619   1.537  10.665  0.1961 -0.4576 -0.3227
  434TMC3    C4 6522   4.400   1.660  10.557  0.7905 -0.2859  0.1215
  434TMC3    C5 6523   4.415   1.525  10.537 -0.4664 -0.3621 -0.0686
  434TMC3    C6 6524   4.531   1.469  10.584 -0.7442 -0.4290  0.0304
  434TMC3     C 6525   4.411   1.797  10.753  0.1469 -0.0060 -0.7379
  434TMC3     O 6526   4.487   1.864  10.818 -0.1354  0.6172  0.0476
  434TMC3     H 6527   4.669   1.728  10.739 -2.2778  1.6464  1.4140
  434TMC3    H1 6528   4.304   1.702  10.527  0.5842 -0.5598  0.3928
  434TMC3    H2 6529   4.549   1.365  10.557  2.2959  0.0307  0.3153
  434TMC3    C7 6530   4.314   1.455  10.456 -0.2588 -0.1264 -0.3970
  434TMC3    C8 6531   4.723   1.469  10.741  0.1466 -0.6279  0.1644
  434TMC3    O1 6532   4.226   1.517  10.395  0.1933 -0.2190  0.0137
  434TMC3    O2 6533   0.080   1.532  10.790 -0.2158 -0.1283 -0.0236
  435MPD2     C 6534   2.107   1.759  15.433 -0.1770 -0.3174  0.2952
  435MPD2    C1 6535   2.047   1.753  15.563 -0.1592 -0.2558  0.2473
  435MPD2    C2 6536   2.105   1.666  15.655  0.1778  0.1921  0.5836
  435MPD2    C3 6537   2.230   1.602  15.628 -0.6588 -0.7218  0.9317
  435MPD2    C4 6538   2.283   1.613  15.501 -0.0463 -0.0432  0.0869
  435MPD2    C5 6539   2.225   1.690  15.406 -0.1728  0.6075  0.2522
  435MPD2     H 6540   2.064   1.660  15.756 -0.6059  2.7282  0.3974
  435MPD2    H1 6541   2.370   1.556  15.472  0.0890  0.6208 -0.8063
  435MPD2    H2 6542   2.066   1.821  15.354 -1.0955 -1.1173  0.1433
  435MPD2    H3 6543   2.261   1.677  15.304  2.2580 -1.7048  1.4154
  435MPD2     N 6544   2.296   1.533  15.735 -0.0129 -0.1736  0.4801
  435MPD2    H5 6545   2.257   1.538  15.828  1.1307  0.0652  0.9399
  435MPD2    N1 6546   1.934   1.832  15.601 -0.5067  0.2603 -0.3539
  435MPD2    H7 6547   1.892   1.822  15.693 -0.2148  1.8347 -0.0463
  436TMC3    C1 6548   1.638   2.047  15.786 -0.4063 -0.2080  0.6428
  436TMC3    C2 6549   1.719   1.959  15.716 -0.2683  0.0381  0.1355
  436TMC3    C3 6550   1.766   1.999  15.591 -0.2650 -0.4382  0.2397
  436TMC3    C4 6551   1.592   2.160  15.730 -1.0979  0.0386  0.3515
  436TMC3    C5 6552   1.639   2.204  15.609  0.1133 -0.9217 -0.7860
  436TMC3    C6 6553   1.730   2.123  15.545  0.5531  0.5288 -0.0132
  436TMC3     C 6554   1.642   2.035  15.936 -0.1327 -0.1826 -0.2759
  436TMC3     O 6555   1.743   1.983  15.976  0.6069  0.2110  0.0172
  436TMC3     H 6556   1.752   1.865  15.760 -1.2081 -1.7436 -2.9226
  436TMC3    H1 6557   1.539   2.234  15.790 -0.9164 -0.0133  0.5777
  436TMC3    H2 6558   1.763   2.163  15.450 -0.9508  1.3143 -0.1955
  436TMC3    C7 6559   1.572   2.311  15.548  0.0913 -0.1442 -0.4636
  436TMC3    C8 6560   1.880   1.931  15.525  0.3794  0.6394 -0.1666
  436TMC3    O1 6561   1.616   2.354  15.443  0.3034 -0.3695  0.0958
  436TMC3    O2 6562   1.918   1.988  15.425 -0.2731 -0.1875 -0.7266
  437TMC3    C1 6563   0.500   4.274  13.260  0.0077  0.3767 -0.4621
  437TMC3    C2 6564   0.376   4.334  13.271 -0.1372  0.3586  0.0167
  437TMC3    C3 6565   0.360   4.456  13.211  0.1148 -0.0501 -0.3452
  437TMC3    C4 6566   0.597   4.339  13.191 -0.1412  0.1635 -0.0898
  437TMC3    C5 6567   0.570   4.460  13.129 -0.1088 -0.1135 -0.2873
  437TMC3    C6 6568   0.456   4.533  13.139  0.1101 -0.2982 -0.0330
  437TMC3     C 6569   0.527   4.137  13.308  0.1251  0.1443  0.4064
  437TMC3     O 6570   0.640   4.091  13.298 -0.3146  0.1440  0.0677
  437TMC3     H 6571   0.296   4.301  13.336 -0.6939  1.8282  0.0886
  437TMC3    H1 6572   0.694   4.291  13.188 -0.3146 -0.1548 -0.6953
  437TMC3    H2 6573   0.431   4.630  13.099  1.2505 -0.4437 -1.0930
  437TMC3    C7 6574   0.674   4.547  13.078  0.2752  0.2340 -0.1945
  437TMC3    C8 6575   0.234   4.528  13.237  0.3148  0.8489  0.7632
  437TMC3    O1 6576   0.651   4.657  13.036  0.3306  0.3344 -0.5809
  437TMC3    O2 6577   0.240   4.651  13.232  0.0808 -0.3054 -0.2564
  438MPD2     C 6578   2.917   4.666  16.763  0.2658  0.0907  0.8254
  438MPD2    C1 6579   2.961   4.545  16.812 -0.2998  0.1438 -0.1866
  438MPD2    C2 6580   2.917   4.497  16.932 -0.9155  0.1365 -0.2312
  438MPD2    C3 6581   2.824   4.571  17.006  0.6926 -0.1544  0.1284
  438MPD2    C4 6582   2.784   4.694  16.961 -0.2459  0.1758  0.0935
  438MPD2    C5 6583   2.829   0.001  16.841  0.1632 -0.1728  0.1377
  438MPD2     H 6584   2.959   4.400  16.958 -1.8281 -0.7290 -2.0191
  438MPD2    H1 6585   2.708   0.019  17.011  0.4931 -1.4236  3.1689
  438MPD2    H2 6586   2.941   4.704  16.664  0.9649  0.9919  1.3511
  438MPD2    H3 6587   2.801   0.097  16.799  0.9831  0.3844  0.8635
  438MPD2     N 6588   2.757   4.533  17.124  0.2967 -1.0717  0.5292
  438MPD2    H5 6589   2.728   4.613  17.179  3.5073 -0.9464  2.0325
  438MPD2    N1 6590   3.049   4.458  16.747  0.2779  0.8170 -0.3246
  438MPD2    H7 6591   3.081   4.379  16.802 -1.1400  0.2329 -0.3219
  439TMC3    C1 6592   3.166   4.354  16.573  0.3983  0.1318 -0.7784
  439TMC3    C2 6593   3.165   4.308  16.444  0.2803  0.7753  0.5308
  439TMC3    C3 6594   3.240   4.197  16.416  0.5370  0.0727 -0.4406
  439TMC3    C4 6595   3.254   4.299  16.667 -0.6612  0.0066 -0.1048
  439TMC3    C5 6596   3.333   4.191  16.630  0.5476 -1.2580 -0.2826
  439TMC3    C6 6597   3.327   4.138  16.505 -0.1434  0.1278  0.0942
  439TMC3     C 6598   3.084   4.465  16.613 -1.0282 -1.0002 -0.1635
  439TMC3     O 6599   3.041   4.528  16.520  0.1949 -0.2837  0.5573
  439TMC3     H 6600   3.104   4.354  16.367  2.1361  1.6325 -0.4267
  439TMC3    H1 6601   3.272   4.340  16.765  0.3069  0.8326 -0.6223
  439TMC3    H2 6602   3.389   4.051  16.486  1.1325  0.9383  0.5936
  439TMC3    C7 6603   3.377   4.108  16.739 -0.9602  0.0852 -0.2057
  439TMC3    C8 6604   3.265   4.151  16.283 -0.0584  0.1317 -0.2629
  439TMC3    O1 6605   3.396   4.153  16.850 -0.0774 -0.3385 -0.0275
  439TMC3    O2 6606   3.331   4.050  16.268  0.6560 -0.2878  0.2271
  440MPD2     C 6607   1.278   0.066  15.192 -0.3002 -0.4984  0.0492
  440MPD2    C1 6608   1.364   0.122  15.092 -0.3022 -0.9117 -0.1331
  440MPD2    C2 6609   1.441   0.035  15.013  0.5136 -0.3221 -0.3507
  440MPD2    C3 6610   1.420   4.631  15.021  0.9031 -0.1636 -0.3300
  440MPD2    C4 6611   1.331   4.580  15.114  0.0316  0.4252 -0.5712
  440MPD2    C5 6612   1.269   4.664  15.202 -0.0123  0.1344 -0.0791
  440MPD2     H 6613   1.514   0.081  14.948  1.9289  0.1646  1.6035
  440MPD2    H1 6614   1.316   4.473  15.116 -1.0026  0.5870  0.4693
  440MPD2    H2 6615   1.210   0.127  15.250  2.1037  2.1435  0.1340
  440MPD2    H3 6616   1.220   4.612  15.283 -1.9416  1.7792 -0.1855
  440MPD2     N 6617   1.497   4.527  14.962  0.3183 -0.0853  0.1273
  440MPD2    H5 6618   1.489   4.432  14.996  2.8999 -1.4703 -3.0071
  440MPD2    N1 6619   1.380   0.262  15.081 -0.3204  0.2930  0.0821
  440MPD2    H7 6620   1.428   0.301  15.000 -1.1627  0.1967 -0.4629
  441TMC3    C1 6621   1.682   4.438  14.842 -0.4376  0.3428 -0.1157
  441TMC3    C2 6622   1.771   4.458  14.744  0.0734 -1.0231  0.1868
  441TMC3    C3 6623   1.880   4.372  14.738 -0.9077  0.3368 -0.2239
  441TMC3    C4 6624   1.719   4.355  14.951  0.5680 -0.1284 -0.1966
  441TMC3    C5 6625   1.827   4.268  14.933 -0.2166 -0.4455 -0.0203
  441TMC3    C6 6626   1.904   4.272  14.827 -0.4244 -0.5450  0.1343
  441TMC3     C 6627   1.590   4.555  14.859 -0.1840  0.4498  0.0305
  441TMC3     O 6628   1.612   4.659  14.800  0.8199  0.0627 -0.3774
  441TMC3     H 6629   1.746   4.527  14.665  0.0282 -1.2726 -0.0165
  441TMC3    H1 6630   1.673   4.365  15.048 -0.9760  0.9995 -1.0471
  441TMC3    H2 6631   1.979   4.196  14.810  0.4338  0.2613  0.3527
  441TMC3    C7 6632   1.903   4.237  15.060  0.0407 -0.0508  0.5490
  441TMC3    C8 6633   2.006   4.428  14.696  0.2731  0.5291 -0.6206
  441TMC3    O1 6634   1.859   4.299  15.152 -0.2723 -0.3106 -0.2358
  441TMC3    O2 6635   2.107   4.354  14.695  0.2138  0.0651 -0.8961
  442MPD2     C 6636   0.566   0.148  16.894 -0.1549 -0.0945  0.4563
  442MPD2    C1 6637   0.431   0.118  16.911  0.2669 -0.3217  0.1438
  442MPD2    C2 6638   0.385   4.724  16.880 -0.4371  0.1814  0.1432
  442MPD2    C3 6639   0.471   4.629  16.820  0.4757  0.7858 -0.4350
  442MPD2    C4 6640   0.604   4.659  16.819 -0.6057  0.5247 -0.3611
  442MPD2    C5 6641   0.653   0.047  16.847 -0.2903  0.0352 -0.4402
  442MPD2     H 6642   0.281   4.694  16.887 -0.2263 -0.3456  0.9688
  442MPD2    H1 6643   0.672   4.591  16.770 -2.6185 -1.6337 -0.1316
  442MPD2    H2 6644   0.600   0.251  16.901  0.3046 -0.1845 -0.4692
  442MPD2    H3 6645   0.755   0.061  16.814 -0.6941 -0.8891 -2.0637
  442MPD2     N 6646   0.416   4.506  16.773 -0.2459 -0.1690 -0.1843
  442MPD2    H5 6647   0.315   4.498  16.784 -0.0345  1.0723  2.8384
  442MPD2    N1 6648   0.333   0.199  16.985  0.4090  0.1674  0.5856
  442MPD2    H7 6649   0.246   0.153  17.013  0.8095  0.5332  2.4011
  443TMC3    C1 6650   0.249   0.383  17.112  0.4940  0.7827  0.5033
  443TMC3    C2 6651   0.234   0.516  17.097 -0.5579 -0.2923  0.3302
  443TMC3    C3 6652   0.134   0.582  17.167 -0.1255 -0.4935 -0.3271
  443TMC3    C4 6653   0.156   0.308  17.174  0.3345  0.3877 -0.6636
  443TMC3    C5 6654   0.065   0.374  17.260 -0.1286  0.1446  0.2450
  443TMC3    C6 6655   0.058   0.511  17.261 -0.0630  0.0757 -0.1248
  443TMC3     C 6656   0.357   0.330  17.025  0.4377  0.4789  0.7599
  443TMC3     O 6657   0.440   0.416  16.987 -0.0941 -0.0918 -0.2720
  443TMC3     H 6658   0.297   0.573  17.030 -1.2140  0.1557  0.0923
  443TMC3    H1 6659   0.146   0.200  17.170 -0.9995  0.5414 -1.3332
  443TMC3    H2 6660   4.708   0.557  17.309 -0.9365  0.3700 -1.9815
  443TMC3    C7 6661   4.680   0.298  17.285  0.1935  0.3303 -0.6893
  443TMC3    C8 6662   0.054   0.674  17.092  0.5737  0.7684 -0.6669
  443TMC3    O1 6663   4.643   0.223  17.200  0.1863  0.7997 -0.4980
  443TMC3    O2 6664   4.687   0.708  17.148  0.4749  0.0555  0.3109
  444MPD2     C 6665   0.357   0.058  17.301  0.0534  0.3511 -1.0458
  444MPD2    C1 6666   0.288   4.663  17.298 -0.0636  0.9020 -0.8056
  444MPD2    C2 6667   0.368   4.556  17.251 -0.2428  0.3110 -0.0077
  444MPD2    C3 6668   0.499   4.575  17.204 -0.1549 -0.1227  0.0178
  444MPD2    C4 6669   0.552   4.705  17.195 -0.3028  0.2638  0.0388
  444MPD2    C5 6670   0.483   0.072  17.257 -0.0676  0.2139  0.1714
  444MPD2     H 6671   0.331   4.455  17.258 -1.0823  0.7393  1.5751
  444MPD2    H1 6672   0.650   4.727  17.154 -0.5785  1.1841 -0.1294
  444MPD2    H2 6673   0.308   0.140  17.351 -0.4049 -0.9029  0.5849
  444MPD2    H3 6674   0.528   0.170  17.255 -0.0625  0.1778 -1.0756
  444MPD2     N 6675   0.569   4.452  17.166 -0.4370 -0.0859  0.3516
  444MPD2    H5 6676   0.525   4.360  17.171 -0.5324 -0.0365  0.4283
  444MPD2    N1 6677   0.159   4.628  17.347  0.3689 -0.0227 -0.8256
  444MPD2    H7 6678   0.133   4.531  17.333 -0.0202 -0.0724  0.3084
  445TMC3    C1 6679   0.747   4.311  17.116 -0.0984  0.1984 -0.2332
  445TMC3    C2 6680   0.703   4.232  17.217 -0.4497  0.1451  0.6285
  445TMC3    C3 6681   0.792   4.144  17.277 -0.3326 -0.2223  0.2635
  445TMC3    C4 6682   0.870   4.297  17.056  0.1134 -0.6704 -0.5694
  445TMC3    C5 6683   0.955   4.206  17.110  0.6398 -0.0713 -0.3110
  445TMC3    C6 6684   0.920   4.137  17.225  0.8179  0.2828  0.4583
  445TMC3     C 6685   0.692   4.446  17.114 -0.0730  0.0574  0.3258
  445TMC3     O 6686   0.778   4.529  17.101 -0.8057 -0.0091  0.4994
  445TMC3     H 6687   0.602   4.234  17.258 -0.1443 -0.5490  1.4270
  445TMC3    H1 6688   0.888   4.360  16.969 -1.2689  2.9126  1.7509
  445TMC3    H2 6689   0.976   4.048  17.251 -0.0995 -0.7319 -0.9908
  445TMC3    C7 6690   1.066   4.159  17.026  0.0650 -0.0165 -0.6494
  445TMC3    C8 6691   0.774   4.098  17.412  0.6761  0.1689 -0.7600
  445TMC3    O1 6692   1.042   4.149  16.908 -0.1640  0.5491  0.5840
  445TMC3    O2 6693   0.661   4.129  17.458  0.0260  0.0578 -0.0231
  446MPD2     C 6694   4.327   1.509  11.224  0.5364 -0.6591  1.0425
  446MPD2    C1 6695   4.342   1.465  11.094 -0.0253 -0.3602 -0.1966
  446MPD2    C2 6696   4.464   1.506  11.042  0.0743 -0.2677  0.0100
  446MPD2    C3 6697   4.569   1.566  11.115  0.0531  0.2197 -0.3389
  446MPD2    C4 6698   4.549   1.590  11.248 -0.0714 -0.5795  0.5615
  446MPD2    C5 6699   4.431   1.555  11.297  0.1755 -0.2807 -0.6189
  446MPD2     H 6700   4.494   1.486  10.940  0.4803 -2.7203  0.6134
  446MPD2    H1 6701   4.622   1.641  11.310  0.2616  0.5164 -0.7352
  446MPD2    H2 6702   4.232   1.490  11.273 -0.8220  2.0429 -0.5999
  446MPD2    H3 6703   4.409   1.574  11.401  0.2834 -0.6659 -0.5262
  446MPD2     N 6704   4.691   1.596  11.050  0.0718  0.2991  0.0111
  446MPD2    H5 6705   4.697   1.611  10.950 -3.4529  1.5157 -0.0434
  446MPD2    N1 6706   4.233   1.397  11.035 -0.2385 -0.3410 -0.7527
  446MPD2    H7 6707   4.156   1.372  11.096 -0.4642 -0.2129 -0.9864
  447TMC3    C1 6708   0.174   1.675  11.053 -0.4916  0.0163  0.5935
  447TMC3    C2 6709   0.145   1.755  10.945 -0.5128  0.6138 -0.1337
  447TMC3    C3 6710   0.253   1.772  10.856 -0.3657  0.2403 -0.4984
  447TMC3    C4 6711   0.300   1.630  11.076  0.3355  0.5583  0.0431
  447TMC3    C5 6712   0.391   1.650  10.981  0.8227  0.4062 -0.2675
  447TMC3    C6 6713   0.376   1.722  10.870 -0.1832  0.1380  0.4733
  447TMC3     C 6714   0.068   1.609  11.129  0.1971  0.0775  0.1831
  447TMC3     O 6715   0.091   1.564  11.237 -0.2175  0.6026 -0.0471
  447TMC3     H 6716   0.049   1.795  10.912 -0.1275 -0.1921 -2.2336
  447TMC3    H1 6717   0.329   1.580  11.168  1.9779 -0.2700 -0.9296
  447TMC3    H2 6718   0.452   1.723  10.793  0.9597 -2.7829  1.5534
  447TMC3    C7 6719   0.514   1.561  10.973  0.4605 -0.0260 -0.2412
  447TMC3    C8 6720   0.230   1.877  10.755  0.3955  0.3053 -0.2868
  447TMC3    O1 6721   0.559   1.535  10.863 -1.1828  0.4308 -0.7269
  447TMC3    O2 6722   0.125   1.895  10.701 -0.1303  0.2165 -0.0242
  448TMC3    C1 6723   3.009   1.383  16.994  0.1745 -0.4541 -0.1195
  448TMC3    C2 6724   2.982   1.266  16.943 -0.0663 -0.7409 -0.0881
  448TMC3    C3 6725   2.964   1.154  17.022  0.3729  0.5364  0.1475
  448TMC3    C4 6726   3.041   1.387  17.127 -0.3382  0.2682  0.3427
  448TMC3    C5 6727   3.021   1.282  17.215  0.7711 -0.2778 -0.3403
  448TMC3    C6 6728   2.978   1.155  17.161 -0.1012 -0.0617  0.7551
  448TMC3     C 6729   3.021   1.511  16.921 -0.2214 -0.3712  0.0818
  448TMC3     O 6730   3.016   1.606  16.997  0.6494  0.3704 -0.2444
  448TMC3     H 6731   2.951   1.252  16.840  2.7648 -0.5899 -0.9721
  448TMC3    H1 6732   3.082   1.475  17.175  0.1744  0.0873  0.2486
  448TMC3    H2 6733   2.945   1.072  17.222 -1.6935  1.1268  1.5014
  448TMC3    C7 6734   3.047   1.308  17.359 -0.1187 -0.1046  0.3605
  448TMC3    C8 6735   2.985   1.028  16.961  0.0711 -0.7861 -0.2143
  448TMC3    O1 6736   3.115   1.406  17.379 -0.2919  0.0499  0.3019
  448TMC3    O2 6737   2.919   0.935  16.990  0.4082  0.1204 -0.1474
  449MPD2     C 6738   4.208   4.303  13.982  0.1835 -0.1513 -0.7103
  449MPD2    C1 6739   4.107   4.393  13.943 -0.5089 -0.2982  0.1768
  449MPD2    C2 6740   3.981   4.388  14.003 -0.3396  0.0306  0.6422
  449MPD2    C3 6741   3.954   4.303  14.105 -0.3720  0.2404 -0.2362
  449MPD2    C4 6742   4.054   4.213  14.145 -0.0935  0.0969 -0.4449
  449MPD2    C5 6743   4.177   4.212  14.079  0.7195  0.3115 -0.1691
  449MPD2     H 6744   3.901   4.454  13.970  1.3298  1.2681 -0.9633
  449MPD2    H1 6745   4.032   4.146  14.227 -2.0550  1.2773 -0.0114
  449MPD2    H2 6746   4.311   4.302  13.948 -0.1352  3.0045 -1.7406
  449MPD2    H3 6747   4.251   4.143  14.117  1.0952  1.1991  0.6824
  449MPD2     N 6748   3.822   4.312  14.152  0.5441 -0.6281  1.1351
  449MPD2    H5 6749   3.764   4.384  14.110  3.3713  1.3082  0.5526
  449MPD2    N1 6750   4.123   4.490  13.836  0.0124  0.2065  0.3003
  449MPD2    H7 6751   4.043   4.544  13.805  0.6980  1.2619  0.3861
  450TMC3    C1 6752   4.228   4.625  13.685  0.7538 -0.1124 -0.1428
  450TMC3    C2 6753   4.302   0.001  13.725  0.0298 -0.0137 -0.0271
  450TMC3    C3 6754   4.242   0.125  13.715 -0.1733  0.6535  0.1801
  450TMC3    C4 6755   4.106   4.642  13.629  0.4832  0.0543  0.3170
  450TMC3    C5 6756   4.046   0.030  13.639  0.4035  0.1190  0.1189
  450TMC3    C6 6757   4.110   0.142  13.680  0.5330 -0.2972 -0.4731
  450TMC3     C 6758   4.243   4.511  13.771 -0.2122  0.5279  0.2837
  450TMC3     O 6759   4.353   4.468  13.805  0.0457 -0.5594 -0.0226
  450TMC3     H 6760   4.391   4.714  13.783 -0.0968  1.9206  0.9316
  450TMC3    H1 6761   4.052   4.560  13.583 -1.8060  0.4220  2.3455
  450TMC3    H2 6762   4.056   0.232  13.708 -0.1049 -1.0538  0.7347
  450TMC3    C7 6763   3.926   0.018  13.702 -0.1185  0.5036  0.3005
  450TMC3    C8 6764   4.325   0.236  13.729  0.0111  0.7002  0.4246
  450TMC3    O1 6765   3.929   4.657  13.777 -0.1994 -0.0471 -0.3781
  450TMC3    O2 6766   4.282   0.350  13.711  0.5934 -0.3837  0.8719
  451MPD2     C 6767   1.140   2.975   1.475  0.1479 -0.3999  0.5586
  451MPD2    C1 6768   1.081   3.072   1.404  0.2518  1.0999 -0.1574
  451MPD2    C2 6769   1.088   3.079   1.268  0.2310  0.1889  0.4140
  451MPD2    C3 6770   1.156   2.979   1.194  0.2907 -0.2162  0.0133
  451MPD2    C4 6771   1.220   2.882   1.262 -0.1869 -0.5988 -0.0145
  451MPD2    C5 6772   1.209   2.880   1.400  0.4107 -0.5569 -0.2292
  451MPD2     H 6773   1.025   3.152   1.216 -0.8551 -1.3513 -0.4276
  451MPD2    H1 6774   1.277   2.803   1.215  1.0754  2.8430 -4.2477
  451MPD2    H2 6775   1.144   2.967   1.583 -0.4456  0.2516  0.6266
  451MPD2    H3 6776   1.255   2.800   1.457  0.5566 -0.0058  0.4247
  451MPD2     N 6777   1.168   2.978   1.052 -0.9451  0.0648  0.0276
  451MPD2    H5 6778   1.208   2.894   1.012 -1.8836 -0.4298  0.1145
  451MPD2    N1 6779   1.019   3.184   1.477 -0.4543 -0.7080  0.4271
  451MPD2    H7 6780   1.035   3.171   1.576  0.8420  1.4823  0.5027
  452TMC3    C1 6781   1.151   3.075   0.828  0.2432 -0.4395  0.1418
  452TMC3    C2 6782   1.066   3.143   0.745  0.3798 -0.6394  0.0377
  452TMC3    C3 6783   1.090   3.165   0.615 -0.0373  0.4376 -0.3740
  452TMC3    C4 6784   1.261   3.012   0.771  0.3772 -0.2207  0.5555
  452TMC3    C5 6785   1.284   3.041   0.637 -1.0366  0.3113  0.2388
  452TMC3    C6 6786   1.200   3.108   0.551  0.3881 -0.2337 -0.1017
  452TMC3     C 6787   1.139   3.091   0.972  0.3413  0.3382 -0.1276
  452TMC3     O 6788   1.083   3.195   1.000  0.1489 -0.0427  0.2757
  452TMC3     H 6789   0.989   3.202   0.793  0.6560  1.3575 -1.9795
  452TMC3    H1 6790   1.337   2.973   0.838  1.4131 -1.1564 -1.1441
  452TMC3    H2 6791   1.220   3.101   0.444  0.4726  1.5753 -0.2136
  452TMC3    C7 6792   1.378   2.953   0.574  0.1588  0.1710  0.0442
  452TMC3    C8 6793   0.981   3.229   0.544 -0.1088  0.8893 -0.6571
  452TMC3    O1 6794   1.388   2.958   0.452  0.0986 -0.4726 -0.4204
  452TMC3    O2 6795   0.884   3.260   0.615 -0.1436  0.6220  0.6235
  453TMC3    C1 6796   2.091   0.452  12.374 -0.2556 -0.9206  0.4930
  453TMC3    C2 6797   2.001   0.347  12.370 -0.0590  0.4232 -0.1093
  453TMC3    C3 6798   1.884   0.359  12.298  0.3315 -0.0055  0.1192
  453TMC3    C4 6799   2.055   0.569  12.315 -0.4441  0.0557 -0.6152
  453TMC3    C5 6800   1.930   0.577  12.250  0.9132  0.5185  0.5362
  453TMC3    C6 6801   1.846   0.470  12.230 -0.8180 -0.0653 -0.1081
  453TMC3     C 6802   2.224   0.450  12.428  0.1897  1.1190  0.7212
  453TMC3     O 6803   2.292   0.554  12.429  0.4193  0.3106 -0.4412
  453TMC3     H 6804   2.015   0.253  12.421 -1.1650  1.1487  1.5203
  453TMC3    H1 6805   2.117   0.657  12.326 -0.7146 -0.0229  1.5497
  453TMC3    H2 6806   1.746   0.474  12.190 -1.2726  1.1858  1.1633
  453TMC3    C7 6807   1.913   0.672  12.144 -0.1878 -0.1773 -0.4609
  453TMC3    C8 6808   1.815   0.236  12.264  0.7480 -0.2341  0.3662
  453TMC3    O1 6809   1.842   0.646  12.045  0.5039  0.0337  0.1460
  453TMC3    O2 6810   1.699   0.222  12.301  0.1638  0.0572 -0.6209
  454MPD2     C 6811   0.502   0.010  15.584  0.2636  0.5380 -0.2316
  454MPD2    C1 6812   0.559   4.625  15.585  0.1080 -0.0640 -0.1473
  454MPD2    C2 6813   0.655   4.606  15.690  0.9782 -0.2743 -0.2819
  454MPD2    C3 6814   0.675   4.704  15.790 -0.6443  0.6669 -0.1647
  454MPD2    C4 6815   0.618   0.094  15.769  0.3677 -0.0038 -0.5520
  454MPD2    C5 6816   0.544   0.114  15.662  0.0960 -0.0944  0.3367
  454MPD2     H 6817   0.684   4.502  15.700  5.4637  1.1356  1.2027
  454MPD2    H1 6818   0.638   0.177  15.836  0.5824 -1.6235  1.4155
  454MPD2    H2 6819   0.422   0.031  15.515 -0.0860  1.3563  0.4275
  454MPD2    H3 6820   0.490   0.208  15.656  1.2325  0.6897  2.7706
  454MPD2     N 6821   0.720   4.667  15.920  0.3761  0.2314  0.0253
  454MPD2    H5 6822   0.755   4.573  15.934 -0.7931 -0.0536  1.1243
  454MPD2    N1 6823   0.522   4.513  15.500  0.1785 -0.3823  0.3250
  454MPD2    H7 6824   0.578   4.429  15.504 -0.4487 -0.7758  0.7816
  455TMC3    C1 6825   0.728   4.649  16.150 -0.7598  0.6598 -0.4638
  455TMC3    C2 6826   0.785   4.700  16.264  0.6873 -0.3646  0.1449
  455TMC3    C3 6827   0.817   4.613  16.364 -0.4663 -0.0153  0.3507
  455TMC3    C4 6828   0.706   4.522  16.127 -0.1438  0.1424 -0.6422
  455TMC3    C5 6829   0.741   4.432  16.224 -0.0892  0.2145  0.3515
  455TMC3    C6 6830   0.796   4.473  16.345  0.5419 -0.0140  0.0445
  455TMC3     C 6831   0.703   0.001  16.038  0.0878 -0.6629 -0.5025
  455TMC3     O 6832   0.720   0.121  16.061 -0.4162 -0.7555  0.3529
  455TMC3     H 6833   0.813   0.067  16.287  2.7230 -0.7993 -0.4345
  455TMC3    H1 6834   0.637   4.485  16.051  1.1663 -0.8962 -1.3350
  455TMC3    H2 6835   0.811   4.403  16.427 -1.3634 -1.4910 -0.8783
  455TMC3    C7 6836   0.699   4.296  16.192  0.5096 -0.6653 -0.8260
  455TMC3    C8 6837   0.858   4.662  16.497  0.2089 -0.0739 -0.0679
  455TMC3    O1 6838   0.641   4.282  16.089 -0.2879  0.2941  0.0549
  455TMC3    O2 6839   0.824   0.043  16.533  0.1446 -0.3427 -0.3617
  456MPD2     C 6840   3.443   4.598  16.259 -0.0954  0.1664 -0.0735
  456MPD2    C1 6841   3.498   4.563  16.380 -0.0953  0.2717 -0.2219
  456MPD2    C2 6842   3.430   4.615  16.494  0.4229  0.6478 -0.4089
  456MPD2    C3 6843   3.321   4.700  16.482  0.4043  0.7810  0.2240
  456MPD2    C4 6844   3.282   0.000  16.351 -0.1989  0.6384  1.0076
  456MPD2    C5 6845   3.340   4.683  16.235  0.0834 -0.4032 -0.0219
  456MPD2     H 6846   3.470   4.589  16.591  1.9789 -0.2299 -1.2830
  456MPD2    H1 6847   3.206   0.077  16.340 -0.6129 -0.1078 -1.2697
  456MPD2    H2 6848   3.497   4.559  16.173  0.2186  0.3801  0.0257
  456MPD2    H3 6849   3.314   4.719  16.136  1.3662  2.1593  0.5859
  456MPD2     N 6850   3.274   0.028  16.598  0.3225  0.6382 -0.6152
  456MPD2    H5 6851   3.330   0.002  16.678 -0.6986  0.1870 -0.0496
  456MPD2    N1 6852   3.603   4.471  16.386  0.0504 -0.1824 -0.0350
  456MPD2    H7 6853   3.633   4.439  16.295  0.8258 -1.2259  0.5840
  457TMC3    C1 6854   3.142   0.180  16.725  0.1533 -0.2944 -0.6305
  457TMC3    C2 6855   3.087   0.301  16.716 -0.1981 -0.9068 -0.0794
  457TMC3    C3 6856   3.053   0.367  16.825  0.0504  0.8171 -0.5082
  457TMC3    C4 6857   3.188   0.131  16.840  0.2849  0.3064  0.0136
  457TMC3    C5 6858   3.167   0.205  16.951  0.2809  0.0070 -0.4810
  457TMC3    C6 6859   3.098   0.323  16.951  0.2948  1.0688  0.0924
  457TMC3     C 6860   3.162   0.115  16.599  0.4658  0.3574 -0.4072
  457TMC3     O 6861   3.075   0.137  16.513  0.0456 -0.1395  0.0527
  457TMC3     H 6862   3.039   0.341  16.627  2.1022 -0.4037 -1.1034
  457TMC3    H1 6863   3.218   0.028  16.852 -0.4905  0.1646  0.7851
  457TMC3    H2 6864   3.063   0.372  17.041 -1.5393 -0.1999  0.0604
  457TMC3    C7 6865   3.243   0.165  17.068  0.5667 -0.1632  0.0549
  457TMC3    C8 6866   3.028   0.514  16.815  0.6745  0.0850  0.9185
  457TMC3    O1 6867   3.190   0.206  17.171 -0.3362  0.7101  0.1492
  457TMC3    O2 6868   2.934   0.563  16.879  0.1327 -0.2349  0.2720
  458MPD2     C 6869   1.186   4.657  13.023 -0.7211 -0.3518  0.8111
  458MPD2    C1 6870   1.171   4.526  13.073 -0.2624  0.0263 -0.0659
  458MPD2    C2 6871   1.040   4.477  13.097 -0.3653  0.5357 -0.2758
  458MPD2    C3 6872   0.921   4.552  13.066  0.6276 -0.1056 -1.2634
  458MPD2    C4 6873   0.939   4.685  13.019  0.3611  0.5096 -0.4884
  458MPD2    C5 6874   1.070   4.729  13.001 -1.1079 -0.2292  0.0994
  458MPD2     H 6875   1.020   4.378  13.136  1.2254  1.2572  2.4068
  458MPD2    H1 6876   0.863   0.013  12.974  0.3812  1.4220  0.7715
  458MPD2    H2 6877   1.284   4.697  13.003 -1.0376  0.4518  0.8457
  458MPD2    H3 6878   1.088   0.092  12.960  1.8851 -1.6934 -2.1218
  458MPD2     N 6879   0.796   4.489  13.089 -0.4284 -0.5979 -0.9332
  458MPD2    H5 6880   0.807   4.391  13.113 -1.5360  0.0544  2.2045
  458MPD2    N1 6881   1.285   4.445  13.092  0.0939 -1.1063 -0.0191
  458MPD2    H7 6882   1.371   4.481  13.052  1.0038 -1.3136  1.8016
  459TMC3    C1 6883   1.428   4.283  13.185  0.4000  1.3393  0.1042
  459TMC3    C2 6884   1.513   4.301  13.077 -0.5735  0.4309 -0.4143
  459TMC3    C3 6885   1.637   4.240  13.089 -0.4529  0.3656  0.8701
  459TMC3    C4 6886   1.454   4.207  13.292  0.2886  0.6945  0.6873
  459TMC3    C5 6887   1.583   4.152  13.296 -0.4312 -0.5236  0.4736
  459TMC3    C6 6888   1.677   4.158  13.192 -0.9235 -0.7908  0.7562
  459TMC3     C 6889   1.291   4.340  13.179  0.5955  0.1547 -0.2560
  459TMC3     O 6890   1.204   4.278  13.240 -0.1688  0.1165  0.3355
  459TMC3     H 6891   1.487   4.327  12.975  0.0246  0.8989 -0.4487
  459TMC3    H1 6892   1.381   4.182  13.368 -1.1633  0.6334 -0.7347
  459TMC3    H2 6893   1.781   4.130  13.194 -0.2989  1.3987 -1.0633
  459TMC3    C7 6894   1.614   4.076  13.415  0.1406 -0.1675  0.7812
  459TMC3    C8 6895   1.700   4.216  12.962 -0.2151  0.2895  0.1073
  459TMC3    O1 6896   1.523   4.046  13.495 -0.2734  0.3585 -0.2299
  459TMC3    O2 6897   1.697   4.307  12.878 -0.2388  0.4992 -0.6269
  460MPD2     C 6898   0.491   2.101  10.622 -0.5633  0.1656  0.2434
  460MPD2    C1 6899   0.369   2.046  10.627  0.1987 -0.3287 -0.2996
  460MPD2    C2 6900   0.272   2.087  10.533 -0.2653 -0.3612 -0.1473
  460MPD2    C3 6901   0.294   2.204  10.454  0.0957 -0.5023 -0.3491
  460MPD2    C4 6902   0.421   2.255  10.456 -0.1323 -0.0215 -0.4320
  460MPD2    C5 6903   0.521   2.201  10.533  0.3318  0.9108 -0.4564
  460MPD2     H 6904   0.175   2.041  10.526 -0.2228 -0.3866 -0.5833
  460MPD2    H1 6905   0.446   2.344  10.398  1.0576 -1.5670 -2.3165
  460MPD2    H2 6906   0.567   2.078  10.695  2.5136  1.2033 -2.6568
  460MPD2    H3 6907   0.619   2.246  10.544  0.6794 -0.8542  3.5372
  460MPD2     N 6908   0.186   2.239  10.372  0.0171  0.3330  0.1874
  460MPD2    H5 6909   0.097   2.196  10.393  0.5471 -1.8825 -2.1020
  460MPD2    N1 6910   0.353   1.947  10.731  0.3998  0.4909 -0.0152
  460MPD2    H7 6911   0.429   1.918  10.792 -1.3217 -1.4608  1.2170
  461TMC3    C1 6912   0.056   2.359  10.220  0.2106 -0.4213  0.0319
  461TMC3    C2 6913   4.691   2.272  10.213 -0.4394  0.0072  0.5974
  461TMC3    C3 6914   4.563   2.312  10.210  0.4002 -0.6815  0.0479
  461TMC3    C4 6915   0.034   2.494  10.187  0.1486  0.6543 -0.7058
  461TMC3    C5 6916   4.641   2.533  10.163 -0.2245 -0.3426 -0.0363
  461TMC3    C6 6917   4.532   2.443  10.176  0.0639 -0.4985 -0.5201
  461TMC3     C 6918   0.185   2.332  10.274 -0.0077 -0.0030 -0.0560
  461TMC3     O 6919   0.273   2.409  10.229 -0.0651 -0.4273 -0.2313
  461TMC3     H 6920   4.715   2.166  10.218  0.6533  0.2428  0.2907
  461TMC3    H1 6921   0.110   2.571  10.190 -1.0406  1.7523  1.9894
  461TMC3    H2 6922   4.430   2.475  10.158 -0.1498  0.1504  1.8147
  461TMC3    C7 6923   4.619   2.649  10.079  0.2026 -0.1932  0.3754
  461TMC3    C8 6924   4.480   2.224  10.146  0.1928  0.0477 -0.3796
  461TMC3    O1 6925   4.502   2.689  10.061 -0.1649 -0.3789 -0.3223
  461TMC3    O2 6926   4.426   2.269  10.047 -0.4345 -0.3143  0.2922
  462TMC3    C1 6927   0.291   2.930   0.430 -0.5099  0.3196  0.2376
  462TMC3    C2 6928   0.422   2.972   0.428  0.0940  0.1036 -0.4389
  462TMC3    C3 6929   0.516   2.882   0.472 -0.6097 -0.0025  0.1969
  462TMC3    C4 6930   0.245   2.813   0.484 -0.0964  0.1436 -0.1149
  462TMC3    C5 6931   0.347   2.720   0.532 -0.3687 -0.0225 -0.4102
  462TMC3    C6 6932   0.476   2.755   0.513  0.6868  0.7417 -0.2460
  462TMC3     C 6933   0.209   2.978   0.332 -0.0852  0.5724 -0.1188
  462TMC3     O 6934   0.088   2.972   0.349  0.0392 -0.2893  0.2762
  462TMC3     H 6935   0.440   3.065   0.375 -0.3631  0.4731  0.0497
  462TMC3    H1 6936   0.139   2.791   0.486 -0.1524  0.4277 -0.0206
  462TMC3    H2 6937   0.544   2.690   0.568  0.3646  0.4789 -0.1555
  462TMC3    C7 6938   0.316   2.578   0.522 -0.1301  0.4394  0.3722
  462TMC3    C8 6939   0.656   2.918   0.453 -0.6385 -0.1782 -0.1636
  462TMC3    O1 6940   0.198   2.552   0.514 -0.3435 -0.3569  0.1722
  462TMC3    O2 6941   0.681   3.025   0.404 -0.5468 -0.2756 -0.2257
  463MPD2     C 6942   2.041   1.528   1.320 -0.1774 -0.2839 -0.4348
  463MPD2    C1 6943   1.936   1.619   1.349 -0.3454  0.0956  0.1889
  463MPD2    C2 6944   1.964   1.747   1.400  0.3018 -0.5377 -0.2282
  463MPD2    C3 6945   2.097   1.790   1.420 -1.0606  0.0540 -0.1954
  463MPD2    C4 6946   2.198   1.702   1.390  0.3846  0.1122  0.9230
  463MPD2    C5 6947   2.170   1.576   1.328  0.2103 -0.0230 -0.1091
  463MPD2     H 6948   1.881   1.814   1.415  1.6918  0.7162  1.8910
  463MPD2    H1 6949   2.303   1.726   1.407  0.6128  0.6198 -1.2656
  463MPD2    H2 6950   2.021   1.427   1.288  1.9692 -1.4864  2.0680
  463MPD2    H3 6951   2.254   1.514   1.295 -0.1689  0.4250 -1.8859
  463MPD2     N 6952   2.133   1.916   1.478 -0.2579  0.3234  0.0634
  463MPD2    H5 6953   2.230   1.920   1.509  0.4233 -0.8336 -1.8618
  463MPD2    N1 6954   1.799   1.581   1.347 -0.5147 -0.1088  0.0360
  463MPD2    H7 6955   1.731   1.654   1.369 -0.3545  0.1275 -0.2627
  464TMC3    C1 6956   1.608   1.461   1.275  0.3063  0.1939  0.1859
  464TMC3    C2 6957   1.527   1.570   1.278  0.9945 -0.2608 -0.2385
  464TMC3    C3 6958   1.394   1.553   1.290 -0.0686  0.2267 -0.4118
  464TMC3    C4 6959   1.557   1.330   1.271  0.4091 -0.9324 -0.4072
  464TMC3    C5 6960   1.421   1.317   1.261  0.2947 -0.1292  0.2248
  464TMC3    C6 6961   1.336   1.427   1.277 -0.2624  0.0867  0.2636
  464TMC3     C 6962   1.753   1.460   1.297  0.4101 -0.0773  0.4496
  464TMC3     O 6963   1.814   1.357   1.272  0.0383  0.1614  0.2183
  464TMC3     H 6964   1.575   1.667   1.278  0.3095  0.0771 -0.4297
  464TMC3    H1 6965   1.615   1.241   1.253 -2.1177 -3.0493  1.8776
  464TMC3    H2 6966   1.236   1.416   1.316  0.3721  0.2327  1.9122
  464TMC3    C7 6967   1.369   1.185   1.228  0.3741 -0.6376  0.2696
  464TMC3    C8 6968   1.301   1.665   1.285 -0.1054 -0.2735 -0.0758
  464TMC3    O1 6969   1.431   1.085   1.266  0.2067 -0.2406  0.2053
  464TMC3    O2 6970   1.188   1.642   1.234  0.4730 -0.1926 -0.3798
  465MPD2     C 6971   2.362   4.559  15.898  0.8055 -0.0403  0.4379
  465MPD2    C1 6972   2.343   4.519  16.032  0.8539 -0.1866 -0.2166
  465MPD2    C2 6973   2.217   4.533  16.091  0.2676  0.4016  0.4211
  465MPD2    C3 6974   2.107   4.572  16.026 -0.1175  0.1135 -0.1876
  465MPD2    C4 6975   2.123   4.605  15.893 -0.8530  0.1936  0.7760
  465MPD2    C5 6976   2.247   4.594  15.836 -0.2578 -0.3697  0.6668
  465MPD2     H 6977   2.203   4.482  16.186 -3.0886 -0.2515 -0.4108
  465MPD2    H1 6978   2.040   4.649  15.839 -0.6349 -2.2951 -1.5930
  465MPD2    H2 6979   2.458   4.568  15.848  0.7373 -2.4745 -0.1341
  465MPD2    H3 6980   2.255   4.629  15.734  2.6696 -0.5940  0.8113
  465MPD2     N 6981   1.980   4.567  16.091  0.0099  0.0055  0.6394
  465MPD2    H5 6982   1.975   4.492  16.159  0.3281 -0.1035  0.5404
  465MPD2    N1 6983   2.437   4.474  16.118  0.4358  0.0474  0.0288
  465MPD2    H7 6984   2.414   4.470  16.216  1.4215  0.9376  0.2973
  466TMC3    C1 6985   1.655   4.586  16.336 -0.2883 -0.0473 -0.0886
  466TMC3    C2 6986   1.556   4.677  16.315  0.0195 -0.2550  0.0497
  466TMC3    C3 6987   1.544   4.729  16.194  0.6398  0.0776 -0.7013
  466TMC3    C4 6988   1.751   4.560  16.253  0.0158 -0.7456 -0.3933
  466TMC3    C5 6989   1.757   4.633  16.140 -0.0259 -0.8627  0.1865
  466TMC3    C6 6990   1.646   4.707  16.102 -0.2524 -0.3504  0.1475
  466TMC3     C 6991   1.658   4.515  16.465 -0.1408  0.4255 -0.1797
  466TMC3     O 6992   1.568   4.540  16.542  0.5086 -0.0494  0.3761
  466TMC3     H 6993   1.489   4.695  16.398 -0.9992 -1.8001 -0.4287
  466TMC3    H1 6994   1.843   4.513  16.284  0.3501 -0.1085 -0.4256
  466TMC3    H2 6995   1.631   0.007  16.000  2.4788  0.0983 -0.0828
  466TMC3    C7 6996   1.865   4.639  16.051  0.6273  0.2460  0.7288
  466TMC3    C8 6997   1.450   0.099  16.171  0.0363 -0.7558 -0.9924
  466TMC3    O1 6998   1.844   4.710  15.953  0.4065  0.3826  0.1903
  466TMC3    O2 6999   1.428   0.117  16.051  0.4234  0.4098 -0.1914
  467TMC3    C1 7000   3.550   3.343  14.105 -1.0487 -0.2460 -0.4411
  467TMC3    C2 7001   3.580   3.474  14.098 -0.0160 -0.0949  0.5783
  467TMC3    C3 7002   3.507   3.550  14.014 -0.2193 -0.6929 -0.4704
  467TMC3    C4 7003   3.447   3.283  14.037  0.4552 -0.1525 -0.7100
  467TMC3    C5 7004   3.368   3.372  13.964  0.0047  0.2593 -0.7885
  467TMC3    C6 7005   3.392   3.504  13.946 -0.0339 -0.1832 -0.2040
  467TMC3     C 7006   3.673   3.267  14.135  0.9151 -0.4791 -1.1096
  467TMC3     O 7007   3.723   3.299  14.242 -0.3207  0.0619  0.3476
  467TMC3     H 7008   3.668   3.516  14.146 -1.3240  1.9283  1.1593
  467TMC3    H1 7009   3.434   3.176  14.033 -0.0498 -0.2119  2.5656
  467TMC3    H2 7010   3.331   3.566  13.882  0.5486  2.4916  1.8457
  467TMC3    C7 7011   3.263   3.326  13.886 -0.4430 -0.2517  0.3041
  467TMC3    C8 7012   3.545   3.682  13.983  0.0654  0.7534  0.4890
  467TMC3    O1 7013   3.257   3.377  13.775 -0.0723 -0.4771 -0.6632
  467TMC3    O2 7014   3.450   3.755  13.949  0.2450  0.0431  0.0362
  468MPD2     C 7015   1.641   1.941  10.728  0.4343 -0.3162 -0.1259
  468MPD2    C1 7016   1.776   1.920  10.740 -0.2500 -0.5140 -0.7573
  468MPD2    C2 7017   1.822   1.830  10.828 -0.1747  0.3052 -0.2496
  468MPD2    C3 7018   1.739   1.739  10.890 -0.3925  1.0101 -0.5230
  468MPD2    C4 7019   1.607   1.754  10.871  0.0442 -0.3486 -0.2800
  468MPD2    C5 7020   1.558   1.851  10.786 -0.2972  0.1685  0.0347
  468MPD2     H 7021   1.929   1.827  10.842 -0.4569  0.5454  1.8757
  468MPD2    H1 7022   1.541   1.698  10.936 -0.1390  1.2680  0.9116
  468MPD2    H2 7023   1.600   2.014  10.659  2.8713  0.7374 -0.4777
  468MPD2    H3 7024   1.456   1.855  10.750 -0.6366 -2.1885  0.7759
  468MPD2     N 7025   1.781   1.653  10.996  1.0647  0.7925  0.8303
  468MPD2    H5 7026   1.708   1.595  11.038  1.2496  0.4441  0.6710
  468MPD2    N1 7027   1.873   1.997  10.666  0.3394  0.2303 -0.0235
  468MPD2    H7 7028   1.968   1.962  10.674 -0.0771 -0.5316  1.6202
  469TMC3    C1 7029   1.977   2.163  10.539 -0.7953 -0.2056 -0.2463
  469TMC3    C2 7030   2.069   2.082  10.482  0.3845 -0.2505  0.7707
  469TMC3    C3 7031   2.171   2.146  10.419  0.4189  0.0652 -0.0803
  469TMC3    C4 7032   1.979   2.297  10.534 -0.1508 -1.3087  0.3481
  469TMC3    C5 7033   2.082   2.355  10.468 -0.6396 -0.4370 -0.9816
  469TMC3    C6 7034   2.181   2.277  10.414 -0.0065  0.4063  0.3046
  469TMC3     C 7035   1.854   2.107  10.594  0.7069  0.1952  0.1845
  469TMC3     O 7036   1.759   2.186  10.589 -0.0945  0.0969 -0.2848
  469TMC3     H 7037   2.052   1.977  10.461 -3.3351  0.2928  1.0292
  469TMC3    H1 7038   1.900   2.363  10.567  0.3903  0.8357 -2.6101
  469TMC3    H2 7039   2.275   2.322  10.384 -0.7324  2.1420  0.6468
  469TMC3    C7 7040   2.134   2.475  10.523  0.5027 -0.0370 -0.6890
  469TMC3    C8 7041   2.296   2.074  10.413  0.4874 -0.1691  0.4239
  469TMC3    O1 7042   2.193   2.554  10.449 -0.7129  0.2713 -0.4361
  469TMC3    O2 7043   2.361   2.085  10.311  0.4397 -0.5263  0.1388
  470TMC3    C1 7044   0.199   3.486   0.827  0.2763  0.6272  0.1101
  470TMC3    C2 7045   0.088   3.467   0.899 -0.3004  0.0293  0.8567
  470TMC3    C3 7046   0.083   3.401   1.017 -0.6114 -0.4573  0.1312
  470TMC3    C4 7047   0.309   3.427   0.869  0.0365 -0.7302 -0.1356
  470TMC3    C5 7048   0.312   3.376   0.994  0.0612 -0.2016  0.0579
  470TMC3    C6 7049   0.198   3.344   1.063  0.1775 -0.2998  0.9704
  470TMC3     C 7050   0.205   3.583   0.719 -0.1022  1.3436 -0.1281
  470TMC3     O 7051   0.124   3.677   0.711 -0.1770  0.0916  0.0663
  470TMC3     H 7052   0.006   3.529   0.866  0.3462  0.2938 -0.2445
  470TMC3    H1 7053   0.400   3.450   0.815 -2.0467  0.8780 -2.9207
  470TMC3    H2 7054   0.216   3.322   1.168  1.1319  2.3948  1.3921
  470TMC3    C7 7055   0.436   3.316   1.034  0.2027  0.5875  0.1156
  470TMC3    C8 7056   4.719   3.437   1.121 -0.5828  0.4146 -0.2396
  470TMC3    O1 7057   0.544   3.346   0.982  0.9461 -0.1438 -0.1915
  470TMC3    O2 7058   4.732   3.370   1.223 -0.4710  0.5588  0.0490
  471MPD2     C 7059   0.559   4.002  16.660 -0.0054  0.1375 -1.1114
  471MPD2    C1 7060   0.590   3.867  16.677  0.0327  0.2028 -0.1195
  471MPD2    C2 7061   0.718   3.824  16.727  0.7200  0.3665  0.3914
  471MPD2    C3 7062   0.809   3.920  16.765  0.9757 -0.7030 -0.6742
  471MPD2    C4 7063   0.774   4.051  16.757 -0.4648 -0.0853 -0.3385
  471MPD2    C5 7064   0.653   4.088  16.704  0.2437 -0.3729 -0.3203
  471MPD2     H 7065   0.743   3.719  16.743  0.4191  0.0384 -1.3477
  471MPD2    H1 7066   0.837   4.135  16.785 -0.7974 -0.3540  1.2033
  471MPD2    H2 7067   0.462   4.034  16.626  0.3678  2.0433 -0.4191
  471MPD2    H3 7068   0.637   4.195  16.702 -2.7400 -0.8117  0.6324
  471MPD2     N 7069   0.926   3.885  16.833  0.1133  0.4547 -0.0821
  471MPD2    H5 7070   0.978   3.959  16.879  2.5393 -0.3791 -1.4944
  471MPD2    N1 7071   0.508   3.758  16.634  0.6125 -0.1973  0.6296
  471MPD2    H7 7072   0.549   3.667  16.654 -0.9579 -1.0763 -0.1878
  472TMC3    C1 7073   0.346   3.655  16.491 -0.1809 -0.5838 -0.9147
  472TMC3    C2 7074   0.296   3.659  16.360  0.0107  0.6406  0.1716
  472TMC3    C3 7075   0.227   3.551  16.305 -1.0578  0.4296  0.2547
  472TMC3    C4 7076   0.344   3.536  16.559 -0.8004 -0.7574  0.5776
  472TMC3    C5 7077   0.269   3.435  16.505  0.3688  0.1433 -0.1880
  472TMC3    C6 7078   0.215   3.437  16.376  0.5143  0.1080 -0.2981
  472TMC3     C 7079   0.398   3.777  16.549 -0.6157  0.3572 -0.3825
  472TMC3     O 7080   0.345   3.878  16.505  0.8008 -0.0381  0.4139
  472TMC3     H 7081   0.323   3.749  16.305  0.0546  0.3664 -0.2500
  472TMC3    H1 7082   0.396   3.524  16.654 -0.6212  1.5819  0.7905
  472TMC3    H2 7083   0.164   3.346  16.348 -1.0072  1.1255 -0.8538
  472TMC3    C7 7084   0.250   3.320  16.587  0.0640  0.6373 -0.1133
  472TMC3    C8 7085   0.115   3.588  16.222 -0.0664  0.0918  1.0353
  472TMC3    O1 7086   0.264   3.343  16.708 -0.6438 -0.3093 -0.0811
  472TMC3    O2 7087   0.120   3.699  16.175  0.2220 -0.1077  0.3525
  473MPD2     C 7088   0.124   0.863  13.989  0.3549  0.6442  0.2748
  473MPD2    C1 7089   0.094   0.996  13.957  0.1829  0.2549 -0.1363
  473MPD2    C2 7090   0.105   1.093  14.062 -0.7967 -0.2823  0.6854
  473MPD2    C3 7091   0.144   1.063  14.190  0.4588  0.1346  0.7475
  473MPD2    C4 7092   0.178   0.932  14.214  0.4552  0.4138  1.2053
  473MPD2    C5 7093   0.160   0.834  14.118  0.0095 -0.1335  0.3981
  473MPD2     H 7094   0.090   1.196  14.031  0.9655 -0.2670 -0.1292
  473MPD2    H1 7095   0.219   0.906  14.312  0.5804  0.2759  1.1173
  473MPD2    H2 7096   0.108   0.781  13.919  1.9313  0.6213 -0.0510
  473MPD2    H3 7097   0.167   0.727  14.136 -0.5125 -0.1520  0.4956
  473MPD2     N 7098   0.145   1.153  14.300  0.0808  0.2519  0.8147
  473MPD2    H5 7099   0.193   1.128  14.386  1.6647 -0.2230 -0.2003
  473MPD2    N1 7100   0.037   1.038  13.837 -0.1993 -0.5234  0.0792
  473MPD2    H7 7101   0.006   1.134  13.830  1.5388 -0.1410 -2.2073
  474TMC3    C1 7102   0.115   1.375  14.401 -0.0423 -0.5237  0.0498
  474TMC3    C2 7103   0.030   1.477  14.423 -0.4853 -0.5534  0.3356
  474TMC3    C3 7104   0.074   1.581  14.506  0.1727 -0.4381  0.2797
  474TMC3    C4 7105   0.236   1.369  14.462 -0.0212 -0.3264  0.2447
  474TMC3    C5 7106   0.277   1.486  14.526  0.0980  0.6595 -0.3396
  474TMC3    C6 7107   0.202   1.596  14.550 -0.2132 -0.6462 -0.4427
  474TMC3     C 7108   0.078   1.277  14.298  0.4061  0.3080 -0.3203
  474TMC3     O 7109   4.734   1.325  14.217 -0.0667  0.1777  0.1685
  474TMC3     H 7110   4.662   1.466  14.391 -1.1926  0.9209  2.0677
  474TMC3    H1 7111   0.304   1.293  14.426 -1.5463 -1.7452  0.4156
  474TMC3    H2 7112   0.234   1.687  14.599 -1.7133 -0.9812  1.1877
  474TMC3    C7 7113   0.424   1.478  14.561 -0.0444  0.3448 -0.1102
  474TMC3    C8 7114   4.715   1.691  14.517 -0.4272 -0.5294 -0.8023
  474TMC3    O1 7115   0.500   1.446  14.469 -0.2006 -0.2974  0.3176
  474TMC3    O2 7116   4.596   1.668  14.524 -1.1935 -0.2330 -0.4921
  475MPD2     C 7117   3.192   3.928  11.203  0.6314 -0.4442  0.2248
  475MPD2    C1 7118   3.164   4.063  11.217 -0.3901 -0.6515  0.3994
  475MPD2    C2 7119   3.036   4.112  11.181  0.2728  0.0374 -0.0538
  475MPD2    C3 7120   2.942   4.029  11.133 -0.7487  0.0458  0.8494
  475MPD2    C4 7121   2.976   3.896  11.115 -0.0994 -0.1142 -0.1840
  475MPD2    C5 7122   3.096   3.845  11.153 -0.4294 -0.6716 -0.1898
  475MPD2     H 7123   3.013   4.217  11.189 -1.2876 -0.3602  0.7292
  475MPD2    H1 7124   2.899   3.827  11.083 -0.8554 -0.1306  1.6239
  475MPD2    H2 7125   3.281   3.878  11.242  1.4365  1.4052  0.7476
  475MPD2    H3 7126   3.112   3.738  11.152  4.5434  0.0637  1.5473
  475MPD2     N 7127   2.816   4.083  11.086  0.5380 -0.1818  0.3434
  475MPD2    H5 7128   2.808   4.183  11.103  1.4885 -0.1218  0.4685
  475MPD2    N1 7129   3.259   4.162  11.260  0.3914  0.3794  0.4807
  475MPD2    H7 7130   3.222   4.251  11.290  1.2666  0.1685  2.1621
  476TMC3    C1 7131   3.466   4.255  11.304  0.0715 -0.3246 -0.5645
  476TMC3    C2 7132   3.557   4.312  11.217 -0.6702  0.2695 -0.1937
  476TMC3    C3 7133   3.593   4.443  11.239  0.7304 -0.2120 -0.7216
  476TMC3    C4 7134   3.401   4.323  11.405  0.1853  0.3417  0.4614
  476TMC3    C5 7135   3.440   4.457  11.411  0.1742  0.6949 -0.0097
  476TMC3    C6 7136   3.541   4.511  11.343  0.7752  0.1856  0.0421
  476TMC3     C 7137   3.396   4.141  11.247  0.0206 -0.5325 -0.5874
  476TMC3     O 7138   3.460   4.049  11.190 -0.5151  0.4716  0.4811
  476TMC3     H 7139   3.600   4.245  11.143 -1.5752  0.4502 -0.8846
  476TMC3    H1 7140   3.326   4.277  11.468 -1.2295  3.0772  0.7709
  476TMC3    H2 7141   3.584   4.603  11.381  3.1250 -0.5515 -0.8457
  476TMC3    C7 7142   3.355   4.549  11.485 -0.1095  0.2543 -0.3710
  476TMC3    C8 7143   3.633   4.527  11.133  0.4546 -0.1917  0.5139
  476TMC3    O1 7144   3.268   4.492  11.547  0.2664  0.4427  0.3823
  476TMC3    O2 7145   3.687   4.635  11.164 -0.1595 -0.1774  0.4513
  477MPD2     C 7146   0.900   1.265  11.798 -0.3150 -0.2442 -0.7638
  477MPD2    C1 7147   0.809   1.183  11.744 -0.4781 -0.6994  0.0340
  477MPD2    C2 7148   0.791   1.066  11.813  0.1785  0.1643  0.3898
  477MPD2    C3 7149   0.863   1.043  11.930 -0.4891  0.0691 -0.0023
  477MPD2    C4 7150   0.967   1.126  11.976  0.2208 -0.4528  0.3311
  477MPD2    C5 7151   0.987   1.241  11.900  1.1502  0.0378  0.4289
  477MPD2     H 7152   0.714   0.998  11.779 -1.0811  1.0337  1.4796
  477MPD2    H1 7153   1.028   1.110  12.064 -1.1505 -0.3082  1.3234
  477MPD2    H2 7154   0.914   1.356  11.741 -0.4411 -0.3056 -0.8926
  477MPD2    H3 7155   1.067   1.311  11.921 -0.5439  2.5793 -1.5507
  477MPD2     N 7156   0.840   0.920  12.005  0.0099  0.0761  0.4119
  477MPD2    H5 7157   0.782   0.853  11.956 -1.0318  0.4825  1.0921
  477MPD2    N1 7158   0.736   1.223  11.630 -1.0857  0.4476 -0.4598
  477MPD2    H7 7159   0.750   1.319  11.602  1.6441  0.2886  0.3716
  478TMC3    C1 7160   0.558   1.214  11.474 -0.7232 -0.5839  0.3392
  478TMC3    C2 7161   0.496   1.316  11.537  0.0319  0.6796 -0.9131
  478TMC3    C3 7162   0.386   1.366  11.470  0.4505  0.0045 -0.8467
  478TMC3    C4 7163   0.513   1.163  11.358 -0.0520  0.0365 -0.1644
  478TMC3    C5 7164   0.412   1.219  11.297  0.1523 -0.4289 -0.1999
  478TMC3    C6 7165   0.343   1.321  11.344 -0.6019  1.1830  1.2085
  478TMC3     C 7166   0.645   1.139  11.560  0.7557  0.1976 -0.4101
  478TMC3     O 7167   0.605   1.025  11.573  0.1180  0.7975  0.2294
  478TMC3     H 7168   0.519   1.344  11.640 -1.8050 -4.5515  0.8829
  478TMC3    H1 7169   0.573   1.084  11.313 -0.1232  1.3713 -2.5960
  478TMC3    H2 7170   0.251   1.357  11.298 -0.3555  2.0383  1.3973
  478TMC3    C7 7171   0.357   1.147  11.182 -0.4364 -0.1883 -0.1129
  478TMC3    C8 7172   0.305   1.465  11.535 -0.3008 -0.2792  0.0395
  478TMC3    O1 7173   0.406   1.037  11.163  0.7682 -0.3144  0.9062
  478TMC3    O2 7174   0.246   1.527  11.453  0.3118  0.1430  0.1521
  479MPD2     C 7175   4.733   3.008  15.213 -0.1330  0.0108 -0.2669
  479MPD2    C1 7176   4.645   2.965  15.305  0.9007  0.0063  0.6192
  479MPD2    C2 7177   4.671   2.978  15.442  0.1956  0.3929 -0.5489
  479MPD2    C3 7178   0.028   3.067  15.485 -0.6651  0.1860  0.2488
  479MPD2    C4 7179   0.106   3.125  15.383 -0.7597 -0.1712 -0.4999
  479MPD2    C5 7180   0.102   3.089  15.256 -0.2637  0.4552 -0.2294
  479MPD2     H 7181   4.604   2.925  15.509  1.0153  0.5816  0.4226
  479MPD2    H1 7182   0.178   3.201  15.411 -3.0111  1.2302  1.4856
  479MPD2    H2 7183   4.724   2.980  15.109  0.7951  0.3382 -0.4360
  479MPD2    H3 7184   0.175   3.136  15.192 -1.8473  1.6097 -1.1920
  479MPD2     N 7185   0.029   3.123  15.615  0.0250  0.3949  0.2164
  479MPD2    H5 7186   0.060   3.220  15.618  0.8338  0.0907  1.6205
  479MPD2    N1 7187   4.521   2.912  15.259 -0.0722  0.1747  0.0001
  479MPD2    H7 7188   4.518   2.904  15.158  0.7818  2.7505 -0.2152
  480TMC3    C1 7189   4.420   3.098  15.893  0.4718  0.2615  0.4439
  480TMC3    C2 7190   4.345   3.161  15.800 -0.7154  0.7346 -0.5535
  480TMC3    C3 7191   4.409   3.240  15.705 -0.5306 -0.3027  0.3586
  480TMC3    C4 7192   4.553   3.113  15.891 -0.1018  0.5391  0.1108
  480TMC3    C5 7193   4.611   3.173  15.788  0.2385  0.0995 -0.6746
  480TMC3    C6 7194   4.540   3.241  15.699 -0.4033 -0.2214  0.2614
  480TMC3     C 7195   4.356   3.000  15.969 -0.2410 -0.1924  0.1502
  480TMC3     O 7196   4.427   2.950  16.057 -0.2617  0.1109  0.4014
  480TMC3     H 7197   4.239   3.179  15.814 -0.0691  1.8755  2.9301
  480TMC3    H1 7198   4.603   3.074  15.979  0.1202 -3.5112 -1.8068
  480TMC3    H2 7199   4.593   3.289  15.617 -1.6601  2.0895  0.8027
  480TMC3    C7 7200   4.687   3.073  15.720  0.5088  0.3809 -0.4722
  480TMC3    C8 7201   4.336   3.268  15.583  0.0383  0.2403  0.3580
  480TMC3    O1 7202   4.646   2.965  15.746  0.3121  0.4522 -0.0292
  480TMC3    O2 7203   4.214   3.287  15.591 -0.1633  0.7165  0.3588
  481MPD2     C 7204   1.546   2.746  14.206  0.0597  0.6905 -0.1769
  481MPD2    C1 7205   1.452   2.647  14.233 -0.5923 -0.2001  0.5567
  481MPD2    C2 7206   1.471   2.576  14.351 -0.0297  0.9102 -0.5931
  481MPD2    C3 7207   1.574   2.618  14.439  0.7006 -0.0842  0.3483
  481MPD2    C4 7208   1.650   2.726  14.416  0.5906 -0.0624  0.0398
  481MPD2    C5 7209   1.645   2.778  14.292 -0.4768 -0.7961 -0.3705
  481MPD2     H 7210   1.403   2.495  14.372  2.3556 -0.8128  0.6108
  481MPD2    H1 7211   1.733   2.759  14.478  0.9630 -0.1849 -0.3962
  481MPD2    H2 7212   1.531   2.808  14.119 -0.6931  1.9544  0.8595
  481MPD2    H3 7213   1.705   2.863  14.260  0.2095 -1.0509  0.2290
  481MPD2     N 7214   1.598   2.554  14.563  0.4961 -0.7841 -0.2192
  481MPD2    H5 7215   1.672   2.593  14.620 -1.5937 -0.5829  2.3254
  481MPD2    N1 7216   1.346   2.631  14.134 -0.0717 -0.5731 -0.4436
  481MPD2    H7 7217   1.332   2.691  14.053 -3.0370 -0.1999  0.3550
  482TMC3    C1 7218   1.147   2.543  14.046 -0.1372  0.0689 -0.3133
  482TMC3    C2 7219   1.055   2.433  14.036 -0.2300  0.4747 -0.0651
  482TMC3    C3 7220   0.921   2.458  14.003  0.0399 -0.7421  0.4501
  482TMC3    C4 7221   1.098   2.670  14.029 -0.5884 -0.0886  0.2851
  482TMC3    C5 7222   0.968   2.688  14.017 -1.0342 -0.0020 -0.2667
  482TMC3    C6 7223   0.873   2.591  13.995 -0.3930 -0.2131  1.0526
  482TMC3     C 7224   1.247   2.538  14.146  0.6154 -0.4453 -0.2777
  482TMC3     O 7225   1.240   2.435  14.213  0.3984 -0.1293  1.0565
  482TMC3     H 7226   1.086   2.332  14.059 -2.1780 -0.0403  0.3288
  482TMC3    H1 7227   1.165   2.753  14.045  1.5889 -1.6541 -0.6941
  482TMC3    H2 7228   0.770   2.620  13.977  0.0548  1.1444  0.7009
  482TMC3    C7 7229   0.939   2.824  13.972  0.2305 -0.7288  0.2070
  482TMC3    C8 7230   0.836   2.347  13.961 -0.1306 -0.1741  0.0685
  482TMC3    O1 7231   0.995   2.919  14.026  0.2509 -0.2186  0.1446
  482TMC3    O2 7232   0.866   2.232  13.989  0.1629 -0.0591  0.0200
  483TMC3    C1 7233   3.597   1.536   0.696 -0.5889  0.3480 -0.0126
  483TMC3    C2 7234   3.580   1.671   0.674  0.6735  0.4477 -0.7314
  483TMC3    C3 7235   3.683   1.754   0.707 -0.1625  0.1379 -0.0100
  483TMC3    C4 7236   3.704   1.485   0.753  0.2607 -0.6087  0.3101
  483TMC3    C5 7237   3.786   1.575   0.820  0.0648 -0.1225 -0.3925
  483TMC3    C6 7238   3.777   1.714   0.796  0.1325 -0.2724  0.3661
  483TMC3     C 7239   3.482   1.454   0.661 -0.7486 -0.1898 -0.2861
  483TMC3     O 7240   3.412   1.483   0.569  0.3928  0.5853  0.2639
  483TMC3     H 7241   3.499   1.708   0.612 -0.6761 -3.3613 -1.2855
  483TMC3    H1 7242   3.729   1.380   0.754  0.2120 -0.6366 -1.8223
  483TMC3    H2 7243   3.836   1.788   0.849 -0.4422 -0.7434  1.6752
  483TMC3    C7 7244   3.914   1.528   0.867  0.5043  0.0828 -0.3899
  483TMC3    C8 7245   3.723   1.858   0.612  0.3326  0.1403 -0.2944
  483TMC3    O1 7246   4.016   1.602   0.866 -0.4856  0.4767  0.2707
  483TMC3    O2 7247   3.642   1.921   0.539 -0.6109 -0.2306 -0.0664
  484MPD2     C 7248   1.864   3.920  12.831  0.5844  0.9032  0.3452
  484MPD2    C1 7249   1.837   4.051  12.851  0.4327 -0.4801 -0.2316
  484MPD2    C2 7250   1.908   4.146  12.775  0.0803  0.4558  1.0953
  484MPD2    C3 7251   2.009   4.108  12.684 -0.6482  0.1231 -0.3918
  484MPD2    C4 7252   2.028   3.970  12.662  0.2104 -0.2304  0.0869
  484MPD2    C5 7253   1.957   3.882  12.741  0.6085  0.3633 -0.0486
  484MPD2     H 7254   1.897   4.252  12.793  1.6679  0.7032  0.5868
  484MPD2    H1 7255   2.107   3.933  12.597  0.6516  0.8300 -0.0003
  484MPD2    H2 7256   1.811   3.849  12.893  1.9545  0.7179  1.3048
  484MPD2    H3 7257   1.980   3.776  12.739 -0.6255  0.0652  1.0086
  484MPD2     N 7258   2.097   4.199  12.624 -0.3365 -0.4636 -0.2817
  484MPD2    H5 7259   2.086   4.300  12.628 -0.7976 -0.4358 -1.9184
  484MPD2    N1 7260   1.753   4.089  12.958  0.7250  0.0614 -0.3218
  484MPD2    H7 7261   1.730   4.018  13.027 -0.4412  1.1611  0.4025
  485TMC3    C1 7262   2.289   4.290  12.528 -0.0988  0.3197  0.5229
  485TMC3    C2 7263   2.426   4.298  12.564 -0.8622  0.1421 -0.3954
  485TMC3    C3 7264   2.496   4.409  12.517 -0.1138 -0.3196 -0.2253
  485TMC3    C4 7265   2.234   4.370  12.432  0.0833 -0.5326 -0.0697
  485TMC3    C5 7266   2.312   4.467  12.374 -0.2736 -0.1411 -0.0893
  485TMC3    C6 7267   2.435   4.498  12.434  0.3377 -0.4612 -0.5305
  485TMC3     C 7268   2.222   4.176  12.586 -0.2074  1.0222  0.6716
  485TMC3     O 7269   2.297   4.084  12.623 -0.2665  0.3342 -0.0896
  485TMC3     H 7270   2.468   4.235  12.641 -0.8851 -2.0033 -2.1742
  485TMC3    H1 7271   2.142   4.332  12.389 -0.7693  1.0683  0.3498
  485TMC3    H2 7272   2.479   4.592  12.402  0.2251 -0.6767 -1.3233
  485TMC3    C7 7273   2.335   4.446  12.233  0.9052 -0.4517  0.4344
  485TMC3    C8 7274   2.639   4.388  12.488  0.2156  0.0441  0.5327
  485TMC3    O1 7275   2.336   4.331  12.192  0.3029  0.0206 -0.5884
  485TMC3    O2 7276   2.697   4.457  12.412 -0.0741  0.4273  0.1874
  486MPD2     C 7277   4.513   3.320  13.133 -0.3156 -0.2746 -0.5379
  486MPD2    C1 7278   4.392   3.258  13.092  0.2807  0.2185  0.2155
  486MPD2    C2 7279   4.274   3.335  13.102 -0.1876  0.5438  0.5703
  486MPD2    C3 7280   4.273   3.462  13.158 -0.0086  0.2928  0.6268
  486MPD2    C4 7281   4.395   3.508  13.199  0.0622 -0.6732  0.6433
  486MPD2    C5 7282   4.510   3.439  13.191 -0.5338 -0.0615  0.8730
  486MPD2     H 7283   4.177   3.294  13.079  2.2285 -4.3080 -0.8581
  486MPD2    H1 7284   4.401   3.610  13.234  3.9212 -0.2481 -1.2284
  486MPD2    H2 7285   4.605   3.268  13.110  0.0117  0.0297  0.0751
  486MPD2    H3 7286   4.609   3.475  13.217 -0.5835 -0.6478  1.8443
  486MPD2     N 7287   4.156   3.539  13.161  0.3907 -0.3664  0.3437
  486MPD2    H5 7288   4.072   3.492  13.129 -0.8107  0.4926  2.1798
  486MPD2    N1 7289   4.402   3.126  13.039 -0.0705  0.5113  0.1128
  486MPD2    H7 7290   4.492   3.079  13.046 -0.0023  0.2271 -2.5233
  487TMC3    C1 7291   4.326   2.919  12.949 -0.2117  0.0187  0.1172
  487TMC3    C2 7292   4.216   2.840  12.924 -0.6901  0.0947 -0.2593
  487TMC3    C3 7293   4.233   2.708  12.881  0.0510 -0.1102 -0.8009
  487TMC3    C4 7294   4.453   2.862  12.938  0.3213  0.4978  0.5099
  487TMC3    C5 7295   4.471   2.729  12.906  0.2465  0.0926 -0.4511
  487TMC3    C6 7296   4.362   2.661  12.845  0.1268  0.6832  0.2364
  487TMC3     C 7297   4.298   3.054  12.991  0.8377  0.1944  0.1637
  487TMC3     O 7298   4.183   3.085  12.984  0.4978 -0.5286 -0.1645
  487TMC3     H 7299   4.116   2.876  12.940 -0.0649  1.3858  0.6926
  487TMC3    H1 7300   4.533   2.916  12.987  0.0154  0.8821  0.5791
  487TMC3    H2 7301   4.371   2.554  12.830  0.0772  0.6577  0.3839
  487TMC3    C7 7302   4.506   2.648  13.020  0.1320  1.1179  0.4043
  487TMC3    C8 7303   4.166   2.618  12.970 -0.3978  0.1060  0.1440
  487TMC3    O1 7304   4.509   2.698  13.131  0.1597 -1.0016 -0.0556
  487TMC3    O2 7305   4.183   2.501  12.938  0.4155 -0.0552  0.1149
  488MPD2     C 7306   4.194   4.685  16.366 -0.2652 -0.1961  0.1221
  488MPD2    C1 7307   4.292   4.715  16.455 -0.3129 -0.2515  0.0010
  488MPD2    C2 7308   4.274   4.691  16.585  0.0166 -0.1968 -0.1781
  488MPD2    C3 7309   4.161   4.626  16.629 -0.3978  0.0239 -0.2299
  488MPD2    C4 7310   4.065   4.579  16.538  0.2711 -0.1396 -0.1227
  488MPD2    C5 7311   4.080   4.613  16.400  0.6719 -0.4323 -0.3326
  488MPD2     H 7312   4.344   4.726  16.660  0.5136 -0.0853 -0.6896
  488MPD2    H1 7313   3.970   4.538  16.572  1.1460 -2.6912 -0.7381
  488MPD2    H2 7314   4.209   4.715  16.263  0.8603  0.0470  0.3666
  488MPD2    H3 7315   4.007   4.586  16.324  1.1836 -0.1046 -0.9383
  488MPD2     N 7316   4.149   4.613  16.770  0.1944 -0.0147 -0.2243
  488MPD2    H5 7317   4.236   4.634  16.819 -0.9349  0.5022  1.5610
  488MPD2    N1 7318   4.405   0.057  16.427  0.3035 -0.1107 -0.3007
  488MPD2    H7 7319   4.458   0.095  16.505  1.6874 -1.6190 -0.4921
  489TMC3    C1 7320   4.059   4.542  16.978 -0.6367 -0.1447 -0.2627
  489TMC3    C2 7321   4.165   4.607  17.042  0.5137 -0.2515  0.1045
  489TMC3    C3 7322   4.177   4.600  17.178 -0.0713  0.0712 -0.4937
  489TMC3    C4 7323   3.955   4.486  17.051 -0.5298  0.2015  0.5305
  489TMC3    C5 7324   3.972   4.487  17.187 -0.1631 -0.4388  0.2121
  489TMC3    C6 7325   4.082   4.534  17.252 -0.7541 -0.1725  0.2028
  489TMC3     C 7326   4.037   4.554  16.836  0.2907  0.1730 -0.0404
  489TMC3     O 7327   3.941   4.496  16.793  0.3612  0.5664  0.2210
  489TMC3     H 7328   4.242   4.667  16.994  0.4546 -0.9161 -0.8211
  489TMC3    H1 7329   3.863   4.456  17.003 -0.4781  2.0373 -0.7437
  489TMC3    H2 7330   4.107   4.511  17.355  1.2094 -0.1534 -0.2770
  489TMC3    C7 7331   3.875   4.419  17.276  0.3587  0.1488 -0.2587
  489TMC3    C8 7332   4.274   4.687  17.232 -0.2958  0.4532 -0.0315
  489TMC3    O1 7333   3.893   4.436  17.395 -0.2592  0.2435 -0.2616
  489TMC3    O2 7334   4.378   4.698  17.169 -0.0162  0.3813 -0.1751
  490MPD2     C 7335   0.198   4.191  17.384 -0.0417  0.2102  0.7561
  490MPD2    C1 7336   0.122   4.201  17.501  0.6163  0.7754  0.8835
  490MPD2    C2 7337   0.159   4.278  17.613 -0.1812  1.0164 -0.0767
  490MPD2    C3 7338   0.287   4.331  17.606 -0.3706 -0.1574  0.6532
  490MPD2    C4 7339   0.361   4.324  17.489 -0.3499  0.1830  0.0764
  490MPD2    C5 7340   0.326   4.245  17.381 -0.3426  0.1466 -0.4877
  490MPD2     H 7341   0.107   4.291  17.707 -0.4329 -1.1435  0.0983
  490MPD2    H1 7342   0.458   4.371  17.484 -0.1180 -0.6533 -2.8433
  490MPD2    H2 7343   0.167   4.142  17.292 -1.0311  0.3269  1.0299
  490MPD2    H3 7344   0.391   4.237  17.295 -0.5337  0.7193 -0.6838
  490MPD2     N 7345   0.364   4.380  17.717  0.1112  0.4448  0.6527
  490MPD2    H5 7346   0.462   4.400  17.700  0.7076 -2.2802  0.8495
  490MPD2    N1 7347   0.010   4.116  17.529  0.1340  0.3151 -0.3646
  490MPD2    H7 7348   4.691   4.139  17.611  2.1496  1.8722  0.5644
  491TMC3    C1 7349   4.630   3.903  17.550  1.1396  0.0942  0.1759
  491TMC3    C2 7350   4.617   3.917  17.686  0.3778  0.4934  0.3380
  491TMC3    C3 7351   4.542   3.830   0.018  0.3607 -0.0225 -0.1263
  491TMC3    C4 7352   4.549   3.816  17.483  0.1763  0.8679  0.6809
  491TMC3    C5 7353   4.457   3.744  17.550 -0.4027 -0.0919  0.2192
  491TMC3    C6 7354   4.458   3.743  17.689 -0.1860  0.5332  0.3506
  491TMC3     C 7355   4.721   3.989  17.470 -0.2050  0.5548 -0.2955
  491TMC3     O 7356   0.028   3.942  17.366 -0.0051  0.1555  0.1735
  491TMC3     H 7357   4.675   3.991   0.001  1.2338 -0.5568  0.8618
  491TMC3    H1 7358   4.558   3.810  17.375 -0.4789  1.5546  0.5861
  491TMC3    H2 7359   4.380   3.687   0.001 -0.3607 -0.9759 -1.5390
  491TMC3    C7 7360   4.347   3.685  17.485 -0.6401 -0.8910  0.3128
  491TMC3    C8 7361   4.531   3.851   0.157  0.3526 -0.0221 -0.3706
  491TMC3    O1 7362   4.361   3.634  17.374  0.0202  0.4180  0.2288
  491TMC3    O2 7363   4.555   3.967   0.192  0.1082  0.0686  0.6200
  492MPD2     C 7364   0.065   4.109  11.490 -0.1666 -0.1650 -0.1748
  492MPD2    C1 7365   4.724   4.023  11.411  0.3788  0.5923 -0.8388
  492MPD2    C2 7366   4.651   3.919  11.469 -0.1647  0.4710 -0.4910
  492MPD2    C3 7367   4.661   3.899  11.604 -0.5828 -0.5410  1.0070
  492MPD2    C4 7368   0.001   3.977  11.678 -0.3818  0.1444  0.1829
  492MPD2    C5 7369   0.074   4.078  11.624 -0.4989 -0.5854 -0.3595
  492MPD2     H 7370   4.611   3.841  11.406  0.5835 -0.5305  0.2859
  492MPD2    H1 7371   0.017   3.949  11.781 -0.4397 -0.5374  0.0065
  492MPD2    H2 7372   0.145   4.171  11.451 -1.0737  0.3867 -1.1284
  492MPD2    H3 7373   0.150   4.132  11.678  0.0497 -1.4837 -0.2342
  492MPD2     N 7374   4.612   3.782  11.666  0.6216  0.1047 -0.2881
  492MPD2    H5 7375   4.645   3.770  11.761  0.0375  2.5725  0.2476
  492MPD2    N1 7376   4.730   4.057  11.269  0.6351  0.0426  0.1047
  492MPD2    H7 7377   0.049   4.138  11.242  0.6791 -0.3686 -1.0363
  493TMC3    C1 7378   4.685   4.042  11.033 -0.1135 -0.4851  0.0417
  493TMC3    C2 7379   0.066   4.103  10.996 -0.1080  0.1293 -0.6736
  493TMC3    C3 7380   0.073   4.150  10.867 -0.2055  0.0239 -0.1068
  493TMC3    C4 7381   4.581   4.021  10.949 -0.8450  0.3066  0.2597
  493TMC3    C5 7382   4.598   4.061  10.820 -0.0126 -0.7109 -0.3318
  493TMC3    C6 7383   4.714   4.118  10.775  0.6742 -0.4926  0.0578
  493TMC3     C 7384   4.678   3.977  11.167  0.0497 -0.4065 -0.1046
  493TMC3     O 7385   4.602   3.884  11.176 -0.4629 -0.0057  0.1189
  493TMC3     H 7386   0.156   4.112  11.056 -0.3252  0.6398 -0.4201
  493TMC3    H1 7387   4.493   3.968  10.983  0.0881 -1.0189  0.6086
  493TMC3    H2 7388   4.730   4.129  10.669 -0.7723  0.9381 -0.0075
  493TMC3    C7 7389   4.485   4.030  10.731 -0.6264 -0.1229 -0.0022
  493TMC3    C8 7390   0.191   4.221  10.823  0.1553  0.1915  0.2099
  493TMC3    O1 7391   4.395   3.965  10.774  0.2260  0.4322  0.1951
  493TMC3    O2 7392   0.297   4.204  10.882 -0.3366  0.0038  0.3281
  494TMC3    C1 7393   0.972   1.528   0.368  0.3316 -0.2193  0.8733
  494TMC3    C2 7394   0.924   1.398   0.366  0.2215  0.0595 -0.0809
  494TMC3    C3 7395   0.965   1.311   0.273 -0.0216 -0.6243 -0.4863
  494TMC3    C4 7396   1.053   1.569   0.265 -0.4137 -0.2415  0.7408
  494TMC3    C5 7397   1.103   1.488   0.175 -0.1187 -0.1083 -0.1010
  494TMC3    C6 7398   1.057   1.360   0.176  0.6646 -0.0623 -0.0305
  494TMC3     C 7399   0.904   1.627   0.453 -0.5716  0.4675  0.3300
  494TMC3     O 7400   0.974   1.726   0.479  0.1663  0.1558 -0.0981
  494TMC3     H 7401   0.876   1.360   0.456  3.2749 -0.4892  1.3039
  494TMC3    H1 7402   1.082   1.673   0.272 -0.4237 -0.0766 -1.5287
  494TMC3    H2 7403   1.095   1.297   0.097  0.2251  0.5318 -0.7152
  494TMC3    C7 7404   1.159   1.537   0.046  0.6139 -0.0119  0.1281
  494TMC3    C8 7405   0.969   1.173   0.320  0.2171  0.3684 -0.6062
  494TMC3    O1 7406   1.148   1.459  17.691  0.0540  0.3296  0.6190
  494TMC3    O2 7407   0.988   1.145   0.436 -0.1601 -0.1505 -0.1689
  495TMC3    C1 7408   0.046   3.052  14.722 -0.7710  0.0266 -0.2623
  495TMC3    C2 7409   4.727   3.110  14.615 -0.2775  0.1499 -0.4901
  495TMC3    C3 7410   4.636   3.213  14.621 -0.6526 -0.5480 -0.2557
  495TMC3    C4 7411   0.004   3.094  14.845  0.2126  0.2057 -0.4323
  495TMC3    C5 7412   4.663   3.202  14.853  0.5374 -1.2124  0.2556
  495TMC3    C6 7413   4.610   3.267  14.745  0.7982  0.5422  0.5620
  495TMC3     C 7414   0.069   2.911  14.702  0.3587  0.2245  0.0556
  495TMC3     O 7415   0.163   2.885  14.631  0.0117 -0.0346  0.0403
  495TMC3     H 7416   0.005   3.072  14.514 -0.6165  2.3026 -1.3513
  495TMC3    H1 7417   0.052   3.049  14.932  3.0111  1.2332 -1.4324
  495TMC3    H2 7418   4.543   3.351  14.757 -2.0539 -1.9185  1.8149
  495TMC3    C7 7419   4.620   3.255  14.987 -0.1085  0.0865 -0.2458
  495TMC3    C8 7420   4.516   3.199  14.536 -0.3357 -0.1165  0.5698
  495TMC3    O1 7421   4.713   3.269  15.066 -0.3074  0.2214  0.2156
  495TMC3    O2 7422   4.435   3.280  14.568 -1.0114  0.4386  0.2711
  496MPD2     C 7423   1.696   3.587  15.677  0.1810 -1.3333 -0.0702
  496MPD2    C1 7424   1.664   3.455  15.642  0.5186 -0.2180 -0.5726
  496MPD2    C2 7425   1.534   3.412  15.655 -0.6295  0.2775 -0.0775
  496MPD2    C3 7426   1.441   3.492  15.725 -0.2551  0.0688  0.4123
  496MPD2    C4 7427   1.473   3.623  15.750 -0.3244 -0.0076  0.3368
  496MPD2    C5 7428   1.598   3.669  15.732  0.4920 -0.3788  0.7346
  496MPD2     H 7429   1.495   3.319  15.615 -0.7832 -0.1926  1.1580
  496MPD2    H1 7430   1.393   3.692  15.778 -1.0565  0.1434 -2.1124
  496MPD2    H2 7431   1.794   3.631  15.666 -0.4771 -0.1812 -1.2569
  496MPD2    H3 7432   1.627   3.766  15.770  2.4518 -1.6383  2.4732
  496MPD2     N 7433   1.307   3.436  15.746  0.6329 -0.2303 -0.9714
  496MPD2    H5 7434   1.300   3.340  15.715  1.0310 -0.1466 -1.3278
  496MPD2    N1 7435   1.765   3.372  15.581 -0.4845 -0.3417 -0.1999
  496MPD2    H7 7436   1.860   3.405  15.593  0.0806 -2.4902  1.1953
  497TMC3    C1 7437   1.123   3.374  15.853 -0.0690 -0.2109 -0.3144
  497TMC3    C2 7438   1.081   3.316  15.736  0.0727 -0.1207  0.1944
  497TMC3    C3 7439   1.032   3.184  15.747  0.7649 -0.2277  0.3181
  497TMC3    C4 7440   1.134   3.313  15.970  0.1510 -0.6959  0.3509
  497TMC3    C5 7441   1.083   3.183  15.975 -0.2096  0.2055  0.2899
  497TMC3    C6 7442   1.021   3.124  15.868 -0.1356 -0.4093  0.0476
  497TMC3     C 7443   1.219   3.482  15.842 -0.3590 -0.9578 -0.3248
  497TMC3     O 7444   1.235   3.570  15.929 -0.1426 -0.3594  0.0200
  497TMC3     H 7445   1.059   3.373  15.647  0.4931 -0.1666  0.0577
  497TMC3    H1 7446   1.164   3.375  16.054  1.3014  0.4502 -0.8978
  497TMC3    H2 7447   0.981   3.025  15.885  0.0486 -0.8762 -2.1522
  497TMC3    C7 7448   1.128   3.094  16.076 -0.5929  0.2194 -0.0720
  497TMC3    C8 7449   1.033   3.109  15.624 -0.3992 -0.4939 -0.6798
  497TMC3    O1 7450   1.055   3.001  16.097 -0.2244 -0.2585 -0.3067
  497TMC3    O2 7451   0.953   3.018  15.600  0.3661  0.5024 -0.0648
  498MPD2     C 7452   2.747   4.486  10.129 -0.4286  0.1584 -0.9455
  498MPD2    C1 7453   2.654   4.576  10.099 -0.2463 -0.4230  0.2497
  498MPD2    C2 7454   2.558   4.601  10.191  0.4186 -0.0119 -0.2434
  498MPD2    C3 7455   2.548   4.537  10.317 -0.3368 -0.0705 -0.4061
  498MPD2    C4 7456   2.651   4.446  10.337 -0.5518  0.8942  0.0204
  498MPD2    C5 7457   2.740   4.411  10.243 -0.1039  0.8466 -0.3534
  498MPD2     H 7458   2.488   4.678  10.161  1.7191  0.4783 -1.9565
  498MPD2    H1 7459   2.664   4.389  10.429  1.2622 -1.5291 -1.7564
  498MPD2    H2 7460   2.814   4.458  10.049 -1.4963 -0.5417 -1.5823
  498MPD2    H3 7461   2.816   4.334  10.254 -0.9755 -0.1888 -1.5809
  498MPD2     N 7462   2.446   4.549  10.413  0.3662  0.2315 -0.0277
  498MPD2    H5 7463   2.446   4.485  10.492  2.2356  0.3234  0.0561
  498MPD2    N1 7464   2.648   4.652   9.979  0.1334  0.2042  0.2439
  498MPD2    H7 7465   2.559   4.701   9.976 -0.3037 -0.5753  0.5784
  499TMC3    C1 7466   2.708   4.732   9.762 -0.2082  0.3817 -0.3690
  499TMC3    C2 7467   2.753   4.689   9.643 -0.8248  0.1878 -0.0538
  499TMC3    C3 7468   2.703   0.023   9.532  0.6120  0.3960 -0.5865
  499TMC3    C4 7469   2.615   0.101   9.780  0.7520  0.5351  0.1961
  499TMC3    C5 7470   2.564   0.165   9.667  0.4706  0.3610 -0.1739
  499TMC3    C6 7471   2.612   0.127   9.543  0.1152  0.4112 -0.6068
  499TMC3     C 7472   2.751   4.654   9.879  0.3919  0.1204  0.2121
  499TMC3     O 7473   2.843   4.575   9.865  0.0318  0.7637  0.0106
  499TMC3     H 7474   2.836   4.620   9.634 -1.9538 -1.3217  1.1356
  499TMC3    H1 7475   2.618   0.144   9.880  1.2181 -1.3154  0.9796
  499TMC3    H2 7476   2.575   0.177   9.454  2.1008  1.3647 -0.8959
  499TMC3    C7 7477   2.497   0.293   9.682 -0.1207 -0.7853 -0.0438
  499TMC3    C8 7478   2.770   0.002   9.401 -0.3219 -0.4011 -0.3080
  499TMC3    O1 7479   2.530   0.380   9.603 -0.4526 -0.4364 -0.0683
  499TMC3    O2 7480   2.863   4.655   9.399 -0.0466  0.3925  0.3529
  500MPD2     C 7481   3.606   0.397  10.682 -0.3218 -0.5231 -0.6961
  500MPD2    C1 7482   3.669   0.488  10.594 -0.5951  0.2755 -0.4493
  500MPD2    C2 7483   3.598   0.560  10.498  0.6938  0.0108  0.2343
  500MPD2    C3 7484   3.465   0.531  10.473 -0.7079 -0.4686  0.3079
  500MPD2    C4 7485   3.405   0.451  10.566  0.0066  1.0544  0.2405
  500MPD2    C5 7486   3.472   0.387  10.665  0.2798 -0.1712  0.4141
  500MPD2     H 7487   3.656   0.627  10.435 -0.7801 -0.3511 -1.5138
  500MPD2    H1 7488   3.298   0.432  10.563  0.3940 -1.3412  2.0762
  500MPD2    H2 7489   3.654   0.354  10.769 -1.4660  2.6705  1.5391
  500MPD2    H3 7490   3.419   0.314  10.725 -0.6308  1.4891  1.6545
  500MPD2     N 7491   3.374   0.600  10.387 -0.8183 -0.4078 -0.3687
  500MPD2    H5 7492   3.275   0.594  10.406 -0.7848 -0.8025 -0.3119
  500MPD2    N1 7493   3.805   0.520  10.599  0.1306  0.1972  0.2422
  500MPD2    H7 7494   3.842   0.582  10.528 -0.4933  2.8573  2.2802
  501TMC3    C1 7495   4.018   0.540  10.706  0.3891  0.1068 -0.3772
  501TMC3    C2 7496   4.026   0.674  10.672 -0.2508 -0.0194 -0.2130
  501TMC3    C3 7497   4.139   0.745  10.719  0.2545  0.8566  0.0362
  501TMC3    C4 7498   4.109   0.478  10.788  0.1116 -0.1874 -0.0995
  501TMC3    C5 7499   4.218   0.552  10.829 -0.2672  0.5765  0.1797
  501TMC3    C6 7500   4.237   0.682  10.789 -0.7315 -0.4929  1.0883
  501TMC3     C 7501   3.897   0.469  10.698  0.4455  0.1000 -0.4557
  501TMC3     O 7502   3.883   0.383  10.786  0.9096  0.3495  0.3415
  501TMC3     H 7503   3.943   0.723  10.622  0.4223  1.3804  0.0208
  501TMC3    H1 7504   4.103   0.369  10.786  2.4777 -0.3146  0.2517
  501TMC3    H2 7505   4.316   0.747  10.825 -0.8947  1.1706 -1.5511
  501TMC3    C7 7506   4.329   0.467  10.876  0.2282 -0.0290 -0.7678
  501TMC3    C8 7507   4.183   0.865  10.653 -0.2178  0.3488 -0.4622
  501TMC3    O1 7508   4.320   0.346  10.872  0.1851 -0.5204 -0.3186
  501TMC3    O2 7509   4.283   0.920  10.695  0.0728  0.2026  0.2768
  502TMC3    C1 7510   4.044   4.098  14.975  0.5765  0.7132 -0.2468
  502TMC3    C2 7511   4.032   4.222  14.914  0.1973  0.3030  0.8806
  502TMC3    C3 7512   3.898   4.272  14.897  0.5448  0.6442  0.8883
  502TMC3    C4 7513   3.935   4.020  15.020  0.4980 -1.0954 -0.7247
  502TMC3    C5 7514   3.811   4.079  15.001  0.0346  0.2362 -0.0251
  502TMC3    C6 7515   3.784   4.203  14.941 -0.7107 -0.2274 -0.4941
  502TMC3     C 7516   4.154   4.082  15.063  0.2256 -0.0082  0.1933
  502TMC3     O 7517   4.260   4.140  15.042 -0.1740  0.1138 -0.3974
  502TMC3     H 7518   4.128   4.272  14.906  0.6784 -0.7201  0.2387
  502TMC3    H1 7519   3.945   3.918  15.053  0.2249 -0.5333  1.0789
  502TMC3    H2 7520   3.681   4.235  14.934  0.1346  2.3954 -1.0866
  502TMC3    C7 7521   3.696   3.995  15.031  0.1588 -0.5673  0.2199
  502TMC3    C8 7522   3.888   4.389  14.817 -0.1691  0.1164  0.1768
  502TMC3    O1 7523   3.720   3.878  15.025 -0.1667  0.7494 -0.5809
  502TMC3    O2 7524   3.992   4.421  14.762 -0.5337  0.1509 -0.0795
  503MPD2     C 7525   1.296   4.471  17.305  0.2283 -0.2030 -0.0083
  503MPD2    C1 7526   1.356   4.552  17.394 -0.5146 -0.5202  0.4705
  503MPD2    C2 7527   1.470   4.500  17.453 -0.0014 -0.3468 -0.1332
  503MPD2    C3 7528   1.519   4.371  17.432  0.2876 -0.6073 -0.7252
  503MPD2    C4 7529   1.457   4.291  17.339 -0.0665  0.8992 -0.0926
  503MPD2    C5 7530   1.343   4.346  17.282  0.1617  0.0499 -0.3849
  503MPD2     H 7531   1.527   4.572  17.511  0.1913 -0.0420 -0.7027
  503MPD2    H1 7532   1.492   4.195  17.305 -1.6898  0.9276 -1.8918
  503MPD2    H2 7533   1.212   4.513  17.252  0.0474 -0.1269  0.3360
  503MPD2    H3 7534   1.281   4.290  17.213  2.2481 -0.2595 -1.9866
  503MPD2     N 7535   1.645   4.322  17.486  0.0807  0.2286  0.6737
  503MPD2    H5 7536   1.681   4.232  17.457  0.6734  0.0003  2.1267
  503MPD2    N1 7537   1.321   4.688  17.417 -0.6022 -0.1202  0.7657
  503MPD2    H7 7538   1.381   4.731  17.486  0.8153  0.8431 -1.0493
  504TMC3    C1 7539   1.845   4.328  17.587 -0.3459  0.3857  0.1094
  504TMC3    C2 7540   1.824   4.203  17.632 -0.3603 -0.0967  0.3662
  504TMC3    C3 7541   1.925   4.113  17.631 -0.0611  0.2831  0.2722
  504TMC3    C4 7542   1.958   4.358  17.512  0.0180  0.2108  0.7207
  504TMC3    C5 7543   2.054   4.256  17.497  0.0362 -0.0403 -0.4604
  504TMC3    C6 7544   2.035   4.134  17.554  0.2800  0.4300 -0.0762
  504TMC3     C 7545   1.736   4.411  17.546 -0.4378  1.2605 -0.1252
  504TMC3     O 7546   1.743   4.532  17.553  0.3880 -0.7944 -0.3039
  504TMC3     H 7547   1.749   4.169  17.703 -2.4760  1.6397 -1.0190
  504TMC3    H1 7548   1.968   4.455  17.464  1.1276 -0.4256 -0.3342
  504TMC3    H2 7549   2.093   4.047  17.525  0.8499  1.2308 -1.3323
  504TMC3    C7 7550   2.142   4.264  17.383 -0.6835 -0.2857  0.1610
  504TMC3    C8 7551   1.879   3.980  17.649 -0.0986 -0.5212  0.2007
  504TMC3    O1 7552   2.168   4.156  17.326 -0.1261 -0.6878 -0.7829
  504TMC3    O2 7553   1.762   3.956  17.616 -0.4242 -0.3735 -0.1080
  505MPD2     C 7554   1.367   4.546  11.457  0.6374  0.1887  0.3024
  505MPD2    C1 7555   1.335   4.462  11.354 -0.5720 -0.1277  0.4293
  505MPD2    C2 7556   1.419   4.353  11.334  0.4220 -0.4231  0.3737
  505MPD2    C3 7557   1.524   4.327  11.414  0.5859 -1.3177  0.3676
  505MPD2    C4 7558   1.559   4.418  11.508 -0.0098  1.0612  0.0727
  505MPD2    C5 7559   1.479   4.529  11.528  0.6081  0.9115 -0.8932
  505MPD2     H 7560   1.402   4.288  11.249  0.6576 -0.3008  0.2322
  505MPD2    H1 7561   1.646   4.406  11.571 -0.6839 -0.0710  0.8047
  505MPD2    H2 7562   1.309   4.638  11.463  0.0948 -0.0609 -1.1035
  505MPD2    H3 7563   1.513   4.595  11.607  1.0130  2.1520 -2.1106
  505MPD2     N 7564   1.592   4.211  11.389  0.2717 -1.0019 -0.3376
  505MPD2    H5 7565   1.551   4.149  11.320 -2.5758 -0.3575  0.7620
  505MPD2    N1 7566   1.219   4.483  11.264 -0.4005  0.4695 -0.5650
  505MPD2    H7 7567   1.183   4.578  11.258  2.2342  1.2841 -3.2732
  506TMC3    C1 7568   1.126   4.470  11.047 -0.0775  0.7290 -0.0372
  506TMC3    C2 7569   1.191   4.570  10.981  0.0284 -0.4665 -0.4673
  506TMC3    C3 7570   1.163   4.579  10.851  0.5110 -0.1457  0.5045
  506TMC3    C4 7571   1.053   4.372  10.979 -0.6331 -0.2012 -1.0602
  506TMC3    C5 7572   1.057   4.373  10.842  0.2812  0.4920  0.3536
  506TMC3    C6 7573   1.118   4.477  10.771 -0.4357 -0.4646  0.3709
  506TMC3     C 7574   1.183   4.399  11.159  0.3374  0.9765  0.1937
  506TMC3     O 7575   1.186   4.274  11.154 -0.1699 -0.1694  0.2197
  506TMC3     H 7576   1.242   4.647  11.038  0.7744 -2.0877  1.0585
  506TMC3    H1 7577   1.001   4.292  11.030 -0.0804  0.5037  0.6251
  506TMC3    H2 7578   1.135   4.475  10.664 -1.1153  0.7978  0.2400
  506TMC3    C7 7579   1.085   4.244  10.790  0.0880 -0.0986  0.0718
  506TMC3    C8 7580   1.231   4.680  10.772 -0.7262 -0.5255 -0.3039
  506TMC3    O1 7581   1.086   4.237  10.671  0.7523 -0.1975  0.4012
  506TMC3    O2 7582   1.169   4.735  10.681  0.0593 -0.3541  0.6975
  507TMC3    C1 7583   2.472   4.333  14.600  0.4255  0.2681 -0.4358
  507TMC3    C2 7584   2.365   4.249  14.569  0.0990  0.1385 -0.0784
  507TMC3    C3 7585   2.341   4.219  14.440 -0.4049  0.3503 -0.3941
  507TMC3    C4 7586   2.547   4.401  14.503 -0.1060 -0.1195 -0.0193
  507TMC3    C5 7587   2.502   4.384  14.373 -0.8793 -0.4613 -0.3051
  507TMC3    C6 7588   2.406   4.290  14.346 -1.1653 -0.1078 -0.2339
  507TMC3     C 7589   2.491   4.387  14.732 -0.7240 -0.1215 -0.3042
  507TMC3     O 7590   2.602   4.426  14.763 -1.0213 -0.6228  0.0403
  507TMC3     H 7591   2.309   4.201  14.648  0.7219  1.0948  0.9320
  507TMC3    H1 7592   2.629   4.467  14.529  0.7189  0.1501 -3.3398
  507TMC3    H2 7593   2.374   4.268  14.245  1.9354  0.5541 -1.3320
  507TMC3    C7 7594   2.463   4.507  14.310 -0.2906 -0.2752  0.7811
  507TMC3    C8 7595   2.198   4.205  14.422 -0.8734  0.2563  0.0982
  507TMC3    O1 7596   2.374   4.502  14.228 -0.4494 -0.5144  0.1530
  507TMC3    O2 7597   2.141   4.131  14.502  0.0258  0.3910 -0.1067
  508MPD2     C 7598   3.170   1.876  16.225 -0.3734 -0.0406  0.6478
  508MPD2    C1 7599   3.215   2.004  16.254  0.2411  0.1789 -0.4785
  508MPD2    C2 7600   3.214   2.099  16.154  0.6847 -0.0698  0.2436
  508MPD2    C3 7601   3.170   2.077  16.026  0.2958  0.2412  0.3829
  508MPD2    C4 7602   3.117   1.956  15.995  0.0638  0.2627 -0.6127
  508MPD2    C5 7603   3.129   1.857  16.096  0.3550 -0.7519 -0.3501
  508MPD2     H 7604   3.254   2.196  16.183 -1.4813 -0.3905  4.2881
  508MPD2    H1 7605   3.057   1.931  15.908 -3.0589  0.3932  1.5099
  508MPD2    H2 7606   3.151   1.799  16.298  1.1133  0.4084  1.5122
  508MPD2    H3 7607   3.098   1.755  16.077 -3.0912  0.6174 -1.8977
  508MPD2     N 7608   3.196   2.173  15.926  0.3742 -0.5820  0.0941
  508MPD2    H5 7609   3.257   2.251  15.947  0.7339 -0.6388 -0.6933
  508MPD2    N1 7610   3.260   2.035  16.383  0.2172  0.4486 -0.3402
  508MPD2    H7 7611   3.267   2.133  16.408 -0.1257  0.2634  0.4807
  509TMC3    C1 7612   3.173   2.465  15.590  0.2850 -0.1694  0.5919
  509TMC3    C2 7613   3.307   2.491  15.585  0.2651 -0.8803  0.1693
  509TMC3    C3 7614   3.390   2.400  15.656 -0.3046 -0.2682  1.2501
  509TMC3    C4 7615   3.131   2.347  15.640  0.3729 -0.1938  0.2796
  509TMC3    C5 7616   3.215   2.260  15.701  0.1177 -0.6008  0.7642
  509TMC3    C6 7617   3.348   2.280  15.702 -0.2181  0.1061  0.4112
  509TMC3     C 7618   3.067   2.563  15.548  0.2038  0.0384  0.3388
  509TMC3     O 7619   2.947   2.536  15.564 -0.0202 -0.1239 -0.0746
  509TMC3     H 7620   3.353   2.583  15.550  0.4928 -0.8520  0.5471
  509TMC3    H1 7621   3.024   2.333  15.645  0.2963 -0.4265 -1.8138
  509TMC3    H2 7622   3.419   2.209  15.742  1.4030 -0.9309 -4.3298
  509TMC3    C7 7623   3.159   2.158  15.792  0.8811 -0.4745 -0.0276
  509TMC3    C8 7624   3.529   2.430  15.683  0.4573 -0.1377 -0.4787
  509TMC3    O1 7625   3.061   2.093  15.749 -0.0241 -0.2200  0.1232
  509TMC3    O2 7626   3.607   2.339  15.705  0.0370 -0.5186  0.5049
  510MPD2     C 7627   1.261   3.591  14.980 -0.1647 -0.0252 -0.4467
  510MPD2    C1 7628   1.288   3.467  14.936 -0.9435 -0.1286  0.0865
  510MPD2    C2 7629   1.419   3.447  14.889  0.2691  0.7944  0.3769
  510MPD2    C3 7630   1.517   3.541  14.885 -0.9467  0.5365  0.1848
  510MPD2    C4 7631   1.478   3.667  14.913 -0.1704 -0.5371  0.3247
  510MPD2    C5 7632   1.353   3.693  14.957 -0.2966 -0.6121  0.3395
  510MPD2     H 7633   1.450   3.347  14.860 -0.1920  1.1086 -1.1657
  510MPD2    H1 7634   1.549   3.747  14.893  0.3182 -1.2943 -0.9782
  510MPD2    H2 7635   1.161   3.617  15.012 -0.1683 -0.2656 -0.2601
  510MPD2    H3 7636   1.329   3.798  14.970  2.0076  0.1947 -2.0144
  510MPD2     N 7637   1.654   3.501  14.847  0.2607 -0.3604  0.2804
  510MPD2    H5 7638   1.661   3.412  14.799  1.0770  0.0239 -0.3265
  510MPD2    N1 7639   1.190   3.370  14.956 -0.0640 -0.3818 -0.7667
  510MPD2    H7 7640   1.096   3.403  14.942 -0.2230  0.5739  2.4578
  511TMC3    C1 7641   1.099   3.156  14.999 -0.7904  0.1320  0.0051
  511TMC3    C2 7642   0.995   3.210  15.069  1.0101 -0.0047  0.1301
  511TMC3    C3 7643   0.889   3.130  15.099 -0.2794  0.1426  0.0707
  511TMC3    C4 7644   1.100   3.023  14.959  0.6359  0.0046 -0.6742
  511TMC3    C5 7645   0.986   2.953  14.986  0.0398  0.1624 -0.0446
  511TMC3    C6 7646   0.877   2.998  15.052 -0.5326 -0.4741 -0.3389
  511TMC3     C 7647   1.214   3.236  14.965  0.5006 -0.6037 -0.1232
  511TMC3     O 7648   1.323   3.176  14.955  0.0014 -0.5781  0.0747
  511TMC3     H 7649   1.008   3.310  15.107  0.6197  0.2360 -0.3696
  511TMC3    H1 7650   1.179   2.986  14.894  0.6502 -0.5178 -0.3558
  511TMC3    H2 7651   0.778   2.956  15.064 -1.2385  0.5458 -2.6634
  511TMC3    C7 7652   0.973   2.825  14.914 -0.0345 -0.8195  0.7014
  511TMC3    C8 7653   0.799   3.181  15.199 -0.0547  0.8995  0.3760
  511TMC3    O1 7654   1.016   2.811  14.799 -0.2475  0.0919 -0.2381
  511TMC3    O2 7655   0.811   3.298  15.245  0.2606 -0.7555 -0.4948
  512TMC3    C1 7656   4.608   3.188  13.490  0.3317 -0.0026  0.1836
  512TMC3    C2 7657   4.716   3.191  13.574 -0.2985 -0.0987  0.0599
  512TMC3    C3 7658   0.091   3.120  13.539  0.1143 -0.5835  0.2315
  512TMC3    C4 7659   4.618   3.114  13.369  0.5076  0.3294 -0.3081
  512TMC3    C5 7660   4.725   3.029  13.349 -0.4317 -0.0534  0.2909
  512TMC3    C6 7661   0.102   3.040  13.425 -0.9898  0.1240  0.3738
  512TMC3     C 7662   4.485   3.256  13.527 -0.3342  0.0212 -0.2800
  512TMC3     O 7663   4.495   3.358  13.595 -0.2101 -0.5988  0.1677
  512TMC3     H 7664   4.706   3.243  13.669 -1.1103 -0.3503  0.1139
  512TMC3    H1 7665   4.532   3.094  13.306  1.1008  1.2888 -1.4088
  512TMC3    H2 7666   0.194   2.987  13.403  0.3048  2.1307  0.9256
  512TMC3    C7 7667   0.004   2.984  13.212 -0.3875  0.1977 -0.2927
  512TMC3    C8 7668   0.217   3.154  13.595  0.0309 -0.1466  0.1192
  512TMC3    O1 7669   4.659   3.036  13.135 -0.0390  0.2728 -0.0573
  512TMC3    O2 7670   0.300   3.063  13.590 -0.5441 -0.4827 -0.5100
  513MPD2     C 7671   1.838   2.603  13.367  0.6323 -0.0664 -0.1810
  513MPD2    C1 7672   1.942   2.671  13.307  0.9075  0.4039  0.4027
  513MPD2    C2 7673   1.996   2.772  13.381 -0.3187  0.3500  0.1881
  513MPD2    C3 7674   1.954   2.806  13.514  0.9260 -0.8087 -0.2637
  513MPD2    C4 7675   1.855   2.728  13.573 -0.2116  0.4356  0.6305
  513MPD2    C5 7676   1.799   2.633  13.491  0.4324 -0.0746 -0.7006
  513MPD2     H 7677   2.073   2.840  13.347  0.1163 -0.7390 -0.9791
  513MPD2    H1 7678   1.817   2.754  13.671 -0.4310  0.2423  0.5952
  513MPD2    H2 7679   1.791   2.518  13.319 -2.4701  0.5478  1.7896
  513MPD2    H3 7680   1.719   2.572  13.532  1.5905 -1.2971 -0.2546
  513MPD2     N 7681   1.999   2.929  13.572  0.3335 -0.3749 -0.1306
  513MPD2    H5 7682   2.069   2.979  13.519  1.2107 -0.4504  0.9467
  513MPD2    N1 7683   1.976   2.650  13.168 -0.3606 -0.5669  0.4319
  513MPD2    H7 7684   1.912   2.593  13.113 -0.9709  2.5803 -2.1874
  514TMC3    C1 7685   2.093   2.712  12.967 -0.7135  0.0364 -0.1853
  514TMC3    C2 7686   1.976   2.738  12.903 -0.0230 -1.0867 -0.5613
  514TMC3    C3 7687   1.975   2.818  12.794 -0.2668 -0.2250 -0.1307
  514TMC3    C4 7688   2.209   2.766  12.924  0.1413  0.0101 -0.7327
  514TMC3    C5 7689   2.212   2.853  12.814  0.9646  0.3915  0.2430
  514TMC3    C6 7690   2.092   2.869  12.750  0.9184 -0.0059 -0.4435
  514TMC3     C 7691   2.090   2.712  13.111  0.0365  0.2264  0.1062
  514TMC3     O 7692   2.184   2.770  13.164 -0.3873 -0.0048  0.1023
  514TMC3     H 7693   1.885   2.694  12.941 -0.7824  1.3098  0.3964
  514TMC3    H1 7694   2.300   2.738  12.975 -0.1922  3.4903  1.7813
  514TMC3    H2 7695   2.092   2.923  12.656 -0.8642  0.8217  0.0290
  514TMC3    C7 7696   2.256   2.988  12.850  0.3705  0.2583 -0.0730
  514TMC3    C8 7697   1.840   2.855  12.734  0.6276 -0.1373  0.5442
  514TMC3    O1 7698   2.263   3.068  12.756  0.2603 -0.1600 -0.0972
  514TMC3    O2 7699   1.743   2.806  12.785 -0.0861 -0.2668  0.3311
  515MPD2     C 7700   4.667   0.013  14.360 -0.0172 -0.1532 -0.2061
  515MPD2    C1 7701   4.631   4.648  14.459 -0.4187 -0.3410 -0.7311
  515MPD2    C2 7702   4.720   4.618  14.561 -0.2354 -0.7186 -0.3267
  515MPD2    C3 7703   0.091   4.701  14.587 -0.2564  0.6416 -0.5024
  515MPD2    C4 7704   0.120   0.070  14.504  0.0404 -0.0967  0.1541
  515MPD2    C5 7705   0.042   0.090  14.395  0.5817  0.0030  0.5673
  515MPD2     H 7706   4.703   4.529  14.621 -2.7440  0.8583  1.3255
  515MPD2    H1 7707   0.198   0.140  14.529 -0.2257  0.3701 -0.3226
  515MPD2    H2 7708   4.603   0.051  14.281  0.0314 -0.3273 -0.3294
  515MPD2    H3 7709   0.060   0.178  14.336  0.1750  0.0476  0.5069
  515MPD2     N 7710   0.181   4.679  14.697 -0.2875 -0.6132  0.0169
  515MPD2    H5 7711   0.257   0.011  14.700 -1.3369  0.5944 -0.2479
  515MPD2    N1 7712   4.514   4.567  14.459 -0.1580  0.3128  0.4968
  515MPD2    H7 7713   4.486   4.518  14.543 -2.4460  1.4402  0.3794
  516TMC3    C1 7714   4.288   4.524  14.409 -0.4178 -0.5860 -0.2118
  516TMC3    C2 7715   4.180   4.600  14.374 -0.2901 -0.0838  1.2436
  516TMC3    C3 7716   4.053   4.540  14.379  0.6480  0.0189  0.1075
  516TMC3    C4 7717   4.281   4.388  14.445 -0.8516  0.2194  0.1211
  516TMC3    C5 7718   4.154   4.337  14.454 -0.2142 -0.5715  0.8008
  516TMC3    C6 7719   4.040   4.410  14.416 -0.5221  0.9197 -0.3679
  516TMC3     C 7720   4.416   4.583  14.364  0.0987 -0.3042 -0.2500
  516TMC3     O 7721   4.413   4.654  14.264  0.3504  0.6998 -0.0071
  516TMC3     H 7722   4.196   4.704  14.346  0.0846 -1.0465 -2.0504
  516TMC3    H1 7723   4.371   4.332  14.468 -0.6496  0.4356 -0.1487
  516TMC3    H2 7724   3.944   4.359  14.414  0.5710 -1.1950  1.7082
  516TMC3    C7 7725   4.156   4.197  14.510  0.4929 -0.3648  0.9211
  516TMC3    C8 7726   3.948   4.607  14.308  0.5026 -0.0691  0.3115
  516TMC3    O1 7727   4.261   4.142  14.529  0.1765  0.6994  0.0310
  516TMC3    O2 7728   3.832   4.586  14.339 -0.8931 -0.6090  0.1200
  517MPD2     C 7729   4.407   1.158   0.248  0.3157  0.4730 -0.4789
  517MPD2    C1 7730   4.504   1.208   0.165 -0.3003 -0.2893 -0.0551
  517MPD2    C2 7731   4.523   1.344   0.154 -0.2636  0.6069 -0.2543
  517MPD2    C3 7732   4.454   1.428   0.237  0.2778 -0.7802 -0.2303
  517MPD2    C4 7733   4.369   1.378   0.328 -0.2479 -0.6851  0.0437
  517MPD2    C5 7734   4.334   1.243   0.326 -0.4411 -0.4615 -0.2383
  517MPD2     H 7735   4.592   1.388   0.083 -0.2843  0.5872 -0.2860
  517MPD2    H1 7736   4.318   1.439   0.402  0.9448 -0.8985  1.0496
  517MPD2    H2 7737   4.390   1.052   0.257 -2.0726  0.8571 -0.4568
  517MPD2    H3 7738   4.261   1.197   0.391  1.0689  1.1216  2.5948
  517MPD2     N 7739   4.490   1.567   0.258  0.0293  0.8129  0.0301
  517MPD2    H5 7740   4.438   1.619   0.328 -0.6706  1.9030 -1.2877
  517MPD2    N1 7741   4.569   1.115   0.077 -0.6825  0.1434  0.2708
  517MPD2    H7 7742   4.550   1.016   0.084 -0.2702 -0.2209 -3.5832
  518TMC3    C1 7743   4.707   1.019  17.659  0.3464  0.2127 -1.0072
  518TMC3    C2 7744   4.665   0.896  17.699 -0.2757  0.1953 -0.2069
  518TMC3    C3 7745   4.721   0.793  17.625  0.6980 -0.1983  0.0002
  518TMC3    C4 7746   0.070   1.038  17.565  0.4089  0.2995  0.2409
  518TMC3    C5 7747   0.131   0.929  17.508  0.5199  0.1759 -0.9266
  518TMC3    C6 7748   0.070   0.804  17.520 -0.7532 -0.4280 -0.4286
  518TMC3     C 7749   4.665   1.140  17.720 -0.2959  0.0041 -0.5236
  518TMC3     O 7750   4.729   1.246  17.699  0.3660  0.0545 -0.1387
  518TMC3     H 7751   4.585   0.876   0.030 -1.1021  1.3883 -0.7967
  518TMC3    H1 7752   0.099   1.139  17.539  0.3207  0.3014  0.1472
  518TMC3    H2 7753   0.097   0.728  17.448  0.8460 -0.8985  0.6517
  518TMC3    C7 7754   0.209   0.940  17.387  0.3184  0.1240 -0.3939
  518TMC3    C8 7755   4.669   0.660  17.637 -0.4263 -0.2157  0.8255
  518TMC3    O1 7756   0.216   1.047  17.325 -0.0778  0.1639  0.5920
  518TMC3    O2 7757   4.683   0.579  17.539  0.6287 -0.0260 -0.0500
  519MPD2     C 7758   1.402   3.971  14.366 -0.2020  0.6379 -0.5764
  519MPD2    C1 7759   1.385   4.084  14.295 -0.5631  0.2708  0.7617
  519MPD2    C2 7760   1.482   4.126  14.202 -0.2968  0.1724  0.0702
  519MPD2    C3 7761   1.591   4.049  14.179  0.9309 -0.1451  0.6070
  519MPD2    C4 7762   1.611   3.937  14.263  0.2930  0.0352 -0.1950
  519MPD2    C5 7763   1.520   3.895  14.359 -0.6702 -0.0554  0.6975
  519MPD2     H 7764   1.464   4.217  14.145 -2.0359  0.3481  0.8892
  519MPD2    H1 7765   1.700   3.879  14.241  0.0772 -0.1300 -0.6291
  519MPD2    H2 7766   1.341   3.930  14.446  1.1207 -0.8752 -0.3424
  519MPD2    H3 7767   1.548   3.807  14.415  0.1604 -0.3002 -0.1026
  519MPD2     N 7768   1.687   4.082  14.078 -0.2972  0.3432 -0.0514
  519MPD2    H5 7769   1.779   4.040  14.077 -0.2548  0.5159 -2.9493
  519MPD2    N1 7770   1.267   4.164  14.323  0.1692 -0.4974 -0.6771
  519MPD2    H7 7771   1.186   4.116  14.360 -1.1041  0.7477 -1.8318
  520TMC3    C1 7772   1.753   4.191  13.868  0.4057 -0.0455 -0.3509
  520TMC3    C2 7773   1.712   4.248  13.750 -0.3204 -0.2415  0.0745
  520TMC3    C3 7774   1.785   4.340  13.687 -0.4177 -0.7776 -0.1949
  520TMC3    C4 7775   1.877   4.227  13.915 -0.4515 -0.7280  0.2864
  520TMC3    C5 7776   1.953   4.313  13.842  0.2629 -0.2609  0.0301
  520TMC3    C6 7777   1.908   4.376  13.729  0.1759  0.0064  0.0997
  520TMC3     C 7778   1.651   4.154  13.965  0.3139  0.4747 -0.4083
  520TMC3     O 7779   1.543   4.204  13.933 -0.2001  0.4403 -0.0710
  520TMC3     H 7780   1.625   4.209  13.699  1.3812 -2.1439 -1.3681
  520TMC3    H1 7781   1.910   4.184  14.008  1.4278  1.8119  0.7830
  520TMC3    H2 7782   1.970   4.439  13.666 -1.2910  0.1878 -1.1544
  520TMC3    C7 7783   2.089   4.306  13.881 -0.3372 -0.9216 -0.6178
  520TMC3    C8 7784   1.722   4.419  13.584 -0.2601 -0.1804 -0.2037
  520TMC3    O1 7785   2.115   4.242  13.984 -0.0111 -0.2101 -0.1706
  520TMC3    O2 7786   1.791   4.461  13.493  0.1628  0.1647  0.0563
  521MPD2     C 7787   2.107   2.930  16.732  0.0108 -0.2630  0.0766
  521MPD2    C1 7788   2.159   2.862  16.842 -0.1963  0.2529  0.1599
  521MPD2    C2 7789   2.244   2.936  16.921 -0.4160  0.0779 -0.8982
  521MPD2    C3 7790   2.317   3.040  16.866 -0.0247 -0.0561 -0.5460
  521MPD2    C4 7791   2.278   3.092  16.745 -0.1052 -0.4279  0.1744
  521MPD2    C5 7792   2.161   3.045  16.686 -0.2394 -0.3057  0.7930
  521MPD2     H 7793   2.292   2.892  17.008 -1.1767 -0.3853 -0.7129
  521MPD2    H1 7794   2.330   3.175  16.700 -0.9960 -0.5731 -1.1412
  521MPD2    H2 7795   2.027   2.877  16.681 -0.9657 -0.3878  1.7305
  521MPD2    H3 7796   2.123   3.086  16.593  1.2892  1.3368  0.8953
  521MPD2     N 7797   2.444   3.078  16.929  0.2569  0.0378  0.5976
  521MPD2    H5 7798   2.458   3.020  17.012  0.5805  1.3466  1.4471
  521MPD2    N1 7799   2.105   2.734  16.872 -0.3976 -0.0349 -0.7953
  521MPD2    H7 7800   2.037   2.696  16.807 -0.3896 -0.2182 -0.6949
  522TMC3    C1 7801   2.633   2.963  16.851 -0.0778 -0.3012  0.4393
  522TMC3    C2 7802   2.764   2.980  16.815 -0.2016  0.1412 -0.0541
  522TMC3    C3 7803   2.840   2.869  16.820 -0.2720  1.1515  0.1994
  522TMC3    C4 7804   2.582   2.841  16.888 -1.0386 -0.9647 -0.0863
  522TMC3    C5 7805   2.666   2.731  16.891 -0.4585 -0.1824 -0.6324
  522TMC3    C6 7806   2.799   2.745  16.871 -0.3527 -0.0057 -0.2440
  522TMC3     C 7807   2.554   3.082  16.849 -0.5339 -0.3711 -0.6567
  522TMC3     O 7808   2.586   3.185  16.789 -0.1718  0.4843 -0.1542
  522TMC3     H 7809   2.815   3.072  16.787 -0.4141 -0.1770 -1.5146
  522TMC3    H1 7810   2.482   2.842  16.930 -0.3523 -0.1122  1.5297
  522TMC3    H2 7811   2.871   2.667  16.891  0.2734  0.2960 -1.3205
  522TMC3    C7 7812   2.614   2.604  16.853 -0.5738 -0.3272  0.7157
  522TMC3    C8 7813   2.985   2.888  16.798 -0.1109  0.3915 -0.1860
  522TMC3    O1 7814   2.689   2.508  16.878  0.1880 -0.3466 -0.1734
  522TMC3    O2 7815   3.026   3.003  16.809  0.0651  0.2585 -0.6685
  523MPD2     C 7816   0.121   2.839   9.882 -0.4379  0.4562  0.0074
  523MPD2    C1 7817   0.008   2.774   9.902 -0.0989  0.8994  0.2586
  523MPD2    C2 7818   4.639   2.784   9.817  0.4539  0.2314 -0.2068
  523MPD2    C3 7819   4.642   2.870   9.706 -0.5712  0.0636  0.3130
  523MPD2    C4 7820   0.022   2.940   9.681 -0.2796  0.2456  0.5905
  523MPD2    C5 7821   0.126   2.922   9.770 -0.1969 -0.2343  0.7017
  523MPD2     H 7822   4.548   2.728   9.835  0.9327 -1.0058 -1.7143
  523MPD2    H1 7823   0.038   2.994   9.588 -0.5919 -0.4667  0.1217
  523MPD2    H2 7824   0.207   2.830   9.947 -1.0762 -1.3267  0.6267
  523MPD2    H3 7825   0.215   2.981   9.755 -1.0594  1.0322  0.6233
  523MPD2     N 7826   4.537   2.894   9.613 -0.1401 -0.1217 -0.3020
  523MPD2    H5 7827   4.560   2.954   9.534  0.3558  0.0817 -0.0058
  523MPD2    N1 7828   4.734   2.697  10.021  0.1679 -0.6223  0.3351
  523MPD2    H7 7829   0.088   2.673  10.064 -0.3247  0.6212  2.0428
  524TMC3    C1 7830   4.323   2.872   9.519 -0.3419 -0.5305 -0.4760
  524TMC3    C2 7831   4.217   2.789   9.494  0.1409 -0.3228  0.4943
  524TMC3    C3 7832   4.108   2.841   9.440  0.1566  0.0569 -0.0087
  524TMC3    C4 7833   4.320   3.005   9.493 -0.4596 -0.6320 -0.2309
  524TMC3    C5 7834   4.202   3.053   9.435 -0.2455  0.5399  0.3785
  524TMC3    C6 7835   4.093   2.975   9.414  0.1502 -0.5435  0.4082
  524TMC3     C 7836   4.416   2.830   9.621 -0.7937 -0.2035 -0.6373
  524TMC3     O 7837   4.377   2.749   9.705  0.3032  0.4180  0.4830
  524TMC3     H 7838   4.238   2.682   9.494 -1.2546 -0.6101 -0.8742
  524TMC3    H1 7839   4.407   3.070   9.502 -1.6937  1.4402 -3.2062
  524TMC3    H2 7840   4.013   3.012   9.351  0.2371  0.8570  1.1298
  524TMC3    C7 7841   4.202   3.191   9.408  0.0032  0.6788 -0.2402
  524TMC3    C8 7842   4.006   2.752   9.387  0.0929  0.1419  1.1891
  524TMC3    O1 7843   4.314   3.244   9.393 -0.0341 -0.6117  0.1689
  524TMC3    O2 7844   3.923   2.793   9.306 -0.4242  0.2634 -0.1601
  525MPD2     C 7845   2.913   4.196  14.386 -1.0408  0.5472 -0.1128
  525MPD2    C1 7846   2.979   4.225  14.505  0.4217 -0.4855 -0.8456
  525MPD2    C2 7847   3.010   4.359  14.527  0.0170  0.5844  0.7820
  525MPD2    C3 7848   3.000   4.454  14.431  0.2481  0.1133 -0.5761
  525MPD2    C4 7849   2.947   4.416  14.307  0.2471  0.2956 -0.2649
  525MPD2    C5 7850   2.904   4.285  14.286  0.4244 -0.0480  0.0788
  525MPD2     H 7851   3.063   4.384  14.618 -2.2045  1.5931  1.8022
  525MPD2    H1 7852   2.929   4.496  14.237  1.5239  1.5966  0.8888
  525MPD2    H2 7853   2.888   4.094  14.358  2.2293 -0.1471 -0.4944
  525MPD2    H3 7854   2.850   4.257  14.196 -1.5754 -2.8602  2.1609
  525MPD2     N 7855   3.029   4.597  14.449  0.8828 -0.6906  0.8769
  525MPD2    H5 7856   3.030   4.662  14.371 -1.2424 -1.1903  0.4254
  525MPD2    N1 7857   3.008   4.135  14.607 -0.1336  0.2424  0.5799
  525MPD2    H7 7858   3.053   4.178  14.688 -0.3425  1.9358 -0.2021
  526TMC3    C1 7859   3.038   3.925  14.716 -0.1335 -0.0739 -0.0526
  526TMC3    C2 7860   2.966   3.858  14.807  0.4259  0.2082  0.8029
  526TMC3    C3 7861   3.044   3.801  14.902  0.4298  0.1415  0.2519
  526TMC3    C4 7862   3.173   3.937  14.719  0.1427 -0.4493  0.1247
  526TMC3    C5 7863   3.248   3.876  14.816  0.8685 -0.2823  0.6711
  526TMC3    C6 7864   3.185   3.804  14.908  0.4509  0.6731  0.0894
  526TMC3     C 7865   2.961   4.005  14.624 -0.8958  0.3701  0.2055
  526TMC3     O 7866   2.854   3.968  14.575 -0.2471  0.1000  0.2418
  526TMC3     H 7867   2.859   3.845  14.805  0.5641 -0.6619 -0.6285
  526TMC3    H1 7868   3.211   4.012  14.650 -0.7849 -0.9356 -0.9169
  526TMC3    H2 7869   3.241   3.762  14.991  0.7145  0.2372 -0.3086
  526TMC3    C7 7870   3.361   3.797  14.770 -0.3224  0.3915  0.1955
  526TMC3    C8 7871   2.983   3.761  15.029 -0.4289 -0.4148 -0.4563
  526TMC3    O1 7872   3.405   3.711  14.845  0.2069 -0.2267  0.1199
  526TMC3    O2 7873   3.065   3.720  15.112  0.1960 -0.5030  0.3679
  527MPD2     C 7874   1.067   2.717   0.756 -1.9967 -0.5923  0.3421
  527MPD2    C1 7875   0.993   2.677   0.864  0.0308 -0.8665  0.5001
  527MPD2    C2 7876   1.022   2.558   0.927 -0.8364  0.0452 -0.0935
  527MPD2    C3 7877   1.136   2.479   0.892 -0.1432 -1.0253  0.2867
  527MPD2    C4 7878   1.204   2.529   0.781 -0.0752  0.3092 -0.0922
  527MPD2    C5 7879   1.162   2.634   0.704 -0.3382  0.0201  0.3705
  527MPD2     H 7880   0.965   2.532   1.015  1.1578 -0.6704  0.9823
  527MPD2    H1 7881   1.284   2.471   0.735 -0.3200  0.7776 -1.1148
  527MPD2    H2 7882   1.040   2.810   0.707  0.3894 -0.8828 -1.5524
  527MPD2    H3 7883   1.217   2.650   0.612 -1.3212  2.0798  0.1380
  527MPD2     N 7884   1.166   2.354   0.957 -0.3336 -0.1117 -0.4218
  527MPD2    H5 7885   1.110   2.316   1.032 -0.6696 -1.4600 -1.3517
  527MPD2    N1 7886   0.886   2.750   0.915  0.3592  0.0786  0.3697
  527MPD2    H7 7887   0.836   2.709   0.993  1.6395 -1.1853  0.5302
  528TMC3    C1 7888   0.698   2.896   0.913 -0.8316  0.3710  0.0124
  528TMC3    C2 7889   0.609   2.964   0.835  0.3000 -0.3335 -0.4764
  528TMC3    C3 7890   0.474   2.968   0.877  0.5141 -0.5835  0.4308
  528TMC3    C4 7891   0.658   2.836   1.031 -0.0350 -1.1808 -0.0022
  528TMC3    C5 7892   0.529   2.832   1.061  0.4621 -0.2782 -0.3679
  528TMC3    C6 7893   0.432   2.898   0.987  1.0593 -0.3374  0.0952
  528TMC3     C 7894   0.827   2.851   0.851 -0.4016 -1.0926  0.4318
  528TMC3     O 7895   0.852   2.897   0.740 -0.2680  0.2031  0.0129
  528TMC3     H 7896   0.644   3.030   0.756  1.1856  0.2055  0.3706
  528TMC3    H1 7897   0.729   2.795   1.102  0.7524 -0.4488 -0.3668
  528TMC3    H2 7898   0.331   2.901   1.025  0.5629  0.0601 -1.2502
  528TMC3    C7 7899   0.491   2.711   1.130 -0.1102  0.0379 -0.6576
  528TMC3    C8 7900   0.387   3.047   0.796  0.7173  0.4818 -0.7152
  528TMC3    O1 7901   0.577   2.674   1.204 -0.0464  0.2005 -0.4133
  528TMC3    O2 7902   0.443   3.117   0.718 -0.3801 -0.5209  0.1267
  529MPD2     C 7903   2.670   0.325   0.962 -0.1867 -0.6404 -0.3070
  529MPD2    C1 7904   2.797   0.378   0.943  0.8098  0.3562 -0.1818
  529MPD2    C2 7905   2.815   0.476   0.849  0.5140 -0.0733  0.0475
  529MPD2    C3 7906   2.703   0.510   0.769 -0.7996 -0.7572 -0.5341
  529MPD2    C4 7907   2.584   0.448   0.783  0.3337  0.3201 -0.7883
  529MPD2    C5 7908   2.566   0.359   0.881  0.8721  0.2751  0.5197
  529MPD2     H 7909   2.914   0.513   0.830  0.4001  0.3240  0.2239
  529MPD2    H1 7910   2.507   0.468   0.710 -0.8670  0.3528  0.4839
  529MPD2    H2 7911   2.658   0.242   1.030 -2.9823  0.4919  0.5996
  529MPD2    H3 7912   2.478   0.296   0.884  0.1863  1.1857 -0.5664
  529MPD2     N 7913   2.711   0.594   0.659 -0.2084 -0.1976  0.2007
  529MPD2    H5 7914   2.624   0.618   0.614  0.0751 -0.0833 -0.2807
  529MPD2    N1 7915   2.912   0.346   1.016 -0.0140  0.4830 -0.1954
  529MPD2    H7 7916   2.991   0.407   0.997 -0.5748  0.9440 -1.0390
  530TMC3    C1 7917   3.060   0.215   1.146  0.4896 -0.6582 -0.1826
  530TMC3    C2 7918   3.114   0.324   1.208 -0.0561 -0.3307 -0.3782
  530TMC3    C3 7919   3.239   0.317   1.268 -0.5247  0.2754  0.4813
  530TMC3    C4 7920   3.106   0.087   1.174 -0.4767  0.9322 -0.1533
  530TMC3    C5 7921   3.218   0.081   1.250  0.4279 -0.4757 -0.0904
  530TMC3    C6 7922   3.291   0.189   1.289  0.5712 -0.0007 -0.3126
  530TMC3     C 7923   2.925   0.233   1.091  0.2028  0.1290 -0.2669
  530TMC3     O 7924   2.846   0.138   1.100  0.0465  0.0764 -0.3458
  530TMC3     H 7925   3.072   0.423   1.189  0.6286 -1.1347 -6.0125
  530TMC3    H1 7926   3.057   4.735   1.131 -0.0363 -0.5864  2.4394
  530TMC3    H2 7927   3.384   0.180   1.344  0.7555 -0.4897 -0.7071
  530TMC3    C7 7928   3.261   4.682   1.300  0.1476  0.0283  0.8472
  530TMC3    C8 7929   3.297   0.442   1.312  0.3181 -0.1091  0.7133
  530TMC3    O1 7930   3.381   4.667   1.318 -0.1298 -0.5555 -0.2372
  530TMC3    O2 7931   3.223   0.538   1.327  0.1122 -0.1316 -0.7153
  531MPD2     C 7932   2.284   3.347  13.219 -0.6210 -0.4299  0.1058
  531MPD2    C1 7933   2.245   3.226  13.274  0.0504 -0.3226 -0.6261
  531MPD2    C2 7934   2.244   3.112  13.196 -0.0306 -0.2296  0.8462
  531MPD2    C3 7935   2.264   3.120  13.064  0.2065 -0.0355 -0.0924
  531MPD2    C4 7936   2.301   3.240  13.008  0.0442  0.2389  0.5298
  531MPD2    C5 7937   2.316   3.346  13.086  0.4828 -0.3859  0.4850
  531MPD2     H 7938   2.230   3.022  13.255 -1.2591  0.0749  1.0374
  531MPD2    H1 7939   2.332   3.256  12.905 -0.6470  0.8951  0.4245
  531MPD2    H2 7940   2.295   3.439  13.273 -0.1945 -0.5014  0.1374
  531MPD2    H3 7941   2.348   3.441  13.043  0.0218 -0.5922 -0.3120
  531MPD2     N 7942   2.260   3.006  12.988  0.0212  0.1915 -0.1654
  531MPD2    H5 7943   2.226   2.926  13.040 -2.9896  2.8990  1.9672
  531MPD2    N1 7944   2.237   3.211  13.411 -0.2298 -0.3401 -0.3269
  531MPD2    H7 7945   2.225   3.118  13.451  1.5085 -0.5280 -0.2201
  532TMC3    C1 7946   2.185   3.259  13.627 -0.6690 -0.0170  0.5338
  532TMC3    C2 7947   2.072   3.179  13.627  0.3226 -0.6908  0.2648
  532TMC3    C3 7948   2.061   3.093  13.726  0.1532  0.1542  0.0841
  532TMC3    C4 7949   2.284   3.252  13.724 -0.0063  0.1292 -0.5932
  532TMC3    C5 7950   2.261   3.169  13.828 -0.8227  0.1576 -0.5956
  532TMC3    C6 7951   2.150   3.088  13.830 -0.4861 -0.1644  0.9117
  532TMC3     C 7952   2.233   3.307  13.504 -0.4289  0.0207 -0.4130
  532TMC3     O 7953   2.297   3.414  13.506 -0.2021  0.4520 -0.0677
  532TMC3     H 7954   2.001   3.184  13.545 -1.2374  2.7001  1.8195
  532TMC3    H1 7955   2.379   3.302  13.706 -0.2092  0.9906  0.7425
  532TMC3    H2 7956   2.154   3.005  13.899  1.7872  0.0462  1.0399
  532TMC3    C7 7957   2.381   3.126  13.901  0.3515  0.5177  0.4419
  532TMC3    C8 7958   1.987   2.966  13.704  0.3317 -0.0271  0.0966
  532TMC3    O1 7959   2.445   3.209  13.958 -0.7426  0.0427  0.1043
  532TMC3    O2 7960   1.937   2.903  13.796  0.2396 -0.5131 -0.0754
  533TMC3    C1 7961   3.022   0.061  14.568 -0.3377 -0.0080 -0.2755
  533TMC3    C2 7962   3.124   0.127  14.510 -0.1973 -0.8888  1.3667
  533TMC3    C3 7963   3.130   0.261  14.523  0.5577 -0.8049  0.4006
  533TMC3    C4 7964   2.928   0.130  14.637  0.1539  0.4530 -0.1529
  533TMC3    C5 7965   2.958   0.263  14.671 -0.2434 -1.2834 -0.3703
  533TMC3    C6 7966   3.060   0.330  14.619  0.3199  0.0526  0.2867
  533TMC3     C 7967   3.012   4.656  14.573 -0.1258  0.3690 -0.6863
  533TMC3     O 7968   2.961   4.611  14.677  0.1133 -0.1099  0.3769
  533TMC3     H 7969   3.188   0.080  14.436 -1.2875 -0.0529 -0.0974
  533TMC3    H1 7970   2.829   0.091  14.659  0.6519 -0.4728  0.4822
  533TMC3    H2 7971   3.078   0.434  14.639  1.3694  0.1677 -1.2291
  533TMC3    C7 7972   2.943   0.283  14.808  0.2151 -0.2610  0.2624
  533TMC3    C8 7973   3.253   0.314  14.469 -0.2870  0.6558  0.0508
  533TMC3    O1 7974   2.954   0.391  14.862 -0.0688  0.2859  0.0812
  533TMC3    O2 7975   3.351   0.241  14.479 -0.9727 -0.3163  0.4830
  534MPD2     C 7976   1.199   0.954   1.163 -0.7581  0.1943  0.5206
  534MPD2    C1 7977   1.159   1.087   1.148 -0.0780 -0.2251  0.3471
  534MPD2    C2 7978   1.048   1.118   1.083  0.3357 -0.8586  0.2173
  534MPD2    C3 7979   0.971   1.010   1.028  0.4006 -0.1286  0.3680
  534MPD2    C4 7980   1.014   0.877   1.037 -0.9031 -0.4056  0.0736
  534MPD2    C5 7981   1.132   0.852   1.102 -0.1175  0.0240  0.2893
  534MPD2     H 7982   1.034   1.223   1.058 -1.8156 -1.7852 -2.4447
  534MPD2    H1 7983   0.962   0.792   0.994 -0.8681 -1.2331  1.6782
  534MPD2    H2 7984   1.284   0.922   1.222  1.2781  0.0748 -2.4727
  534MPD2    H3 7985   1.172   0.751   1.102  0.0244  0.0801  0.6301
  534MPD2     N 7986   0.850   1.023   0.951 -0.6864  0.2344  0.1365
  534MPD2    H5 7987   0.830   0.942   0.894  0.6729 -1.7168  2.4268
  534MPD2    N1 7988   1.239   1.191   1.191 -0.1222  0.0684 -0.0927
  534MPD2    H7 7989   1.209   1.280   1.152  1.1631  0.3515 -0.4411
  535TMC3    C1 7990   0.678   1.128   0.834 -0.0581 -0.6066  0.3324
  535TMC3    C2 7991   0.578   1.218   0.840  0.0069  0.8281  0.0292
  535TMC3    C3 7992   0.502   1.247   0.732  0.7204  0.5398  0.1248
  535TMC3    C4 7993   0.705   1.065   0.718  0.3152 -0.0729  0.5276
  535TMC3    C5 7994   0.630   1.103   0.607 -0.8635 -0.7163 -0.7418
  535TMC3    C6 7995   0.521   1.180   0.615 -0.2059  0.1622  0.2783
  535TMC3     C 7996   0.773   1.134   0.943 -0.0271  0.1255 -0.3902
  535TMC3     O 7997   0.766   1.227   1.022  0.0946 -0.2720 -0.0290
  535TMC3     H 7998   0.553   1.263   0.935 -1.1515 -1.5473  0.8364
  535TMC3    H1 7999   0.787   0.994   0.712  0.6973  0.5053 -1.1995
  535TMC3    H2 8000   0.443   1.193   0.540  0.3334  0.1874 -0.2825
  535TMC3    C7 8001   0.655   1.021   0.496  0.0452 -0.6816 -0.8255
  535TMC3    C8 8002   0.357   1.278   0.760  0.0598 -0.0367 -0.0869
  535TMC3    O1 8003   0.678   0.903   0.527  0.0916 -0.1098  0.1718
  535TMC3    O2 8004   0.265   1.225   0.698  0.2346  0.0568 -0.0583
  536MPD2     C 8005   4.217   3.940  16.526 -0.5523  0.4745  0.6862
  536MPD2    C1 8006   4.110   3.853  16.504  0.3264 -0.6362  0.0173
  536MPD2    C2 8007   4.081   3.826  16.373  0.3514  1.1372 -0.0377
  536MPD2    C3 8008   4.154   3.878  16.265  0.3201  0.3423  0.4781
  536MPD2    C4 8009   4.257   3.966  16.292  0.9501 -0.3788  0.3455
  536MPD2    C5 8010   4.290   3.987  16.421  0.4562 -0.1812 -0.2188
  536MPD2     H 8011   3.992   3.765  16.358  1.6490 -1.1722  1.6099
  536MPD2    H1 8012   4.305   4.029  16.219  1.7260 -1.0780  0.2507
  536MPD2    H2 8013   4.247   3.975  16.625  1.7413  1.5445 -0.3883
  536MPD2    H3 8014   4.379   4.042  16.451  1.1564 -2.0312  1.0982
  536MPD2     N 8015   4.118   3.866  16.129 -0.7485 -0.2968  0.4446
  536MPD2    H5 8016   4.156   3.939  16.069 -2.0305 -0.1331 -0.1786
  536MPD2    N1 8017   4.043   3.787  16.619  0.1708 -0.1590  0.3588
  536MPD2    H7 8018   4.084   3.818  16.706  1.4656  0.9678 -0.6513
  537TMC3    C1 8019   3.885   3.666  16.736 -0.6117 -0.1024  0.0787
  537TMC3    C2 8020   3.968   3.673  16.844 -0.1582  0.3418  0.0305
  537TMC3    C3 8021   3.938   3.605  16.960  0.0079 -0.4253  0.3798
  537TMC3    C4 8022   3.785   3.578  16.728  0.1763 -0.5321 -0.4617
  537TMC3    C5 8023   3.780   3.489  16.830  0.1051  0.1852 -0.7380
  537TMC3    C6 8024   3.844   3.507  16.950  0.2071 -1.0853 -0.2647
  537TMC3     C 8025   3.941   3.698  16.609 -0.3197 -0.1952  0.3240
  537TMC3     O 8026   3.894   3.642  16.514  0.1890 -0.3610  0.2596
  537TMC3     H 8027   4.060   3.730  16.853 -0.4146  0.6826  0.4810
  537TMC3    H1 8028   3.718   3.572  16.643  1.1367  0.9808 -1.3184
  537TMC3    H2 8029   3.828   3.440  17.034  3.0078 -0.5813  0.6795
  537TMC3    C7 8030   3.667   3.403  16.843  0.4835 -0.3820 -0.0397
  537TMC3    C8 8031   3.985   3.639  17.089  0.4945 -0.1658  0.0581
  537TMC3    O1 8032   3.569   3.423  16.770  0.0086 -0.2138  0.4050
  537TMC3    O2 8033   4.077   3.719  17.092  0.0736 -0.6904  0.2420
  538TMC3    C1 8034   0.314   2.230  10.927 -0.4348  0.2379  0.0451
  538TMC3    C2 8035   0.422   2.309  10.952  0.4098 -0.3879  0.5518
  538TMC3    C3 8036   0.450   2.410  10.864 -0.5581 -0.5275 -0.0525
  538TMC3    C4 8037   0.221   2.258  10.830 -0.2005  0.3238  0.5762
  538TMC3    C5 8038   0.244   2.383  10.776 -0.9583 -0.8905 -0.3016
  538TMC3    C6 8039   0.356   2.457  10.778  0.7960  0.2884  0.7413
  538TMC3     C 8040   0.252   2.158  11.039 -0.3982 -0.0991 -0.6130
  538TMC3     O 8041   0.140   2.111  11.014  0.4333 -0.0509  0.1106
  538TMC3     H 8042   0.497   2.277  11.022  1.1492 -0.9293 -0.4899
  538TMC3    H1 8043   0.133   2.195  10.821  0.4252 -0.5130  0.2813
  538TMC3    H2 8044   0.358   2.558  10.736 -1.7411 -0.6244 -1.5828
  538TMC3    C7 8045   0.118   2.439  10.736  0.6286  0.3051 -0.2206
  538TMC3    C8 8046   0.586   2.448  10.855  0.3714  1.0310 -1.0352
  538TMC3    O1 8047   0.035   2.362  10.692  0.4382 -0.0218 -0.5007
  538TMC3    O2 8048   0.666   2.394  10.937 -0.0051 -0.5569  0.5172
  539MPD2     C 8049   0.263   1.557  11.883  0.5244  0.8503  0.4135
  539MPD2    C1 8050   0.242   1.566  11.747 -0.5160 -0.0674  0.7248
  539MPD2    C2 8051   0.130   1.635  11.697  0.8279 -0.2549 -0.8939
  539MPD2    C3 8052   0.047   1.707  11.779 -0.2186  0.6245 -0.2352
  539MPD2    C4 8053   0.066   1.697  11.913  0.5668 -0.4434 -0.8427
  539MPD2    C5 8054   0.182   1.628  11.959  0.5486  0.5518 -0.5250
  539MPD2     H 8055   0.112   1.639  11.590  1.2944  1.3222 -0.9189
  539MPD2    H1 8056   4.734   1.743  11.985 -0.5595 -2.0784 -0.8422
  539MPD2    H2 8057   0.336   1.492  11.929 -1.0767 -3.5335 -3.2826
  539MPD2    H3 8058   0.189   1.613  12.066  1.4136  0.3526 -0.6148
  539MPD2     N 8059   4.667   1.778  11.742  0.1435  0.2324 -0.3284
  539MPD2    H5 8060   4.609   1.820  11.815  0.6705 -2.2271  1.5045
  539MPD2    N1 8061   0.315   1.476  11.671 -0.0247 -0.0418  0.1615
  539MPD2    H7 8062   0.377   1.415  11.722 -0.3330  1.0128  1.7885
  540TMC3    C1 8063   4.475   1.842  11.617 -0.3170 -0.2163  0.0789
  540TMC3    C2 8064   4.424   1.862  11.491  0.3004 -0.5255  0.1705
  540TMC3    C3 8065   4.296   1.901  11.473 -0.7159 -0.4312 -1.0279
  540TMC3    C4 8066   4.397   1.856  11.727  0.0942  0.2345 -0.5945
  540TMC3    C5 8067   4.270   1.899  11.707  0.3391 -0.3178 -0.2111
  540TMC3    C6 8068   4.215   1.916  11.583  0.6226 -0.3642 -0.2779
  540TMC3     C 8069   4.601   1.763  11.624  0.2960 -0.7719  0.6400
  540TMC3     O 8070   4.630   1.698  11.524  0.0648 -0.8031 -0.3171
  540TMC3     H 8071   4.481   1.833  11.403  0.0068  2.4247 -1.0038
  540TMC3    H1 8072   4.434   1.844  11.828 -0.0135 -0.2462 -0.6101
  540TMC3    H2 8073   4.117   1.955  11.559  1.0776  0.2808 -1.1049
  540TMC3    C7 8074   4.183   1.945  11.814 -0.3397 -1.2410  0.1448
  540TMC3    C8 8075   4.226   1.820  11.377  0.0244  0.1173 -0.2326
  540TMC3    O1 8076   4.063   1.942  11.797  0.7693 -0.3429  0.0370
  540TMC3    O2 8077   4.148   1.734  11.419  0.3973  0.0869 -0.5686
  541MPD2     C 8078   3.550   3.286  13.622 -0.3886 -0.4022  0.4953
  541MPD2    C1 8079   3.620   3.191  13.547  0.0663 -0.1325  0.0761
  541MPD2    C2 8080   3.646   3.213  13.410 -0.5803 -0.1757 -0.3734
  541MPD2    C3 8081   3.586   3.323  13.353 -0.2001  0.0741  0.3720
  541MPD2    C4 8082   3.521   3.420  13.424  0.7476 -0.3634 -0.3756
  541MPD2    C5 8083   3.512   3.401  13.559 -0.1737 -0.3399  0.5187
  541MPD2     H 8084   3.695   3.131  13.359 -0.1165 -1.0067  1.3999
  541MPD2    H1 8085   3.468   3.505  13.385  1.0449  0.1531  0.3389
  541MPD2    H2 8086   3.539   3.284  13.730 -1.0503  0.7574  0.4555
  541MPD2    H3 8087   3.461   3.475  13.620 -1.2662  0.1815 -1.0461
  541MPD2     N 8088   3.583   3.340  13.213  0.1455 -0.2528 -0.6173
  541MPD2    H5 8089   3.525   3.418  13.184 -0.6368 -0.0959  1.3949
  541MPD2    N1 8090   3.650   3.068  13.599 -0.0789  0.2057 -0.1156
  541MPD2    H7 8091   3.708   3.013  13.536  1.1959  0.7655  0.5542
  542TMC3    C1 8092   3.618   3.297  12.978  0.3372 -0.4885 -0.2392
  542TMC3    C2 8093   3.654   3.208  12.877 -0.7543 -0.9102 -0.5261
  542TMC3    C3 8094   3.614   3.241  12.749 -0.2161 -0.7029  0.2561
  542TMC3    C4 8095   3.532   3.406  12.956  0.3539  0.4352 -0.7103
  542TMC3    C5 8096   3.503   3.438  12.828  0.5981  0.5160 -0.1776
  542TMC3    C6 8097   3.536   3.350  12.725 -0.2579  0.3983  0.5673
  542TMC3     C 8098   3.647   3.257  13.116 -0.3464 -0.0712 -0.0609
  542TMC3     O 8099   3.717   3.156  13.128 -0.3927 -0.1758  0.0341
  542TMC3     H 8100   3.732   3.136  12.896 -1.3216 -1.8555 -1.7375
  542TMC3    H1 8101   3.518   3.483  13.031 -2.5832 -1.3724  0.6097
  542TMC3    H2 8102   3.507   3.370  12.622 -3.0752 -3.5127  0.5987
  542TMC3    C7 8103   3.433   3.566  12.798 -0.1000  0.1024  1.0580
  542TMC3    C8 8104   3.607   3.138  12.647  0.3606  0.1606  0.1858
  542TMC3    O1 8105   3.357   3.612  12.883  0.4583 -0.0196 -0.5002
  542TMC3    O2 8106   3.516   3.156  12.569  0.4009  0.6692 -0.0106
  543TMC3    C1 8107   2.681   4.402  17.302 -0.1669 -0.5144 -0.0838
  543TMC3    C2 8108   2.725   4.297  17.375 -0.3596  0.1106 -0.5479
  543TMC3    C3 8109   2.693   4.294  17.510  0.1741 -0.1860  0.2234
  543TMC3    C4 8110   2.611   4.512  17.356  0.2809 -0.0902 -0.0982
  543TMC3    C5 8111   2.591   4.505  17.485 -0.4786  0.4472  0.2287
  543TMC3    C6 8112   2.622   4.401  17.564  0.2783 -0.0801  0.0771
  543TMC3     C 8113   2.742   4.407  17.172  0.3637 -0.0348 -0.6409
  543TMC3     O 8114   2.781   4.306  17.118 -0.1286  0.0655 -0.0881
  543TMC3     H 8115   2.773   4.212  17.329 -0.0473 -0.3661  0.6407
  543TMC3    H1 8116   2.558   4.575  17.286  1.1614 -1.0262 -1.6129
  543TMC3    H2 8117   2.595   4.408  17.669 -1.3490  1.4208 -0.4281
  543TMC3    C7 8118   2.509   4.610  17.553  0.7299 -0.6547 -0.5409
  543TMC3    C8 8119   2.725   4.185  17.584  0.0489  0.5518 -0.1466
  543TMC3    O1 8120   2.424   4.577  17.632  0.1117  0.0847  0.0637
  543TMC3    O2 8121   2.736   4.079  17.524  0.2711  0.5415 -0.2162
  544MPD2     C 8122   2.882   3.989   0.307  0.5002 -0.0061  0.3032
  544MPD2    C1 8123   2.899   3.943   0.180 -0.0624  0.9141 -0.5513
  544MPD2    C2 8124   2.844   4.011   0.065  0.6245 -0.3335 -0.3458
  544MPD2    C3 8125   2.772   4.128   0.085  0.0223  0.6415 -0.2156
  544MPD2    C4 8126   2.753   4.163   0.217  0.5687  0.0188 -0.2093
  544MPD2    C5 8127   2.802   4.096   0.320  0.0294 -0.1818 -0.1728
  544MPD2     H 8128   2.872   3.977  17.706 -0.8686 -0.8750 -0.5851
  544MPD2    H1 8129   2.714   4.263   0.236  1.8718  0.0271  2.4602
  544MPD2    H2 8130   2.916   3.937   0.396  0.1894 -0.2961  0.2557
  544MPD2    H3 8131   2.784   4.133   0.421 -0.3333 -1.8759  0.3876
  544MPD2     N 8132   2.731   4.213  17.719  0.2829  0.1351  0.0135
  544MPD2    H5 8133   2.697   4.307   0.001  0.6848 -0.5636  3.6236
  544MPD2    N1 8134   2.978   3.824   0.175  0.1777 -0.1734  0.2694
  544MPD2    H7 8135   3.011   3.783   0.261  1.2039  0.3765  0.1306
  545TMC3    C1 8136   3.109   3.660   0.077  0.4629  0.6787  0.2038
  545TMC3    C2 8137   3.211   3.687   0.164 -0.0914 -0.1810  0.0168
  545TMC3    C3 8138   3.305   3.588   0.178  0.1272  0.6265  0.1418
  545TMC3    C4 8139   3.118   3.554   0.001 -0.0257  0.2187 -0.4484
  545TMC3    C5 8140   3.225   3.466  17.736 -0.6541 -0.5260  0.6590
  545TMC3    C6 8141   3.318   3.484   0.089  0.4367  0.2837  0.4107
  545TMC3     C 8142   2.998   3.750   0.062 -0.4115  0.0932 -0.8181
  545TMC3     O 8143   2.948   3.762  17.691 -0.4293 -0.6688 -0.3980
  545TMC3     H 8144   3.209   3.776   0.226 -1.7495  0.5269 -1.0547
  545TMC3    H1 8145   3.035   3.535  17.674 -0.3063  1.0957 -0.3486
  545TMC3    H2 8146   3.370   3.395   0.123  0.9098  0.3876 -0.0245
  545TMC3    C7 8147   3.234   3.376  17.629 -0.4148  0.4083 -0.7122
  545TMC3    C8 8148   3.426   3.623   0.256  0.6338  0.3544  0.2762
  545TMC3    O1 8149   3.155   3.391  17.538  0.5361 -0.1902 -0.4134
  545TMC3    O2 8150   3.408   3.670   0.367 -0.1673  0.9426  0.3836
  546MPD2     C 8151   4.375   3.960  17.186  0.7540  0.3404  1.0464
  546MPD2    C1 8152   4.282   4.033  17.257  0.6634 -0.2628  0.1791
  546MPD2    C2 8153   4.325   4.153  17.306 -0.9344 -0.0510 -0.2252
  546MPD2    C3 8154   4.452   4.207  17.278  0.4492 -0.5950  0.1726
  546MPD2    C4 8155   4.533   4.133  17.190 -0.5373 -0.1842  0.2339
  546MPD2    C5 8156   4.500   4.009  17.150 -0.2804 -0.0415 -0.0929
  546MPD2     H 8157   4.253   4.215  17.359  1.2630  0.7880  1.8132
  546MPD2    H1 8158   4.624   4.178  17.153 -0.4548  0.4646  1.2125
  546MPD2    H2 8159   4.349   3.868  17.136  0.9393  0.1383  1.3180
  546MPD2    H3 8160   4.574   3.951  17.096  0.7101 -0.8480  2.1492
  546MPD2     N 8161   4.506   4.335  17.319  0.0908  0.6540 -0.1105
  546MPD2    H5 8162   4.603   4.357  17.297  0.0568  0.3418 -0.5715
  546MPD2    N1 8163   4.159   3.968  17.282 -0.2789 -0.1928  0.0131
  546MPD2    H7 8164   4.131   3.887  17.229 -2.2605  1.8784 -2.0466
  547TMC3    C1 8165   3.935   3.956  17.373 -0.1375  0.0479 -0.0210
  547TMC3    C2 8166   3.888   3.919  17.248  0.4251 -0.6947 -0.3728
  547TMC3    C3 8167   3.763   3.864  17.242 -0.9327 -0.8217 -0.2938
  547TMC3    C4 8168   3.861   3.949  17.487  0.3042  0.2507  0.9096
  547TMC3    C5 8169   3.737   3.892  17.481  0.2066  0.6404 -0.1880
  547TMC3    C6 8170   3.687   3.858  17.355 -0.2368 -0.2243  0.1152
  547TMC3     C 8171   4.065   4.019  17.371  0.0778  0.2609 -0.0047
  547TMC3     O 8172   4.076   4.110  17.453  0.2151 -0.2482  0.4005
  547TMC3     H 8173   3.951   3.947  17.164 -2.7522  4.0434 -1.1802
  547TMC3    H1 8174   3.916   3.967  17.578  0.8741  0.2411  0.5695
  547TMC3    H2 8175   3.593   3.803  17.355  0.6887 -1.7719 -1.2867
  547TMC3    C7 8176   3.644   3.904  17.596 -0.7288  0.0111 -0.2423
  547TMC3    C8 8177   3.694   3.881  17.107 -0.2209 -0.3689 -0.2953
  547TMC3    O1 8178   3.700   3.936  17.702  0.4564 -0.3647  0.1820
  547TMC3    O2 8179   3.731   3.963  17.023 -0.0683 -0.3581 -0.1076
  548MPD2     C 8180   4.357   4.693  12.937 -0.6200  0.2439 -0.1229
  548MPD2    C1 8181   4.252   4.601  12.934 -0.0341  0.3496  0.5325
  548MPD2    C2 8182   4.268   4.470  12.884 -0.1888 -0.1847  0.3396
  548MPD2    C3 8183   4.392   4.443  12.822  0.1481  0.0508  0.6378
  548MPD2    C4 8184   4.492   4.543  12.807 -0.4244  0.1598  0.0906
  548MPD2    C5 8185   4.473   4.665  12.875  0.0426 -0.0564  0.1653
  548MPD2     H 8186   4.189   4.396  12.881  0.1455 -0.5511  0.4737
  548MPD2    H1 8187   4.589   4.527  12.762  0.5613  0.7022  2.0559
  548MPD2    H2 8188   4.343   0.060  12.969  1.2867  0.0025  1.5035
  548MPD2    H3 8189   4.548   0.007  12.877  1.9572 -1.9134 -0.4561
  548MPD2     N 8190   4.419   4.310  12.772 -0.1510  0.1398  1.3289
  548MPD2    H5 8191   4.359   4.238  12.810  0.4488 -1.1659 -0.1942
  548MPD2    N1 8192   4.123   4.632  12.968  0.3014  0.7277 -0.0102
  548MPD2    H7 8193   4.053   4.561  12.984 -0.6186  1.6470  0.0321
  549TMC3    C1 8194   3.928   0.025  12.992  0.0869 -0.5723  0.0267
  549TMC3    C2 8195   3.859   0.121  12.920  0.0987 -0.0781 -0.8096
  549TMC3    C3 8196   3.720   0.111  12.920  0.5794  0.6862 -0.2958
  549TMC3    C4 8197   3.862   4.663  13.065 -0.6296  0.3097 -0.6964
  549TMC3    C5 8198   3.724   4.655  13.053  0.0625 -0.3932 -0.1259
  549TMC3    C6 8199   3.655   0.013  12.982  0.4543  0.6807 -0.7108
  549TMC3     C 8200   4.076   0.030  12.968  0.4115 -0.4378  0.2570
  549TMC3     O 8201   4.120   0.133  12.920 -0.3860 -0.0461  0.0515
  549TMC3     H 8202   3.904   0.201  12.862  1.0857 -1.5650 -2.0972
  549TMC3    H1 8203   3.920   4.596  13.127  2.4148  1.5272 -2.2373
  549TMC3    H2 8204   3.546   0.013  12.976  0.4591 -0.7494 -0.7256
  549TMC3    C7 8205   3.641   4.559  13.122 -0.0920 -0.1794  0.4308
  549TMC3    C8 8206   3.637   0.215  12.856 -0.3419 -0.1171  0.2730
  549TMC3    O1 8207   3.523   4.578  13.109 -0.1420 -0.0167 -0.4791
  549TMC3    O2 8208   3.518   0.193  12.838 -0.2030 -0.0842 -0.3459
  550TMC3    C1 8209   2.410   2.706  12.442  0.0056 -0.2540 -0.4395
  550TMC3    C2 8210   2.480   2.788  12.523  0.3777  0.6138 -0.4399
  550TMC3    C3 8211   2.548   2.889  12.456 -0.2056  0.5729  0.1076
  550TMC3    C4 8212   2.442   2.693  12.315  0.5626  0.2385  0.9813
  550TMC3    C5 8213   2.514   2.797  12.254  0.6373 -0.5955 -0.3600
  550TMC3    C6 8214   2.559   2.899  12.322 -0.1996 -0.1797  0.2083
  550TMC3     C 8215   2.272   2.687  12.469  0.1434 -0.0053  0.1429
  550TMC3     O 8216   2.228   2.683  12.582 -0.4660 -0.3988  0.0719
  550TMC3     H 8217   2.450   2.797  12.627 -0.5289 -0.1276 -0.6390
  550TMC3    H1 8218   2.412   2.603  12.261  1.5342  0.8125 -0.5220
  550TMC3    H2 8219   2.605   2.982  12.270 -0.9765 -0.4912 -0.9805
  550TMC3    C7 8220   2.453   2.822  12.122 -0.4901  0.6598 -0.1065
  550TMC3    C8 8221   2.584   3.007  12.531 -0.7343 -0.4827  0.4954
  550TMC3    O1 8222   2.355   2.751  12.093 -0.2492  0.0040  0.3699
  550TMC3    O2 8223   2.575   3.118  12.483 -0.0639  0.1846  0.1456
  551TMC3    C1 8224   0.363   0.834  13.466  0.1561 -0.0659  0.0004
  551TMC3    C2 8225   0.477   0.780  13.412 -0.2664 -0.2004 -0.0003
  551TMC3    C3 8226   0.592   0.793  13.483  0.4190  0.4483  0.3508
  551TMC3    C4 8227   0.367   0.906  13.580  0.4112  0.2480  0.4318
  551TMC3    C5 8228   0.488   0.933  13.638 -0.0218 -0.6622  0.9991
  551TMC3    C6 8229   0.604   0.878  13.596  0.5965 -0.6749  0.7108
  551TMC3     C 8230   0.265   0.879  13.370  0.3237  0.3370 -0.7091
  551TMC3     O 8231   0.239   0.998  13.375  0.7111 -0.5570  0.1515
  551TMC3     H 8232   0.482   0.734  13.313  1.0146 -0.1916  0.0568
  551TMC3    H1 8233   0.274   0.958  13.600  0.7476  1.4506 -1.1332
  551TMC3    H2 8234   0.689   0.892  13.661 -0.7697  0.8281  2.1953
  551TMC3    C7 8235   0.500   1.022  13.751 -0.5290  0.3992  0.2070
  551TMC3    C8 8236   0.703   0.775  13.399  0.8138  0.3073 -0.4410
  551TMC3    O1 8237   0.579   0.990  13.839 -0.0846  0.3646 -0.1911
  551TMC3    O2 8238   0.710   0.676  13.330  0.0483  0.5123  0.4679
  552MPD2     C 8239   2.600   2.845  14.334  0.3229 -0.6850 -0.2650
  552MPD2    C1 8240   2.541   2.724  14.337 -0.0342 -0.6309 -0.4199
  552MPD2    C2 8241   2.599   2.634  14.425  0.5266  0.4320 -0.1305
  552MPD2    C3 8242   2.715   2.664  14.494 -0.3866  0.4251 -0.3868
  552MPD2    C4 8243   2.777   2.784  14.471 -0.0772 -0.4563 -0.1849
  552MPD2    C5 8244   2.721   2.873  14.394  1.3210  1.0511 -0.4403
  552MPD2     H 8245   2.553   2.541  14.455 -1.1344  1.1811 -0.3706
  552MPD2    H1 8246   2.863   2.820  14.527 -1.3783 -1.2189  2.3013
  552MPD2    H2 8247   2.561   2.922  14.268  2.0461 -0.2701 -0.7892
  552MPD2    H3 8248   2.760   2.973  14.377  1.1537  1.1606 -0.1732
  552MPD2     N 8249   2.776   2.578  14.594 -0.5160 -0.1962 -0.5429
  552MPD2    H5 8250   2.860   2.620  14.635  1.0922 -1.7562 -2.2475
  552MPD2    N1 8251   2.431   2.681  14.257 -0.0035 -0.7709 -0.4316
  552MPD2    H7 8252   2.407   2.584  14.272  0.6313 -0.9550 -0.5879
  553TMC3    C1 8253   2.274   2.672  14.083 -0.0008 -0.1040 -0.4793
  553TMC3    C2 8254   2.243   2.719  13.958  0.1685  0.0508  1.0975
  553TMC3    C3 8255   2.194   2.635  13.866 -0.2320 -0.0043 -0.5888
  553TMC3    C4 8256   2.276   2.533  14.103  0.2196 -0.4026  0.0341
  553TMC3    C5 8257   2.218   2.447  14.008 -0.0459  0.0247  0.1391
  553TMC3    C6 8258   2.177   2.500  13.889  0.2746  0.1179  0.3305
  553TMC3     C 8259   2.361   2.754  14.162 -0.1759 -0.3346 -0.3059
  553TMC3     O 8260   2.355   2.880  14.151  0.9396  0.5163  0.0178
  553TMC3     H 8261   2.257   2.826  13.943  1.8962 -0.4376 -0.5833
  553TMC3    H1 8262   2.313   2.483  14.192  1.2196  0.7406  0.2600
  553TMC3    H2 8263   2.161   2.429  13.809  0.6215 -0.3808  0.7049
  553TMC3    C7 8264   2.268   2.312  14.003  0.2664 -0.2671 -0.2565
  553TMC3    C8 8265   2.238   2.674  13.731  0.4775  0.3346  0.2541
  553TMC3    O1 8266   2.197   2.220  13.969 -0.0115 -0.0254 -0.5570
  553TMC3    O2 8267   2.311   2.771  13.719 -0.2629 -0.1821  0.2677
  554TMC3    C1 8268   3.577   1.458  11.611 -0.1366  0.1612 -0.5649
  554TMC3    C2 8269   3.456   1.427  11.551 -0.5734 -0.1626  0.1068
  554TMC3    C3 8270   3.436   1.498  11.438  0.4494  0.8393 -0.2298
  554TMC3    C4 8271   3.681   1.544  11.568  0.0450 -0.2833 -0.5771
  554TMC3    C5 8272   3.641   1.609  11.456  0.1386 -0.7180 -0.4358
  554TMC3    C6 8273   3.524   1.585  11.385 -0.6747  0.0034  0.1678
  554TMC3     C 8274   3.621   1.373  11.715 -0.0135 -0.4718  0.0243
  554TMC3     O 8275   3.735   1.340  11.698  0.3422  0.0753 -0.3797
  554TMC3     H 8276   3.376   1.363  11.587 -0.6232 -0.8325 -1.1829
  554TMC3    H1 8277   3.774   1.567  11.619  0.5231 -0.6489 -1.2778
  554TMC3    H2 8278   3.502   1.660  11.309  0.2546  0.8724  0.7571
  554TMC3    C7 8279   3.720   1.714  11.405  0.5879 -1.1040  0.1699
  554TMC3    C8 8280   3.322   1.472  11.353 -0.2034  0.1314  0.3942
  554TMC3    O1 8281   3.722   1.725  11.283 -0.3217  0.8477 -0.1272
  554TMC3    O2 8282   3.236   1.401  11.395 -0.0207 -0.5559  0.0553
  555TMC3    C1 8283   3.534   1.405  15.264  0.6442  0.3640  0.0627
  555TMC3    C2 8284   3.652   1.422  15.332  0.1252 -0.3523  0.1604
  555TMC3    C3 8285   3.680   1.331  15.427  0.2650 -0.1231 -1.0945
  555TMC3    C4 8286   3.461   1.291  15.271  0.1022 -0.5390  0.1405
  555TMC3    C5 8287   3.502   1.196  15.368  0.1926  0.1187  0.0502
  555TMC3    C6 8288   3.614   1.212  15.444 -0.2155 -0.8567  0.7092
  555TMC3     C 8289   3.509   1.508  15.165  0.2166  0.2708 -0.1965
  555TMC3     O 8290   3.598   1.588  15.142  0.0580  0.0024  0.8408
  555TMC3     H 8291   3.708   1.514  15.321 -0.9631  0.1428 -1.2478
  555TMC3    H1 8292   3.379   1.267  15.203 -0.4188 -1.3541  1.0623
  555TMC3    H2 8293   3.630   1.139  15.523  0.5787 -2.4437 -0.9379
  555TMC3    C7 8294   3.457   1.061  15.345  0.1762 -0.0340 -0.0901
  555TMC3    C8 8295   3.812   1.349  15.499 -0.5740  0.3612 -0.2447
  555TMC3    O1 8296   3.339   1.028  15.365 -0.6695 -0.2900 -0.5151
  555TMC3    O2 8297   3.887   1.433  15.452 -0.0902 -0.1285 -0.8353
  556MPD2     C 8298   1.035   3.682  10.701 -0.5804  0.0030  0.3030
  556MPD2    C1 8299   1.039   3.552  10.752  0.1409  0.2191  0.1546
  556MPD2    C2 8300   1.018   3.442  10.666 -0.4074  0.1058  0.5635
  556MPD2    C3 8301   0.978   3.466  10.537  0.3673  0.5298 -0.1033
  556MPD2    C4 8302   0.941   3.592  10.491 -0.0924 -0.1470 -0.2595
  556MPD2    C5 8303   0.989   3.697  10.567 -0.0546 -0.0067 -0.9283
  556MPD2     H 8304   1.041   3.340  10.694 -1.7064 -0.5101 -0.6096
  556MPD2    H1 8305   0.899   3.604  10.392 -3.1608  2.6728  1.4026
  556MPD2    H2 8306   1.066   3.767  10.761 -0.4967  1.4434 -1.7755
  556MPD2    H3 8307   0.990   3.798  10.529  1.0912 -0.3541 -1.8004
  556MPD2     N 8308   0.956   3.350  10.458 -0.0075 -0.0212  0.3313
  556MPD2    H5 8309   0.972   3.257  10.495  0.0194 -0.1192  0.0669
  556MPD2    N1 8310   1.067   3.529  10.884 -0.4924 -0.3142 -0.0450
  556MPD2    H7 8311   1.084   3.434  10.914 -1.7790 -0.9538 -1.3419
  557TMC3    C1 8312   0.866   3.225  10.286  0.0803 -0.8063 -0.1911
  557TMC3    C2 8313   0.815   3.226  10.160  0.4037 -0.1082 -0.0006
  557TMC3    C3 8314   0.748   3.111  10.119 -0.7157  0.6562 -0.5605
  557TMC3    C4 8315   0.849   3.118  10.373 -0.6112 -0.1132  0.3083
  557TMC3    C5 8316   0.782   3.005  10.320 -0.7192  0.0498  0.4548
  557TMC3    C6 8317   0.735   3.001  10.195  0.0654 -0.7535 -0.1243
  557TMC3     C 8318   0.916   3.351  10.328  0.0505 -0.3790 -0.2116
  557TMC3     O 8319   0.931   3.436  10.242 -0.5548 -0.3012  0.3886
  557TMC3     H 8320   0.821   3.310  10.092  1.1524 -1.6485 -1.8079
  557TMC3    H1 8321   0.876   3.117  10.478 -3.5869  0.6052  1.0920
  557TMC3    H2 8322   0.681   2.915  10.157 -0.4674 -0.2105 -0.6048
  557TMC3    C7 8323   0.754   2.894  10.406 -0.3019  0.5469  0.4162
  557TMC3    C8 8324   0.687   3.110   9.989  0.1986 -0.4875  0.6381
  557TMC3    O1 8325   0.670   2.817  10.371  0.1962  0.1947  0.3796
  557TMC3    O2 8326   0.715   3.207   9.921  0.1392  0.2075  0.9204
  558TMC3    C1 8327   3.330   0.799  10.267 -0.3727  0.3150 -0.1553
  558TMC3    C2 8328   3.223   0.815  10.347  0.1707 -0.7899  0.1418
  558TMC3    C3 8329   3.105   0.866  10.303 -0.1283  0.2958  0.0736
  558TMC3    C4 8330   3.314   0.846  10.139 -0.1952 -0.9046 -0.0330
  558TMC3    C5 8331   3.194   0.884  10.096 -0.3476  0.2051  0.6801
  558TMC3    C6 8332   3.088   0.902  10.176  0.0016  0.0617  0.6295
  558TMC3     C 8333   3.418   0.688  10.299  0.3348 -0.2405 -0.0670
  558TMC3     O 8334   3.529   0.695  10.248 -0.3942 -0.1443  0.2777
  558TMC3     H 8335   3.236   0.783  10.449  1.8903 -1.5117 -0.3113
  558TMC3    H1 8336   3.395   0.832  10.069 -1.0379  0.9496 -1.3452
  558TMC3    H2 8337   2.995   0.956  10.157 -0.2405  0.7653  3.7191
  558TMC3    C7 8338   3.168   0.908   9.956 -0.7937 -0.2229 -0.0831
  558TMC3    C8 8339   3.006   0.888  10.401  0.0818 -0.5216  0.8593
  558TMC3    O1 8340   3.264   0.956   9.898 -0.0067  0.0369 -0.7175
  558TMC3    O2 8341   2.896   0.914  10.357  0.1435 -0.3010 -0.1652
  559MPD2     C 8342   3.361   1.348  10.434  0.4481  0.7387 -0.1729
  559MPD2    C1 8343   3.353   1.273  10.546  0.1449  0.0499 -0.1456
  559MPD2    C2 8344   3.474   1.238  10.614 -0.3164 -0.6034 -0.6441
  559MPD2    C3 8345   3.599   1.286  10.572  0.2862  0.2521 -0.2434
  559MPD2    C4 8346   3.596   1.356  10.456 -0.6477 -0.3415 -0.3937
  559MPD2    C5 8347   3.484   1.389  10.394  0.2150 -1.2889 -0.1668
  559MPD2     H 8348   3.466   1.174  10.701 -0.2261 -0.0901 -0.2591
  559MPD2    H1 8349   3.693   1.389  10.420  0.9709 -2.2322  2.1854
  559MPD2    H2 8350   3.278   1.387  10.376  0.7915  0.3461 -0.9353
  559MPD2    H3 8351   3.491   1.452  10.306  2.0561 -1.7444 -0.3392
  559MPD2     N 8352   3.718   1.264  10.642 -0.2218 -0.1660 -0.1368
  559MPD2    H5 8353   3.715   1.209  10.727 -2.0901 -1.2562 -0.8783
  559MPD2    N1 8354   3.226   1.235  10.592 -0.6221  0.8635 -0.5405
  559MPD2    H7 8355   3.159   1.275  10.528 -0.6122 -2.7981 -2.8785
  560TMC3    C1 8356   3.939   1.250  10.706  0.5577 -0.8054 -0.4693
  560TMC3    C2 8357   3.899   1.147  10.785  0.6365  0.0210 -0.0162
  560TMC3    C3 8358   3.956   1.125  10.903  0.7588  0.0563 -0.2151
  560TMC3    C4 8359   4.051   1.320  10.738  0.2430  0.5073 -0.3234
  560TMC3    C5 8360   4.112   1.290  10.857 -0.0433  0.1932  0.5331
  560TMC3    C6 8361   4.053   1.204  10.951  0.0231  0.5900  0.9571
  560TMC3     C 8362   3.840   1.317  10.616 -0.7106  0.0337 -0.4382
  560TMC3     O 8363   3.890   1.384  10.521  0.5762  0.0431  0.0169
  560TMC3     H 8364   3.830   1.079  10.736 -0.2432  0.3706  0.7262
  560TMC3    H1 8365   4.088   1.397  10.671 -2.0891  1.8203 -0.1058
  560TMC3    H2 8366   4.103   1.171  11.042 -0.5277 -1.8337  0.3881
  560TMC3    C7 8367   4.226   1.376  10.895  0.1535 -0.5186  0.1677
  560TMC3    C8 8368   3.875   1.039  10.989  0.5409  0.5966 -0.8697
  560TMC3    O1 8369   4.280   1.442  10.804  0.5757 -0.4696 -0.0564
  560TMC3    O2 8370   3.795   0.967  10.929  0.3005 -0.1499  0.7277
  561TMC3    C1 8371   1.481   0.522  11.204  0.5055  0.2140 -0.4906
  561TMC3    C2 8372   1.434   0.420  11.279  0.7374  0.4762 -0.2728
  561TMC3    C3 8373   1.303   0.439  11.319  0.4630  0.5782 -0.3693
  561TMC3    C4 8374   1.415   0.631  11.167 -0.0037 -0.6269 -0.0698
  561TMC3    C5 8375   1.288   0.645  11.216  0.1203 -0.6473 -0.5572
  561TMC3    C6 8376   1.230   0.545  11.287 -0.6863  0.1225 -0.2587
  561TMC3     C 8377   1.620   0.504  11.166 -0.4837  0.4107 -0.1871
  561TMC3     O 8378   1.649   0.538  11.054  0.5421 -0.9213 -0.2469
  561TMC3     H 8379   1.477   0.324  11.306  0.9757  0.4632 -0.7095
  561TMC3    H1 8380   1.459   0.711  11.109  0.4727  1.9312  3.7831
  561TMC3    H2 8381   1.129   0.551  11.326 -1.2920  1.6873 -2.0611
  561TMC3    C7 8382   1.252   0.784  11.254  0.0631  0.5088  0.8893
  561TMC3    C8 8383   1.254   0.348  11.420 -0.6162 -0.3827  0.1889
  561TMC3    O1 8384   1.137   0.808  11.286  0.3144 -0.2685 -0.8459
  561TMC3    O2 8385   1.294   0.231  11.413  0.5982 -0.0501  0.0901
  562TMC3    C1 8386   2.650   1.308  16.680 -0.2730  0.3011 -0.1403
  562TMC3    C2 8387   2.684   1.357  16.557  0.3925  0.2087 -0.3083
  562TMC3    C3 8388   2.735   1.272  16.464 -0.7918  0.4306  0.2928
  562TMC3    C4 8389   2.657   1.169  16.704  0.0147  0.3553 -0.2687
  562TMC3    C5 8390   2.717   1.091  16.613 -0.0211  0.3842  0.3784
  562TMC3    C6 8391   2.749   1.139  16.491 -0.5993  0.3658 -0.2650
  562TMC3     C 8392   2.651   1.392  16.804  0.0419 -0.1262  0.1429
  562TMC3     O 8393   2.693   1.504  16.795  0.4284 -0.4793  0.3265
  562TMC3     H 8394   2.695   1.461  16.528 -1.1335  0.4734  0.0782
  562TMC3    H1 8395   2.630   1.127  16.800 -0.3192 -0.3606 -0.6768
  562TMC3    H2 8396   2.783   1.069  16.416  0.1716 -0.0042  0.4274
  562TMC3    C7 8397   2.716   0.946  16.629 -0.1095  0.2501 -0.2140
  562TMC3    C8 8398   2.817   1.332  16.358 -0.1512 -0.6957 -0.2919
  562TMC3    O1 8399   2.633   0.910  16.710  0.7671 -0.4109  0.4996
  562TMC3    O2 8400   2.936   1.300  16.353  0.2679 -0.4571 -0.3665
  563MPD2     C 8401   0.329   2.659  15.668 -0.4145 -0.0066 -0.1364
  563MPD2    C1 8402   0.335   2.737  15.783  0.5452 -0.3130 -0.2686
  563MPD2    C2 8403   0.456   2.778  15.828 -0.0351 -0.5148 -0.3489
  563MPD2    C3 8404   0.579   2.731  15.771 -0.4032 -0.4726 -0.0758
  563MPD2    C4 8405   0.566   2.640  15.667 -0.3441 -0.4421  0.0871
  563MPD2    C5 8406   0.441   2.619  15.611 -0.4691 -0.2186 -0.7535
  563MPD2     H 8407   0.470   2.831  15.921 -1.2710  0.4717 -0.7182
  563MPD2    H1 8408   0.653   2.610  15.611 -1.6100 -1.2273 -1.4763
  563MPD2    H2 8409   0.233   2.624  15.630 -0.2737  1.0177 -1.4481
  563MPD2    H3 8410   0.432   2.552  15.526 -3.7123 -1.2943  0.4377
  563MPD2     N 8411   0.700   2.762  15.839  0.3770  0.1979  0.1428
  563MPD2    H5 8412   0.698   2.822  15.920 -1.5840 -0.3515  0.5015
  563MPD2    N1 8413   0.210   2.773  15.840  0.4593 -0.1559  0.2681
  563MPD2    H7 8414   0.131   2.730  15.792 -0.2304  0.2005  1.0847
  564TMC3    C1 8415   0.083   2.846  16.026 -0.0341  0.3328  0.1120
  564TMC3    C2 8416   4.720   2.763  15.981  0.3835 -0.4952  0.5567
  564TMC3    C3 8417   4.653   2.697  16.081 -0.0394  0.3743  0.0639
  564TMC3    C4 8418   0.120   2.848  16.158  0.5258  0.3648 -1.2170
  564TMC3    C5 8419   0.074   2.759  16.246 -0.0305  0.5174  0.1452
  564TMC3    C6 8420   4.699   2.689  16.206 -0.0422 -0.9961 -0.5572
  564TMC3     C 8421   0.197   2.874  15.936  0.2814  0.5251 -0.8267
  564TMC3     O 8422   0.274   2.966  15.963 -0.1748  0.2628  0.1798
  564TMC3     H 8423   4.685   2.769  15.878 -2.1083 -0.7470  1.3878
  564TMC3    H1 8424   0.210   2.896  16.194  0.5430 -1.1335  0.7361
  564TMC3    H2 8425   4.648   2.626  16.278  1.5335  0.9080  2.2278
  564TMC3    C7 8426   0.178   2.661  16.266  0.7294 -0.3068  0.0849
  564TMC3    C8 8427   4.560   2.590  16.055  0.0668 -0.6139  0.1981
  564TMC3    O1 8428   0.279   2.702  16.328  0.2865 -0.4977 -0.4106
  564TMC3    O2 8429   4.482   2.548  16.138 -0.5716  0.2214 -0.1357
  565TMC3    C1 8430   0.154   3.628  10.187  0.3651 -0.4007 -0.0734
  565TMC3    C2 8431   0.208   3.570  10.304 -0.3355  0.2704  0.2261
  565TMC3    C3 8432   0.145   3.459  10.345  0.2639 -0.6601  0.1620
  565TMC3    C4 8433   0.036   3.592  10.134 -0.0653  0.2745 -0.2105
  565TMC3    C5 8434   4.709   3.481  10.187 -0.2695  0.1696 -0.7859
  565TMC3    C6 8435   0.027   3.421  10.296 -0.3859  0.0793 -0.7646
  565TMC3     C 8436   0.211   3.753  10.146  0.0696 -0.0473 -0.3484
  565TMC3     O 8437   0.325   3.774  10.187 -0.2184  0.7012 -0.5468
  565TMC3     H 8438   0.302   3.599  10.349 -0.1887 -0.9321  0.6821
  565TMC3    H1 8439   0.011   3.625  10.034 -1.8211  0.9861  0.4690
  565TMC3    H2 8440   4.690   3.379  10.365  2.1136  1.1888  2.5443
  565TMC3    C7 8441   4.578   3.448  10.148 -0.7458  0.3060  0.4505
  565TMC3    C8 8442   0.188   3.404  10.475 -0.5577  0.3700  0.7070
  565TMC3    O1 8443   4.512   3.375  10.222  0.0864  0.0660 -0.4257
  565TMC3    O2 8444   0.270   3.465  10.538  0.6783 -0.3023  0.2802
  566MPD2     C 8445   2.654   1.224  14.637 -0.2115  0.2382  0.0833
  566MPD2    C1 8446   2.699   1.298  14.529  1.3746 -0.0659  0.3461
  566MPD2    C2 8447   2.631   1.283  14.406  0.0600  0.2237 -0.1047
  566MPD2    C3 8448   2.527   1.200  14.390  0.5965 -0.1025  0.1550
  566MPD2    C4 8449   2.494   1.113  14.491 -0.6302  0.1035 -1.2069
  566MPD2    C5 8450   2.566   1.119  14.615  0.6440  0.4710  0.0210
  566MPD2     H 8451   2.660   1.351  14.327  3.5628  0.7115  1.5700
  566MPD2    H1 8452   2.426   1.029  14.480 -0.0083 -0.2676 -2.1387
  566MPD2    H2 8453   2.689   1.242  14.738  3.1562 -0.6457 -0.9440
  566MPD2    H3 8454   2.553   1.038  14.685  0.1368  0.1260 -0.4675
  566MPD2     N 8455   2.462   1.180  14.262 -0.3794 -0.3602  0.2298
  566MPD2    H5 8456   2.402   1.100  14.248  0.9786 -1.3988  0.3802
  566MPD2    N1 8457   2.808   1.386  14.559  0.4942 -0.6267  0.2912
  566MPD2    H7 8458   2.853   1.378  14.650 -2.0848 -2.0265  1.4606
  567TMC3    C1 8459   2.967   1.559  14.498 -0.4197 -0.2283  0.5969
  567TMC3    C2 8460   2.986   1.671  14.412  0.6003  0.7733 -0.0052
  567TMC3    C3 8461   3.116   1.695  14.371 -0.1867 -0.3602 -0.3739
  567TMC3    C4 8462   3.068   1.484  14.546  0.2202 -0.0235  0.0393
  567TMC3    C5 8463   3.198   1.514  14.504  0.1351 -0.0504  0.5375
  567TMC3    C6 8464   3.221   1.628  14.426 -0.3210 -0.1331  0.2180
  567TMC3     C 8465   2.849   1.480  14.466  0.5082  0.8918  0.4750
  567TMC3     O 8466   2.779   1.528  14.383  0.5882 -0.3395 -0.4832
  567TMC3     H 8467   2.906   1.729  14.367 -1.1163 -2.5042 -1.1191
  567TMC3    H1 8468   3.043   1.395  14.603  0.5980 -1.3323 -1.8269
  567TMC3    H2 8469   3.322   1.650  14.396 -0.1385  2.0233  2.4568
  567TMC3    C7 8470   3.313   1.479  14.590 -0.5612  0.4490 -1.4563
  567TMC3    C8 8471   3.132   1.753  14.240 -0.3626 -0.3104  0.3663
  567TMC3    O1 8472   3.419   1.541  14.571  0.7236  0.4199 -0.4201
  567TMC3    O2 8473   3.028   1.776  14.185  0.3439  0.4125  0.4163
  568MPD2     C 8474   0.827   1.488  16.549 -0.0845 -0.2792 -0.1801
  568MPD2    C1 8475   0.753   1.519  16.659 -0.0999  0.2529  0.4781
  568MPD2    C2 8476   0.644   1.605  16.644 -0.0929 -0.5263 -0.0012
  568MPD2    C3 8477   0.615   1.668  16.526 -0.3787 -0.3996 -0.0612
  568MPD2    C4 8478   0.692   1.630  16.416  0.6457  0.7220  0.7558
  568MPD2    C5 8479   0.794   1.540  16.427  0.5969  0.1720 -0.0248
  568MPD2     H 8480   0.584   1.629  16.731  0.4451 -1.1854  0.5620
  568MPD2    H1 8481   0.686   1.676  16.317  0.1714  1.3997  1.0932
  568MPD2    H2 8482   0.887   1.398  16.552  0.2566 -0.0724 -0.7285
  568MPD2    H3 8483   0.840   1.512  16.333 -0.6682  1.7539 -1.1149
  568MPD2     N 8484   0.515   1.768  16.526  0.3002 -0.4634  0.1457
  568MPD2    H5 8485   0.458   1.775  16.610  0.1678 -2.3527  0.2291
  568MPD2    N1 8486   0.785   1.452  16.776  0.0515 -0.1731  0.4894
  568MPD2    H7 8487   0.850   1.374  16.768 -0.0367 -0.4362  2.2263
  569TMC3    C1 8488   0.341   1.905  16.438  0.4811  0.2826 -0.1036
  569TMC3    C2 8489   0.370   2.021  16.508 -0.3537 -0.6246  0.4789
  569TMC3    C3 8490   0.301   2.129  16.467 -0.8752 -1.1213 -0.3601
  569TMC3    C4 8491   0.246   1.898  16.340 -0.2464 -0.7056  0.7566
  569TMC3    C5 8492   0.166   2.011  16.327  0.0120 -0.1492 -0.1006
  569TMC3    C6 8493   0.197   2.134  16.383  0.2994 -0.5344  0.0910
  569TMC3     C 8494   0.465   1.828  16.409  0.6851  0.0983 -0.6559
  569TMC3     O 8495   0.498   1.815  16.293 -0.6362 -0.0685 -0.1807
  569TMC3     H 8496   0.454   2.034  16.576 -0.0117  3.4572 -0.6771
  569TMC3    H1 8497   0.239   1.807  16.282  4.5735  0.1618 -1.2064
  569TMC3    H2 8498   0.143   2.228  16.369 -1.9337 -1.6070  1.5176
  569TMC3    C7 8499   0.087   2.015  16.211 -0.2233 -1.5965  0.0807
  569TMC3    C8 8500   0.313   2.246  16.554  0.2523  0.3635  0.3015
  569TMC3    O1 8501   0.109   1.920  16.134  0.0119  0.0187 -0.2305
  569TMC3    O2 8502   0.216   2.318  16.569  0.0254  0.6848  0.2246
  570TMC3    C1 8503   4.576   0.163  16.307 -0.0194  0.2670 -0.0824
  570TMC3    C2 8504   4.664   0.147  16.205  0.9241 -0.3532  0.5695
  570TMC3    C3 8505   0.025   0.245  16.186 -0.2281  0.1088  0.2720
  570TMC3    C4 8506   4.582   0.269  16.394 -0.7614  0.0169 -0.0541
  570TMC3    C5 8507   4.686   0.357  16.380 -0.1918 -0.4499 -0.3796
  570TMC3    C6 8508   0.046   0.343  16.280 -0.3546 -0.5460  1.1352
  570TMC3     C 8509   4.466   0.066  16.308  0.0065  0.3009 -0.1757
  570TMC3     O 8510   4.432   0.016  16.203 -0.3672  0.1420  0.4482
  570TMC3     H 8511   4.665   0.055  16.148 -0.9072  0.8323 -1.3606
  570TMC3    H1 8512   4.503   0.284  16.467 -0.6810  0.0303  0.0297
  570TMC3    H2 8513   0.129   0.413  16.275 -0.1880 -0.9702 -1.9695
  570TMC3    C7 8514   4.721   0.441  16.489 -0.1030  0.0083 -0.6036
  570TMC3    C8 8515   0.093   0.272  16.061 -0.1315 -0.3102 -0.2058
  570TMC3    O1 8516   0.104   0.465  16.503  0.2760  0.3132  0.0235
  570TMC3    O2 8517   0.175   0.362  16.064  0.5819 -0.3388 -0.1314
  571MPD2     C 8518   2.204   2.147   0.756 -0.8447 -0.7469 -0.1460
  571MPD2    C1 8519   2.073   2.195   0.724  0.0931  0.4933 -0.2143
  571MPD2    C2 8520   2.061   2.331   0.707 -0.0854  0.1625 -0.0636
  571MPD2    C3 8521   2.171   2.412   0.714 -0.3522 -0.3173 -0.3188
  571MPD2    C4 8522   2.300   2.367   0.738  0.3893 -0.4441  0.1404
  571MPD2    C5 8523   2.314   2.231   0.760 -0.8696 -0.3278  0.2660
  571MPD2     H 8524   1.965   2.371   0.676  0.5585  0.9530 -1.0143
  571MPD2    H1 8525   2.383   2.435   0.756  0.2034 -0.2675  0.3272
  571MPD2    H2 8526   2.224   2.042   0.769 -1.6788 -0.5328  2.8470
  571MPD2    H3 8527   2.410   2.185   0.777 -0.9954 -0.6261  0.1693
  571MPD2     N 8528   2.156   2.547   0.685  0.0057  0.2125 -0.6462
  571MPD2    H5 8529   2.240   2.597   0.659 -0.0412 -0.5396 -2.2634
  571MPD2    N1 8530   1.978   2.102   0.706 -0.3439  0.3556  0.8735
  571MPD2    H7 8531   2.008   2.007   0.724  0.5338  0.8773  2.1590
  572TMC3    C1 8532   2.031   2.756   0.644  0.4352 -0.4701  0.1847
  572TMC3    C2 8533   1.924   2.837   0.670  0.1829 -0.0357 -0.5537
  572TMC3    C3 8534   1.901   2.948   0.588  0.4336  0.6512 -0.6253
  572TMC3    C4 8535   2.125   2.788   0.547  0.7381  0.4755 -0.0166
  572TMC3    C5 8536   2.096   2.903   0.472 -0.8483 -0.6605 -0.5054
  572TMC3    C6 8537   1.993   2.989   0.505  0.8207  0.4109 -0.0985
  572TMC3     C 8538   2.038   2.620   0.705 -0.5546  0.4908 -0.1871
  572TMC3     O 8539   1.940   2.591   0.769  0.7037 -1.1792 -0.2848
  572TMC3     H 8540   1.834   2.790   0.709  0.6748 -1.6041 -1.3110
  572TMC3    H1 8541   2.202   2.718   0.514  1.9241  1.5891  0.3992
  572TMC3    H2 8542   1.978   3.076   0.443  0.0778  0.2403 -0.1508
  572TMC3    C7 8543   2.178   2.932   0.352  0.5291  1.0913  1.6106
  572TMC3    C8 8544   1.793   3.049   0.603  0.4136 -1.3130  0.2322
  572TMC3    O1 8545   2.118   3.000   0.269 -0.2477 -0.1764  0.6184
  572TMC3    O2 8546   1.780   3.136   0.515 -0.7192  0.5151 -0.2731
  573MPD2     C 8547   3.794   2.522   0.735  0.7443 -0.6086  0.1239
  573MPD2    C1 8548   3.815   2.642   0.674 -0.1391 -0.5019  0.0460
  573MPD2    C2 8549   3.803   2.652   0.537  0.0228  0.9538  0.3762
  573MPD2    C3 8550   3.777   2.548   0.457  0.1366 -0.4115  0.5115
  573MPD2    C4 8551   3.746   2.426   0.516  0.2028  0.0848  0.0449
  573MPD2    C5 8552   3.758   2.413   0.653  0.4680 -0.0555 -0.6506
  573MPD2     H 8553   3.836   2.743   0.490  0.4732  0.8260  0.4520
  573MPD2    H1 8554   3.721   2.337   0.459  3.7674  0.4358 -2.1091
  573MPD2    H2 8555   3.806   2.507   0.841 -0.8223 -0.4323  0.3244
  573MPD2    H3 8556   3.746   2.312   0.692  0.6734  1.2069  2.6849
  573MPD2     N 8557   3.762   2.544   0.319 -0.5758 -0.6150  0.3075
  573MPD2    H5 8558   3.760   2.455   0.269 -0.9081  1.1623 -2.8709
  573MPD2    N1 8559   3.864   2.751   0.754  0.0527  0.2524  0.5368
  573MPD2    H7 8560   3.866   2.732   0.854  0.7186  2.5359  0.9467
  574TMC3    C1 8561   3.756   2.615   0.095  0.0323 -0.2995 -0.1109
  574TMC3    C2 8562   3.702   2.705   0.009 -0.3248  0.3152 -0.2410
  574TMC3    C3 8563   3.692   2.677  17.617  0.1609 -0.0055 -0.3098
  574TMC3    C4 8564   3.816   2.496   0.049  0.2363  0.0123 -0.1775
  574TMC3    C5 8565   3.804   2.474  17.656  0.0035  0.4473 -0.1961
  574TMC3    C6 8566   3.747   2.567  17.564 -0.6367 -0.4390 -0.3912
  574TMC3     C 8567   3.772   2.653   0.237 -0.4098  0.3243  0.1950
  574TMC3     O 8568   3.776   2.772   0.267  0.0468  0.5344  0.1471
  574TMC3     H 8569   3.666   2.797   0.054  0.3995  0.5167 -0.0626
  574TMC3    H1 8570   3.861   2.435   0.126  1.7441 -0.6186 -1.5554
  574TMC3    H2 8571   3.725   2.538  17.462  1.0689  0.3865 -1.0042
  574TMC3    C7 8572   3.852   2.349  17.598 -0.1183 -0.0614  0.1324
  574TMC3    C8 8573   3.594   2.746  17.531  0.4766 -0.7644  0.2813
  574TMC3    O1 8574   3.845   2.329  17.477  0.1427  0.4392 -0.0082
  574TMC3    O2 8575   3.562   2.701  17.421  0.3472 -0.2180  0.0821
  575TMC3    C1 8576   0.435   3.518  11.307  0.2452  0.5045 -0.4181
  575TMC3    C2 8577   0.510   3.409  11.357 -0.1379  0.7342  0.5907
  575TMC3    C3 8578   0.498   3.292  11.294  0.0207  0.7826  0.6802
  575TMC3    C4 8579   0.349   3.503  11.205 -0.0124  0.1309 -0.1275
  575TMC3    C5 8580   0.342   3.377  11.156 -0.6563  0.8383 -0.4557
  575TMC3    C6 8581   0.411   3.264  11.191 -0.3106  0.9749  0.7256
  575TMC3     C 8582   0.462   3.653  11.361 -0.1634 -0.0071 -0.5655
  575TMC3     O 8583   0.523   3.655  11.468 -0.1858  0.0897 -0.5247
  575TMC3     H 8584   0.576   3.417  11.442 -0.2229 -2.6311  0.9475
  575TMC3    H1 8585   0.287   3.579  11.159 -0.7009 -0.0378  0.5216
  575TMC3    H2 8586   0.404   3.167  11.143  0.4551  1.3499 -0.1531
  575TMC3    C7 8587   0.278   3.368  11.022  0.2696 -0.5309 -0.2007
  575TMC3    C8 8588   0.553   3.176  11.364  0.2485 -1.1628  0.8033
  575TMC3    O1 8589   0.249   3.474  10.970  0.0690 -0.6740 -0.0000
  575TMC3    O2 8590   0.645   3.195  11.447  0.5812  0.3892  0.2553
  576MPD2     C 8591   0.528   0.609  12.692  0.3704  0.0691 -0.7814
  576MPD2    C1 8592   0.631   0.693  12.659 -0.5925 -0.6663 -0.6588
  576MPD2    C2 8593   0.659   0.806  12.743  0.3419 -0.5916  0.0933
  576MPD2    C3 8594   0.588   0.831  12.862  0.2636 -1.1009 -0.7391
  576MPD2    C4 8595   0.490   0.741  12.890 -0.1679 -0.5195  0.3073
  576MPD2    C5 8596   0.453   0.641  12.804 -0.3369 -0.0845 -0.2904
  576MPD2     H 8597   0.743   0.871  12.720 -0.2324 -0.0720 -0.5468
  576MPD2    H1 8598   0.433   0.746  12.982 -0.8177  0.9582 -0.1833
  576MPD2    H2 8599   0.498   0.524  12.633 -3.5296  0.2356  0.9156
  576MPD2    H3 8600   0.366   0.580  12.823 -0.0645 -0.3497  0.1013
  576MPD2     N 8601   0.634   0.933  12.947  0.2199  0.3786 -0.0809
  576MPD2    H5 8602   0.714   0.983  12.910 -0.5395  1.3815 -0.3757
  576MPD2    N1 8603   0.706   0.677  12.546 -0.4296  0.5318 -0.3719
  576MPD2    H7 8604   0.780   0.746  12.537  0.1220 -0.0328 -0.1956
  577TMC3    C1 8605   0.770   0.616  12.334 -0.0635  0.1356 -0.4085
  577TMC3    C2 8606   0.792   0.518  12.244  0.0114  0.6824  0.1899
  577TMC3    C3 8607   0.850   0.547  12.119 -0.1916  0.1122 -0.0505
  577TMC3    C4 8608   0.786   0.744  12.297 -0.3736 -0.5629  0.3248
  577TMC3    C5 8609   0.841   0.772  12.178  0.1093 -0.3652 -0.4018
  577TMC3    C6 8610   0.889   0.671  12.087 -0.0355 -0.0233  0.3554
  577TMC3     C 8611   0.683   0.587  12.447 -0.3447 -0.2381  0.6974
  577TMC3     O 8612   0.601   0.500  12.436  0.1897  0.3303  0.3831
  577TMC3     H 8613   0.750   0.424  12.277  2.2329  0.6168  2.8563
  577TMC3    H1 8614   0.777   0.830  12.362 -2.1202  1.0812 -2.0977
  577TMC3    H2 8615   0.947   0.706  12.003  0.2371 -1.3974 -0.0239
  577TMC3    C7 8616   0.867   0.911  12.140 -0.0206  1.6125  0.4970
  577TMC3    C8 8617   0.887   0.431  12.047 -0.0317  0.3873 -0.2776
  577TMC3    O1 8618   0.897   0.996  12.217  0.0667 -0.3412  0.0216
  577TMC3    O2 8619   0.872   0.323  12.102  0.0627  0.5305 -0.3894
  578MPD2     C 8620   3.614   1.130   1.276  0.0758  0.8138 -0.3245
  578MPD2    C1 8621   3.679   1.020   1.224  0.2434 -0.3402 -0.3373
  578MPD2    C2 8622   3.815   1.031   1.202  0.0895 -0.0719 -0.0189
  578MPD2    C3 8623   3.884   1.147   1.243  0.2477 -0.4312 -0.4283
  578MPD2    C4 8624   3.818   1.253   1.297  0.0108 -0.1243  0.4380
  578MPD2    C5 8625   3.678   1.244   1.304  0.1294 -0.4297 -0.4150
  578MPD2     H 8626   3.875   0.955   1.153 -0.6060 -1.0976  0.7356
  578MPD2    H1 8627   3.864   1.340   1.341 -0.1406  0.1985 -0.0411
  578MPD2    H2 8628   3.506   1.124   1.288  0.6467 -1.6925  3.5583
  578MPD2    H3 8629   3.615   1.323   1.343 -0.4975 -1.5539  0.8141
  578MPD2     N 8630   4.024   1.156   1.222  0.3338  0.5963 -0.7559
  578MPD2    H5 8631   4.068   1.069   1.196 -1.7722  0.4619 -3.9160
  578MPD2    N1 8632   3.606   0.899   1.193  0.0888  0.1458  0.4517
  578MPD2    H7 8633   3.507   0.903   1.218  0.2584  4.5772  0.4009
  579TMC3    C1 8634   4.237   1.230   1.237 -0.6930  0.0253  0.0643
  579TMC3    C2 8635   4.308   1.330   1.167  0.4910  0.1555 -0.1202
  579TMC3    C3 8636   4.424   1.294   1.112  0.8148 -0.0519  0.4374
  579TMC3    C4 8637   4.280   1.101   1.247  0.5020 -0.4539 -0.6329
  579TMC3    C5 8638   4.404   1.077   1.193 -0.1815 -0.2822  0.3119
  579TMC3    C6 8639   4.478   1.169   1.130  0.3189 -0.1758  0.3623
  579TMC3     C 8640   4.101   1.265   1.250  0.4796  0.0679  0.5728
  579TMC3     O 8641   4.075   1.383   1.282  0.1090  0.1514  0.6859
  579TMC3     H 8642   4.266   1.429   1.159 -4.0694 -1.7454 -0.0645
  579TMC3    H1 8643   4.236   1.038   1.323  2.8175 -2.0281 -0.5923
  579TMC3    H2 8644   4.574   1.138   1.090 -0.3096 -0.0696 -1.2596
  579TMC3    C7 8645   4.465   0.948   1.219 -0.3010 -0.5302  0.0208
  579TMC3    C8 8646   4.504   1.405   1.069 -0.3842  0.1900  0.3782
  579TMC3    O1 8647   4.581   0.925   1.197 -0.3551 -0.0664 -0.1570
  579TMC3    O2 8648   4.479   1.515   1.111  0.2365  0.4456  0.1787
  580TMC3    C1 8649   3.816   4.674  12.624  0.0370 -0.6270  0.0186
  580TMC3    C2 8650   3.947   4.695  12.583  0.1737 -0.0242  0.1617
  580TMC3    C3 8651   4.033   4.593  12.590  0.1945 -0.0085 -0.1910
  580TMC3    C4 8652   3.768   4.557  12.680 -0.4464  0.8170 -0.5799
  580TMC3    C5 8653   3.862   4.452  12.689 -0.7931  0.0717  0.1064
  580TMC3    C6 8654   3.995   4.473  12.646 -0.5285 -0.0208 -0.1668
  580TMC3     C 8655   3.719   0.022  12.545 -0.4557  0.1877  0.3691
  580TMC3     O 8656   3.772   0.083  12.455  0.4083  0.6068 -0.4332
  580TMC3     H 8657   3.986   0.047  12.534  2.6174 -2.3383 -2.0026
  580TMC3    H1 8658   3.671   4.557  12.730  2.1551 -1.9168  4.4157
  580TMC3    H2 8659   4.070   4.395  12.643 -1.5924 -1.0174 -1.1157
  580TMC3    C7 8660   3.838   4.329  12.756  0.1113  0.1239  0.0329
  580TMC3    C8 8661   4.149   4.583  12.504  0.0359  0.5177  0.4442
  580TMC3    O1 8662   3.943   4.262  12.781 -0.2561  0.5276  0.3935
  580TMC3    O2 8663   4.172   4.469  12.465  0.5800  1.2313  0.2857
  581MPD2     C 8664   1.632   3.974  14.741  0.1108 -0.5648 -0.5094
  581MPD2    C1 8665   1.586   4.011  14.866 -0.6887  0.3738  0.5843
  581MPD2    C2 8666   1.486   4.103  14.874 -0.5313  0.5528 -0.0894
  581MPD2    C3 8667   1.458   4.181  14.764  0.3311  0.7572  0.3040
  581MPD2    C4 8668   1.512   4.149  14.639  0.5436  0.6739 -0.1872
  581MPD2    C5 8669   1.599   4.051  14.630 -0.7342 -0.1504 -0.1466
  581MPD2     H 8670   1.436   4.120  14.968  1.2339  1.0513  0.7711
  581MPD2    H1 8671   1.469   4.196  14.552  0.7192 -0.3550 -0.8209
  581MPD2    H2 8672   1.702   3.892  14.732 -0.4362 -1.0389 -0.4601
  581MPD2    H3 8673   1.645   4.023  14.536  2.0902  1.4557  0.7842
  581MPD2     N 8674   1.354   4.272  14.774 -0.3200  0.0381  0.0332
  581MPD2    H5 8675   1.291   4.264  14.854  1.0266  2.4096  1.3275
  581MPD2    N1 8676   1.643   3.950  14.975 -0.2673  1.0972  0.2934
  581MPD2    H7 8677   1.719   3.888  14.948 -0.7738  0.2378  0.8749
  582TMC3    C1 8678   1.704   3.918  15.198 -0.5824  0.0609 -0.7827
  582TMC3    C2 8679   1.731   3.985  15.312  0.0894  0.4147 -0.1413
  582TMC3    C3 8680   1.802   3.912  15.408 -0.1861  0.3544 -0.4486
  582TMC3    C4 8681   1.751   3.798  15.164  0.3761  0.0047 -0.4498
  582TMC3    C5 8682   1.821   3.724  15.257 -0.5174 -0.2253  0.3159
  582TMC3    C6 8683   1.842   3.788  15.381  0.2560 -0.1767  0.1940
  582TMC3     C 8684   1.617   3.989  15.105  0.0661  0.4675 -0.7737
  582TMC3     O 8685   1.534   4.067  15.152 -0.7097 -0.7141 -0.7468
  582TMC3     H 8686   1.693   4.086  15.323 -0.8872 -0.1822  2.0267
  582TMC3    H1 8687   1.716   3.750  15.073 -1.6859 -2.4242  1.6112
  582TMC3    H2 8688   1.881   3.723  15.459  0.4966 -0.4363 -0.1426
  582TMC3    C7 8689   1.755   3.597  15.277 -0.4583  0.0298  0.5973
  582TMC3    C8 8690   1.793   3.948  15.546 -0.3815 -0.6474 -0.5812
  582TMC3    O1 8691   1.782   3.514  15.194  0.1726  0.0507 -0.7285
  582TMC3    O2 8692   1.714   4.038  15.572 -0.2581 -0.3129 -0.4230
  583MPD2     C 8693   1.175   1.037  16.548 -0.1162 -0.4450 -0.2780
  583MPD2    C1 8694   1.254   1.144  16.503 -0.5651 -0.1183  0.2829
  583MPD2    C2 8695   1.232   1.266  16.571 -0.7929  0.3949  0.3553
  583MPD2    C3 8696   1.161   1.273  16.688  0.0028 -0.3144 -0.2446
  583MPD2    C4 8697   1.088   1.167  16.731 -0.1975 -0.3914  0.0879
  583MPD2    C5 8698   1.086   1.048  16.654  0.3649  0.3795 -0.1987
  583MPD2     H 8699   1.300   1.347  16.546 -1.8553  0.6847 -1.5743
  583MPD2    H1 8700   1.019   1.165  16.814  0.8423 -1.0210  0.9302
  583MPD2    H2 8701   1.180   0.935  16.510 -2.5495 -1.5460  2.3257
  583MPD2    H3 8702   1.022   0.963  16.674 -0.7006  1.0793 -0.6143
  583MPD2     N 8703   1.154   1.397  16.759  0.1190  0.3412 -0.0107
  583MPD2    H5 8704   1.211   1.467  16.714  0.5103  0.5569  0.8184
  583MPD2    N1 8705   1.346   1.134  16.396  0.0858  0.3413 -0.5425
  583MPD2    H7 8706   1.395   1.216  16.362  3.0995 -1.0834  0.3571
  584TMC3    C1 8707   1.112   1.542  16.936 -0.1924 -0.4877  0.2296
  584TMC3    C2 8708   1.173   1.640  16.854  0.1809  0.8334 -0.4162
  584TMC3    C3 8709   1.240   1.740  16.923  0.1763 -0.5375  0.0443
  584TMC3    C4 8710   1.111   1.555  17.074  0.2749 -0.1658  0.3211
  584TMC3    C5 8711   1.182   1.653  17.130 -0.6195  0.0702 -0.1177
  584TMC3    C6 8712   1.235   1.757  17.057  0.0394  0.5206 -0.0510
  584TMC3     C 8713   1.105   1.407  16.888 -0.0716  0.2867 -1.0847
  584TMC3     O 8714   1.065   1.322  16.968  0.5512  0.4530  0.8379
  584TMC3     H 8715   1.179   1.641  16.746 -0.1363  2.2610 -0.4119
  584TMC3    H1 8716   1.069   1.474  17.132 -3.0564  2.0410  0.9489
  584TMC3    H2 8717   1.266   1.850  17.103 -0.2339  0.4492  0.2762
  584TMC3    C7 8718   1.202   1.646  17.278  0.0632  0.2386  0.5021
  584TMC3    C8 8719   1.294   1.850  16.848 -0.0041 -0.2348  0.0980
  584TMC3    O1 8720   1.141   1.554  17.334 -0.0381 -0.3264  0.1403
  584TMC3    O2 8721   1.248   1.871  16.732 -0.0109  0.1759 -0.2177
  585MPD2     C 8722   0.316   0.290   0.554 -0.5255 -0.0110  0.0247
  585MPD2    C1 8723   0.431   0.240   0.494 -0.3385  0.5931 -0.3480
  585MPD2    C2 8724   0.459   0.107   0.501 -0.2524 -0.2056 -0.2192
  585MPD2    C3 8725   0.370   0.020   0.547 -0.2095 -0.1310  0.2138
  585MPD2    C4 8726   0.250   0.067   0.606 -0.1061  0.1353 -0.1401
  585MPD2    C5 8727   0.226   0.203   0.606  0.2365 -0.4820 -0.4598
  585MPD2     H 8728   0.553   0.071   0.464 -0.8955 -0.3474 -1.6903
  585MPD2    H1 8729   0.183   0.001   0.659  2.0801 -2.0124 -0.0521
  585MPD2    H2 8730   0.308   0.397   0.539  0.3027 -0.0012 -0.4069
  585MPD2    H3 8731   0.126   0.228   0.640  0.1442 -2.4563  0.6764
  585MPD2     N 8732   0.392   4.622   0.527  0.0113  0.4180  0.0084
  585MPD2    H5 8733   0.309   4.567   0.505  0.7603 -1.2818  1.3812
  585MPD2    N1 8734   0.512   0.326   0.409 -0.3998  0.1758  0.5004
  585MPD2    H7 8735   0.475   0.414   0.373  0.9613 -0.0194 -1.4007
  586TMC3    C1 8736   0.509   4.441   0.429  0.0139  0.0115 -0.1922
  586TMC3    C2 8737   0.629   4.386   0.402 -0.1220 -0.3129 -0.1609
  586TMC3    C3 8738   0.641   4.324   0.278 -0.1767 -0.3351 -0.1025
  586TMC3    C4 8739   0.409   4.446   0.329  0.1222  0.2923 -0.7275
  586TMC3    C5 8740   0.435   4.408   0.197  0.2358 -0.0887  0.3917
  586TMC3    C6 8741   0.557   4.348   0.172 -0.6026  0.0811 -0.3432
  586TMC3     C 8742   0.513   4.559   0.514 -0.1411 -0.4866  0.0221
  586TMC3     O 8743   0.626   4.605   0.531  0.0241 -0.3873  0.2743
  586TMC3     H 8744   0.708   4.394   0.476 -0.5677  1.1202  0.1682
  586TMC3    H1 8745   0.308   4.482   0.347  0.0954  0.5881 -1.4718
  586TMC3    H2 8746   0.557   4.280   0.087  1.5791  1.0861 -1.1420
  586TMC3    C7 8747   0.321   4.397   0.107  0.4247  0.5810  0.4376
  586TMC3    C8 8748   0.772   4.282   0.246  0.4537  0.3762 -0.1513
  586TMC3    O1 8749   0.207   4.380   0.153 -0.1039 -0.5698 -0.1685
  586TMC3    O2 8750   0.843   4.236   0.334  0.1423  0.0648 -0.3321
  587TMC3    C1 8751   3.074   3.063  16.463 -0.1858  0.2527  0.1137
  587TMC3    C2 8752   3.036   3.166  16.543  0.2133  0.2686 -0.2851
  587TMC3    C3 8753   3.138   3.232  16.607 -0.0381 -0.7139 -0.1954
  587TMC3    C4 8754   3.206   3.026  16.438 -0.1347  0.8521  0.6455
  587TMC3    C5 8755   3.299   3.110  16.493 -0.4820 -0.1095 -0.4821
  587TMC3    C6 8756   3.270   3.205  16.586 -0.0810 -0.2804  0.0578
  587TMC3     C 8757   2.986   2.953  16.456 -0.5098 -0.0613  0.2548
  587TMC3     O 8758   3.032   2.842  16.457 -0.1306 -0.1335  0.9222
  587TMC3     H 8759   2.933   3.193  16.563  0.1247 -0.1737 -0.1481
  587TMC3    H1 8760   3.235   2.936  16.386  1.5964  1.2030  1.0083
  587TMC3    H2 8761   3.344   3.263  16.640 -1.3569  2.2582 -0.9629
  587TMC3    C7 8762   3.437   3.059  16.487  0.0416  0.0989 -0.0271
  587TMC3    C8 8763   3.112   3.314  16.725 -0.4602 -0.4179 -0.2437
  587TMC3    O1 8764   3.462   2.959  16.422  0.0847 -0.0991 -0.2048
  587TMC3    O2 8765   3.191   3.313  16.820 -0.4063 -0.6966  0.1402
  588TMC3    C1 8766   4.582   1.198   9.805 -0.2091  0.0597 -0.3005
  588TMC3    C2 8767   4.505   1.089   9.762 -0.6955 -0.3026  0.0859
  588TMC3    C3 8768   4.567   0.960   9.778 -0.0730 -0.0773 -0.3398
  588TMC3    C4 8769   4.705   1.181   9.863 -0.0160  0.7401  0.5716
  588TMC3    C5 8770   0.025   1.062   9.869  0.0890  0.5253  1.0171
  588TMC3    C6 8771   4.698   0.950   9.821 -0.6937 -0.1256  0.3080
  588TMC3     C 8772   4.520   1.332   9.809 -0.9936 -0.1893 -0.2130
  588TMC3     O 8773   4.400   1.333   9.833  0.2359 -0.1729  0.3638
  588TMC3     H 8774   4.406   1.101   9.719  0.0385  0.3595 -1.4018
  588TMC3    H1 8775   4.733   1.261   9.931  1.3965  0.2574  0.5656
  588TMC3    H2 8776   0.016   0.856   9.814  0.8792  0.6825  1.4664
  588TMC3    C7 8777   0.149   1.044   9.948  0.3053  0.4939 -0.3601
  588TMC3    C8 8778   4.467   0.872   9.824 -0.4854  0.4527  0.8857
  588TMC3    O1 8779   0.168   0.940  10.009 -0.5346  0.8423  0.1599
  588TMC3    O2 8780   4.364   0.877   9.762  0.3881 -0.3310  0.5603
  589TMC3    C1 8781   4.371   3.479   1.951  0.2184  0.3887  0.2924
  589TMC3    C2 8782   4.460   3.400   2.016 -0.8230 -0.5483 -0.6033
  589TMC3    C3 8783   4.569   3.361   1.941 -0.0277 -0.2006 -0.3438
  589TMC3    C4 8784   4.386   3.515   1.819  0.4709  0.7236 -0.3082
  589TMC3    C5 8785   4.493   3.474   1.756  0.8850 -0.6359  0.1753
  589TMC3    C6 8786   4.593   3.402   1.814  0.3398 -0.1321 -0.8488
  589TMC3     C 8787   4.270   3.540   2.027 -0.4078  0.2878 -0.0177
  589TMC3     O 8788   4.244   3.655   1.996 -0.2230 -0.4543  0.1853
  589TMC3     H 8789   4.458   3.391   2.124 -0.5065  2.8297 -0.3128
  589TMC3    H1 8790   4.316   3.584   1.773  3.3935  3.9034  0.0116
  589TMC3    H2 8791   4.667   3.355   1.750 -0.7492 -0.8466 -1.5954
  589TMC3    C7 8792   4.524   3.511   1.624  0.0096  0.4269  0.3834
  589TMC3    C8 8793   4.691   3.331   2.011 -0.1149 -0.3125  0.2296
  589TMC3    O1 8794   4.637   3.484   1.590 -0.2810 -0.1913 -0.1370
  589TMC3    O2 8795   4.683   3.283   2.123 -0.4715  0.1788 -0.1083
  590MPD2     C 8796   3.937   2.156  16.931  0.6931  0.4453  0.7545
  590MPD2    C1 8797   3.887   2.137  16.804 -0.0698 -0.6306 -0.0728
  590MPD2    C2 8798   3.969   2.170  16.694  0.2950  0.6357  0.2809
  590MPD2    C3 8799   4.103   2.205  16.706  0.7488  0.2396 -0.3285
  590MPD2    C4 8800   4.142   2.216  16.836 -0.1108  0.6131 -0.2000
  590MPD2    C5 8801   4.069   2.187  16.947  0.5192 -0.4763  0.0702
  590MPD2     H 8802   3.925   2.171  16.595 -0.6047  0.5018  0.6721
  590MPD2    H1 8803   4.240   2.256  16.856  1.2405 -3.6058  1.7090
  590MPD2    H2 8804   3.874   2.134  17.017 -1.2233 -1.5055 -1.1463
  590MPD2    H3 8805   4.114   2.202  17.045  3.9933 -0.9019 -1.4719
  590MPD2     N 8806   4.172   2.237  16.591  0.0682 -0.3828  0.2968
  590MPD2    H5 8807   4.114   2.246  16.508  0.0688 -0.4283  0.2915
  590MPD2    N1 8808   3.753   2.108  16.805 -0.4931  0.0645  0.3286
  590MPD2    H7 8809   3.703   2.105  16.893  0.0966  0.8705  0.6916
  591TMC3    C1 8810   4.342   2.260  16.445 -0.0032  0.0864 -0.1939
  591TMC3    C2 8811   4.392   2.142  16.392 -0.0082  0.1151  0.1252
  591TMC3    C3 8812   4.371   2.120  16.256 -0.0943 -0.1492 -0.5082
  591TMC3    C4 8813   4.277   2.352  16.367 -0.0877 -0.0137 -0.4405
  591TMC3    C5 8814   4.261   2.324  16.238  0.0630  0.5941 -1.0371
  591TMC3    C6 8815   4.299   2.207  16.179  0.2229  0.3409  0.4329
  591TMC3     C 8816   4.307   2.252  16.584 -0.9658  0.1136 -0.7304
  591TMC3     O 8817   4.394   2.231  16.665 -0.1197 -0.2877  0.1834
  591TMC3     H 8818   4.442   2.074  16.460 -1.5050 -0.1442  0.9453
  591TMC3    H1 8819   4.251   2.451  16.403  1.6439  0.9752 -1.9424
  591TMC3    H2 8820   4.274   2.196  16.074 -1.2399  2.7950  0.5101
  591TMC3    C7 8821   4.158   2.399  16.167  0.2581  0.1647 -0.3430
  591TMC3    C8 8822   4.417   1.995  16.200 -0.4067  0.4380  0.1517
  591TMC3    O1 8823   4.043   2.355  16.162 -0.6324  0.0513  0.2517
  591TMC3    O2 8824   4.470   1.921  16.279 -0.6508  0.2078  0.2831
  592MPD2     C 8825   4.085   3.684  11.567 -0.2422  0.0782  0.3571
  592MPD2    C1 8826   4.104   3.739  11.690 -0.8675  0.6325 -0.3993
  592MPD2    C2 8827   4.032   3.690  11.801  0.1876 -0.3489  0.1476
  592MPD2    C3 8828   3.969   3.568  11.791  0.6795 -0.6131 -0.0929
  592MPD2    C4 8829   3.955   3.514  11.665 -0.4223  0.4451  0.1385
  592MPD2    C5 8830   4.022   3.568  11.560 -0.5848  0.1308  0.4018
  592MPD2     H 8831   4.041   3.728  11.902  1.0289 -0.5400  0.1499
  592MPD2    H1 8832   3.917   3.413  11.652 -0.9092  0.6678 -0.1859
  592MPD2    H2 8833   4.140   3.729  11.485  0.1403 -2.2521 -0.6526
  592MPD2    H3 8834   4.030   3.513  11.466  0.6224  2.0857 -0.6422
  592MPD2     N 8835   3.903   3.519  11.907 -0.0716  0.1303  0.4266
  592MPD2    H5 8836   3.930   3.554  11.998  1.0782 -1.0471  0.5436
  592MPD2    N1 8837   4.192   3.852  11.695 -0.4181 -0.5247 -0.2557
  592MPD2    H7 8838   4.220   3.884  11.603 -0.4342  0.3252  0.0331
  593TMC3    C1 8839   4.342   3.994  11.799  0.3626 -0.0012  0.1001
  593TMC3    C2 8840   4.371   4.064  11.912  0.4061  0.7274  0.5324
  593TMC3    C3 8841   4.427   4.188  11.896 -0.3717  0.1245 -0.1377
  593TMC3    C4 8842   4.365   4.051  11.680  0.5049 -0.0106  0.3339
  593TMC3    C5 8843   4.437   4.174  11.667  0.4648  0.1594 -0.2480
  593TMC3    C6 8844   4.451   4.246  11.778 -0.7802 -0.5851  0.2395
  593TMC3     C 8845   4.241   3.900  11.819  0.2469  0.2558 -0.6557
  593TMC3     O 8846   4.234   3.863  11.932  0.7262  0.0165 -0.0542
  593TMC3     H 8847   4.360   4.025  12.012 -1.9565  0.2254  0.0732
  593TMC3    H1 8848   4.368   3.981  11.597 -0.6992  0.8703 -0.4491
  593TMC3    H2 8849   4.495   4.345  11.774 -2.2665  0.1187  1.0443
  593TMC3    C7 8850   4.463   4.229  11.537 -0.2265  0.3885  0.3957
  593TMC3    C8 8851   4.410   4.262  12.020  0.1081 -0.0888 -0.0148
  593TMC3    O1 8852   4.544   4.321  11.538 -0.3968 -0.1640 -0.4845
  593TMC3    O2 8853   4.311   4.229  12.087  0.1750 -0.4212  0.2251
  594MPD2     C 8854   3.408   2.468  14.939  0.2578  0.1581  0.0806
  594MPD2    C1 8855   3.316   2.555  14.873 -1.5750 -0.4045 -0.4509
  594MPD2    C2 8856   3.357   2.681  14.819 -0.5194  0.5376 -1.7168
  594MPD2    C3 8857   3.485   2.720  14.837  0.7524 -0.5646 -0.8138
  594MPD2    C4 8858   3.568   2.642  14.910  0.1892 -0.8222 -0.4786
  594MPD2    C5 8859   3.536   2.521  14.956 -0.1341  0.6157  0.6413
  594MPD2     H 8860   3.292   2.743  14.758 -0.8089  0.6232 -1.3202
  594MPD2    H1 8861   3.669   2.674  14.935 -0.5796  1.0458  0.2640
  594MPD2    H2 8862   3.379   2.377  14.991  1.3537 -0.5850 -0.6217
  594MPD2    H3 8863   3.617   2.471  15.009  0.1479 -0.2783 -0.6185
  594MPD2     N 8864   3.520   2.842  14.774  0.4469 -0.1536 -0.5421
  594MPD2    H5 8865   3.450   2.895  14.724  1.4393  1.9059  0.2318
  594MPD2    N1 8866   3.180   2.513  14.848 -0.2264  0.0834 -0.7146
  594MPD2    H7 8867   3.114   2.578  14.808  2.5131  2.0245 -2.0351
  595TMC3    C1 8868   3.865   3.125  14.608  0.1121 -0.2004  0.1772
  595TMC3    C2 8869   3.819   3.015  14.671 -0.5338  0.5377  0.4911
  595TMC3    C3 8870   3.682   3.016  14.707  0.0196 -0.0703  0.5560
  595TMC3    C4 8871   3.782   3.221  14.559 -0.3551 -0.2759 -0.5889
  595TMC3    C5 8872   3.647   3.220  14.593  0.1543 -0.0706 -0.0124
  595TMC3    C6 8873   3.595   3.112  14.664  0.4773 -0.0910 -0.6169
  595TMC3     C 8874   3.989   3.120  14.539 -0.0326  0.0030 -0.0107
  595TMC3     O 8875   4.035   3.226  14.492  0.0257  0.4421  0.0394
  595TMC3     H 8876   3.879   2.938  14.717 -0.7879 -1.3044 -2.2642
  595TMC3    H1 8877   3.826   3.297  14.495 -1.4058 -0.3771 -1.4328
  595TMC3    H2 8878   3.493   3.102  14.700  0.6963 -1.2350 -0.3114
  595TMC3    C7 8879   3.569   3.338  14.583  0.2292 -0.3733 -0.5908
  595TMC3    C8 8880   3.645   2.898  14.788  0.8683 -0.7559 -0.5578
  595TMC3    O1 8881   3.465   3.337  14.646 -0.3709  0.0441  0.1793
  595TMC3    O2 8882   3.732   2.874  14.869  0.2377 -0.0063 -0.1498
  596MPD2     C 8883   1.733   0.702  16.567 -0.2747 -1.2445 -0.0190
  596MPD2    C1 8884   1.850   0.757  16.615  0.5413 -0.8721 -0.4574
  596MPD2    C2 8885   1.965   0.754  16.533 -1.1622  0.5576 -0.0179
  596MPD2    C3 8886   1.959   0.692  16.410 -0.8290 -0.0841 -0.1466
  596MPD2    C4 8887   1.842   0.632  16.363 -0.0320  0.6467  0.2906
  596MPD2    C5 8888   1.737   0.631  16.447  0.0440  0.4978 -0.2410
  596MPD2     H 8889   2.054   0.804  16.568 -1.5075  0.0515  1.5676
  596MPD2    H1 8890   1.835   0.594  16.261  0.6744 -0.5945  0.7024
  596MPD2    H2 8891   1.637   0.717  16.615 -0.6796  0.2503 -1.3025
  596MPD2    H3 8892   1.640   0.593  16.416  1.4558 -1.4820 -2.1995
  596MPD2     N 8893   2.066   0.702  16.319 -0.1420 -0.1160  0.1953
  596MPD2    H5 8894   2.043   0.659  16.229  0.1704 -1.3188  0.6831
  596MPD2    N1 8895   1.856   0.831  16.736  0.1038 -0.5591  0.3475
  596MPD2    H7 8896   1.935   0.894  16.749 -0.1559 -0.2516  0.4295
  597TMC3    C1 8897   1.780   0.964  16.905 -0.6306 -0.8203  0.1419
  597TMC3    C2 8898   1.844   1.078  16.857  0.2798  0.3908  0.2822
  597TMC3    C3 8899   1.865   1.188  16.933 -0.6412  0.3246 -0.3237
  597TMC3    C4 8900   1.735   0.968  17.033 -0.2553 -0.1405  0.7176
  597TMC3    C5 8901   1.751   1.087  17.104 -0.4536  0.0856 -0.3413
  597TMC3    C6 8902   1.808   1.200  17.055 -1.0094 -0.0114 -0.3431
  597TMC3     C 8903   1.755   0.847  16.825 -0.2725 -0.3117 -0.5421
  597TMC3     O 8904   1.674   0.767  16.864  0.6970  0.1614 -0.2488
  597TMC3     H 8905   1.876   1.080  16.753 -0.1765 -1.3425  0.1062
  597TMC3    H1 8906   1.702   0.880  17.088  0.5014 -1.1048 -0.3795
  597TMC3    H2 8907   1.831   1.290  17.112  0.4850 -0.2762 -0.5336
  597TMC3    C7 8908   1.686   1.107  17.236  0.5028  0.1590  0.6562
  597TMC3    C8 8909   1.946   1.303  16.897  0.1468 -0.1831  0.3258
  597TMC3    O1 8910   1.672   1.006  17.303 -0.1016 -0.8394  0.4638
  597TMC3    O2 8911   1.910   1.411  16.937 -0.0621  0.8383  0.2718
  598TMC3    C1 8912   0.441   2.238  15.418 -0.1015 -0.2020  0.3895
  598TMC3    C2 8913   0.341   2.139  15.407  0.4197  0.4153  0.1139
  598TMC3    C3 8914   0.335   2.065  15.288 -0.0411 -0.7429  0.1335
  598TMC3    C4 8915   0.531   2.257  15.319  0.1707  0.9429 -0.1008
  598TMC3    C5 8916   0.522   2.181  15.202 -0.4595  0.2786  0.2361
  598TMC3    C6 8917   0.432   2.070  15.196  0.2276 -0.2660 -0.9788
  598TMC3     C 8918   0.472   2.278  15.554  0.4715 -0.1000  0.5078
  598TMC3     O 8919   0.392   2.266  15.644  0.0144  0.3658 -0.1993
  598TMC3     H 8920   0.265   2.124  15.482  0.1668 -1.5568 -0.5160
  598TMC3    H1 8921   0.607   2.335  15.320 -1.4111  2.4253  2.2603
  598TMC3    H2 8922   0.420   2.016  15.103 -2.0754 -0.7289 -0.3935
  598TMC3    C7 8923   0.593   2.212  15.076  0.6875  0.3712 -0.1987
  598TMC3    C8 8924   0.231   1.976  15.266  0.1048  0.0909 -0.2388
  598TMC3    O1 8925   0.613   2.121  14.997  0.6108  0.5714 -0.1440
  598TMC3    O2 8926   0.256   1.868  15.211 -0.4656 -0.0534  0.2157
  599MPD2     C 8927   0.340   4.675  15.915 -0.5367  0.3342 -0.1724
  599MPD2    C1 8928   0.335   4.538  15.909  0.7581  0.5083  0.6722
  599MPD2    C2 8929   0.324   4.482  16.036  0.1147 -0.0475  0.0537
  599MPD2    C3 8930   0.326   4.555  16.154 -0.4890  0.1053 -0.3522
  599MPD2    C4 8931   0.345   4.693  16.149 -0.1600 -0.1309 -0.1266
  599MPD2    C5 8932   0.352   0.018  16.024 -0.2244  0.1690  0.0266
  599MPD2     H 8933   0.309   4.374  16.038 -0.1412 -0.0310 -1.1325
  599MPD2    H1 8934   0.326   0.016  16.238  0.0374  1.5212 -1.1512
  599MPD2    H2 8935   0.325   4.729  15.822  1.3846 -0.2894 -0.8350
  599MPD2    H3 8936   0.352   0.126  16.021  1.5513  0.1932  0.8328
  599MPD2     N 8937   0.302   4.494  16.279 -0.2786 -0.1155 -0.6862
  599MPD2    H5 8938   0.325   4.558  16.354 -0.0294  0.5117 -1.3075
  599MPD2    N1 8939   0.310   4.470  15.784 -0.2439  0.7245  0.0883
  599MPD2    H7 8940   0.334   4.517  15.697 -1.4968  0.5325 -0.3629
  600TMC3    C1 8941   0.274   4.324  16.436 -0.3212  0.0209  0.2414
  600TMC3    C2 8942   0.166   4.272  16.503  0.5247 -0.2272 -0.1013
  600TMC3    C3 8943   0.174   4.259  16.641  0.5530 -1.1456 -0.2608
  600TMC3    C4 8944   0.391   4.350  16.496  0.3599 -0.0671 -0.1744
  600TMC3    C5 8945   0.391   4.335  16.634 -0.6619  0.1964 -0.0998
  600TMC3    C6 8946   0.290   4.282  16.708 -0.6466  0.6995  0.5258
  600TMC3     C 8947   0.251   4.371  16.301  0.0450  0.0699  1.1487
  600TMC3     O 8948   0.193   4.296  16.224  0.5676  0.0422 -0.2587
  600TMC3     H 8949   0.076   4.260  16.444 -0.6233  1.6501  1.2386
  600TMC3    H1 8950   0.473   4.385  16.434 -1.3286  1.0654 -1.7833
  600TMC3    H2 8951   0.300   4.277  16.816 -1.8031 -2.1647  0.4851
  600TMC3    C7 8952   0.487   4.414  16.697  0.2896 -0.5543 -0.1331
  600TMC3    C8 8953   0.053   4.266  16.729 -0.3185  0.4709 -0.4936
  600TMC3    O1 8954   0.595   4.427  16.636  0.1700  0.5238 -0.7353
  600TMC3    O2 8955   0.073   4.290  16.846 -0.1237 -0.4630  0.5156
  601MPD2     C 8956   2.607   2.934   0.060  0.1136 -0.0620  0.0180
  601MPD2    C1 8957   2.488   2.991   0.032 -0.0778  0.1398  0.2383
  601MPD2    C2 8958   2.384   2.979   0.125 -0.4155  0.2361 -0.5652
  601MPD2    C3 8959   2.412   2.919   0.253  0.7101 -1.0569  0.2596
  601MPD2    C4 8960   2.542   2.877   0.278  0.3176  0.6578  0.2881
  601MPD2    C5 8961   2.634   2.894   0.184  0.0719 -0.0642 -0.1689
  601MPD2     H 8962   2.295   3.029   0.091 -0.7484 -0.0485 -0.1072
  601MPD2    H1 8963   2.571   2.846   0.378 -3.0726  0.0640  1.1010
  601MPD2    H2 8964   2.682   2.948  17.723  1.4220 -0.2055  1.2711
  601MPD2    H3 8965   2.736   2.870   0.213 -0.5525 -1.3475  0.9720
  601MPD2     N 8966   2.313   2.901   0.359  0.4255 -0.7411 -0.2581
  601MPD2    H5 8967   2.339   2.854   0.446 -1.3071 -0.9831  0.1245
  601MPD2    N1 8968   2.460   3.044  17.649  0.7422 -0.2489  0.1400
  601MPD2    H7 8969   2.376   3.098  17.634  1.1405  0.8956  1.9457
  602TMC3    C1 8970   2.489   3.155  17.440  1.0432 -0.7214  0.2519
  602TMC3    C2 8971   2.366   3.126  17.397  0.1628  0.5542  0.0061
  602TMC3    C3 8972   2.327   3.197  17.285 -0.3145  0.2082 -0.1106
  602TMC3    C4 8973   2.570   3.247  17.376  0.1321  0.0811 -0.7035
  602TMC3    C5 8974   2.527   3.324  17.269  0.8186 -0.2733 -0.4875
  602TMC3    C6 8975   2.407   3.286  17.217  0.1005 -0.6993 -0.2885
  602TMC3     C 8976   2.549   3.071  17.545  0.0499  0.6397  0.0415
  602TMC3     O 8977   2.671   3.053  17.530  0.1254  0.0470  0.1240
  602TMC3     H 8978   2.301   3.052  17.442  0.8838  0.4995  0.9493
  602TMC3    H1 8979   2.655   3.281  17.435 -0.2087  1.1082 -0.8069
  602TMC3    H2 8980   2.365   3.354  17.143  1.9739  1.1316  0.3524
  602TMC3    C7 8981   2.546   3.470  17.278  0.4429 -0.1612 -0.3606
  602TMC3    C8 8982   2.196   3.166  17.224 -1.0873  0.3030 -0.2999
  602TMC3    O1 8983   2.571   3.509  17.392 -0.2550  0.6234  0.2038
  602TMC3    O2 8984   2.154   3.050  17.221 -0.6589 -0.0956 -0.3693
  603TMC3    C1 8985   4.439   3.229  10.846 -0.7883 -0.3166 -0.1472
  603TMC3    C2 8986   4.495   3.223  10.973 -0.9090 -0.0272 -0.4314
  603TMC3    C3 8987   4.586   3.317  11.012 -0.2571  0.1938 -0.1006
  603TMC3    C4 8988   4.465   3.330  10.763  0.2085 -0.5075  0.5516
  603TMC3    C5 8989   4.558   3.423  10.807 -0.3372 -0.3590 -0.3275
  603TMC3    C6 8990   4.610   3.420  10.930  0.4732 -0.0574 -0.0501
  603TMC3     C 8991   4.389   3.104  10.790 -0.2031  0.1998  0.2847
  603TMC3     O 8992   4.365   3.012  10.867  0.3029 -0.1445  0.3310
  603TMC3     H 8993   4.474   3.132  11.029 -1.9818  0.2642 -0.3524
  603TMC3    H1 8994   4.399   3.352  10.679  0.4606  0.4140  0.5936
  603TMC3    H2 8995   4.699   3.475  10.956  1.3772 -1.5846  0.1238
  603TMC3    C7 8996   4.621   3.528  10.723 -0.2940 -1.0169  0.0787
  603TMC3    C8 8997   4.663   3.301  11.136 -0.6071 -0.4110  0.1409
  603TMC3    O1 8998   4.722   3.579  10.766 -0.0108  0.2229  0.1777
  603TMC3    O2 8999   4.683   3.191  11.186 -0.3274  0.0147 -0.0723
  604MPD2     C 9000   1.417   2.086  16.390  0.0524 -0.1525  0.4378
  604MPD2    C1 9001   1.312   2.096  16.295  0.0349  0.2626  0.0829
  604MPD2    C2 9002   1.351   2.082  16.156 -0.3207  0.7051 -0.1331
  604MPD2    C3 9003   1.481   2.066  16.122  0.1238 -0.1990 -0.1263
  604MPD2    C4 9004   1.579   2.056  16.217 -0.7267  0.1665 -0.1290
  604MPD2    C5 9005   1.543   2.059  16.348 -0.6287 -0.0515 -0.0885
  604MPD2     H 9006   1.272   2.091  16.083 -0.8487  0.0453  0.3548
  604MPD2    H1 9007   1.685   2.050  16.196 -0.7603 -0.3457 -0.1475
  604MPD2    H2 9008   1.405   2.100  16.497 -1.5216  1.0455  0.1021
  604MPD2    H3 9009   1.619   2.068  16.425 -1.7230  0.8848  0.8922
  604MPD2     N 9010   1.517   2.056  15.988  0.2030 -0.6973 -0.7230
  604MPD2    H5 9011   1.443   2.068  15.919 -0.6999  0.7476  0.4972
  604MPD2    N1 9012   1.184   2.123  16.340 -0.3316  0.0533 -0.1215
  604MPD2    H7 9013   1.190   2.143  16.440 -0.1619  1.3015 -0.3855
  605TMC3    C1 9014   0.984   2.235  16.349 -0.5016  0.3997  0.2152
  605TMC3    C2 9015   1.029   2.294  16.464  0.4075  0.4628 -0.0782
  605TMC3    C3 9016   0.961   2.397  16.529 -0.4393 -0.7023 -0.7385
  605TMC3    C4 9017   0.871   2.292  16.293 -0.0317  0.6369 -0.8671
  605TMC3    C5 9018   0.802   2.390  16.365 -0.5928 -0.7793 -0.9582
  605TMC3    C6 9019   0.843   2.449  16.482  0.6375 -0.7928  0.0476
  605TMC3     C 9020   1.069   2.153  16.269 -0.1710  0.0306  0.0633
  605TMC3     O 9021   1.044   2.128  16.149  0.2214 -0.2287  0.3598
  605TMC3     H 9022   1.120   2.261  16.511 -0.7795 -1.4737  0.8571
  605TMC3    H1 9023   0.834   2.241  16.205 -0.9688  0.4067 -0.3490
  605TMC3    H2 9024   0.784   2.531  16.521  0.4910 -0.6852 -0.4048
  605TMC3    C7 9025   0.658   2.416  16.338  0.5706 -0.1375 -0.1749
  605TMC3    C8 9026   1.041   2.485  16.610  0.2832 -0.4714  0.0078
  605TMC3    O1 9027   0.619   2.523  16.378  0.2750 -0.0738  0.0868
  605TMC3    O2 9028   1.104   2.421  16.694 -0.1681  0.0760 -0.0724
  606TMC3    C1 9029   2.141   0.911  17.249  0.2034 -0.5478 -0.6135
  606TMC3    C2 9030   2.138   0.904  17.387  0.5032 -0.4969  0.2970
  606TMC3    C3 9031   2.145   0.774  17.441  0.1081 -0.1225  0.3815
  606TMC3    C4 9032   2.165   0.802  17.169 -0.4252  0.0966  0.2273
  606TMC3    C5 9033   2.172   0.684  17.231  0.1672  0.3190 -0.0723
  606TMC3    C6 9034   2.155   0.660  17.359 -0.0243 -0.8277  0.3808
  606TMC3     C 9035   2.146   1.046  17.184 -0.5796  0.3845  0.4657
  606TMC3     O 9036   2.203   1.051  17.076  0.1703  0.3464  0.4374
  606TMC3     H 9037   2.136   0.988  17.455 -0.4333  0.5439 -1.0340
  606TMC3    H1 9038   2.183   0.814  17.063 -3.0369  0.1829 -0.1977
  606TMC3    H2 9039   2.183   0.564  17.401 -1.1932 -1.0507  0.6430
  606TMC3    C7 9040   2.193   0.567  17.144  0.1191  0.7919  1.1939
  606TMC3    C8 9041   2.169   0.763  17.584 -0.1178  1.3007  0.8082
  606TMC3    O1 9042   2.250   0.586  17.038 -0.0597 -0.0312 -0.1988
  606TMC3    O2 9043   2.195   0.867  17.645 -0.4023  0.1476  0.0867
  607MPD2     C 9044   4.142   3.236  12.103  0.2048 -0.9738 -0.1855
  607MPD2    C1 9045   4.277   3.260  12.114 -0.1012  0.0526  0.1409
  607MPD2    C2 9046   4.348   3.198  12.216 -0.2555  0.4263  0.4126
  607MPD2    C3 9047   4.288   3.113  12.308 -0.3565 -0.3044  0.8033
  607MPD2    C4 9048   4.151   3.099  12.309 -0.0638 -0.0358 -0.6523
  607MPD2    C5 9049   4.083   3.161  12.201  0.0740  0.9081 -0.7837
  607MPD2     H 9050   4.455   3.209  12.229 -0.3933 -0.2295  2.0875
  607MPD2    H1 9051   4.096   3.055  12.391 -0.9503  2.0630 -0.1228
  607MPD2    H2 9052   4.085   3.275  12.019 -0.3544 -2.3727 -0.4632
  607MPD2    H3 9053   3.976   3.146  12.196  0.2097 -0.2028 -0.2309
  607MPD2     N 9054   4.370   3.057  12.405  0.5706 -0.0202 -0.5958
  607MPD2    H5 9055   4.469   3.075  12.391  0.7902 -0.5905  0.2656
  607MPD2    N1 9056   4.344   3.351  12.033  0.3015 -0.7062  0.7922
  607MPD2    H7 9057   4.431   3.385  12.073 -0.0159  1.6050 -0.4928
  608TMC3    C1 9058   4.439   3.421  11.840 -0.2470 -0.3490  0.1827
  608TMC3    C2 9059   4.558   3.384  11.890  0.1048 -0.5755  0.2342
  608TMC3    C3 9060   4.664   3.454  11.845  1.0198  0.4734  0.8388
  608TMC3    C4 9061   4.423   3.510  11.736 -0.3387 -0.7657 -0.2186
  608TMC3    C5 9062   4.533   3.577  11.692 -0.1212  0.1387 -0.2454
  608TMC3    C6 9063   4.654   3.543  11.748 -0.4872  0.3414 -0.4465
  608TMC3     C 9064   4.319   3.374  11.906  0.1264  0.1259 -0.1392
  608TMC3     O 9065   4.225   3.356  11.835  0.3559  0.0385  0.4122
  608TMC3     H 9066   4.574   3.297  11.952 -1.0657  0.2935  1.7580
  608TMC3    H1 9067   4.320   3.531  11.708 -0.3315  0.0363  0.3451
  608TMC3    H2 9068   0.015   3.586  11.723 -0.3194  0.0600 -0.2934
  608TMC3    C7 9069   4.522   3.693  11.610 -0.5161 -0.1681 -0.3477
  608TMC3    C8 9070   0.058   3.447  11.913 -0.0722 -0.0452 -0.9008
  608TMC3    O1 9071   4.439   3.698  11.522  0.4620 -0.4661 -0.2969
  608TMC3    O2 9072   0.163   3.487  11.864 -0.6560 -0.1641  0.7606
  609TMC3    C1 9073   2.001   2.832   9.219 -0.2464 -0.0481 -0.1874
  609TMC3    C2 9074   1.954   2.703   9.188  0.4236 -0.1115  0.1055
  609TMC3    C3 9075   2.009   2.634   9.083  0.6004 -0.1656 -0.3607
  609TMC3    C4 9076   2.096   2.891   9.143 -0.2249  0.4630 -0.4137
  609TMC3    C5 9077   2.143   2.822   9.035 -0.6031 -0.0075 -0.4600
  609TMC3    C6 9078   2.102   2.692   9.008 -0.0936  0.0160 -0.0999
  609TMC3     C 9079   1.947   2.898   9.336  0.5288  0.3640  0.3153
  609TMC3     O 9080   2.004   3.001   9.363  0.1888 -0.8818  0.6249
  609TMC3     H 9081   1.882   2.652   9.251  0.0378 -0.2970 -0.4868
  609TMC3    H1 9082   2.119   2.995   9.163  0.7259  0.0571  0.5648
  609TMC3    H2 9083   2.131   2.636   8.919  1.9751 -0.8405  1.1137
  609TMC3    C7 9084   2.267   2.860   8.983  0.3930 -1.0601  0.8979
  609TMC3    C8 9085   1.953   2.508   9.049  0.1119  0.1739  0.5354
  609TMC3    O1 9086   2.352   2.772   8.971 -0.0385  0.0473 -0.1408
  609TMC3    O2 9087   1.911   2.441   9.144  0.4754 -0.2402 -0.2853
  610TMC3    C1 9088   4.566   3.899  13.048 -1.0849 -0.2418  0.0214
  610TMC3    C2 9089   4.445   3.849  13.007 -1.0282  0.5030  0.5990
  610TMC3    C3 9090   4.449   3.729  12.933  0.3026  0.3291 -0.2695
  610TMC3    C4 9091   4.677   3.829  13.019  0.2700  0.3948  0.2464
  610TMC3    C5 9092   4.677   3.708  12.962 -0.5988  0.1225 -0.5616
  610TMC3    C6 9093   4.565   3.648  12.915  0.4796 -0.2597 -0.4777
  610TMC3     C 9094   4.559   3.995  13.155  0.6196  0.1665  0.4236
  610TMC3     O 9095   4.660   4.060  13.177  0.0285  0.2626  0.1302
  610TMC3     H 9096   4.357   3.911  13.016 -0.3023  1.5604  0.4240
  610TMC3    H1 9097   0.030   3.866  13.069  1.0338 -2.3325  0.9409
  610TMC3    H2 9098   4.575   3.559  12.854  1.0033  1.0592 -2.2984
  610TMC3    C7 9099   0.058   3.617  12.989  0.5602 -0.1150 -0.5138
  610TMC3    C8 9100   4.320   3.674  12.894  0.5710 -0.6420 -0.1585
  610TMC3    O1 9101   0.048   3.494  12.971  0.0390  0.0630  0.1252
  610TMC3    O2 9102   4.225   3.752  12.914 -0.0226 -0.0173  0.5125
  611MPD2     C 9103   3.462   3.793  10.215 -0.3794 -0.2302 -0.9669
  611MPD2    C1 9104   3.556   3.690  10.227 -0.5122  0.1066  0.0687
  611MPD2    C2 9105   3.674   3.690  10.158  0.2045 -0.3839  0.4445
  611MPD2    C3 9106   3.715   3.807  10.095  0.1078  0.2781  0.5673
  611MPD2    C4 9107   3.619   3.910  10.086 -0.4148 -0.3153  0.8316
  611MPD2    C5 9108   3.501   3.898  10.140 -0.2580  0.0552  0.1577
  611MPD2     H 9109   3.744   3.607  10.159  1.5617  0.7357 -1.2597
  611MPD2    H1 9110   3.643   3.998  10.027 -2.4535 -0.9023 -0.8711
  611MPD2    H2 9111   3.366   3.797  10.264  0.1602  0.7516  0.0067
  611MPD2    H3 9112   3.431   3.980  10.126  0.2108  0.4473  0.1197
  611MPD2     N 9113   3.838   3.822  10.030 -0.3834  0.3551 -0.8003
  611MPD2    H5 9114   3.841   3.904   9.972  2.0924  0.4425 -0.5591
  611MPD2    N1 9115   3.512   3.571  10.293  0.0700  0.2422 -0.6287
  611MPD2    H7 9116   3.413   3.577  10.314 -0.1613 -1.7418 -1.1415
  612TMC3    C1 9117   4.068   3.803   9.999  0.6099  0.2137  0.0459
  612TMC3    C2 9118   4.184   3.796  10.070 -0.8610  0.1200  0.6421
  612TMC3    C3 9119   4.296   3.840  10.013  0.4658 -0.3338 -0.0580
  612TMC3    C4 9120   4.060   3.862   9.873  0.0471  0.3077 -0.4433
  612TMC3    C5 9121   4.179   3.908   9.819 -1.0684  0.3985 -0.6351
  612TMC3    C6 9122   4.297   3.897   9.887  0.7109 -0.4944 -0.6311
  612TMC3     C 9123   3.951   3.764  10.073 -0.6492  0.4554 -0.0465
  612TMC3     O 9124   3.971   3.683  10.166  0.0235 -0.4305 -0.1948
  612TMC3     H 9125   4.177   3.775  10.177 -0.0310  0.8034  0.8288
  612TMC3    H1 9126   3.965   3.865   9.821  1.3184  2.9231 -2.5551
  612TMC3    H2 9127   4.393   3.922   9.843  0.6916  1.3617  0.4019
  612TMC3    C7 9128   4.167   3.991   9.702  0.4462  0.2940 -0.1313
  612TMC3    C8 9129   4.422   3.857  10.087  0.8564 -0.7713  0.0752
  612TMC3    O1 9130   4.273   4.045   9.664 -0.3484  0.2700 -0.1657
  612TMC3    O2 9131   4.497   3.946  10.046 -0.3899 -0.0748  0.1899
  613MPD2     C 9132   3.928   0.673  16.675 -0.4885 -0.1966 -0.1750
  613MPD2    C1 9133   3.931   0.633  16.544 -0.1531  0.2850  0.2203
  613MPD2    C2 9134   3.824   0.564  16.492  0.0562 -0.1633  0.3642
  613MPD2    C3 9135   3.714   0.538  16.569  0.3357  0.3192 -0.0737
  613MPD2    C4 9136   3.709   0.586  16.700 -0.4859 -0.9779  0.0621
  613MPD2    C5 9137   3.819   0.653  16.754  0.3631  0.1609 -0.0474
  613MPD2     H 9138   3.831   0.534  16.387  1.1701 -1.7273  0.8801
  613MPD2    H1 9139   3.618   0.571  16.758 -1.0419 -2.3994 -1.1698
  613MPD2    H2 9140   4.011   0.734  16.709  0.5998 -2.6625  1.6672
  613MPD2    H3 9141   3.818   0.710  16.847 -0.3034 -0.3262  0.2421
  613MPD2     N 9142   3.604   0.456  16.527 -0.1667  0.1798 -0.0044
  613MPD2    H5 9143   3.540   0.423  16.599 -1.6696  1.7582 -0.6411
  613MPD2    N1 9144   4.037   0.656  16.449  0.4669 -0.1469  0.1055
  613MPD2    H7 9145   4.028   0.615  16.356  3.5002 -0.7232  0.0664
  614TMC3    C1 9146   4.187   0.769  16.317  0.2029  0.3293  0.6339
  614TMC3    C2 9147   4.166   0.657  16.245  0.5206  1.1524  1.0559
  614TMC3    C3 9148   4.126   0.671  16.117 -0.0942 -0.4114 -0.4289
  614TMC3    C4 9149   4.158   0.890  16.262 -1.1048 -0.5690 -0.7552
  614TMC3    C5 9150   4.130   0.907  16.132 -0.0137  0.3815 -0.2420
  614TMC3    C6 9151   4.117   0.795  16.053  0.0369 -0.7281 -0.0040
  614TMC3     C 9152   4.131   0.755  16.453  0.0055  0.8408  0.1569
  614TMC3     O 9153   4.148   0.839  16.541  0.0610  0.5184 -0.0589
  614TMC3     H 9154   4.182   0.556  16.279 -0.6774  0.6289  0.1126
  614TMC3    H1 9155   4.156   0.980  16.322  2.0774 -0.1358 -1.3267
  614TMC3    H2 9156   4.104   0.793  15.946 -1.7656 -0.5758  0.1997
  614TMC3    C7 9157   4.123   1.040  16.080 -0.5324 -1.2368 -0.8275
  614TMC3    C8 9158   4.010   0.589  16.088 -0.2531  1.0436 -0.4263
  614TMC3    O1 9159   4.173   1.128  16.148 -0.2068 -0.2568  0.1295
  614TMC3    O2 9160   3.987   0.518  16.185  0.2933  0.0565 -0.7496
  615MPD2     C 9161   2.971   2.511  16.088 -0.9986  0.2296 -0.0255
  615MPD2    C1 9162   2.923   2.597  15.994 -0.7411  0.1515  0.0990
  615MPD2    C2 9163   2.865   2.546  15.888 -1.0247  0.5616 -0.6130
  615MPD2    C3 9164   2.850   2.407  15.872  0.0382 -0.4490 -0.1881
  615MPD2    C4 9165   2.894   2.321  15.966 -0.4267  0.2970  0.0906
  615MPD2    C5 9166   2.975   2.375  16.073  0.1424 -0.4609 -0.5830
  615MPD2     H 9167   2.820   2.612  15.814 -2.1827 -1.2972 -1.5771
  615MPD2    H1 9168   2.904   2.214  15.947 -1.1044 -0.0863  1.8049
  615MPD2    H2 9169   3.021   2.546  16.178 -0.2631 -0.1152 -0.3023
  615MPD2    H3 9170   3.015   2.310  16.150  0.7463 -0.1009 -0.5919
  615MPD2     N 9171   2.789   2.361  15.753  0.3463  0.2189  0.0748
  615MPD2    H5 9172   2.760   2.422  15.678  2.6191  1.4644  0.1884
  615MPD2    N1 9173   2.922   2.737  16.010 -1.0111 -0.1835 -0.0751
  615MPD2    H7 9174   2.866   2.800  15.953 -0.4099  0.4892  0.0754
  616TMC3    C1 9175   3.001   2.951  16.086  0.9281  0.3295 -0.3274
  616TMC3    C2 9176   3.109   3.037  16.105 -0.0634 -1.3321  0.3749
  616TMC3    C3 9177   3.086   3.167  16.123 -1.4700  0.4758 -0.4365
  616TMC3    C4 9178   2.873   2.994  16.070 -0.7766 -0.6845 -0.5927
  616TMC3    C5 9179   2.861   3.133  16.081 -0.2366  0.7022  0.1485
  616TMC3    C6 9180   2.964   3.218  16.101  0.2035  0.7765  0.0975
  616TMC3     C 9181   3.021   2.803  16.089  0.0125 -0.1961 -0.3524
  616TMC3     O 9182   3.119   2.757  16.149  0.2409  0.0274  0.0599
  616TMC3     H 9183   3.204   2.986  16.116 -0.4160 -1.6107  2.1683
  616TMC3    H1 9184   2.790   2.934  16.037  0.4313 -3.1582  0.9243
  616TMC3    H2 9185   2.948   3.325  16.106 -1.6109  0.5630 -1.1926
  616TMC3    C7 9186   2.732   3.190  16.048  0.4518  0.4171 -0.0366
  616TMC3    C8 9187   3.194   3.261  16.158 -0.3295 -0.1212 -0.5632
  616TMC3    O1 9188   2.656   3.126  15.975  0.0619 -0.2373  0.7778
  616TMC3    O2 9189   3.164   3.371  16.197 -0.2608 -0.3757  0.2694
  617MPD2     C 9190   1.000   0.689  13.913 -0.2220 -0.1959  0.1227
  617MPD2    C1 9191   1.037   0.729  14.043  0.8551  0.0203 -0.1871
  617MPD2    C2 9192   0.940   0.763  14.140 -0.5159  0.0255  0.0457
  617MPD2    C3 9193   0.805   0.753  14.106  0.2646  1.0432 -0.2958
  617MPD2    C4 9194   0.771   0.711  13.977 -0.1806  0.0791  0.0521
  617MPD2    C5 9195   0.865   0.676  13.884  0.2278  0.7641 -0.1395
  617MPD2     H 9196   0.960   0.812  14.235  0.5621 -3.3294  1.5436
  617MPD2    H1 9197   0.667   0.690  13.958 -0.0851 -1.0120  0.7500
  617MPD2    H2 9198   1.072   0.663  13.837  1.3747  2.2861  0.8023
  617MPD2    H3 9199   0.835   0.644  13.785 -1.0600 -2.8564  1.4373
  617MPD2     N 9200   0.694   0.776  14.191 -0.0371  0.0381 -0.1746
  617MPD2    H5 9201   0.603   0.795  14.150  0.0344  1.2796  0.2150
  617MPD2    N1 9202   1.177   0.737  14.074 -0.0089 -0.3376  0.4548
  617MPD2    H7 9203   1.245   0.714  14.002  0.0113 -0.2238  0.4368
  618TMC3    C1 9204   1.366   0.770  14.185  0.6670 -0.1442  0.1299
  618TMC3    C2 9205   1.407   0.644  14.176  0.1146 -0.3804  0.2910
  618TMC3    C3 9206   1.524   0.613  14.121  0.7108 -0.8221  0.0443
  618TMC3    C4 9207   1.443   0.874  14.144  0.4040  0.3742 -0.9278
  618TMC3    C5 9208   1.568   0.831  14.108  0.6758  0.7540  0.2263
  618TMC3    C6 9209   1.614   0.704  14.096  0.3644 -0.5045 -0.0639
  618TMC3     C 9210   1.224   0.794  14.190  0.4808  0.2851  0.4256
  618TMC3     O 9211   1.179   0.854  14.288 -0.1902  0.1489  0.0690
  618TMC3     H 9212   1.342   0.564  14.209  1.4278 -1.0199  1.3516
  618TMC3    H1 9213   1.410   0.977  14.147 -1.2577 -0.2478  2.2697
  618TMC3    H2 9214   1.709   0.680  14.049 -0.9939 -0.0365 -3.0400
  618TMC3    C7 9215   1.657   0.944  14.094  0.3615  0.3228 -0.2202
  618TMC3    C8 9216   1.541   0.476  14.081  0.2126  0.6367  0.1498
  618TMC3    O1 9217   1.650   1.001  14.202 -0.6185  0.2559  0.0449
  618TMC3    O2 9218   1.469   0.396  14.141 -0.3743  0.3509  0.0836
  619MPD2     C 9219   2.722   2.134  13.737 -0.7452  0.2737  0.1055
  619MPD2    C1 9220   2.665   2.202  13.634  0.2503 -0.4007 -0.2609
  619MPD2    C2 9221   2.542   2.166  13.596  0.4700 -0.8085  0.3491
  619MPD2    C3 9222   2.465   2.061  13.656 -0.2625  0.5866 -0.4313
  619MPD2    C4 9223   2.529   1.998  13.764  0.4339 -0.0875 -0.4887
  619MPD2    C5 9224   2.657   2.033  13.803  0.2693 -0.0791 -0.2405
  619MPD2     H 9225   2.497   2.230  13.521 -0.1344 -1.8514 -0.1778
  619MPD2    H1 9226   2.475   1.929  13.828 -1.4702  0.6087 -1.3428
  619MPD2    H2 9227   2.815   2.165  13.783 -0.5645 -1.1756  0.7170
  619MPD2    H3 9228   2.704   1.990  13.891  0.9731 -2.2913 -1.6949
  619MPD2     N 9229   2.330   2.038  13.633  0.5020 -0.2406 -0.0304
  619MPD2    H5 9230   2.285   1.964  13.686 -0.7434  2.2173  2.3836
  619MPD2    N1 9231   2.742   2.306  13.566 -0.2426  0.0483 -0.6294
  619MPD2    H7 9232   2.697   2.355  13.490  1.9527  1.6069 -0.9365
  620TMC3    C1 9233   2.917   2.447  13.514  0.1618 -0.3869  0.2078
  620TMC3    C2 9234   2.832   2.488  13.412 -0.3912  0.0582 -0.7170
  620TMC3    C3 9235   2.811   2.621  13.406 -0.7919 -0.2569 -0.1585
  620TMC3    C4 9236   3.002   2.532  13.578 -0.3781 -0.3704 -0.2624
  620TMC3    C5 9237   2.983   2.667  13.577 -0.5784  0.0406  0.4151
  620TMC3    C6 9238   2.885   2.709  13.485 -0.5975 -0.3417  0.1968
  620TMC3     C 9239   2.875   2.341  13.600  0.8499 -0.5202 -0.4954
  620TMC3     O 9240   2.949   2.313  13.695  0.2503  0.2670 -0.4179
  620TMC3     H 9241   2.767   2.422  13.356  0.2310 -1.0132 -0.1790
  620TMC3    H1 9242   3.070   2.488  13.651 -0.5024  1.6266  1.0383
  620TMC3    H2 9243   2.866   2.815  13.481 -0.6785 -0.2898  2.0425
  620TMC3    C7 9244   2.941   2.703  13.715  0.2900  0.4609  0.0786
  620TMC3    C8 9245   2.671   2.649  13.422  0.6476  0.5886 -0.5964
  620TMC3    O1 9246   3.008   2.671  13.814  0.2552 -0.2701  0.0942
  620TMC3    O2 9247   2.641   2.749  13.485  0.0270  0.9311  0.4811
  621MPD2     C 9248   1.898   2.609   9.737  0.1362  0.4174 -0.0322
  621MPD2    C1 9249   1.934   2.503   9.661  0.7143 -0.7971  0.1314
  621MPD2    C2 9250   2.027   2.522   9.560  0.1656 -0.4687 -0.2684
  621MPD2    C3 9251   2.087   2.646   9.542 -0.1814  0.4920  0.1709
  621MPD2    C4 9252   2.042   2.748   9.624  0.1513 -0.3936 -0.2568
  621MPD2    C5 9253   1.947   2.731   9.717  0.3751  0.3562  0.1340
  621MPD2     H 9254   2.056   2.435   9.502  0.9357 -0.0142 -0.5651
  621MPD2    H1 9255   2.082   2.848   9.615  0.6590 -0.5251  0.5640
  621MPD2    H2 9256   1.832   2.609   9.823  1.2517  2.3706  0.8413
  621MPD2    H3 9257   1.914   2.813   9.780 -2.0263 -0.3428 -0.2132
  621MPD2     N 9258   2.190   2.651   9.451 -0.3054  0.0400 -0.1568
  621MPD2    H5 9259   2.211   2.566   9.399 -0.3373  1.5434 -2.6313
  621MPD2    N1 9260   1.879   2.374   9.680  0.4957  0.4042  0.0842
  621MPD2    H7 9261   1.912   2.297   9.622  1.3651  0.9916 -0.1987
  622TMC3    C1 9262   1.743   2.203   9.775  0.1735  0.4753 -0.2517
  622TMC3    C2 9263   1.679   2.160   9.893  0.4006 -0.4775  0.3598
  622TMC3    C3 9264   1.611   2.041   9.886  0.1872 -0.6484 -0.3148
  622TMC3    C4 9265   1.737   2.133   9.661 -0.4261  0.1167 -0.3586
  622TMC3    C5 9266   1.645   2.031   9.657 -0.0105  0.3069 -0.4719
  622TMC3    C6 9267   1.590   1.970   9.769  0.5389 -0.2098  0.1745
  622TMC3     C 9268   1.796   2.334   9.782 -0.4203  0.5358  0.0767
  622TMC3     O 9269   1.742   2.387   9.880  0.0855  0.3521  0.2071
  622TMC3     H 9270   1.687   2.213   9.987 -0.4234  1.6793 -0.7911
  622TMC3    H1 9271   1.793   2.152   9.570 -1.1851  1.9637 -0.4426
  622TMC3    H2 9272   1.528   1.881   9.773  1.1297 -0.6789 -1.3465
  622TMC3    C7 9273   1.606   1.972   9.529 -0.3244  0.0310  0.4567
  622TMC3    C8 9274   1.525   2.000   9.998 -0.2299  0.7409 -0.2028
  622TMC3    O1 9275   1.573   1.860   9.541  0.3652  0.6144  0.5954
  622TMC3    O2 9276   1.498   1.883  10.005  0.2937  0.1907  0.1033
  623MPD2     C 9277   1.486   2.623  15.836 -0.0499  0.3019 -0.2768
  623MPD2    C1 9278   1.412   2.559  15.937  0.0753  0.1636 -0.4726
  623MPD2    C2 9279   1.483   2.479  16.031 -0.0317 -0.4786  0.5182
  623MPD2    C3 9280   1.624   2.461  16.017  0.0079  0.6282  0.2349
  623MPD2    C4 9281   1.691   2.528  15.911 -0.2206  0.0861  0.4200
  623MPD2    C5 9282   1.621   2.607  15.829  0.2254  0.5893  0.3175
  623MPD2     H 9283   1.430   2.421  16.106  0.5924  0.7700  1.9263
  623MPD2    H1 9284   1.799   2.526  15.901 -0.3793 -0.2452 -1.2017
  623MPD2    H2 9285   1.441   2.679  15.755 -0.6440 -0.7648 -0.6774
  623MPD2    H3 9286   1.676   2.642  15.742  0.3118 -0.0429  0.1180
  623MPD2     N 9287   1.678   2.371  16.111 -0.0843  0.5038  0.5966
  623MPD2    H5 9288   1.611   2.316  16.164 -1.7086  1.8490 -0.0729
  623MPD2    N1 9289   1.267   2.574  15.940 -0.1291 -0.1596  0.1334
  623MPD2    H7 9290   1.225   2.633  15.869  0.3759  0.5668  0.4335
  624TMC3    C1 9291   1.924   2.470  16.464  0.9573  0.6585 -0.6276
  624TMC3    C2 9292   1.806   2.461  16.543  0.2854 -0.9396  0.1727
  624TMC3    C3 9293   1.698   2.388  16.492 -0.1348 -0.4711 -0.1333
  624TMC3    C4 9294   1.938   2.416  16.337  0.2531  0.0477 -0.2180
  624TMC3    C5 9295   1.826   2.356  16.291 -0.0024 -0.0287  0.6792
  624TMC3    C6 9296   1.708   2.337  16.368 -0.0906  0.3735 -0.1134
  624TMC3     C 9297   2.037   2.510  16.544 -0.0146  0.1186  0.2119
  624TMC3     O 9298   2.012   2.582  16.639  0.0804  0.3806  0.1270
  624TMC3     H 9299   1.787   2.520  16.631  0.9067  0.9695 -0.9628
  624TMC3    H1 9300   2.028   2.429  16.279  1.0827  0.5798  1.1804
  624TMC3    H2 9301   1.616   2.304  16.322  0.6628 -2.5630  0.4898
  624TMC3    C7 9302   1.814   2.371  16.149 -0.0179  0.2130  0.3020
  624TMC3    C8 9303   1.564   2.438  16.518  0.3845 -0.5171  0.1572
  624TMC3    O1 9304   1.912   2.416  16.091 -0.2128 -0.5985 -0.3400
  624TMC3    O2 9305   1.471   2.367  16.487  0.0360 -0.3102 -0.0596
  625MPD2     C 9306   2.864   3.322   0.736  0.1029 -0.1959  0.3099
  625MPD2    C1 9307   2.781   3.431   0.717  0.3181  0.1239  0.2282
  625MPD2    C2 9308   2.813   3.543   0.791  0.3169 -0.1663 -1.0578
  625MPD2    C3 9309   2.926   3.551   0.866 -0.1882 -0.3632  0.0924
  625MPD2    C4 9310   3.008   3.440   0.881  0.7008  0.4328  0.0355
  625MPD2    C5 9311   2.970   3.324   0.825 -0.1841 -0.5541  0.4556
  625MPD2     H 9312   2.746   3.627   0.808  1.6594  1.0004 -1.5867
  625MPD2    H1 9313   3.091   3.444   0.952  0.4789  2.8744  0.1445
  625MPD2    H2 9314   2.845   3.227   0.688  1.0370 -1.0004  1.5230
  625MPD2    H3 9315   3.043   3.243   0.823 -0.0767 -0.4381 -0.5076
  625MPD2     N 9316   2.944   3.675   0.935 -0.3258 -0.2052 -0.5367
  625MPD2    H5 9317   2.865   3.739   0.943 -1.2357 -1.3141 -0.5340
  625MPD2    N1 9318   2.666   3.420   0.636  0.4920 -1.0329 -0.3023
  625MPD2    H7 9319   2.637   3.337   0.585  2.9306 -1.1338 -1.5389
  626TMC3    C1 9320   2.470   3.470   0.531 -0.2746 -0.5471  0.0981
  626TMC3    C2 9321   2.423   3.544   0.428  0.3074  0.8018  0.0696
  626TMC3    C3 9322   2.308   3.507   0.384 -0.3193  0.2196 -0.0241
  626TMC3    C4 9323   2.406   3.357   0.581  0.0023  0.9071  0.2487
  626TMC3    C5 9324   2.288   3.326   0.527 -0.6381  0.2577  0.1217
  626TMC3    C6 9325   2.240   3.408   0.437 -0.9379 -0.2921 -0.2361
  626TMC3     C 9326   2.585   3.520   0.595  0.3335 -0.7754  0.2706
  626TMC3     O 9327   2.585   3.640   0.611 -0.1241 -0.5644 -0.2110
  626TMC3     H 9328   2.476   3.635   0.400 -1.6156  1.2219 -2.1724
  626TMC3    H1 9329   2.445   3.294   0.660 -4.0913 -1.8078  0.1479
  626TMC3    H2 9330   2.143   3.378   0.399 -0.0048 -1.6236 -1.5679
  626TMC3    C7 9331   2.202   3.284   0.637 -0.3490  0.9013  1.0197
  626TMC3    C8 9332   2.250   3.588   0.285 -0.1674 -0.1394 -0.3663
  626TMC3    O1 9333   2.243   3.195   0.708  0.4654 -0.4948 -0.2497
  626TMC3    O2 9334   2.295   3.700   0.262  0.1555  0.5148 -0.0556
  627MPD2     C 9335   0.594   4.275  14.651 -0.0826  0.1286  0.1376
  627MPD2    C1 9336   0.717   4.211  14.645 -0.1875 -1.0785  0.0233
  627MPD2    C2 9337   0.718   4.092  14.578  0.1396 -0.4976 -0.0639
  627MPD2    C3 9338   0.593   4.035  14.535  0.2536 -0.0913  0.7551
  627MPD2    C4 9339   0.475   4.098  14.542  0.2096  0.8715 -0.5089
  627MPD2    C5 9340   0.480   4.223  14.595 -0.0759 -0.2653  0.0967
  627MPD2     H 9341   0.809   4.040  14.552  1.9863  2.8976 -0.3968
  627MPD2    H1 9342   0.378   4.060  14.512 -0.4691  1.1284  1.3444
  627MPD2    H2 9343   0.580   4.365  14.711  1.4541 -0.5614  1.5350
  627MPD2    H3 9344   0.391   4.282  14.615 -0.0503 -0.0166 -0.5380
  627MPD2     N 9345   0.618   3.915  14.458 -0.2575  0.2354 -0.4466
  627MPD2    H5 9346   0.709   3.870  14.459 -0.0548  0.5843 -2.2344
  627MPD2    N1 9347   0.840   4.273  14.685 -0.2103  0.4726  0.1243
  627MPD2    H7 9348   0.924   4.227  14.653 -0.8030 -0.1554 -0.5327
  628TMC3    C1 9349   0.982   4.465  14.737 -0.4861 -0.0627 -0.2625
  628TMC3    C2 9350   1.096   4.390  14.737  0.9057 -0.8400  0.1026
  628TMC3    C3 9351   1.217   4.456  14.713  0.8358 -0.3549 -0.0284
  628TMC3    C4 9352   0.982   4.602  14.704  0.6715  0.4528  0.1548
  628TMC3    C5 9353   1.103   4.660  14.682 -0.0175  0.5836 -0.3359
  628TMC3    C6 9354   1.221   4.591  14.698  0.0011 -0.1404  0.4217
  628TMC3     C 9355   0.854   4.402  14.738  0.0997  0.3182 -0.6378
  628TMC3     O 9356   0.757   4.474  14.762 -0.1963 -0.2177 -0.5128
  628TMC3     H 9357   1.091   4.285  14.765  1.3474 -1.3911 -1.8528
  628TMC3    H1 9358   0.888   4.655  14.693 -1.2740 -3.0615 -0.1755
  628TMC3    H2 9359   1.314   4.641  14.675 -0.3657 -0.6696 -2.2704
  628TMC3    C7 9360   1.112   0.022  14.570 -0.2868 -0.1104  0.3014
  628TMC3    C8 9361   1.342   4.378  14.688  0.8604  0.1707  0.2541
  628TMC3    O1 9362   1.215   0.027  14.500  0.2283  0.9611  0.8614
  628TMC3    O2 9363   1.414   4.422  14.603  0.0599 -0.6582 -0.3670
  629MPD2     C 9364   3.672   3.426  16.190  0.1723 -0.6142  0.2049
  629MPD2    C1 9365   3.678   3.290  16.179  0.4132 -0.0364 -0.0876
  629MPD2    C2 9366   3.563   3.217  16.170  0.3495  0.5063  0.8995
  629MPD2    C3 9367   3.440   3.279  16.166 -0.4375  0.1779 -0.4789
  629MPD2    C4 9368   3.442   3.424  16.161  0.0309 -0.3454  0.6813
  629MPD2    C5 9369   3.554   3.492  16.161  0.6804 -0.0961  0.5296
  629MPD2     H 9370   3.569   3.110  16.186 -0.0345  0.0808 -1.7134
  629MPD2    H1 9371   3.349   3.481  16.156 -0.5128 -1.1885  1.2143
  629MPD2    H2 9372   3.759   3.491  16.197 -0.6219  0.6264 -1.3157
  629MPD2    H3 9373   3.550   3.599  16.139 -0.9824 -0.7073 -2.1853
  629MPD2     N 9374   3.320   3.206  16.154  0.0921  0.0534 -0.7349
  629MPD2    H5 9375   3.330   3.106  16.138 -0.2997 -0.0771 -0.1502
  629MPD2    N1 9376   3.805   3.237  16.195  0.4564  0.9005  0.2412
  629MPD2    H7 9377   3.872   3.307  16.224  0.7607  0.7103  0.0019
  630TMC3    C1 9378   3.977   3.075  16.217 -0.0831  0.6552 -1.1151
  630TMC3    C2 9379   4.068   3.181  16.226  0.1075 -0.0417  0.3107
  630TMC3    C3 9380   4.186   3.147  16.292  0.3062  0.1471 -0.3184
  630TMC3    C4 9381   3.998   2.947  16.261 -0.1660 -0.4490  0.3616
  630TMC3    C5 9382   4.115   2.924  16.329  0.0617  0.0213  0.0613
  630TMC3    C6 9383   4.208   3.026  16.350  0.2441 -0.4467 -0.0150
  630TMC3     C 9384   3.838   3.103  16.197 -0.2827 -0.6318  0.3507
  630TMC3     O 9385   3.764   3.009  16.166 -0.0461  0.2436 -0.4472
  630TMC3     H 9386   4.057   3.272  16.168  1.7508  0.2018  0.3748
  630TMC3    H1 9387   3.913   2.881  16.253 -0.5653 -0.1241  1.8958
  630TMC3    H2 9388   4.287   2.998  16.418  0.3311  0.0081  0.0674
  630TMC3    C7 9389   4.112   2.812  16.434 -0.3633 -0.4567  0.4360
  630TMC3    C8 9390   4.312   3.228  16.280  0.2819  0.3737 -0.0393
  630TMC3    O1 9391   4.162   2.832  16.543  0.1098 -0.2581 -0.2262
  630TMC3    O2 9392   4.416   3.170  16.310 -0.8135 -0.2221 -0.0092
  631MPD2     C 9393   1.924   2.605  15.559 -0.2230 -0.2064  0.3634
  631MPD2    C1 9394   2.022   2.683  15.497  0.3561 -0.0199  0.1145
  631MPD2    C2 9395   2.147   2.628  15.475 -0.6369 -0.1589 -0.2191
  631MPD2    C3 9396   2.169   2.497  15.490  0.6414 -0.1768 -1.3374
  631MPD2    C4 9397   2.063   2.417  15.535  0.3640 -0.0253  0.4703
  631MPD2    C5 9398   1.942   2.470  15.570  0.1137  0.3269  0.2851
  631MPD2     H 9399   2.235   2.690  15.458  0.0550 -0.9388  0.4942
  631MPD2    H1 9400   2.072   2.309  15.537  2.2779  0.0784 -3.4692
  631MPD2    H2 9401   1.833   2.653  15.593  0.3703  0.0801  1.5365
  631MPD2    H3 9402   1.878   2.393  15.612 -0.2440 -0.7721 -2.3177
  631MPD2     N 9403   2.303   2.455  15.475  0.2078 -0.3151  1.3021
  631MPD2    H5 9404   2.371   2.512  15.425 -1.6796  0.0152 -0.8646
  631MPD2    N1 9405   1.992   2.818  15.483  0.2401  0.7944 -0.3157
  631MPD2    H7 9406   1.910   2.857  15.530 -0.1586 -0.9148  0.4158
  632TMC3    C1 9407   2.033   3.046  15.428 -0.0344  0.1299 -0.5015
  632TMC3    C2 9408   1.913   3.075  15.486 -0.3260 -1.1783 -0.0083
  632TMC3    C3 9409   1.864   3.199  15.459 -0.4342 -0.4646  0.2937
  632TMC3    C4 9410   2.124   3.138  15.371  0.5970 -0.0638 -0.0611
  632TMC3    C5 9411   2.081   3.262  15.378  0.1468  0.2129  0.4390
  632TMC3    C6 9412   1.952   3.296  15.409  0.2906  0.2256 -0.2007
  632TMC3     C 9413   2.080   2.909  15.429  0.5664  0.7821 -0.5308
  632TMC3     O 9414   2.181   2.884  15.363 -0.0892  0.3250  0.0920
  632TMC3     H 9415   1.844   3.000  15.523 -1.9562  0.8014  0.9299
  632TMC3    H1 9416   2.216   3.100  15.329 -0.2702 -1.4423 -0.7031
  632TMC3    H2 9417   1.930   3.402  15.404 -0.6177  0.0591  0.2790
  632TMC3    C7 9418   2.155   3.359  15.299  0.1799 -0.1874  0.0773
  632TMC3    C8 9419   1.754   3.242  15.535 -0.7378  0.1322  0.4674
  632TMC3    O1 9420   2.162   3.469  15.344 -0.3806  0.0243 -0.1391
  632TMC3    O2 9421   1.664   3.162  15.554 -0.3327 -0.0782 -0.1773
  633MPD2     C 9422   1.489   0.608  17.285  0.3534 -0.5121 -0.2130
  633MPD2    C1 9423   1.467   0.538  17.171  0.0407 -0.1894  0.4863
  633MPD2    C2 9424   1.492   0.405  17.158 -0.3590  0.2151  0.5077
  633MPD2    C3 9425   1.545   0.335  17.263  0.2167  0.8132 -0.3267
  633MPD2    C4 9426   1.570   0.404  17.376  0.0989 -0.1926  0.7264
  633MPD2    C5 9427   1.536   0.536  17.392 -0.5150 -0.4214 -0.5630
  633MPD2     H 9428   1.469   0.352  17.067 -0.7103  0.3382  0.5237
  633MPD2    H1 9429   1.606   0.345  17.460 -0.3622 -0.4298  0.7628
  633MPD2    H2 9430   1.462   0.712  17.299  1.0347 -0.6120  1.8039
  633MPD2    H3 9431   1.530   0.588  17.487  0.6168  0.3314 -0.9058
  633MPD2     N 9432   1.553   0.197  17.268  0.1939 -0.5030  0.4684
  633MPD2    H5 9433   1.606   0.162  17.347  3.0454 -1.3830 -1.8745
  633MPD2    N1 9434   1.429   0.602  17.052  0.4248 -0.2020 -0.0181
  633MPD2    H7 9435   1.440   0.552  16.965  0.4214  2.3737 -1.4740
  634TMC3    C1 9436   1.363   0.774  16.915  0.8406 -0.7808  0.2461
  634TMC3    C2 9437   1.340   0.680  16.813 -0.5705  0.6199 -0.3600
  634TMC3    C3 9438   1.355   0.716  16.684 -0.5421  0.1965  0.9478
  634TMC3    C4 9439   1.402   0.902  16.883 -0.3883  0.5016 -0.4893
  634TMC3    C5 9440   1.434   0.928  16.749  0.9454  0.7874 -0.8507
  634TMC3    C6 9441   1.419   0.828  16.655 -0.1809  0.2589 -0.9236
  634TMC3     C 9442   1.381   0.732  17.044  0.2403  0.8278  0.3771
  634TMC3     O 9443   1.344   0.807  17.131 -0.4973 -0.6583 -0.3002
  634TMC3     H 9444   1.315   0.577  16.837  1.4048  0.7027  2.0530
  634TMC3    H1 9445   1.425   0.972  16.963 -1.8713 -0.2489  0.6009
  634TMC3    H2 9446   1.460   0.851  16.558 -1.1864 -0.0850 -1.4317
  634TMC3    C7 9447   1.511   1.047  16.710 -0.6705  0.5631  0.0327
  634TMC3    C8 9448   1.373   0.604  16.587 -0.1071  0.5518 -0.2433
  634TMC3    O1 9449   1.593   1.033  16.618  0.4589 -0.3671  0.0698
  634TMC3    O2 9450   1.389   0.493  16.638  0.5118  0.3574 -0.3274
  635TMC3    C1 9451   1.755   2.008   0.671 -0.1102 -0.3483  0.0970
  635TMC3    C2 9452   1.809   1.881   0.657 -0.4492 -0.1444 -0.3066
  635TMC3    C3 9453   1.724   1.775   0.640  0.1881 -0.2159  0.8373
  635TMC3    C4 9454   1.618   2.032   0.666 -0.3577 -0.7045  0.4241
  635TMC3    C5 9455   1.532   1.919   0.653  0.8527  0.1525  0.3083
  635TMC3    C6 9456   1.587   1.796   0.636  0.4453 -0.5064  0.2997
  635TMC3     C 9457   1.842   2.125   0.690  0.3784 -0.4293  0.1344
  635TMC3     O 9458   1.777   2.231   0.705 -0.0672  0.4785 -0.3446
  635TMC3     H 9459   1.916   1.871   0.677 -1.2022 -5.4889  1.1694
  635TMC3    H1 9460   1.567   2.128   0.666  1.4580  0.2696  2.4784
  635TMC3    H2 9461   1.519   1.719   0.599  0.0937  0.4872 -1.0936
  635TMC3    C7 9462   1.386   1.922   0.657 -0.7842  0.8149  0.9444
  635TMC3    C8 9463   1.778   1.651   0.594 -1.0440 -0.0494 -0.1286
  635TMC3    O1 9464   1.332   1.816   0.674 -0.0289  0.2162 -0.0946
  635TMC3    O2 9465   1.894   1.635   0.555 -0.1116  0.1753 -0.4683
  636MPD2     C 9466   2.701   0.657  16.553 -0.1716  0.7447  0.3396
  636MPD2    C1 9467   2.813   0.739  16.539 -0.3892  0.2126 -0.3552
  636MPD2    C2 9468   2.932   0.686  16.492 -0.1108 -0.4534 -0.0935
  636MPD2    C3 9469   2.942   0.564  16.441 -0.3712  0.0874 -0.4810
  636MPD2    C4 9470   2.833   0.478  16.456  0.6442  0.5763  0.2466
  636MPD2    C5 9471   2.717   0.529  16.513  0.4092 -0.1166  0.0018
  636MPD2     H 9472   3.017   0.753  16.484 -1.4465  1.0795 -1.3239
  636MPD2    H1 9473   2.831   0.371  16.442  3.4962  0.5886 -0.2529
  636MPD2    H2 9474   2.611   0.692  16.602  0.2543 -1.5725  2.7617
  636MPD2    H3 9475   2.634   0.462  16.527  1.0992 -0.9106  0.2977
  636MPD2     N 9476   3.075   0.516  16.403  0.5579 -0.4293 -0.7232
  636MPD2    H5 9477   3.153   0.579  16.417  0.4028  0.0135 -1.8844
  636MPD2    N1 9478   2.816   0.878  16.571 -0.1856  0.0508  0.4548
  636MPD2    H7 9479   2.887   0.934  16.525 -0.8852 -1.6215 -2.6215
  637TMC3    C1 9480   3.245   0.399  16.294  0.6412  0.3659 -0.0639
  637TMC3    C2 9481   3.344   0.409  16.392  0.0511 -0.2939  0.2168
  637TMC3    C3 9482   3.458   0.339  16.376  0.1969  0.2949  0.3330
  637TMC3    C4 9483   3.269   0.345  16.171 -0.2882 -0.1391 -0.1791
  637TMC3    C5 9484   3.383   0.272  16.156 -0.1745  0.4972 -0.4304
  637TMC3    C6 9485   3.473   0.262  16.262 -0.2898  1.1501  0.2209
  637TMC3     C 9486   3.102   0.412  16.316 -0.2574 -0.1901  0.2887
  637TMC3     O 9487   3.027   0.341  16.254 -0.3148 -0.0278  0.2540
  637TMC3     H 9488   3.314   0.466  16.480 -2.3288 -2.3441  0.7601
  637TMC3    H1 9489   3.200   0.359  16.089 -0.8075 -1.8066 -0.0242
  637TMC3    H2 9490   3.557   0.195  16.257 -1.3803 -0.2761  0.9772
  637TMC3    C7 9491   3.434   0.283  16.025 -0.2474 -0.4917 -0.3245
  637TMC3    C8 9492   3.581   0.422  16.396 -0.3268  1.0305 -0.2935
  637TMC3    O1 9493   3.365   0.272  15.924  0.3117  0.0873  0.2510
  637TMC3    O2 9494   3.646   0.438  16.294  0.6660 -0.2671  0.1122
  638MPD2     C 9495   2.843   0.231  15.091  0.6186  0.0415  0.4470
  638MPD2    C1 9496   2.878   0.134  15.002 -0.1637 -0.1769  0.2062
  638MPD2    C2 9497   2.859   4.733  15.032 -0.9181 -0.8048 -0.6331
  638MPD2    C3 9498   2.827   4.690  15.157  0.4267  0.1918 -0.1504
  638MPD2    C4 9499   2.803   0.055  15.252 -0.6522 -0.0579  0.3061
  638MPD2    C5 9500   2.801   0.188  15.214 -0.1213  0.3703  0.5269
  638MPD2     H 9501   2.888   4.668  14.950 -0.7972 -0.9069 -0.5107
  638MPD2    H1 9502   2.781   0.032  15.356 -2.3607 -0.3753 -0.1330
  638MPD2    H2 9503   2.844   0.338  15.073 -1.5006 -0.2932 -1.5769
  638MPD2    H3 9504   2.768   0.258  15.290  0.5110  0.6948  0.5019
  638MPD2     N 9505   2.831   4.548  15.182 -0.1205  0.3394  0.2904
  638MPD2    H5 9506   2.854   4.486  15.105 -0.0727 -0.8159  1.2326
  638MPD2    N1 9507   2.918   0.162  14.863 -0.4491  0.5668 -0.6139
  638MPD2    H7 9508   2.929   0.085  14.798 -3.3923  0.0898 -0.5718
  639TMC3    C1 9509   2.798   4.339  15.290 -0.0584 -0.4288 -0.3917
  639TMC3    C2 9510   2.731   4.294  15.179 -0.0589  0.1736 -0.4068
  639TMC3    C3 9511   2.761   4.167  15.129  0.6100  0.2731 -0.2091
  639TMC3    C4 9512   2.878   4.255  15.359  0.4529  0.1489  0.4072
  639TMC3    C5 9513   2.913   4.140  15.308 -0.0880 -0.1248 -0.0539
  639TMC3    C6 9514   2.866   4.103  15.182  0.2773 -0.6390 -0.8289
  639TMC3     C 9515   2.823   4.487  15.303 -0.5310  0.0992 -0.6969
  639TMC3     O 9516   2.804   4.540  15.412  0.6095  0.3856  0.1200
  639TMC3     H 9517   2.654   4.352  15.130 -1.5057 -0.4165  1.1407
  639TMC3    H1 9518   2.940   4.294  15.438  0.3322 -1.1811  1.1645
  639TMC3    H2 9519   2.907   4.014  15.134 -0.5500 -0.8054 -1.2329
  639TMC3    C7 9520   3.042   4.087  15.356  0.3724 -0.0619 -0.6010
  639TMC3    C8 9521   2.732   4.129  14.987  0.6217  0.3164 -0.2379
  639TMC3    O1 9522   3.048   4.013  15.453 -0.2618  0.2452 -0.3314
  639TMC3    O2 9523   2.824   4.084  14.920 -0.4006  0.1131  0.1744
  640MPD2     C 9524   3.094   3.876  10.317  0.6419 -0.7060 -0.3577
  640MPD2    C1 9525   3.050   3.955  10.209 -0.2778  0.2733  0.9299
  640MPD2    C2 9526   3.049   4.091  10.221  0.0287 -0.0232  0.2657
  640MPD2    C3 9527   3.086   4.156  10.339  0.5207 -0.5940  0.5778
  640MPD2    C4 9528   3.119   4.080  10.449  0.3500 -0.4226 -1.0634
  640MPD2    C5 9529   3.128   3.939  10.438  0.5516  0.3290 -0.1641
  640MPD2     H 9530   3.001   4.159  10.151 -1.9713  0.5770  2.1926
  640MPD2    H1 9531   3.169   4.125  10.534  1.0755 -1.3289 -1.0145
  640MPD2    H2 9532   3.104   3.768  10.314 -2.1107 -1.0091  0.6046
  640MPD2    H3 9533   3.171   3.889  10.524  1.5801  0.7752 -0.4143
  640MPD2     N 9534   3.115   4.294  10.343 -0.5050 -0.3252  0.6908
  640MPD2    H5 9535   3.147   4.333  10.430 -0.3721  0.8252  0.1325
  640MPD2    N1 9536   2.993   3.890  10.094 -0.3257  0.5160 -0.2786
  640MPD2    H7 9537   3.009   3.790  10.086  0.5991  0.5092  1.6220
  641TMC3    C1 9538   2.875   3.880   9.881 -0.0556 -0.2488  0.1866
  641TMC3    C2 9539   2.968   3.799   9.819  0.1569  0.7383  0.7939
  641TMC3    C3 9540   2.922   3.734   9.709 -0.1753 -0.3574 -0.6070
  641TMC3    C4 9541   2.751   3.914   9.828 -0.1615 -0.2599 -0.2227
  641TMC3    C5 9542   2.725   3.861   9.706  0.5902  0.5097 -0.5216
  641TMC3    C6 9543   2.805   3.768   9.641 -0.2219  0.3169  0.2648
  641TMC3     C 9544   2.913   3.953  10.000  0.1654  0.0378  0.1393
  641TMC3     O 9545   2.870   4.067   9.999 -0.6086 -0.1259 -0.1265
  641TMC3     H 9546   3.067   3.786   9.861 -1.2959 -0.7473  3.7282
  641TMC3    H1 9547   2.685   3.989   9.869 -0.1385  0.6021 -1.7475
  641TMC3    H2 9548   2.759   3.716   9.558  2.8373  0.3363 -1.4657
  641TMC3    C7 9549   2.624   3.908   9.617 -0.4329  0.4880  0.2106
  641TMC3    C8 9550   2.997   3.628   9.646  0.2536  0.0815  0.0572
  641TMC3    O1 9551   2.633   3.892   9.495 -0.0690  0.1662  0.6504
  641TMC3    O2 9552   2.989   3.616   9.524  0.4023  0.2149 -0.2789
  642TMC3    C1 9553   4.539   4.115  12.718 -0.7167  0.4777  0.0923
  642TMC3    C2 9554   4.659   4.058  12.698 -0.2588 -0.3404  0.1975
  642TMC3    C3 9555   4.667   3.935  12.641  0.1091 -0.5294  0.4756
  642TMC3    C4 9556   4.424   4.051  12.675  0.9701  0.9975  0.1647
  642TMC3    C5 9557   4.434   3.921  12.632 -0.0323 -0.7522 -0.3079
  642TMC3    C6 9558   4.558   3.866  12.610 -0.0942 -0.9712  0.4229
  642TMC3     C 9559   4.540   4.261  12.725  1.0786  0.0452 -0.0162
  642TMC3     O 9560   4.640   4.318  12.677 -0.2383  0.3586  0.6171
  642TMC3     H 9561   0.011   4.121  12.713  0.0147 -0.4107 -1.0959
  642TMC3    H1 9562   4.333   4.107  12.654  0.5650 -0.4086 -1.7976
  642TMC3    H2 9563   4.558   3.757  12.604 -1.4221 -0.9807  0.5052
  642TMC3    C7 9564   4.322   3.836  12.605  0.1300  0.0253  0.2386
  642TMC3    C8 9565   0.049   3.861  12.684  0.3191  0.5172 -0.9214
  642TMC3    O1 9566   4.340   3.736  12.535 -0.2081  0.2661  0.2236
  642TMC3    O2 9567   0.126   3.927  12.749  0.9592 -0.0720  0.0762
  643TMC3    C1 9568   3.498   4.294   0.647 -0.5038  0.5516 -0.3302
  643TMC3    C2 9569   3.371   4.340   0.661  0.7323 -0.1066 -0.3098
  643TMC3    C3 9570   3.266   4.299   0.589  0.4830  0.9265 -0.8482
  643TMC3    C4 9571   3.522   4.228   0.530 -0.4506 -0.1086 -0.0676
  643TMC3    C5 9572   3.416   4.191   0.443  0.2182  0.0677  0.5365
  643TMC3    C6 9573   3.287   4.221   0.475  0.3345  0.2664 -0.5477
  643TMC3     C 9574   3.588   4.408   0.661 -0.7698  0.1234 -0.3214
  643TMC3     O 9575   3.546   4.514   0.605  0.2543 -0.1706 -0.4065
  643TMC3     H 9576   3.341   4.405   0.743  3.5415  0.7569  0.0443
  643TMC3    H1 9577   3.624   4.207   0.501 -0.4171 -1.0833  0.7262
  643TMC3    H2 9578   3.200   4.176   0.428  0.8720 -2.8898  1.4947
  643TMC3    C7 9579   3.450   4.128   0.315  0.3841 -0.0937  0.0649
  643TMC3    C8 9580   3.164   4.402   0.569  0.4722  0.5247 -0.0311
  643TMC3    O1 9581   3.563   4.080   0.302  0.1243  0.4321 -0.2910
  643TMC3    O2 9582   3.057   4.356   0.533 -0.0424 -0.3089 -0.7885
  644MPD2     C 9583   3.232   3.997   9.480 -0.0530 -0.5855  0.2526
  644MPD2    C1 9584   3.220   4.010   9.613 -0.2207  0.1991  0.6811
  644MPD2    C2 9585   3.118   4.081   9.672 -0.1702 -0.1457  0.3809
  644MPD2    C3 9586   3.012   4.131   9.597  0.4259  0.1901 -0.0130
  644MPD2    C4 9587   3.028   4.119   9.461 -0.5038  0.4873  0.4774
  644MPD2    C5 9588   3.130   4.051   9.404 -0.2806 -0.5119 -0.4191
  644MPD2     H 9589   3.112   4.089   9.780 -1.6970 -0.6062  0.3306
  644MPD2    H1 9590   2.972   4.165   9.381  0.6488 -0.1462 -0.7068
  644MPD2    H2 9591   3.319   3.951   9.436  0.5205  0.2866  0.4677
  644MPD2    H3 9592   3.135   4.051   9.295 -0.7253  0.5562 -0.4334
  644MPD2     N 9593   2.900   4.198   9.655  0.4294 -0.0799 -0.0181
  644MPD2    H5 9594   2.905   4.227   9.752 -0.5532  1.0733 -0.3256
  644MPD2    N1 9595   3.322   3.930   9.677  0.0677  0.0424  0.2293
  644MPD2    H7 9596   3.382   3.875   9.617 -1.2079 -1.1004  0.0306
  645TMC3    C1 9597   2.694   4.304   9.666  0.1469 -0.1835 -0.3557
  645TMC3    C2 9598   2.599   4.371   9.600 -0.6636 -0.0928  0.1407
  645TMC3    C3 9599   2.497   4.428   9.670 -0.0012  0.0688  0.2942
  645TMC3    C4 9600   2.681   4.272   9.800  0.2701  0.6129 -0.4672
  645TMC3    C5 9601   2.565   4.318   9.855 -0.2805 -0.0864  0.0381
  645TMC3    C6 9602   2.477   4.409   9.806  0.2963  0.4061 -0.2096
  645TMC3     C 9603   2.795   4.243   9.581 -0.0217  0.2056  0.6103
  645TMC3     O 9604   2.763   4.229   9.469 -0.4472 -0.1080 -0.1802
  645TMC3     H 9605   2.621   4.393   9.496  3.4944 -2.2499  0.5614
  645TMC3    H1 9606   2.748   4.199   9.844 -1.4679 -2.0994 -2.2776
  645TMC3    H2 9607   2.387   4.446   9.853 -0.8172  1.4903 -3.2088
  645TMC3    C7 9608   2.505   4.242   9.966  0.5366  0.9385  0.6851
  645TMC3    C8 9609   2.417   4.533   9.604  0.0907 -0.2255  0.4399
  645TMC3    O1 9610   2.384   4.255   9.970 -0.7836 -0.3803  0.1961
  645TMC3    O2 9611   2.366   4.613   9.683  0.1592  0.4014  0.2431
  646MPD2     C 9612   3.256   3.427  14.431  0.4294  0.4263  0.5343
  646MPD2    C1 9613   3.178   3.482  14.535 -1.0618  0.8962 -0.1827
  646MPD2    C2 9614   3.085   3.575  14.502 -0.1029 -0.3989 -0.0855
  646MPD2    C3 9615   3.058   3.613  14.373  0.2656 -0.3789  0.5051
  646MPD2    C4 9616   3.130   3.558  14.272  0.8436  0.4424  1.0131
  646MPD2    C5 9617   3.237   3.474  14.301 -0.4797  0.5252 -0.0978
  646MPD2     H 9618   3.038   3.632  14.581  0.3782 -0.8573  0.5367
  646MPD2    H1 9619   3.114   3.571  14.165  0.7818 -3.0963  0.5674
  646MPD2    H2 9620   3.321   3.341  14.444 -0.8258 -0.8050 -1.3925
  646MPD2    H3 9621   3.296   3.444  14.215 -1.9565  1.7333 -1.5303
  646MPD2     N 9622   2.963   3.718  14.350  0.8177 -0.4012 -0.4458
  646MPD2    H5 9623   2.913   3.748  14.433 -0.5516 -1.5948 -0.8283
  646MPD2    N1 9624   3.203   3.448  14.670  0.2753  0.4118  0.0624
  646MPD2    H7 9625   3.282   3.385  14.684 -0.0797 -0.5139 -2.1726
  647TMC3    C1 9626   3.183   3.407  14.900  1.1748  0.9338  0.8020
  647TMC3    C2 9627   3.092   3.350  14.994 -0.3975 -0.7333 -0.1052
  647TMC3    C3 9628   3.142   3.271  15.089  0.4784 -0.1706  0.2691
  647TMC3    C4 9629   3.320   3.396  14.918  0.6257  0.0090 -0.1637
  647TMC3    C5 9630   3.367   3.311  15.020  0.7436 -0.0082  0.0915
  647TMC3    C6 9631   3.281   3.245  15.101 -0.2026 -0.1273 -0.0392
  647TMC3     C 9632   3.126   3.467  14.783  0.3375 -0.6274 -0.2855
  647TMC3     O 9633   3.005   3.491  14.785  0.1209  0.4634  0.2814
  647TMC3     H 9634   2.985   3.367  14.998 -0.2107 -0.2085  2.5796
  647TMC3    H1 9635   3.383   3.451  14.849 -0.3364 -0.8168 -1.6892
  647TMC3    H2 9636   3.326   3.193  15.185  2.8191 -0.0863 -1.6521
  647TMC3    C7 9637   3.507   3.276  15.031  0.2336  0.3337 -0.6480
  647TMC3    C8 9638   3.051   3.204  15.174 -0.1632  0.5149 -0.4622
  647TMC3    O1 9639   3.533   3.184  15.105 -0.2869 -0.5374  0.4662
  647TMC3    O2 9640   2.956   3.267  15.217  0.3732 -0.1138  0.2562
  648TMC3    C1 9641   2.266   0.776  16.212  0.4759 -0.7326  0.0487
  648TMC3    C2 9642   2.405   0.779  16.210 -0.0593  0.1350 -0.8090
  648TMC3    C3 9643   2.466   0.818  16.095 -0.0387  0.0349  0.3762
  648TMC3    C4 9644   2.193   0.818  16.104 -0.2289  0.0268  0.1930
  648TMC3    C5 9645   2.257   0.849  15.987 -0.5829  0.2326 -0.5411
  648TMC3    C6 9646   2.388   0.851  15.987 -0.9526  0.7041  0.7284
  648TMC3     C 9647   2.191   0.761  16.338  0.0040  0.0358 -0.5737
  648TMC3     O 9648   2.240   0.806  16.439 -0.5809 -0.0130  0.5408
  648TMC3     H 9649   2.459   0.751  16.299  0.9461  1.3282 -1.0507
  648TMC3    H1 9650   2.085   0.821  16.101 -0.3262 -3.3051  0.5516
  648TMC3    H2 9651   2.445   0.885  15.901 -1.7602 -2.0854 -0.8792
  648TMC3    C7 9652   2.195   0.944  15.894 -0.3947  0.1528 -0.0350
  648TMC3    C8 9653   2.607   0.808  16.085  0.1775 -0.4376 -0.0834
  648TMC3    O1 9654   2.249   0.947  15.785 -1.3004  0.2969  0.0666
  648TMC3    O2 9655   2.669   0.831  16.187  0.1187 -0.1823  0.0551
  649TMC3    C1 9656   0.891   2.043  13.108  0.1607 -0.5458 -0.3811
  649TMC3    C2 9657   1.004   2.113  13.135 -0.1532  0.0292  0.6118
  649TMC3    C3 9658   1.076   2.089  13.242  0.6388  0.1560  0.2309
  649TMC3    C4 9659   0.841   1.955  13.195 -0.0622 -0.7907 -0.1624
  649TMC3    C5 9660   0.911   1.941  13.314  0.4127  0.1192 -0.1598
  649TMC3    C6 9661   1.023   2.010  13.340  0.2330  0.3579  0.0794
  649TMC3     C 9662   0.805   2.119  13.025  0.5457 -0.3355  0.0705
  649TMC3     O 9663   0.843   2.232  13.000 -0.4101  0.3941  0.1641
  649TMC3     H 9664   1.055   2.173  13.061  2.2794 -2.0480  0.5756
  649TMC3    H1 9665   0.744   1.907  13.186 -1.4261  2.1174 -0.7187
  649TMC3    H2 9666   1.073   2.017  13.436  2.6477 -1.3238 -1.0605
  649TMC3    C7 9667   0.863   1.841  13.409  0.0855  0.0801 -0.8279
  649TMC3    C8 9668   1.178   2.181  13.296 -0.2170 -0.0759 -0.0294
  649TMC3    O1 9669   0.759   1.787  13.377  0.3165 -0.2771  0.1778
  649TMC3    O2 9670   1.263   2.130  13.367  0.3042  0.0306  0.1732
  650TMC3    C1 9671   4.002   3.695  13.236  0.0479 -0.1803  0.8975
  650TMC3    C2 9672   3.973   3.773  13.344  0.2929  0.9372  0.5386
  650TMC3    C3 9673   3.845   3.822  13.361 -0.5380  0.5288  0.5261
  650TMC3    C4 9674   3.913   3.656  13.134  0.4206 -0.0226  0.0655
  650TMC3    C5 9675   3.783   3.699  13.157 -0.3410  0.3288  1.0848
  650TMC3    C6 9676   3.754   3.773  13.269 -0.1062  0.0637  0.4274
  650TMC3     C 9677   4.138   3.653  13.232  0.0562  0.1091  0.6578
  650TMC3     O 9678   4.216   3.718  13.301  0.5695  0.1805  0.1653
  650TMC3     H 9679   4.048   3.820  13.406 -1.9601  1.7131  2.7060
  650TMC3    H1 9680   3.945   3.601  13.046 -0.0072 -0.2510  0.0551
  650TMC3    H2 9681   3.654   3.815  13.270  0.1839  0.7467  0.6353
  650TMC3    C7 9682   3.694   3.733  13.047  0.3847  0.1681  0.2562
  650TMC3    C8 9683   3.846   3.963  13.353  0.5366 -1.3100  0.0233
  650TMC3    O1 9684   3.579   3.703  13.060 -0.0000 -0.3303 -0.1686
  650TMC3    O2 9685   3.934   4.027  13.294 -0.6727 -0.4390  0.1510
  651MPD2     C 9686   2.420   1.227  11.357  0.7125 -0.6532 -0.6279
  651MPD2    C1 9687   2.381   1.297  11.246  0.5503 -0.4309  0.4002
  651MPD2    C2 9688   2.473   1.303  11.142  0.0305  0.3290 -0.2070
  651MPD2    C3 9689   2.598   1.242  11.149 -0.5423  0.8072 -0.9914
  651MPD2    C4 9690   2.628   1.166  11.264  0.1759 -0.5755  0.0809
  651MPD2    C5 9691   2.539   1.155  11.361 -0.3272  0.0315  0.0537
  651MPD2     H 9692   2.431   1.355  11.057 -0.1634  0.3767 -0.0845
  651MPD2    H1 9693   2.720   1.110  11.264 -0.6689 -1.9534  0.4132
  651MPD2    H2 9694   2.357   1.222  11.445 -0.1228  1.0947 -1.1091
  651MPD2    H3 9695   2.565   1.087  11.442  3.0248  0.5184 -0.6013
  651MPD2     N 9696   2.680   1.242  11.031  0.1421 -0.1495 -0.4279
  651MPD2    H5 9697   2.650   1.319  10.973  0.7399  0.5095  0.1368
  651MPD2    N1 9698   2.253   1.361  11.229 -0.2469 -0.0823 -0.3404
  651MPD2    H7 9699   2.237   1.404  11.138  1.6273 -1.1212 -1.1627
  652TMC3    C1 9700   3.049   1.226  10.740 -0.0216  0.0835 -0.0317
  652TMC3    C2 9701   3.006   1.209  10.864 -0.2569 -0.1371  0.2116
  652TMC3    C3 9702   2.866   1.220  10.891  0.0047 -0.0037  0.1667
  652TMC3    C4 9703   2.970   1.251  10.635 -0.3375  0.5586  0.1937
  652TMC3    C5 9704   2.834   1.265  10.661  0.5642 -0.4189  1.0666
  652TMC3    C6 9705   2.781   1.257  10.787  0.1793 -0.4124  0.4522
  652TMC3     C 9706   3.190   1.197  10.716  0.1250 -0.1619  0.0286
  652TMC3     O 9707   3.263   1.150  10.806 -0.1450  0.2147  0.2454
  652TMC3     H 9708   3.063   1.161  10.942  0.7571 -0.3378 -0.6500
  652TMC3    H1 9709   2.994   1.247  10.529 -2.0213 -0.3466 -0.1513
  652TMC3    H2 9710   2.674   1.277  10.793  0.4640  1.1903  0.0395
  652TMC3    C7 9711   2.753   1.313  10.550  0.0838 -0.4462 -0.0688
  652TMC3    C8 9712   2.804   1.192  11.019  0.2156 -0.6895 -0.3796
  652TMC3    O1 9713   2.643   1.262  10.529  0.2914  0.0807  0.6314
  652TMC3    O2 9714   2.877   1.143  11.102 -0.6304  0.0069 -0.0843
  653MPD2     C 9715   1.452   0.658   0.347  0.0297  0.6957 -0.2736
  653MPD2    C1 9716   1.408   0.737   0.241 -0.2066 -0.9130 -0.3077
  653MPD2    C2 9717   1.382   0.666   0.121 -0.4507 -0.3831 -0.6796
  653MPD2    C3 9718   1.396   0.537   0.101 -0.5090 -0.2942  0.2474
  653MPD2    C4 9719   1.433   0.464   0.215 -0.4362 -0.8054  0.0537
  653MPD2    C5 9720   1.467   0.522   0.331 -0.1030 -0.0043 -0.5007
  653MPD2     H 9721   1.340   0.722   0.038 -1.5825 -1.3038 -0.7339
  653MPD2    H1 9722   1.440   0.357   0.204 -1.2165 -0.7145 -1.3655
  653MPD2    H2 9723   1.462   0.704   0.445  2.0452 -0.1368 -0.0950
  653MPD2    H3 9724   1.490   0.448   0.407  0.1351  0.0091 -0.5602
  653MPD2     N 9725   1.333   0.489  17.723  0.1654 -0.2419 -0.4081
  653MPD2    H5 9726   1.278   0.556  17.670  1.7411  0.8007 -0.7219
  653MPD2    N1 9727   1.372   0.875   0.248 -0.3993 -0.7200  0.0389
  653MPD2    H7 9728   1.349   0.923   0.161  0.2066 -0.2292  0.1493
  654TMC3    C1 9729   1.280   0.329  17.557 -0.1346 -0.5424  0.0918
  654TMC3    C2 9730   1.238   0.428  17.480  0.0445 -0.5668 -0.3402
  654TMC3    C3 9731   1.188   0.397  17.358 -0.7854  0.0738 -0.1559
  654TMC3    C4 9732   1.278   0.196  17.519 -0.0332 -0.0559  1.0555
  654TMC3    C5 9733   1.242   0.171  17.388 -0.6423  0.5597  0.9581
  654TMC3    C6 9734   1.192   0.266  17.302  0.1535  0.2926 -0.2204
  654TMC3     C 9735   1.355   0.360  17.673  0.3914 -0.1139 -0.0282
  654TMC3     O 9736   1.421   0.267  17.722 -0.0133 -0.1159 -0.2876
  654TMC3     H 9737   1.266   0.532  17.497 -2.4343 -0.0263  0.3571
  654TMC3    H1 9738   1.291   0.117  17.592 -2.4557  0.5675  2.1649
  654TMC3    H2 9739   1.161   0.242  17.201 -0.6829  1.1783 -0.1654
  654TMC3    C7 9740   1.227   0.033  17.352 -0.0686 -0.2880 -0.7711
  654TMC3    C8 9741   1.130   0.502  17.268  0.4898 -0.1345 -0.2319
  654TMC3    O1 9742   1.166   0.003  17.250  1.0019 -0.1751  0.0474
  654TMC3    O2 9743   1.098   0.601  17.327 -0.2146 -0.5969  0.1663
  655MPD2     C 9744   2.931   0.952  15.843 -0.0303 -0.0884  0.7383
  655MPD2    C1 9745   2.841   0.998  15.748 -0.5133  0.6211 -0.1949
  655MPD2    C2 9746   2.862   0.979  15.615 -0.9674  0.3963  0.5663
  655MPD2    C3 9747   2.983   0.915  15.580  0.5110 -0.2752  0.2660
  655MPD2    C4 9748   3.071   0.861  15.678 -0.9328 -0.3703  0.2903
  655MPD2    C5 9749   3.038   0.878  15.813  0.1610  0.5794  0.3971
  655MPD2     H 9750   2.798   1.024  15.540  0.2762 -0.7354 -1.1871
  655MPD2    H1 9751   3.160   0.806  15.653 -1.9170 -2.0682  0.5100
  655MPD2    H2 9752   2.905   0.966  15.947 -1.0494 -0.0543  0.4726
  655MPD2    H3 9753   3.100   0.833  15.891 -0.7369 -1.0528  0.1776
  655MPD2     N 9754   3.026   0.893  15.444 -0.8579 -0.3234  0.3856
  655MPD2    H5 9755   3.104   0.832  15.423 -2.1910 -1.5589 -1.1133
  655MPD2    N1 9756   2.727   1.076  15.788 -0.1604 -0.2035  0.1087
  655MPD2    H7 9757   2.665   1.095  15.710 -1.5161 -1.7353  0.7907
  656TMC3    C1 9758   2.584   1.215  15.920 -0.4381 -0.2131  0.9413
  656TMC3    C2 9759   2.502   1.195  16.027 -0.3324 -0.3507  0.1184
  656TMC3    C3 9760   2.392   1.277  16.039 -0.0905 -0.1403  0.0887
  656TMC3    C4 9761   2.562   1.302  15.822  0.0357 -0.6378  0.6028
  656TMC3    C5 9762   2.456   1.384  15.837 -0.5807 -0.3727  0.3026
  656TMC3    C6 9763   2.374   1.378  15.947  0.7407 -0.1138  0.0500
  656TMC3     C 9764   2.703   1.131  15.911  0.5729  0.2659  0.3798
  656TMC3     O 9765   2.750   1.096  16.022 -0.6789 -0.3112 -0.1313
  656TMC3     H 9766   2.507   1.102  16.083  1.6634 -1.0037 -1.1433
  656TMC3    H1 9767   2.633   1.332  15.746 -1.1820 -0.4737 -0.4616
  656TMC3    H2 9768   2.283   1.433  15.967  0.4588 -0.4500 -0.2906
  656TMC3    C7 9769   2.412   1.460  15.722  0.3884 -0.4371  0.2193
  656TMC3    C8 9770   2.306   1.244  16.146  0.2005  0.0655 -0.4397
  656TMC3    O1 9771   2.474   1.432  15.623 -0.0525  0.3518  0.1494
  656TMC3    O2 9772   2.293   1.123  16.170  0.4992  0.0587  0.1234
  657TMC3    C1 9773   1.353   0.492  15.126  0.9035 -0.0357  0.6330
  657TMC3    C2 9774   1.446   0.517  15.028  0.3301 -0.5396 -0.3718
  657TMC3    C3 9775   1.463   0.644  14.990 -0.3695 -0.1571  0.7888
  657TMC3    C4 9776   1.297   0.592  15.194 -0.1728 -0.3528  0.1345
  657TMC3    C5 9777   1.314   0.721  15.156 -0.0737 -0.2133  0.0393
  657TMC3    C6 9778   1.399   0.749  15.056 -0.1467  0.2047  0.0578
  657TMC3     C 9779   1.340   0.352  15.173  0.1761 -0.3921  0.2338
  657TMC3     O 9780   1.291   0.335  15.282 -0.4665  0.3923  0.0587
  657TMC3     H 9781   1.491   0.438  14.970  0.1477  0.1866 -1.4986
  657TMC3    H1 9782   1.228   0.562  15.272  0.8144  0.2095  1.2171
  657TMC3    H2 9783   1.412   0.850  15.019 -2.3705  0.8557  1.0127
  657TMC3    C7 9784   1.227   0.835  15.195  0.1376 -0.8367 -0.7404
  657TMC3    C8 9785   1.572   0.676  14.901  0.9507 -0.5635 -0.0190
  657TMC3    O1 9786   1.214   0.929  15.122 -0.5084 -0.0877  0.8360
  657TMC3    O2 9787   1.628   0.579  14.856  0.1399 -0.2573 -0.2479
  658MPD2     C 9788   3.507   1.143  14.926 -0.3217 -0.2462  0.8379
  658MPD2    C1 9789   3.369   1.120  14.912 -0.6535  0.0191 -0.0165
  658MPD2    C2 9790   3.297   1.197  14.829  0.2445 -0.4988 -0.6346
  658MPD2    C3 9791   3.357   1.299  14.757  0.3335  0.6417 -0.5164
  658MPD2    C4 9792   3.491   1.323  14.769 -0.2614 -0.3560 -0.6188
  658MPD2    C5 9793   3.561   1.249  14.854 -0.4635 -0.2991  0.1673
  658MPD2     H 9794   3.195   1.169  14.803  0.3993  0.6841 -2.5373
  658MPD2    H1 9795   3.547   1.403  14.722 -1.3287  0.9655  0.3558
  658MPD2    H2 9796   3.564   1.098  15.007 -0.1153  0.1983  0.9421
  658MPD2    H3 9797   3.663   1.274  14.880 -0.9606 -0.0315  1.8779
  658MPD2     N 9798   3.279   1.372  14.666  0.1987 -0.2136  0.8822
  658MPD2    H5 9799   3.185   1.333  14.663  0.0571  0.2837 -1.2393
  658MPD2    N1 9800   3.304   1.011  14.984 -0.6106  0.2594 -0.5921
  658MPD2    H7 9801   3.347   0.969  15.066  1.5715 -0.6055 -2.1843
  659TMC3    C1 9802   3.127   0.853  15.032  0.1098 -0.0899 -1.0117
  659TMC3    C2 9803   3.114   0.891  15.162 -0.0785  0.6088 -0.0682
  659TMC3    C3 9804   3.004   0.829  15.223 -0.7104  0.2616 -0.1386
  659TMC3    C4 9805   3.040   0.775  14.969  0.2995  0.5626 -0.0811
  659TMC3    C5 9806   2.951   0.702  15.042  0.5271 -0.2319  0.2269
  659TMC3    C6 9807   2.929   0.734  15.176 -0.3740 -0.5908 -0.0714
  659TMC3     C 9808   3.185   0.952  14.940 -0.1149  0.1084  0.3325
  659TMC3     O 9809   3.137   0.953  14.827 -0.1590 -0.3695 -0.5227
  659TMC3     H 9810   3.168   0.973  15.209  0.1759 -0.0844  0.8471
  659TMC3    H1 9811   3.057   0.751  14.864  1.2348  0.1975  0.1590
  659TMC3    H2 9812   2.839   0.696  15.223 -1.1598  2.6435  1.0294
  659TMC3    C7 9813   2.819   0.688  14.980 -0.2357 -0.1817  0.2137
  659TMC3    C8 9814   2.944   0.896  15.334  0.4787  0.5088  0.0970
  659TMC3    O1 9815   2.722   0.648  15.042  0.2727  0.1895  0.0064
  659TMC3    O2 9816   2.833   0.936  15.319 -0.0437 -0.4201 -0.0672
  660MPD2     C 9817   0.799   0.274  12.697 -0.7911 -0.5835 -0.0032
  660MPD2    C1 9818   0.659   0.266  12.703 -0.7317  1.1500 -0.9186
  660MPD2    C2 9819   0.606   0.276  12.825  0.1931  0.7290  0.8195
  660MPD2    C3 9820   0.688   0.275  12.938 -0.0356 -0.1053 -0.0339
  660MPD2    C4 9821   0.826   0.254  12.924  0.9143 -0.1169  0.5963
  660MPD2    C5 9822   0.882   0.258  12.802  0.1553  0.3176  0.8022
  660MPD2     H 9823   0.503   0.309  12.832 -0.8665 -2.6570  1.2592
  660MPD2    H1 9824   0.888   0.229  13.009 -0.0955 -0.4534  1.2361
  660MPD2    H2 9825   0.842   0.275  12.597 -0.4746 -0.7881  0.1290
  660MPD2    H3 9826   0.991   0.258  12.795  0.0249  2.7415 -1.2415
  660MPD2     N 9827   0.633   0.271  13.068  0.2063  0.2419 -0.1812
  660MPD2    H5 9828   0.695   0.235  13.141 -0.8891  0.4997  0.8799
  660MPD2    N1 9829   0.583   0.259  12.588 -0.2283 -0.2496  0.2615
  660MPD2    H7 9830   0.633   0.253  12.500  0.5352  0.1889  0.6664
  661TMC3    C1 9831   0.380   0.211  12.465 -0.6084  0.0771  0.2253
  661TMC3    C2 9832   0.465   0.185  12.354  0.3858 -0.2097 -0.9853
  661TMC3    C3 9833   0.419   0.101  12.256  0.0228  0.5027  0.8550
  661TMC3    C4 9834   0.249   0.164  12.462 -0.0824  0.0100 -0.0549
  661TMC3    C5 9835   0.204   0.085  12.357 -0.1441 -0.0583  0.3449
  661TMC3    C6 9836   0.293   0.046  12.258  0.2220  0.3147  0.9246
  661TMC3     C 9837   0.442   0.262  12.588 -0.5711 -0.3125  0.6033
  661TMC3     O 9838   0.361   0.287  12.674  0.1355 -0.0930  0.0646
  661TMC3     H 9839   0.568   0.220  12.348  0.5783 -1.0963 -2.8020
  661TMC3    H1 9840   0.181   0.188  12.542  3.3058  4.9050  1.3525
  661TMC3    H2 9841   0.260   4.709  12.184  2.6195 -0.0764  0.2338
  661TMC3    C7 9842   0.098   4.730  12.392 -0.8583 -0.4467  0.0563
  661TMC3    C8 9843   0.513   0.060  12.150  0.1502 -0.2063 -0.9203
  661TMC3    O1 9844   0.040   0.022  12.497 -0.2628 -0.4996 -0.3336
  661TMC3    O2 9845   0.608   0.132  12.120 -0.5381 -0.4233  0.2837
  662MPD2     C 9846   1.177   4.285  17.663  0.7461  0.7925  0.2063
  662MPD2    C1 9847   1.157   4.206   0.032  1.0840  0.0319  0.0938
  662MPD2    C2 9848   1.037   4.213   0.100  0.4344 -0.0012 -0.5319
  662MPD2    C3 9849   0.933   4.305   0.051 -0.1454  0.5931 -0.1641
  662MPD2    C4 9850   0.959   4.375  17.675 -0.0753 -0.9324  0.1521
  662MPD2    C5 9851   1.081   4.364  17.609  0.0277  0.9123 -0.4143
  662MPD2     H 9852   1.015   4.134   0.170 -2.3691  0.6520 -0.6782
  662MPD2    H1 9853   0.888   4.442  17.629  0.5863 -0.3330  0.0097
  662MPD2    H2 9854   1.275   4.299  17.619  0.3692 -0.7719 -1.1095
  662MPD2    H3 9855   1.105   4.432  17.528 -0.6975 -1.0258 -2.2527
  662MPD2     N 9856   0.809   4.325   0.118  0.4232  0.1778 -0.1499
  662MPD2    H5 9857   0.736   4.368   0.063  0.8764  1.2407  0.0718
  662MPD2    N1 9858   1.247   4.105   0.070 -0.0504  0.3304  0.1769
  662MPD2    H7 9859   1.216   4.058   0.155  1.1541 -1.0265 -0.1312
  663TMC3    C1 9860   1.412   3.953   0.024  0.2787  0.5451 -0.3037
  663TMC3    C2 9861   1.377   3.871   0.132  0.3911  0.1509  0.8528
  663TMC3    C3 9862   1.415   3.741   0.143 -0.7832 -0.2264 -0.4902
  663TMC3    C4 9863   1.456   3.896  17.646  0.0094  0.0024  0.5338
  663TMC3    C5 9864   1.457   3.759  17.643  0.4029 -0.2874 -0.1067
  663TMC3    C6 9865   1.438   3.683   0.017  0.2020  0.7376  0.4953
  663TMC3     C 9866   1.365   4.087   0.010 -0.2549  0.1303  0.4370
  663TMC3     O 9867   1.428   4.156  17.676 -0.2729 -0.2524  0.2860
  663TMC3     H 9868   1.359   3.914   0.230  0.3765 -0.5260  1.1534
  663TMC3    H1 9869   1.489   3.950  17.558 -0.7449  0.9807  0.8526
  663TMC3    H2 9870   1.462   3.578   0.020  0.6701  0.8206 -0.3687
  663TMC3    C7 9871   1.475   3.695  17.511  0.0754 -0.7136 -0.0972
  663TMC3    C8 9872   1.353   3.662   0.247 -0.8695 -0.3613 -0.3873
  663TMC3    O1 9873   1.501   3.767  17.414  0.2805  0.3353  0.0593
  663TMC3    O2 9874   1.406   3.552   0.268 -0.8059 -0.4639 -0.1610
  664MPD2     C 9875   4.191   2.435  17.532 -0.1387 -0.1365  0.0586
  664MPD2    C1 9876   4.136   2.560  17.534 -0.2485 -0.1925 -0.2270
  664MPD2    C2 9877   4.122   2.627  17.657  0.3111 -0.6874  0.9645
  664MPD2    C3 9878   4.168   2.568   0.035  0.2600  0.2210 -0.1041
  664MPD2    C4 9879   4.200   2.438   0.032  0.5628 -0.3999  0.7869
  664MPD2    C5 9880   4.217   2.379  17.652  0.2237 -0.0011 -0.3930
  664MPD2     H 9881   4.065   2.719  17.666  1.3946  0.0973 -0.2631
  664MPD2    H1 9882   4.231   2.380   0.119  4.1625 -2.0065 -1.5818
  664MPD2    H2 9883   4.213   2.367  17.451 -1.0459 -1.8009  1.2135
  664MPD2    H3 9884   4.269   2.284  17.645 -1.2454 -0.8642  0.3658
  664MPD2     N 9885   4.151   2.641   0.158  0.6310 -0.2679  0.1195
  664MPD2    H5 9886   4.109   2.734   0.157 -1.5936 -1.3079 -0.4486
  664MPD2    N1 9887   4.091   2.625  17.414  0.0159 -0.2474 -0.0958
  664MPD2    H7 9888   4.038   2.712  17.416  0.4486 -0.0037  0.9635
  665TMC3    C1 9889   4.135   2.669   0.395  0.1277 -0.4070  0.4009
  665TMC3    C2 9890   4.161   2.601   0.511  0.5095 -0.5114 -0.5699
  665TMC3    C3 9891   4.189   2.667   0.624  0.0475  0.0863 -0.2982
  665TMC3    C4 9892   4.146   2.807   0.400  0.3874  1.2885  0.0579
  665TMC3    C5 9893   4.180   2.869   0.519 -0.0372 -0.0057  0.3132
  665TMC3    C6 9894   4.200   2.799   0.634 -0.7057 -0.2697 -0.5266
  665TMC3     C 9895   4.181   2.591   0.283 -0.2795 -1.0405 -0.0632
  665TMC3     O 9896   4.226   2.480   0.312  0.9084  0.5534  0.5560
  665TMC3     H 9897   4.118   2.502   0.520 -0.3469 -0.1890 -1.1182
  665TMC3    H1 9898   4.134   2.869   0.311  0.5265 -1.8656 -2.1594
  665TMC3    H2 9899   4.217   2.847   0.730 -3.6452 -0.8554  0.2908
  665TMC3    C7 9900   4.194   3.008   0.514  0.7447 -0.3057 -0.1182
  665TMC3    C8 9901   4.195   2.602   0.756  0.4584  0.5368 -0.0287
  665TMC3    O1 9902   4.140   3.070   0.426 -0.3031 -0.6034 -0.3896
  665TMC3    O2 9903   4.175   2.665   0.859  0.6154  0.1455  0.1136
  666TMC3    C1 9904   2.381   2.744   9.340 -0.0072  0.3389  0.0916
  666TMC3    C2 9905   2.444   2.621   9.340 -0.4766  0.6315 -0.0950
  666TMC3    C3 9906   2.578   2.615   9.310 -0.1151 -0.0460 -0.5442
  666TMC3    C4 9907   2.449   2.857   9.308 -0.0359 -0.3241 -1.5496
  666TMC3    C5 9908   2.582   2.845   9.292  0.1137 -0.5137 -0.0743
  666TMC3    C6 9909   2.650   2.732   9.282  0.2271  0.8740 -0.7168
  666TMC3     C 9910   2.265   2.765   9.424  0.5979  0.1462  0.4201
  666TMC3     O 9911   2.257   2.875   9.477 -0.2178 -0.2375 -0.5187
  666TMC3     H 9912   2.399   2.529   9.374  0.7673  0.9833  2.5001
  666TMC3    H1 9913   2.401   2.953   9.321  2.1275  0.3599  1.2308
  666TMC3    H2 9914   2.757   2.741   9.265  0.8934 -4.0040  0.9946
  666TMC3    C7 9915   2.663   2.954   9.349  0.2340 -0.3183  0.2077
  666TMC3    C8 9916   2.649   2.540   9.414 -0.4587 -0.0508 -0.2132
  666TMC3    O1 9917   2.774   2.932   9.387  0.3026  0.1906  0.3990
  666TMC3    O2 9918   2.586   2.514   9.518  0.0738 -0.6309  0.1813
  667MPD2     C 9919   0.182   1.938  14.848 -0.0221 -0.0961  0.5173
  667MPD2    C1 9920   0.067   1.990  14.903 -0.3614 -0.1065 -0.6162
  667MPD2    C2 9921   4.692   1.912  14.909  0.3034 -0.0847  0.1432
  667MPD2    C3 9922   4.686   1.781  14.868 -0.1149  0.3515 -0.3455
  667MPD2    C4 9923   0.068   1.727  14.824  0.4615  0.4327 -0.3713
  667MPD2    C5 9924   0.185   1.802  14.820 -0.3613 -0.5980  0.0749
  667MPD2     H 9925   4.601   1.964  14.936  0.2677 -0.0683 -0.0093
  667MPD2    H1 9926   0.071   1.622  14.799 -1.9736  0.3510 -0.3418
  667MPD2    H2 9927   0.275   1.987  14.821 -0.3219  0.7188  0.9635
  667MPD2    H3 9928   0.277   1.758  14.784 -0.3135  0.8409 -1.5568
  667MPD2     N 9929   4.569   1.706  14.841  0.3197  1.0073  0.5316
  667MPD2    H5 9930   4.570   1.616  14.794 -2.2476  0.7929  0.9047
  667MPD2    N1 9931   0.053   2.122  14.946  0.4477  0.0284 -0.1139
  667MPD2    H7 9932   4.697   2.150  14.980  1.2398  0.6835  1.5103
  668TMC3    C1 9933   0.091   2.347  14.966  0.1110  0.0265  0.1118
  668TMC3    C2 9934   0.175   2.454  15.001 -0.2039 -0.7575  0.2337
  668TMC3    C3 9935   0.122   2.572  15.045 -0.1834  0.6275 -0.8177
  668TMC3    C4 9936   4.693   2.361  14.980  0.2476  0.1151  0.9576
  668TMC3    C5 9937   4.644   2.481  15.031 -0.9570  0.3720  0.4322
  668TMC3    C6 9938   4.723   2.581  15.066  0.0207  0.2742  0.7362
  668TMC3     C 9939   0.151   2.218  14.943  0.1350 -0.1078  0.2641
  668TMC3     O 9940   0.270   2.205  14.921 -0.1765  0.1053 -0.0680
  668TMC3     H 9941   0.283   2.448  14.995 -0.0798  1.6570  0.1027
  668TMC3    H1 9942   4.620   2.286  14.953 -0.2359  1.2230 -0.7860
  668TMC3    H2 9943   4.690   2.670  15.118 -0.5009  0.0332  0.8183
  668TMC3    C7 9944   4.504   2.516  15.030 -0.3133 -0.5502  0.5438
  668TMC3    C8 9945   0.207   2.685  15.081 -0.1165  0.1295  0.1824
  668TMC3    O1 9946   4.477   2.637  15.034 -0.4406  0.1107 -0.6647
  668TMC3    O2 9947   0.154   2.766  15.148  0.5183 -0.6041 -0.0475
  669TMC3    C1 9948   2.796   2.277  14.942 -0.9100  0.3929  0.1225
  669TMC3    C2 9949   2.724   2.336  14.847  0.2046  0.8855 -0.2613
  669TMC3    C3 9950   2.792   2.418  14.766  0.4177 -0.1999 -0.4848
  669TMC3    C4 9951   2.929   2.281  14.945  0.5218 -0.2345  0.2375
  669TMC3    C5 9952   2.994   2.365  14.860 -0.1138  0.3626  0.2711
  669TMC3    C6 9953   2.927   2.436  14.761  0.5296  0.4512  0.3744
  669TMC3     C 9954   2.728   2.194  15.032  0.0528 -0.4140  0.4151
  669TMC3     O 9955   2.629   2.229  15.088  0.0969 -0.7855 -0.8529
  669TMC3     H 9956   2.617   2.347  14.859 -0.2351 -1.2528 -2.1603
  669TMC3    H1 9957   2.988   2.226  15.018  0.2832 -1.7886 -0.7573
  669TMC3    H2 9958   2.977   2.500  14.690 -0.0006  1.4855  0.9388
  669TMC3    C7 9959   3.132   2.386  14.873 -0.0534 -0.1699  0.2493
  669TMC3    C8 9960   2.713   2.469  14.656 -0.3727  0.8100 -0.5933
  669TMC3    O1 9961   3.194   2.286  14.901  0.0611 -0.0131 -0.1693
  669TMC3    O2 9962   2.596   2.424  14.660  0.0536 -0.2159 -0.1055
  670MPD2     C 9963   0.900   0.336  14.055 -0.6006 -0.7551 -0.2205
  670MPD2    C1 9964   1.001   0.254  14.008 -0.0902 -0.4769  0.6527
  670MPD2    C2 9965   1.022   0.136  14.064 -0.1082 -0.4248 -0.0602
  670MPD2    C3 9966   0.937   0.085  14.160 -0.0764  0.5578  0.1903
  670MPD2    C4 9967   0.840   0.173  14.214  0.2766  0.5661 -0.8997
  670MPD2    C5 9968   0.820   0.298  14.159  0.1886 -0.1218  0.8858
  670MPD2     H 9969   1.117   0.087  14.042  0.5975  0.0074  1.9664
  670MPD2    H1 9970   0.782   0.141  14.300 -1.0104  0.3059 -1.8802
  670MPD2    H2 9971   0.878   0.430  14.005 -0.0772  0.7779  2.3942
  670MPD2    H3 9972   0.737   0.363  14.186  0.5785  1.2236 -1.1490
  670MPD2     N 9973   0.968   4.686  14.203  0.0055  0.0871  0.4632
  670MPD2    H5 9974   1.041   4.635  14.155 -0.1027  0.0483  0.3408
  670MPD2    N1 9975   1.078   0.299  13.900 -0.0698 -0.2357 -0.1715
  670MPD2    H7 9976   1.057   0.390  13.860 -2.0107 -0.3191  0.6525
  671TMC3    C1 9977   0.929   4.485  14.316  0.2356 -0.0974 -0.0807
  671TMC3    C2 9978   1.060   4.458  14.288  0.6842 -0.3140 -0.0321
  671TMC3    C3 9979   1.097   4.327  14.283  0.6592 -0.0194 -0.1214
  671TMC3    C4 9980   0.831   4.386  14.321  0.2191 -0.5404  0.1400
  671TMC3    C5 9981   0.868   4.256  14.282 -0.4210 -0.6606  0.5128
  671TMC3    C6 9982   1.003   4.227  14.261  0.0481 -0.7763 -0.7743
  671TMC3     C 9983   0.892   4.623  14.303  0.3934  0.5864  0.0726
  671TMC3     O 9984   0.789   4.645  14.364  0.1458  0.3170 -0.1485
  671TMC3     H 9985   1.134   4.536  14.300 -1.6187  1.8371  0.3450
  671TMC3    H1 9986   0.729   4.417  14.339 -0.3055 -0.7440 -2.3856
  671TMC3    H2 9987   1.023   4.131  14.214  3.0459 -0.8526  0.6630
  671TMC3    C7 9988   0.780   4.135  14.260 -0.3868 -0.2813 -0.1110
  671TMC3    C8 9989   1.241   4.293  14.275  0.4112 -0.6748 -0.1096
  671TMC3    O1 9990   0.841   4.026  14.267 -0.1298  0.2363 -0.2035
  671TMC3    O2 9991   1.317   4.378  14.226 -0.1721 -0.3031  0.7334
  672MPD2     C 9992   1.238   1.062   0.806 -0.1384  0.2516  0.1189
  672MPD2    C1 9993   1.325   0.954   0.821  0.3382  0.2864 -0.8192
  672MPD2    C2 9994   1.458   0.972   0.859  0.2937 -0.4254 -0.5419
  672MPD2    C3 9995   1.489   1.102   0.912  0.4467 -0.5715 -0.6952
  672MPD2    C4 9996   1.395   1.209   0.912  0.8147  0.1859  0.1061
  672MPD2    C5 9997   1.274   1.186   0.857 -0.0863  0.0760  0.3652
  672MPD2     H 9998   1.534   0.896   0.850  0.8955  0.0687  0.3531
  672MPD2    H1 9999   1.428   1.305   0.951 -1.0771  0.2761  1.4818
  672MPD2    H210000   1.140   1.046   0.761 -0.3951  2.1314 -0.0225
  672MPD2    H310001   1.205   1.269   0.850 -0.2955 -0.1748 -0.5838
  672MPD2     N10002   1.625   1.147   0.942  0.3313 -1.0304  0.6516
  672MPD2    H510003   1.644   1.245   0.956 -2.7668 -0.5799  1.5957
  672MPD2    N110004   1.284   0.828   0.774  0.8975 -0.4651 -0.7214
  672MPD2    H710005   1.194   0.820   0.728  0.7160  1.5062 -0.7202
  673TMC3    C110006   1.303   0.595   0.708  0.4175  0.4325 -0.4072
  673TMC3    C210007   1.351   0.468   0.740 -0.5584  0.1316  0.4709
  673TMC3    C310008   1.309   0.358   0.660 -0.0404  0.0908  0.4110
  673TMC3    C410009   1.214   0.613   0.613 -1.1075  0.6448  0.1103
  673TMC3    C510010   1.167   0.501   0.537  0.5233 -0.1621 -0.2391
  673TMC3    C610011   1.217   0.376   0.556  0.5946  0.2443 -0.3181
  673TMC3     C10012   1.357   0.714   0.773 -0.4239  0.1939 -0.1729
  673TMC3     O10013   1.464   0.685   0.820  0.2253 -0.1089 -0.2598
  673TMC3     H10014   1.424   0.464   0.820  2.0377 -0.0116 -1.9007
  673TMC3    H110015   1.197   0.715   0.579  0.7807  1.3614  1.3469
  673TMC3    H210016   1.191   0.284   0.505  1.4760 -0.2230  0.0803
  673TMC3    C710017   1.074   0.521   0.427 -0.2899 -0.1955  0.1557
  673TMC3    C810018   1.376   0.228   0.672  0.0047 -0.3142  0.0476
  673TMC3    O110019   1.081   0.442   0.336  0.0312  0.2700 -0.1066
  673TMC3    O210020   1.316   0.127   0.648 -0.5080  0.9072  0.3352
  674MPD2     C10021   1.265   4.663   0.082  0.0078 -0.3244 -0.6902
  674MPD2    C110022   1.289   0.017   0.180  0.3771 -0.8767 -0.6733
  674MPD2    C210023   1.214   0.126   0.195 -0.2466 -0.1561  0.9625
  674MPD2    C310024   1.116   0.155   0.098  0.1602  0.7729 -0.2478
  674MPD2    C410025   1.079   0.057   0.000 -0.0494  0.3770  0.2830
  674MPD2    C510026   1.155   4.684  17.737  0.2188  0.3764  0.1889
  674MPD2     H10027   1.231   0.198   0.275  0.5263  1.1736 -0.3935
  674MPD2    H110028   0.996   0.067  17.671 -0.1775  0.3369  0.4307
  674MPD2    H210029   1.327   4.575   0.070 -0.1854 -0.7205  1.1884
  674MPD2    H310030   1.124   4.610  17.664  1.7934 -0.4885  0.4129
  674MPD2     N10031   1.048   0.274   0.107  0.4385 -0.2911  0.0062
  674MPD2    H510032   1.061   0.325   0.193  0.7415  2.4296 -1.6482
  674MPD2    N110033   1.400   4.713   0.262 -0.1563 -0.1134  0.0486
  674MPD2    H710034   1.453   4.628   0.245 -0.8668 -1.1065  2.6818
  675TMC3    C110035   1.566   4.723   0.415  0.2288 -0.8616  0.1081
  675TMC3    C210036   1.577   4.588   0.405  0.0190 -0.2703  0.1950
  675TMC3    C310037   1.696   4.543   0.444 -0.0535 -0.0551  0.0886
  675TMC3    C410038   1.671   0.074   0.445  0.1301 -0.8696 -0.1190
  675TMC3    C510039   1.797   0.021   0.467  0.7041  0.1216  0.0236
  675TMC3    C610040   1.815   4.622   0.465 -0.0497 -0.3941  0.4996
  675TMC3     C10041   1.454   0.062   0.354  0.2631  0.1043 -0.4228
  675TMC3     O10042   1.432   0.179   0.387 -0.2023 -0.3172  0.7978
  675TMC3     H10043   1.496   4.516   0.397 -0.4642  0.2630  0.2319
  675TMC3    H110044   1.644   0.179   0.437  0.4557 -0.9040 -1.8064
  675TMC3    H210045   1.914   4.586   0.489  0.0306  0.0668  0.8587
  675TMC3    C710046   1.905   0.097   0.519  0.4192 -0.6051  0.3024
  675TMC3    C810047   1.730   4.414   0.382  0.0905 -0.4434 -0.3025
  675TMC3    O110048   2.012   0.041   0.545  0.3013  0.1593 -0.3045
  675TMC3    O210049   1.852   4.404   0.367  1.0740 -0.0126  0.1377
  676MPD2     C10050   3.465   3.382  11.395  0.1928  0.4786 -0.2519
  676MPD2    C110051   3.456   3.304  11.506 -0.1312  0.6101 -0.4597
  676MPD2    C210052   3.453   3.163  11.494 -0.1321 -0.1377 -1.2623
  676MPD2    C310053   3.472   3.104  11.374 -0.2142 -0.5476  0.1189
  676MPD2    C410054   3.477   3.184  11.261 -0.4081  0.3828  0.4557
  676MPD2    C510055   3.471   3.321  11.277  0.1098  0.3610  0.3148
  676MPD2     H10056   3.446   3.097  11.580 -0.7843 -1.0028 -1.9786
  676MPD2    H110057   3.492   3.144  11.162  0.7360 -0.7205  1.0681
  676MPD2    H210058   3.446   3.489  11.397  1.1588  0.6753 -2.2577
  676MPD2    H310059   3.495   3.384  11.192  0.7320  1.5956  1.4018
  676MPD2     N10060   3.471   2.961  11.355 -0.2415  0.1853  0.1103
  676MPD2    H510061   3.482   2.925  11.261  0.5240  0.8074 -0.0426
  676MPD2    N110062   3.434   3.362  11.627  0.4194 -0.2453 -0.2136
  676MPD2    H710063   3.381   3.311  11.698  0.6761 -1.6811 -1.0527
  677TMC3    C110064   3.455   3.513  11.798  0.1689 -0.5304 -0.9330
  677TMC3    C210065   3.321   3.521  11.829  0.2980 -0.4395 -0.3612
  677TMC3    C310066   3.291   3.592  11.944  0.1409  0.4855  0.5022
  677TMC3    C410067   3.550   3.595  11.857 -0.1607 -0.2949  0.4032
  677TMC3    C510068   3.512   3.664  11.970  0.4364 -0.3235 -0.5563
  677TMC3    C610069   3.383   3.664  12.016  0.2418  0.5382 -0.3082
  677TMC3     C10070   3.488   3.482  11.663  0.8514 -0.3761 -0.3426
  677TMC3     O10071   3.553   3.568  11.601  0.1603  0.2969  0.7515
  677TMC3     H10072   3.241   3.459  11.789 -1.2109  1.3120 -0.0422
  677TMC3    H110073   3.652   3.592  11.822  0.1072 -0.2607  1.2056
  677TMC3    H210074   3.350   3.715  12.106 -1.0945 -1.4765  0.3397
  677TMC3    C710075   3.614   3.737  12.045  0.2278 -0.6037 -0.3095
  677TMC3    C810076   3.154   3.597  11.981 -0.0638  0.2986 -0.0513
  677TMC3    O110077   3.585   3.752  12.162  0.0276 -0.1336 -0.5896
  677TMC3    O210078   3.066   3.622  11.900 -0.3264 -0.4836 -0.5724
  678MPD2     C10079   0.454   3.208   1.975 -0.3223  0.1994 -0.9210
  678MPD2    C110080   0.426   3.307   1.884 -0.3786 -0.3665  0.3156
  678MPD2    C210081   0.300   3.357   1.880 -0.1260 -0.7088  0.1644
  678MPD2    C310082   0.197   3.304   1.960 -0.2780  0.4598 -0.3709
  678MPD2    C410083   0.228   3.202   2.056  0.8869 -0.3456 -0.0492
  678MPD2    C510084   0.363   3.161   2.065  0.0263  0.3931 -0.4739
  678MPD2     H10085   0.274   3.429   1.804 -0.0321 -0.5019  0.3302
  678MPD2    H110086   0.147   3.163   2.116 -0.3591  2.3936  0.0738
  678MPD2    H210087   0.552   3.162   1.979 -1.2664 -1.8216 -1.4027
  678MPD2    H310088   0.400   3.098   2.146 -0.4254 -1.1520 -1.4718
  678MPD2     N10089   0.067   3.363   1.937  0.9913  0.3224 -0.1528
  678MPD2    H510090   0.050   3.402   1.844  0.3932  1.9259  0.6246
  678MPD2    N110091   0.516   3.347   1.785  0.2723  0.5940  0.3147
  678MPD2    H710092   0.477   3.425   1.733  0.3703  0.4468  0.0195
  679TMC3    C110093   0.890   3.384   1.506 -0.4488 -0.0839 -0.0142
  679TMC3    C210094   0.834   3.320   1.615 -0.3738 -0.3644  0.0090
  679TMC3    C310095   0.701   3.340   1.637 -0.3496 -0.2451 -0.7322
  679TMC3    C410096   0.816   3.471   1.432  0.0807 -0.0013  0.3882
  679TMC3    C510097   0.683   3.468   1.451  0.3644 -0.3798  0.4077
  679TMC3    C610098   0.623   3.400   1.547  0.4779  0.3645  0.0055
  679TMC3     C10099   0.990   3.308   1.424  0.2763 -0.8367 -1.0554
  679TMC3     O10100   1.003   3.344   1.306  0.2885  0.1727  0.1469
  679TMC3     H10101   0.900   3.268   1.684  0.6703  0.7842 -0.1238
  679TMC3    H110102   0.856   3.520   1.343  2.5565 -0.9144  1.0188
  679TMC3    H210103   0.516   3.385   1.548  0.5216  0.0792  0.5115
  679TMC3    C710104   0.602   3.533   1.344  0.3089  0.3439  0.0471
  679TMC3    C810105   0.642   3.298   1.759 -0.4273  0.7027  0.0717
  679TMC3    O110106   0.656   3.546   1.233  0.5557  0.0779  0.8784
  679TMC3    O210107   0.723   3.230   1.821  0.4795 -0.1610  0.3503
  680MPD2     C10108   0.396   2.150  13.780  0.1345 -0.5173 -0.1376
  680MPD2    C110109   0.483   2.105  13.880 -0.3064 -0.5336  0.2642
  680MPD2    C210110   0.590   2.179  13.913  0.3437 -0.2219 -0.3498
  680MPD2    C310111   0.616   2.305  13.855 -0.2648  0.0328 -0.3819
  680MPD2    C410112   0.520   2.353  13.766 -0.0316  0.3050 -0.1616
  680MPD2    C510113   0.416   2.272  13.727  0.4717  0.0730 -0.3346
  680MPD2     H10114   0.662   2.129  13.975  0.8478  0.1250 -0.6509
  680MPD2    H110115   0.525   2.451  13.719 -0.0818  0.3061 -0.1652
  680MPD2    H210116   0.320   2.077  13.756 -0.0546 -0.8061  1.3148
  680MPD2    H310117   0.352   2.310  13.649 -0.5023 -2.2675 -0.6573
  680MPD2     N10118   0.721   2.388  13.895 -0.6981 -0.5428 -0.1353
  680MPD2    H510119   0.710   2.485  13.867 -0.5743 -1.1968 -2.5135
  680MPD2    N110120   0.459   1.978  13.935 -0.1954 -0.3787 -0.2808
  680MPD2    H710121   0.539   1.937  13.981  0.2549 -0.1472 -0.8580
  681TMC3    C110122   0.349   1.784  14.000 -0.2473 -0.2666 -0.5901
  681TMC3    C210123   0.313   1.771  14.131  0.5428  0.4940 -1.0949
  681TMC3    C310124   0.402   1.711  14.213  0.2682 -0.0513  0.3616
  681TMC3    C410125   0.452   1.713  13.949 -0.1416 -0.5821 -0.6749
  681TMC3    C510126   0.533   1.637  14.031 -0.5822  0.1197  0.4374
  681TMC3    C610127   0.509   1.647  14.167 -0.2335 -0.8011 -0.4916
  681TMC3     C10128   0.339   1.913  13.937  0.0891  0.4565 -0.4683
  681TMC3     O10129   0.228   1.958  13.915  0.4158 -0.2763  0.2100
  681TMC3     H10130   0.240   1.838  14.175  1.3541  0.9133 -0.3927
  681TMC3    H110131   0.469   1.723  13.843  0.3899 -1.5481 -0.6847
  681TMC3    H210132   0.571   1.595  14.238  1.9279 -0.0006 -1.7876
  681TMC3    C710133   0.656   1.577  13.989 -0.4999  0.4322 -0.3363
  681TMC3    C810134   0.422   1.792  14.330  0.8891  0.1545  0.4959
  681TMC3    O110135   0.735   1.534  14.073 -0.2386  0.0797 -0.1251
  681TMC3    O210136   0.322   1.832  14.391 -0.1393  0.1778  0.4884
  682MPD2     C10137   2.902   3.663  10.554  0.2387 -0.1744 -0.1252
  682MPD2    C110138   2.790   3.582  10.534 -0.4324  0.1511 -0.6808
  682MPD2    C210139   2.698   3.579  10.632 -0.8767 -0.4197  0.4007
  682MPD2    C310140   2.705   3.662  10.747  0.1250  0.1491 -0.8230
  682MPD2    C410141   2.803   3.757  10.751 -0.8804  0.1443  0.6860
  682MPD2    C510142   2.903   3.750  10.656  0.2966  0.6558 -0.5784
  682MPD2     H10143   2.609   3.519  10.616 -0.4775 -1.2121  1.1692
  682MPD2    H110144   2.810   3.820  10.838  1.0009  0.0150  0.6174
  682MPD2    H210145   2.973   3.674  10.472  1.4987 -1.3548  0.8085
  682MPD2    H310146   2.987   3.818  10.663 -0.5819  1.6088  0.6086
  682MPD2     N10147   2.614   3.665  10.852 -0.3497 -0.8709  0.1336
  682MPD2    H510148   2.638   3.724  10.931  2.5515 -0.4072 -1.0824
  682MPD2    N110149   2.759   3.509  10.419 -0.6703  0.3111 -0.4486
  682MPD2    H710150   2.679   3.448  10.430 -0.9437  0.2592 -2.6959
  683TMC3    C110151   2.406   3.590  11.211 -0.6624  0.1060 -0.9535
  683TMC3    C210152   2.290   3.516  11.198 -0.0054 -0.0686 -0.2223
  683TMC3    C310153   2.240   3.483  11.079 -0.0167 -0.1455 -0.0111
  683TMC3    C410154   2.487   3.613  11.102  0.9586  0.2732 -0.1488
  683TMC3    C510155   2.428   3.590  10.985 -0.0964  0.8031 -0.2995
  683TMC3    C610156   2.310   3.523  10.973  0.3116 -0.3404  0.2782
  683TMC3     C10157   2.451   3.641  11.346  0.2603 -0.7142 -0.8519
  683TMC3     O10158   2.555   3.707  11.347  0.0162 -0.4835  0.1944
  683TMC3     H10159   2.225   3.505  11.283 -0.7818 -1.7028 -1.0252
  683TMC3    H110160   2.579   3.668  11.116 -0.5656  2.0846  2.7984
  683TMC3    H210161   2.273   3.503  10.873  0.9889 -2.2462  0.4267
  683TMC3    C710162   2.498   3.589  10.859  0.1960  1.0902  0.9884
  683TMC3    C810163   2.116   3.410  11.061 -0.6638 -0.5681 -0.2453
  683TMC3    O110164   2.459   3.513  10.770  0.0032 -0.2010  0.3064
  683TMC3    O210165   2.057   3.420  10.952 -0.0707  0.1304  0.4410
  684MPD2     C10166   0.847   2.967  16.492  0.1580  0.1526  0.8123
  684MPD2    C110167   0.829   2.994  16.360 -0.8933  0.3058  0.4652
  684MPD2    C210168   0.820   3.124  16.316  0.1553  0.0421 -0.5500
  684MPD2    C310169   0.835   3.231  16.399  0.0029 -0.0491  0.6882
  684MPD2    C410170   0.844   3.204  16.531 -0.0027  0.1424 -0.0040
  684MPD2    C510171   0.861   3.074  16.579 -0.2029  0.3874  0.2928
  684MPD2     H10172   0.811   3.128  16.208 -2.2887 -0.2749 -0.3487
  684MPD2    H110173   0.865   3.288  16.596  0.5348 -0.0740  0.0984
  684MPD2    H210174   0.859   2.868  16.535  2.3870 -0.4446 -1.1833
  684MPD2    H310175   0.885   3.065  16.684 -0.1279  1.4246  0.3660
  684MPD2     N10176   0.845   3.362  16.356 -0.1596 -0.2690 -0.2389
  684MPD2    H510177   0.853   3.434  16.427  0.4861 -1.4923  0.9364
  684MPD2    N110178   0.854   2.901  16.259  0.4583  0.3398  0.3493
  684MPD2    H710179   0.876   2.930  16.165 -0.5372 -1.4171 -0.4414
  685TMC3    C110180   0.925   2.705  16.152 -0.4300 -0.2794  0.2022
  685TMC3    C210181   0.873   2.756  16.039  0.2613  0.5304  0.3112
  685TMC3    C310182   0.911   2.699  15.924  0.4419  0.4170  0.0734
  685TMC3    C410183   0.995   2.590  16.152  0.2400  0.0874 -0.3126
  685TMC3    C510184   1.047   2.550  16.037  0.1606 -0.6176  0.0090
  685TMC3    C610185   1.008   2.604  15.916 -0.0197  0.1659 -0.0479
  685TMC3     C10186   0.888   2.772  16.284 -0.1238 -0.9319  0.0815
  685TMC3     O10187   0.915   2.709  16.382  0.1990  0.1923  0.4927
  685TMC3     H10188   0.796   2.833  16.043 -0.4064 -0.0675 -1.0024
  685TMC3    H110189   1.031   2.548  16.245  2.8769  1.4670 -0.6966
  685TMC3    H210190   1.031   2.542  15.830 -2.5509 -2.0416  0.8697
  685TMC3    C710191   1.189   2.516  16.039 -0.1067  0.5047  0.0706
  685TMC3    C810192   0.822   2.696  15.817  0.0939  0.1716  0.1425
  685TMC3    O110193   1.215   2.452  16.139 -0.4677  0.1117 -0.5242
  685TMC3    O210194   0.849   2.627  15.722 -0.3451  0.2334  0.2138
  686MPD2     C10195   2.509   2.841  15.384  0.4506  0.3863 -0.1771
  686MPD2    C110196   2.533   2.731  15.466 -0.3104 -0.0718 -0.4703
  686MPD2    C210197   2.621   2.640  15.417 -0.5831 -0.8649 -0.2438
  686MPD2    C310198   2.658   2.633  15.294 -0.4261  0.7116 -0.3547
  686MPD2    C410199   2.630   2.738  15.208 -0.1313  0.5250 -0.5699
  686MPD2    C510200   2.563   2.839  15.260 -0.2544 -0.8489  0.1928
  686MPD2     H10201   2.657   2.563  15.484  3.4200  1.1730 -0.0622
  686MPD2    H110202   2.661   2.731  15.105  1.2147  1.6740 -0.2476
  686MPD2    H210203   2.445   2.924  15.410 -0.7629 -0.8407  0.8097
  686MPD2    H310204   2.552   2.932  15.206  2.2151 -0.6003  0.1028
  686MPD2     N10205   2.731   2.527  15.239  0.2460 -0.1125  0.9954
  686MPD2    H510206   2.782   2.548  15.154  1.8838 -0.1907  1.9610
  686MPD2    N110207   2.477   2.734  15.594  0.0304  0.5541  0.0837
  686MPD2    H710208   2.411   2.808  15.614  0.5905  1.3480 -0.9644
  687TMC3    C110209   2.680   2.342  15.393 -0.0302  0.4907  0.1733
  687TMC3    C210210   2.548   2.350  15.390 -0.3622  1.0975  0.3167
  687TMC3    C310211   2.481   2.308  15.500  0.1518 -0.2428 -0.0698
  687TMC3    C410212   2.748   2.278  15.497 -0.2100 -0.6395  0.3704
  687TMC3    C510213   2.671   2.231  15.602 -0.2648 -0.0065  0.7919
  687TMC3    C610214   2.539   2.254  15.614  0.3080  0.3541  0.3061
  687TMC3     C10215   2.761   2.402  15.288 -0.4316 -0.4682  0.9830
  687TMC3     O10216   2.861   2.341  15.253  0.0595 -0.1063 -0.4385
  687TMC3     H10217   2.503   2.402  15.307 -0.4834  0.7034  0.1345
  687TMC3    H110218   2.856   2.271  15.496 -0.2273 -0.5364 -2.5970
  687TMC3    H210219   2.481   2.215  15.697  2.0343  1.9826  2.2863
  687TMC3    C710220   2.730   2.240  15.732  0.1472 -0.7504  0.7194
  687TMC3    C810221   2.339   2.328  15.509  0.2493 -1.5442 -0.3780
  687TMC3    O110222   2.715   2.151  15.811 -0.0320  0.4311 -0.5583
  687TMC3    O210223   2.288   2.256  15.591 -0.5076 -0.2508  0.0562
  688MPD2     C10224   1.544   1.447  17.593 -0.2193  0.1461  0.4175
  688MPD2    C110225   1.567   1.314  17.611 -0.7774 -0.3621  0.3224
  688MPD2    C210226   1.593   1.237  17.496 -0.1476 -0.0492  0.2553
  688MPD2    C310227   1.609   1.303  17.373  0.0943  0.2921 -0.0319
  688MPD2    C410228   1.589   1.439  17.360 -0.0291  0.0177  0.8667
  688MPD2    C510229   1.546   1.505  17.466  0.2592  0.0402 -0.2614
  688MPD2     H10230   1.610   1.130  17.508 -0.7695 -0.1035  0.6327
  688MPD2    H110231   1.603   1.492  17.267  0.7632 -0.5033  0.6867
  688MPD2    H210232   1.499   1.501  17.676  0.6620  1.7938 -0.1727
  688MPD2    H310233   1.519   1.610  17.462  0.6396  0.1405 -0.1712
  688MPD2     N10234   1.653   1.242  17.254 -0.4083  0.3748  0.3860
  688MPD2    H510235   1.683   1.305  17.181  0.3198 -1.1137 -0.6042
  688MPD2    N110236   1.538   1.258  17.740 -0.1604  0.1753 -0.4407
  688MPD2    H710237   1.501   1.164   0.010 -2.4926  0.9862 -1.5207
  689TMC3    C110238   1.454   1.275   0.216  0.3515  0.0542  0.2772
  689TMC3    C210239   1.386   1.357   0.304  0.0475 -0.1822  0.1506
  689TMC3    C310240   1.318   1.300   0.407 -0.0417 -0.1010 -0.3705
  689TMC3    C410241   1.439   1.137   0.227 -0.2537 -0.3253 -0.0291
  689TMC3    C510242   1.372   1.093   0.335 -0.4533 -0.0443  0.1294
  689TMC3    C610243   1.301   1.165   0.425 -0.0934 -0.3598  0.1360
  689TMC3     C10244   1.526   1.342   0.110 -0.0995 -0.3867 -1.0575
  689TMC3     O10245   1.575   1.450   0.139  0.3757 -0.4577  0.4203
  689TMC3     H10246   1.405   1.463   0.289  0.6356 -0.4099 -0.7218
  689TMC3    H110247   1.499   1.072   0.164 -0.9641 -0.0273 -1.0218
  689TMC3    H210248   1.249   1.122   0.509  1.7743 -1.0534  0.9415
  689TMC3    C710249   1.381   0.952   0.362 -0.0401 -0.7397 -0.2232
  689TMC3    C810250   1.259   1.395   0.495  0.3885  0.2867  0.5404
  689TMC3    O110251   1.372   0.912   0.479  0.4397 -0.9872  0.1503
  689TMC3    O210252   1.309   1.507   0.483 -0.0571 -0.4459  0.1298
  690MPD2     C10253   4.297   3.569  15.828  0.1525 -0.4357 -0.6095
  690MPD2    C110254   4.179   3.581  15.757 -0.3166 -0.6653 -0.6420
  690MPD2    C210255   4.188   3.623  15.626 -0.5478  0.1568 -0.0508
  690MPD2    C310256   4.310   3.628  15.554  0.0998  0.6700 -0.2180
  690MPD2    C410257   4.427   3.600  15.628 -0.3337  0.1968 -0.1416
  690MPD2    C510258   4.417   3.569  15.759  0.2430 -0.2832 -0.0322
  690MPD2     H10259   4.096   3.637  15.570 -0.3891 -1.9760 -0.8628
  690MPD2    H110260   4.524   3.595  15.581 -0.6096 -1.8539 -0.4638
  690MPD2    H210261   4.298   3.547  15.934  1.0567 -1.0805 -0.7474
  690MPD2    H310262   4.514   3.543  15.800  1.0375  1.6499 -0.6875
  690MPD2     N10263   4.313   3.659  15.417 -0.1218 -0.4199  0.1626
  690MPD2    H510264   4.222   3.662  15.372 -0.6383 -0.6819  1.1968
  690MPD2    N110265   4.056   3.537  15.806 -0.1558  0.5868  0.9995
  690MPD2    H710266   3.977   3.546  15.743 -1.2957  1.4501  2.5791
  691TMC3    C110267   3.904   3.397  15.911  0.4156 -0.0783  0.4761
  691TMC3    C210268   3.798   3.468  15.863  0.1195 -0.4016  0.1473
  691TMC3    C310269   3.691   3.399  15.814 -0.3580  0.0924 -0.1566
  691TMC3    C410270   3.914   3.262  15.900  0.4219  0.1406 -0.4775
  691TMC3    C510271   3.812   3.197  15.830 -0.3614 -0.1427 -0.4913
  691TMC3    C610272   3.708   3.264  15.788 -0.0926  0.4620 -0.0277
  691TMC3     C10273   4.032   3.456  15.920  0.2228  0.0580 -0.0109
  691TMC3     O10274   4.120   3.411  15.993 -0.2633  0.0967 -0.1067
  691TMC3     H10275   3.792   3.574  15.885  0.1140  0.4438 -4.0312
  691TMC3    H110276   3.999   3.204  15.935  0.9187  1.0273 -0.2149
  691TMC3    H210277   3.640   3.213  15.720  1.3836 -2.7855  0.9268
  691TMC3    C710278   3.849   3.079  15.752  0.1604  0.1273 -0.1865
  691TMC3    C810279   3.564   3.458  15.834  0.6527  0.5939 -0.2196
  691TMC3    O110280   3.970   3.064  15.731 -0.2783  0.0011 -0.3582
  691TMC3    O210281   3.560   3.577  15.850  0.3718  0.1606 -0.1903
  692TMC3    C110282   0.288   4.291  15.638 -0.6169 -0.1132 -0.6103
  692TMC3    C210283   0.276   4.378  15.536  0.6902 -0.0537 -0.1177
  692TMC3    C310284   0.355   4.375  15.422 -0.3548 -0.5717  0.5492
  692TMC3    C410285   0.387   4.193  15.629 -0.3091 -1.2246  0.3805
  692TMC3    C510286   0.468   4.194  15.518 -0.0051  0.1640 -0.3063
  692TMC3    C610287   0.447   4.272  15.409 -0.3603 -0.0105 -0.2028
  692TMC3     C10288   0.274   4.341  15.768  0.1638 -0.4649 -0.4169
  692TMC3     O10289   0.251   4.261  15.859 -0.1855 -0.4440 -0.0996
  692TMC3     H10290   0.199   4.454  15.533 -0.9279 -1.7598 -1.7597
  692TMC3    H110291   0.408   4.130  15.715 -0.1487 -1.7166 -0.0146
  692TMC3    H210292   0.522   4.288  15.333  0.7519  0.4833  0.9997
  692TMC3    C710293   0.537   4.073  15.486 -0.6205 -0.1264  0.0543
  692TMC3    C810294   0.413   4.505  15.409 -0.0598 -0.5791 -0.0601
  692TMC3    O110295   0.542   4.044  15.368  0.7140  0.1899  0.7145
  692TMC3    O210296   0.337   4.598  15.376  0.2944  0.6264 -0.3082
  693MPD2     C10297   4.476   2.693  10.966  0.9870 -0.4535 -0.1351
  693MPD2    C110298   4.472   2.579  10.885  0.5313 -0.3437 -0.6147
  693MPD2    C210299   4.583   2.539  10.820 -0.2256  0.3304  0.2338
  693MPD2    C310300   4.702   2.611  10.832 -0.5380  0.1510 -0.0746
  693MPD2    C410301   4.709   2.727  10.903  0.2770 -0.2263 -0.5794
  693MPD2    C510302   4.595   2.769  10.970  0.1681  0.5625  0.1189
  693MPD2     H10303   4.591   2.439  10.779 -0.9054  0.2290  0.3518
  693MPD2    H110304   0.065   2.783  10.922 -0.4297  0.5699  0.4890
  693MPD2    H210305   4.406   2.707  11.048 -0.0410 -1.3300 -0.8657
  693MPD2    H310306   4.592   2.858  11.032  2.0713  0.5887  0.1733
  693MPD2     N10307   0.097   2.563  10.789  0.0893  0.0382  0.7611
  693MPD2    H510308   0.181   2.619  10.795  0.0705  0.0712  0.7250
  693MPD2    N110309   4.359   2.500  10.897 -0.1336 -0.2625 -0.4013
  693MPD2    H710310   4.300   2.521  10.977 -1.2144  3.0730 -2.0403
  694TMC3    C110311   4.220   2.308  10.865  0.2448 -0.7597  0.7212
  694TMC3    C210312   4.181   2.207  10.778  0.4439 -0.0877 -0.0443
  694TMC3    C310313   4.107   2.098  10.829  1.0586 -0.0967  0.3542
  694TMC3    C410314   4.219   2.282  10.999  0.4072 -1.1284  0.1585
  694TMC3    C510315   4.139   2.180  11.040 -0.1780  0.5934  1.0722
  694TMC3    C610316   4.068   2.094  10.958 -0.7860  1.0060 -0.7591
  694TMC3     C10317   4.324   2.397  10.814 -0.0642  0.8886 -0.1669
  694TMC3     O10318   4.356   2.383  10.697  0.0361 -0.1082 -0.0054
  694TMC3     H10319   4.187   2.229  10.672  0.3120  0.0854 -0.0156
  694TMC3    H110320   4.259   2.348  11.075 -1.0005 -0.4260  0.2973
  694TMC3    H210321   4.005   2.011  10.989  0.1494 -0.2592 -2.2762
  694TMC3    C710322   4.098   2.186  11.185  0.6905  0.1133 -0.8381
  694TMC3    C810323   4.029   2.024  10.731 -0.2430  0.4552 -0.6897
  694TMC3    O110324   4.140   2.273  11.261 -0.2845  0.5312  0.1095
  694TMC3    O210325   3.937   1.965  10.787  0.5271 -0.3556 -0.3090
  695MPD2     C10326   1.532   4.572  13.408 -0.3206 -0.7212  0.1220
  695MPD2    C110327   1.504   4.522  13.533 -0.9431 -0.0316 -0.2912
  695MPD2    C210328   1.373   4.542  13.586 -0.5400 -0.2023 -0.0838
  695MPD2    C310329   1.285   4.617  13.516  0.4577  0.1307 -0.0963
  695MPD2    C410330   1.312   4.663  13.392  0.3981  0.5752  0.2816
  695MPD2    C510331   1.440   4.649  13.344  0.7792 -0.0092 -0.0430
  695MPD2     H10332   1.348   4.492  13.678  1.8541  0.5792  0.9915
  695MPD2    H110333   1.247   4.730  13.336 -0.1213 -0.6287 -0.5466
  695MPD2    H210334   1.626   4.560  13.355 -0.5829  1.3636 -0.7891
  695MPD2    H310335   1.458   4.683  13.242  0.7965  1.9228  0.6011
  695MPD2     N10336   1.160   4.631  13.576  0.1810  0.0100  0.1752
  695MPD2    H510337   1.151   4.586  13.667 -1.9984  0.0029 -0.0570
  695MPD2    N110338   1.589   4.441  13.613  0.0265  0.0388 -0.1416
  695MPD2    H710339   1.550   4.413  13.703 -1.6165 -2.6339 -1.6555
  696TMC3    C110340   0.952   4.714  13.631 -1.0540  0.1967  0.1536
  696TMC3    C210341   0.928   4.623  13.730 -0.5879 -0.8708 -0.1360
  696TMC3    C310342   0.811   4.635  13.802 -0.5542 -0.0451  0.2741
  696TMC3    C410343   0.867   0.094  13.625 -0.6438 -0.3107 -0.1855
  696TMC3    C510344   0.763   0.103  13.708  0.2053 -0.2968  0.0466
  696TMC3    C610345   0.722   0.004  13.797  0.2177  0.3117  0.0014
  696TMC3     C10346   1.058   4.713  13.534  0.1881  0.3578  0.4102
  696TMC3     O10347   1.050   0.050  13.438  0.4268  0.1214 -0.3901
  696TMC3     H10348   0.986   4.532  13.724  1.3656  0.3230  0.7097
  696TMC3    H110349   0.885   0.165  13.545 -0.8873 -1.4633 -1.2646
  696TMC3    H210350   0.629   0.012  13.852  0.6771 -0.5102  0.9203
  696TMC3    C710351   0.696   0.228  13.719  0.0220  0.9839 -0.4739
  696TMC3    C810352   0.781   4.523  13.895 -0.6807  0.1514 -0.0031
  696TMC3    O110353   0.692   0.291  13.614  0.4455  0.3782  0.4751
  696TMC3    O210354   0.873   4.447  13.926 -0.1184  0.1864 -0.6539
  697MPD2     C10355   0.488   1.253  15.824  0.1257 -0.8678  0.0451
  697MPD2    C110356   0.496   1.232  15.692 -0.3631  0.2151 -0.1277
  697MPD2    C210357   0.520   1.348  15.613  0.0558 -0.3416  0.0740
  697MPD2    C310358   0.550   1.469  15.663  0.2814  0.1790  0.1186
  697MPD2    C410359   0.551   1.487  15.803  0.3505 -0.0511 -0.3633
  697MPD2    C510360   0.508   1.378  15.881  0.4966 -0.1262 -0.2896
  697MPD2     H10361   0.530   1.343  15.505 -0.2376  1.9781 -0.0644
  697MPD2    H110362   0.553   1.583  15.853  2.6053 -0.1487 -0.2671
  697MPD2    H210363   0.458   1.167  15.884 -2.5214 -1.2595 -1.8339
  697MPD2    H310364   0.491   1.386  15.988  2.1525 -1.4451  0.0671
  697MPD2     N10365   0.579   1.576  15.572 -0.8742 -0.3420  0.0761
  697MPD2    H510366   0.553   1.553  15.477 -1.0359  0.3096 -0.0351
  697MPD2    N110367   0.476   1.106  15.637  0.0911 -0.5153  0.6105
  697MPD2    H710368   0.456   1.110  15.537 -0.0764 -0.9971  0.6230
  698TMC3    C110369   0.650   1.774  15.498  0.2088  0.2999  0.5528
  698TMC3    C210370   0.757   1.857  15.507  0.1088 -0.5892  0.2085
  698TMC3    C310371   0.821   1.914  15.394 -0.6089 -0.2145  0.1089
  698TMC3    C410372   0.609   1.742  15.375 -0.4256  0.4261 -0.3233
  698TMC3    C510373   0.671   1.788  15.266  0.4192 -0.3528 -0.1088
  698TMC3    C610374   0.777   1.879  15.270  0.3780 -0.1027 -0.6768
  698TMC3     C10375   0.628   1.692  15.611 -0.2485 -0.4098  0.3234
  698TMC3     O10376   0.685   1.719  15.712  0.0042 -0.0699 -0.7860
  698TMC3     H10377   0.795   1.879  15.606  1.3819 -3.8123  0.4180
  698TMC3    H110378   0.524   1.676  15.364  1.0971 -1.1661 -2.4016
  698TMC3    H210379   0.835   1.904  15.182  2.0448  0.2610  0.5329
  698TMC3    C710380   0.634   1.724  15.144 -0.2341  0.6975 -0.4133
  698TMC3    C810381   0.962   1.946  15.422  0.7575  0.3916  0.0318
  698TMC3    O110382   0.550   1.635  15.147 -0.0050 -0.2506 -0.4874
  698TMC3    O210383   0.994   1.939  15.542 -0.1039 -0.4362  0.1975
  699TMC3    C110384   0.466   0.257  13.235  0.4815  0.0970 -0.5104
  699TMC3    C210385   0.497   0.128  13.279 -0.1563  0.0050  0.4719
  699TMC3    C310386   0.463   0.099  13.408  0.0135 -0.1353 -0.7094
  699TMC3    C410387   0.401   0.347  13.307  0.4030  0.0178 -0.9893
  699TMC3    C510388   0.363   0.308  13.434  0.5440 -0.2162  0.1533
  699TMC3    C610389   0.396   0.182  13.483  0.5682 -0.1945  0.8932
  699TMC3     C10390   0.501   0.301  13.103 -0.3668 -0.1948 -1.2391
  699TMC3     O10391   0.421   0.377  13.053  0.3090  0.2741 -0.2758
  699TMC3     H10392   0.544   0.058  13.212 -2.3906 -1.5284  0.5131
  699TMC3    H110393   0.379   0.446  13.268 -2.4785 -0.5940 -0.9088
  699TMC3    H210394   0.383   0.159  13.588  2.3827  0.7051  1.3189
  699TMC3    C710395   0.264   0.389  13.491 -0.6346 -0.0623 -0.0187
  699TMC3    C810396   0.489   4.704  13.465 -0.4002 -0.1093 -0.6618
  699TMC3    O110397   0.268   0.512  13.479 -0.1992 -0.0667  0.0951
  699TMC3    O210398   0.404   4.652  13.538 -0.6554  0.0047 -0.0894
  700TMC3    C110399   0.230   1.991   0.021  0.3443  0.0521  0.2460
  700TMC3    C210400   0.294   1.876  17.714 -0.5246  0.1496 -0.3637
  700TMC3    C310401   0.431   1.871  17.705 -0.3623  0.3009  0.3700
  700TMC3    C410402   0.307   2.093   0.067 -0.5348  0.5966  0.7825
  700TMC3    C510403   0.449   2.089   0.058  0.7377  0.3882 -0.3429
  700TMC3    C610404   0.506   1.977   0.014 -0.0936  0.0319  0.5539
  700TMC3     C10405   0.101   2.028  17.700  0.5896  0.3223 -0.7590
  700TMC3     O10406   0.031   1.936  17.665 -0.0767 -0.2305  0.4756
  700TMC3     H10407   0.229   1.790  17.700 -2.1577  1.5526 -1.3522
  700TMC3    H110408   0.258   2.180   0.109 -2.6547 -0.3342  0.2180
  700TMC3    H210409   0.614   1.968   0.009 -0.0065  0.7232  1.1863
  700TMC3    C710410   0.529   2.214   0.076  0.1222 -0.3659 -0.0628
  700TMC3    C810411   0.498   1.760  17.642  0.5029 -0.0428 -0.3440
  700TMC3    O110412   0.653   2.208   0.072  0.0820 -0.0111 -0.2956
  700TMC3    O210413   0.571   1.777  17.543  0.8490  0.0528 -0.4463
  701TMC3    C110414   4.381   0.639  15.417 -0.2141 -0.1128 -0.1914
  701TMC3    C210415   4.363   0.703  15.296 -0.0135 -0.3468  0.3126
  701TMC3    C310416   4.417   0.828  15.282 -0.5254 -0.1480  0.0658
  701TMC3    C410417   4.469   0.679  15.511 -0.4722  0.5644 -0.0269
  701TMC3    C510418   4.541   0.789  15.482  0.1970  0.5637  0.2177
  701TMC3    C610419   4.509   0.871  15.376 -0.5715 -0.9886 -0.8778
  701TMC3     C10420   4.295   0.520  15.444 -0.0746  0.4205  0.3159
  701TMC3     O10421   4.237   0.460  15.351  0.1928  0.1712 -0.1505
  701TMC3     H10422   4.286   0.662  15.231 -0.7782 -0.4614  1.2812
  701TMC3    H110423   4.475   0.628  15.606 -3.6930 -0.2402 -0.2457
  701TMC3    H210424   4.573   0.948  15.334  0.1824  0.4913  3.0050
  701TMC3    C710425   4.624   0.847  15.580 -0.1633 -1.0073 -0.1261
  701TMC3    C810426   4.408   0.902  15.155 -0.2739  0.3163  0.3526
  701TMC3    O110427   4.617   0.971  15.574  0.5727  0.0260 -0.0836
  701TMC3    O210428   4.483   0.998  15.141 -0.2208  0.5395  0.7624
  702MPD2     C10429   3.629   2.592  10.748 -0.1715 -0.8286  0.2611
  702MPD2    C110430   3.573   2.681  10.843 -0.4851  0.3065 -0.3283
  702MPD2    C210431   3.547   2.808  10.802  0.1417  0.6625 -0.4856
  702MPD2    C310432   3.561   2.842  10.661  0.3426 -0.9376 -0.5301
  702MPD2    C410433   3.609   2.744  10.571 -0.0500  0.1204  0.1671
  702MPD2    C510434   3.655   2.625  10.616  0.6852  1.1162 -0.4835
  702MPD2     H10435   3.493   2.873  10.869 -0.5431 -1.5531  1.0955
  702MPD2    H110436   3.608   2.756  10.464 -0.9720 -1.3827  0.0095
  702MPD2    H210437   3.669   2.495  10.779 -0.4286 -0.9755  0.1337
  702MPD2    H310438   3.709   2.553  10.556  0.2616  0.1535  0.2964
  702MPD2     N10439   3.515   2.970  10.617  0.3011 -0.2638 -0.1263
  702MPD2    H510440   3.465   3.033  10.678 -1.1493 -1.7156  0.1716
  702MPD2    N110441   3.560   2.634  10.971  0.1832 -0.3472 -0.1035
  702MPD2    H710442   3.570   2.534  10.990  0.4952  0.0469  1.7873
  703TMC3    C110443   3.485   3.155  10.476  0.0868 -0.1468 -0.0716
  703TMC3    C210444   3.356   3.185  10.524  0.0990 -0.2196  0.5271
  703TMC3    C310445   3.299   3.299  10.467  0.9664 -0.4171  0.0448
  703TMC3    C410446   3.554   3.237  10.393  0.5673 -0.2857  0.4864
  703TMC3    C510447   3.492   3.345  10.350 -0.0920  0.8653  0.8634
  703TMC3    C610448   3.361   3.371  10.374  0.1079 -0.3457 -0.6562
  703TMC3     C10449   3.544   3.020  10.496 -0.3821 -0.1671  0.7183
  703TMC3     O10450   3.632   2.981  10.415  0.1337  0.0315  0.2503
  703TMC3     H10451   3.296   3.120  10.588  1.5220  0.8724  2.9825
  703TMC3    H110452   3.657   3.214  10.366  1.1371  0.6479  1.8621
  703TMC3    H210453   3.297   3.439  10.320 -0.4490 -0.2533  0.1161
  703TMC3    C710454   3.574   3.447  10.283 -0.1194 -0.3172  0.0483
  703TMC3    C810455   3.154   3.308  10.476  0.0186 -0.0750  0.2498
  703TMC3    O110456   3.689   3.411  10.260  0.3586 -0.2490 -0.2106
  703TMC3    O210457   3.083   3.316  10.374 -0.1454 -0.4822 -0.3459
  704TMC3    C110458   1.549   1.699  12.330 -0.1105 -0.2662 -0.1182
  704TMC3    C210459   1.576   1.697  12.200 -0.0229 -0.5343 -0.4316
  704TMC3    C310460   1.693   1.641  12.164  0.1470 -0.0399  0.2120
  704TMC3    C410461   1.639   1.658  12.422  0.0879  0.1792  0.0317
  704TMC3    C510462   1.764   1.619  12.387 -0.7662  0.2813 -0.1300
  704TMC3    C610463   1.795   1.608  12.253  0.6968  0.4802 -0.4652
  704TMC3     C10464   1.407   1.729  12.365 -0.3241  0.0456  0.2979
  704TMC3     O10465   1.370   1.695  12.476  0.1355 -0.3577 -0.2120
  704TMC3     H10466   1.506   1.731  12.125 -0.1106  2.0082  0.7743
  704TMC3    H110467   1.620   1.667  12.529  0.3540  2.5573 -0.1221
  704TMC3    H210468   1.892   1.565  12.231  0.0981 -0.5273 -1.1932
  704TMC3    C710469   1.814   1.505  12.466 -0.4077 -0.1762  0.0366
  704TMC3    C810470   1.705   1.612  12.025  0.5352 -0.4176 -0.8236
  704TMC3    O110471   1.877   1.419  12.408  0.0795  0.2529  0.4587
  704TMC3    O210472   1.607   1.637  11.961  0.2618 -0.0897  0.0820
  705MPD2     C10473   1.510   3.945  16.917 -0.1833 -0.4660 -0.0906
  705MPD2    C110474   1.421   4.029  16.845  0.3103 -0.6266 -0.9176
  705MPD2    C210475   1.317   4.093  16.910  0.6401 -0.0717  0.1368
  705MPD2    C310476   1.282   4.054  17.043 -0.5415 -0.6077  0.1407
  705MPD2    C410477   1.379   3.985  17.110  0.5255  0.0075  0.6291
  705MPD2    C510478   1.487   3.922  17.045  0.4019  0.0864  0.0758
  705MPD2     H10479   1.260   4.171  16.860  1.4458 -0.4043 -1.2791
  705MPD2    H110480   1.354   3.950  17.209 -1.4991 -0.7001 -0.1112
  705MPD2    H210481   1.596   3.896  16.872 -1.1200 -1.6257 -0.5993
  705MPD2    H310482   1.530   3.835  17.093  0.8197  0.8423  1.0730
  705MPD2     N10483   1.163   4.095  17.102  1.4132  0.3103 -0.5463
  705MPD2    H510484   1.148   4.083  17.201 -0.5145 -2.2248 -1.1507
  705MPD2    N110485   1.446   4.068  16.715  0.2936 -0.3562  0.2462
  705MPD2    H710486   1.388   4.142  16.678 -0.5608  0.1291  2.5618
  706TMC3    C110487   1.626   4.054  16.268  0.1346 -0.0633 -0.1665
  706TMC3    C210488   1.514   4.123  16.217 -0.1087 -0.5215  0.0391
  706TMC3    C310489   1.415   4.141  16.305 -0.2005  0.0903  0.4594
  706TMC3    C410490   1.630   4.025  16.400  0.2096 -0.6081  0.7178
  706TMC3    C510491   1.530   4.063  16.487 -0.4309 -0.4185  0.5071
  706TMC3    C610492   1.415   4.119  16.443 -0.4056  0.3261 -0.5467
  706TMC3     C10493   1.750   4.047  16.197 -0.2855  0.7446 -0.5166
  706TMC3     O10494   1.847   4.054  16.273  0.8120 -0.0349  0.1227
  706TMC3     H10495   1.509   4.149  16.112  1.8325  0.1131  0.1110
  706TMC3    H110496   1.712   3.969  16.444 -0.3980 -0.9550  1.4125
  706TMC3    H210497   1.323   4.142  16.495 -1.2228  1.1278 -2.3121
  706TMC3    C710498   1.532   4.006  16.624  0.3120 -0.5145  0.3080
  706TMC3    C810499   1.320   4.248  16.260 -0.1536 -0.3850  0.5901
  706TMC3    O110500   1.592   3.901  16.631  0.2919 -0.1055 -0.5285
  706TMC3    O210501   1.290   4.247  16.140  0.8081  0.0982 -0.0272
  707TMC3    C110502   3.577   3.455   1.534  0.1162  0.6478  0.1323
  707TMC3    C210503   3.604   3.352   1.623 -0.3211  1.0618  0.0895
  707TMC3    C310504   3.540   3.348   1.743  0.5397  0.3667  0.2730
  707TMC3    C410505   3.476   3.545   1.567  0.1008 -0.8579  0.4202
  707TMC3    C510506   3.421   3.538   1.690 -0.8202  0.2143 -0.5511
  707TMC3    C610507   3.448   3.436   1.779  0.1173 -0.8196  0.5705
  707TMC3     C10508   3.637   3.441   1.404 -0.5473  0.8637  0.4867
  707TMC3     O10509   3.724   3.356   1.385  0.0025  0.1607  0.9269
  707TMC3     H10510   3.693   3.292   1.607 -1.3302 -0.1556 -0.9380
  707TMC3    H110511   3.458   3.637   1.512  1.0607 -0.7406  0.2972
  707TMC3    H210512   3.415   3.425   1.881 -1.2308 -2.9131 -0.0992
  707TMC3    C710513   3.284   3.587   1.688 -0.3512  0.1209  0.3378
  707TMC3    C810514   3.600   3.250   1.841 -0.9716  0.3893 -0.7023
  707TMC3    O110515   3.268   3.694   1.630 -0.0431  0.2454 -0.0193
  707TMC3    O210516   3.603   3.282   1.960 -0.0569  0.4440  0.4892
  708MPD2     C10517   4.232   1.868  14.102  0.3263 -0.3695 -0.4833
  708MPD2    C110518   4.166   1.983  14.064  0.0723 -0.3151 -0.8364
  708MPD2    C210519   4.116   2.064  14.167 -0.0253  0.3915 -0.0242
  708MPD2    C310520   4.162   2.030  14.297  0.1552 -0.1096 -0.3847
  708MPD2    C410521   4.239   1.918  14.324  0.3980  0.6709  0.3490
  708MPD2    C510522   4.266   1.831  14.227 -0.0164 -1.1478 -0.1775
  708MPD2     H10523   4.071   2.160  14.147  0.0017  0.8443  2.0155
  708MPD2    H110524   4.258   1.895  14.428  0.5886 -0.6948  0.0062
  708MPD2    H210525   4.275   1.796  14.032  0.8028 -0.4798 -0.0763
  708MPD2    H310526   4.317   1.738  14.249 -0.2081 -1.5939 -1.6428
  708MPD2     N10527   4.113   2.118  14.394 -0.7575 -0.0093  0.7155
  708MPD2    H510528   4.057   2.194  14.358 -0.8778 -0.8725 -0.9231
  708MPD2    N110529   4.157   2.012  13.924  0.0502 -0.1353 -0.0477
  708MPD2    H710530   4.199   1.943  13.862  0.7528 -0.9429  1.3395
  709TMC3    C110531   4.119   2.158  13.727  0.2085  0.3219 -0.2762
  709TMC3    C210532   4.246   2.140  13.671  0.0354 -0.0786 -0.1687
  709TMC3    C310533   4.288   2.250  13.595  0.4854  0.3150 -0.0045
  709TMC3    C410534   4.043   2.268  13.700 -0.8981 -0.4766 -0.1567
  709TMC3    C510535   4.097   2.374  13.635 -0.6397 -0.0829  0.0822
  709TMC3    C610536   4.217   2.366  13.577  0.0024 -0.0190  0.5532
  709TMC3     C10537   4.098   2.122  13.866  0.0880 -0.2355  0.2801
  709TMC3     O10538   4.026   2.200  13.920  0.0779  0.4406  0.5638
  709TMC3     H10539   4.301   2.047  13.681 -0.3067 -0.4127 -1.4200
  709TMC3    H110540   3.936   2.264  13.718 -0.6127 -1.2058  1.3405
  709TMC3    H210541   4.250   2.456  13.526 -2.1425 -0.6469 -1.9219
  709TMC3    C710542   4.078   2.495  13.708  0.1390  0.4576  0.0254
  709TMC3    C810543   4.376   2.208  13.489 -0.0008  0.0330 -0.2590
  709TMC3    O110544   4.096   2.603  13.654  0.4312 -0.1219  0.5765
  709TMC3    O210545   4.411   2.093  13.489  0.3901  0.6740 -0.2020
  710TMC3    C110546   0.498   4.025   0.649 -0.6695 -0.3019 -0.4697
  710TMC3    C210547   0.596   3.978   0.565 -0.6163 -0.0479 -0.3628
  710TMC3    C310548   0.649   3.854   0.595  0.6059 -0.7562  0.6546
  710TMC3    C410549   0.453   3.959   0.761 -0.4410 -0.2239  0.5775
  710TMC3    C510550   0.506   3.833   0.784 -0.1899  0.1334 -0.4123
  710TMC3    C610551   0.604   3.775   0.703 -0.2762 -0.0486 -0.3965
  710TMC3     C10552   0.398   4.119   0.590  0.2179 -0.4522  0.1000
  710TMC3     O10553   0.404   4.138   0.473  0.7056  0.9289 -0.2177
  710TMC3     H10554   0.624   4.028   0.473  0.8776 -0.8872 -0.3676
  710TMC3    H110555   0.377   4.003   0.823  0.4251  0.9946  0.7792
  710TMC3    H210556   0.636   3.672   0.715 -1.2914 -0.3876 -0.5178
  710TMC3    C710557   0.463   3.748   0.886 -0.7895 -0.3167 -0.3655
  710TMC3    C810558   0.776   3.833   0.531 -0.4760  0.3724  0.2774
  710TMC3    O110559   0.544   3.659   0.909 -0.1099  0.0961 -0.7268
  710TMC3    O210560   0.813   3.915   0.448  0.9144 -0.0791  0.0145
  711TMC3    C110561   0.266   4.598  14.900  0.0559  0.6466  0.0922
  711TMC3    C210562   0.300   4.726  14.938  0.3268 -0.1399 -0.3800
  711TMC3    C310563   0.412   0.005  15.016 -0.0867 -0.0226  0.3838
  711TMC3    C410564   0.342   4.485  14.926 -0.3698  0.0519  0.0932
  711TMC3    C510565   0.451   4.503  15.003 -0.6956 -0.6016 -0.3481
  711TMC3    C610566   0.481   4.628  15.051 -0.2299  1.1407 -0.5727
  711TMC3     C10567   0.173   4.584  14.795  0.5897 -0.4929 -0.3488
  711TMC3     O10568   0.121   4.477  14.789 -0.3279  0.0258  0.0164
  711TMC3     H10569   0.224   0.067  14.934  1.7824  1.2442 -1.2556
  711TMC3    H110570   0.312   4.383  14.908  0.8519 -0.5981  1.7453
  711TMC3    H210571   0.575   4.643  15.105  0.0714 -0.4617 -0.6613
  711TMC3    C710572   0.542   4.396  15.047 -0.0526 -0.1085  1.4786
  711TMC3    C810573   0.438   0.132  15.074 -0.9933  0.2922  0.0170
  711TMC3    O110574   0.620   4.424  15.134  0.5401 -1.1644 -0.4565
  711TMC3    O210575   0.391   0.228  15.020  0.1701  0.4040  0.4066
  712MPD2     C10576   1.984   1.301  13.727 -0.1983 -0.1101 -0.0919
  712MPD2    C110577   1.906   1.368  13.639  0.4551 -0.6645  0.3329
  712MPD2    C210578   1.886   1.507  13.645  0.0943 -0.4516 -0.5730
  712MPD2    C310579   1.978   1.582  13.717  0.4492  0.0068 -0.4531
  712MPD2    C410580   2.069   1.518  13.795 -0.6263  0.5937  0.0505
  712MPD2    C510581   2.074   1.379  13.796 -0.4119  0.1345  0.2260
  712MPD2     H10582   1.818   1.556  13.576  1.9126  0.1151 -1.9697
  712MPD2    H110583   2.141   1.587  13.838  0.2499  0.0863 -0.6023
  712MPD2    H210584   1.991   1.194  13.739  1.2820 -0.4066 -3.7978
  712MPD2    H310585   2.143   1.328  13.863 -1.7164 -1.3959  0.3949
  712MPD2     N10586   1.987   1.721  13.701 -0.1347 -0.1231  0.1155
  712MPD2    H510587   2.072   1.764  13.737  1.0820 -2.3218 -0.0728
  712MPD2    N110588   1.815   1.300  13.552  0.6141 -0.6598 -0.3743
  712MPD2    H710589   1.744   1.354  13.504 -0.2336 -1.3879  0.0623
  713TMC3    C110590   1.945   1.932  13.618 -0.2288  0.5485  0.2112
  713TMC3    C210591   2.074   1.946  13.574 -0.2718  0.1058 -0.3654
  713TMC3    C310592   2.121   2.073  13.556  0.2687  0.3394  0.0091
  713TMC3    C410593   1.867   2.038  13.637 -0.8149  0.8469 -0.3422
  713TMC3    C510594   1.926   2.160  13.631  0.3571 -0.2902  0.2169
  713TMC3    C610595   2.053   2.184  13.585 -0.5896 -0.4450  0.2858
  713TMC3     C10596   1.890   1.802  13.643 -0.2582  0.8508 -0.1665
  713TMC3     O10597   1.769   1.778  13.613 -0.2791 -0.0266 -0.2635
  713TMC3     H10598   2.126   1.856  13.545 -0.8981 -0.8914  1.5573
  713TMC3    H110599   1.765   2.020  13.668 -0.1252 -0.2912  1.3071
  713TMC3    H210600   2.094   2.284  13.582 -0.8275 -0.4666 -3.0774
  713TMC3    C710601   1.869   2.274  13.706 -0.0796 -0.0196 -0.2579
  713TMC3    C810602   2.260   2.096  13.531  0.6977  0.5475  0.4537
  713TMC3    O110603   1.942   2.365  13.726  0.5460 -0.4263  0.1283
  713TMC3    O210604   2.297   2.179  13.450  0.3634 -0.3330  0.5711
  714MPD2     C10605   3.682   0.686   1.529  0.8354 -0.3750 -0.5910
  714MPD2    C110606   3.725   0.558   1.513 -0.4574  0.0897 -0.6340
  714MPD2    C210607   3.641   0.469   1.446 -0.4265  0.9085  0.0474
  714MPD2    C310608   3.514   0.512   1.418 -0.3808 -0.4863  0.1848
  714MPD2    C410609   3.479   0.645   1.427  0.2241  0.3048 -0.3136
  714MPD2    C510610   3.568   0.735   1.479  0.0981 -0.3788  0.9354
  714MPD2     H10611   3.670   0.369   1.417  0.4095  1.8075 -2.1826
  714MPD2    H110612   3.384   0.684   1.393 -0.3522  0.9753  2.1119
  714MPD2    H210613   3.741   0.755   1.588 -1.9145  1.6499 -0.2535
  714MPD2    H310614   3.545   0.841   1.483  0.9860 -0.2410  2.4031
  714MPD2     N10615   3.422   0.421   1.358  0.2087  0.0556 -0.1769
  714MPD2    H510616   3.463   0.329   1.341  3.1664  0.9433  2.1675
  714MPD2    N110617   3.853   0.530   1.558 -0.0616 -0.3939  0.8891
  714MPD2    H710618   3.917   0.607   1.576  1.3719 -1.8733  2.1121
  715TMC3    C110619   4.050   0.419   1.614 -0.5210 -0.4419  0.3510
  715TMC3    C210620   4.122   0.302   1.630  0.9779 -0.0836 -0.6496
  715TMC3    C310621   4.258   0.302   1.638 -0.3560  0.1941  0.2782
  715TMC3    C410622   4.113   0.536   1.610  0.5828  0.3995  0.3397
  715TMC3    C510623   4.254   0.534   1.618  0.4912 -0.0369  0.3409
  715TMC3    C610624   4.331   0.417   1.625 -0.0488  0.3737 -0.5031
  715TMC3     C10625   3.914   0.405   1.574  0.2408 -0.0451 -0.7700
  715TMC3     O10626   3.872   0.291   1.550 -0.4682 -0.1115 -0.9133
  715TMC3     H10627   4.067   0.209   1.637  0.9698  0.0512  1.1083
  715TMC3    H110628   4.069   0.629   1.574  2.0896  0.2813 -1.7877
  715TMC3    H210629   4.440   0.411   1.624 -0.0277  0.3991  0.9328
  715TMC3    C710630   4.330   0.662   1.618 -0.3284 -0.1874 -0.2017
  715TMC3    C810631   4.310   0.174   1.605 -0.0035 -0.7634 -0.8242
  715TMC3    O110632   4.451   0.655   1.610  0.0281  0.4135  0.4320
  715TMC3    O210633   4.233   0.093   1.560  0.7381 -0.6633 -0.0232
  716MPD2     C10634   3.113   3.324   9.817  0.4464 -0.0062 -0.0069
  716MPD2    C110635   3.074   3.403   9.713 -0.4252  0.4136  0.8949
  716MPD2    C210636   3.072   3.339   9.590  0.7017 -0.3305  0.1169
  716MPD2    C310637   3.101   3.199   9.572  1.1247 -0.5260 -0.6214
  716MPD2    C410638   3.144   3.129   9.679 -0.7105 -0.2478  0.6610
  716MPD2    C510639   3.142   3.191   9.795  0.3795 -0.2214 -0.4957
  716MPD2     H10640   3.057   3.409   9.508  2.2096 -0.2683 -0.1067
  716MPD2    H110641   3.170   3.024   9.680 -0.3394 -0.1320  2.6676
  716MPD2    H210642   3.127   3.360   9.918 -0.3474  3.1714 -1.0459
  716MPD2    H310643   3.163   3.126   9.880  2.4698 -0.2155 -0.9922
  716MPD2     N10644   3.104   3.136   9.441  0.3023 -0.1315  0.3296
  716MPD2    H510645   3.129   3.038   9.435  0.7453  0.0520 -0.8461
  716MPD2    N110646   3.044   3.538   9.739  0.2128  0.5020  0.1231
  716MPD2    H710647   3.042   3.562   9.838 -1.2968 -0.1770  0.2531
  717TMC3    C110648   3.064   3.105   9.216  0.1459 -0.0776  1.0262
  717TMC3    C210649   2.954   3.119   9.124 -0.4363 -0.3509 -0.0489
  717TMC3    C310650   2.923   3.004   9.046 -0.7106 -0.6317  0.5744
  717TMC3    C410651   3.142   3.001   9.221  0.2576  0.1091  0.1661
  717TMC3    C510652   3.099   2.892   9.151 -0.1221  0.2453  0.8595
  717TMC3    C610653   2.991   2.891   9.070  0.1919  0.1843 -0.0795
  717TMC3     C10654   3.065   3.198   9.326 -0.5180  0.6144  0.4394
  717TMC3     O10655   3.022   3.314   9.310  0.1524  0.2088  0.3471
  717TMC3     H10656   2.883   3.199   9.136  1.1079  0.9502  0.3944
  717TMC3    H110657   3.230   2.997   9.285  1.8375  1.2205 -1.9187
  717TMC3    H210658   2.964   2.801   9.016 -0.1825 -0.5737  1.3961
  717TMC3    C710659   3.166   2.768   9.183  0.3771 -0.3716  0.5596
  717TMC3    C810660   2.784   2.984   9.015  0.2356 -0.0350 -0.0449
  717TMC3    O110661   3.213   2.766   9.294 -0.0087 -0.4019  0.3629
  717TMC3    O210662   2.740   2.871   9.006  0.2977 -0.1113 -0.1781
  718MPD2     C10663   3.259   1.301  13.634  0.5800 -0.2237  0.6175
  718MPD2    C110664   3.270   1.337  13.503 -0.2166  0.4973 -0.2937
  718MPD2    C210665   3.154   1.371  13.432  0.6767  0.2230 -0.3483
  718MPD2    C310666   3.035   1.347  13.493  0.6820 -0.0895 -0.2899
  718MPD2    C410667   3.020   1.312  13.629 -0.2002 -1.0330  0.2682
  718MPD2    C510668   3.138   1.293  13.696 -0.1731  0.3817  0.4572
  718MPD2     H10669   3.145   1.391  13.326  1.7836 -1.0803 -0.6770
  718MPD2    H110670   2.929   1.264  13.664 -0.8409  1.0021  1.3518
  718MPD2    H210671   3.350   1.270  13.682  1.7052  1.1416 -0.6335
  718MPD2    H310672   3.130   1.262  13.800 -1.5190 -2.3617 -0.4780
  718MPD2     N10673   2.929   1.343  13.397 -0.2795 -0.2498  0.3851
  718MPD2    H510674   2.950   1.378  13.304  0.1522 -0.6529  0.3327
  718MPD2    N110675   3.397   1.336  13.433  0.5389  0.3560  0.1675
  718MPD2    H710676   3.477   1.304  13.487  0.3783  0.4458  0.4550
  719TMC3    C110677   3.568   1.363  13.268 -0.0093  0.1590 -0.1767
  719TMC3    C210678   3.576   1.230  13.242 -1.1328 -0.6160  0.0799
  719TMC3    C310679   3.581   1.200  13.110 -0.0929  0.4063  0.4931
  719TMC3    C410680   3.612   1.460  13.182 -1.1106  0.4513 -0.2369
  719TMC3    C510681   3.647   1.420  13.055  0.3646 -0.0289 -0.7286
  719TMC3    C610682   3.639   1.289  13.025  0.7018  0.7660 -0.3915
  719TMC3     C10683   3.438   1.403  13.319  0.3966 -0.0289  0.1939
  719TMC3     O10684   3.369   1.476  13.246 -0.4325  0.2959  0.3053
  719TMC3     H10685   3.520   1.162  13.306  0.0554  0.7897  2.5941
  719TMC3    H110686   3.597   1.564  13.210  0.0474  0.5045  0.2107
  719TMC3    H210687   3.641   1.271  12.918 -1.6172 -2.0382  0.0152
  719TMC3    C710688   3.610   1.518  12.957 -0.4085  0.0301  0.7905
  719TMC3    C810689   3.440   1.172  13.067 -0.1365 -0.1471  0.0439
  719TMC3    O110690   3.666   1.518  12.850 -0.1646 -0.0667 -0.7042
  719TMC3    O210691   3.371   1.110  13.147  0.4936  0.2906 -0.2934
  720MPD2     C10692   1.829   3.023  14.077 -0.5757  0.6411 -0.0808
  720MPD2    C110693   1.863   3.150  14.111 -0.1235 -0.1723 -0.1526
  720MPD2    C210694   1.980   3.177  14.176 -0.2735  0.6125 -0.4118
  720MPD2    C310695   2.068   3.073  14.204  0.0690  0.2785  0.2877
  720MPD2    C410696   2.030   2.941  14.169  0.3799  0.4307 -0.2856
  720MPD2    C510697   1.911   2.920  14.108 -0.1286  0.0055  0.3169
  720MPD2     H10698   2.016   3.277  14.199 -1.3843  0.6787  1.0153
  720MPD2    H110699   2.087   2.853  14.195  0.9952  1.1918  0.9091
  720MPD2    H210700   1.747   2.999  14.011 -0.1910  0.4802 -0.5013
  720MPD2    H310701   1.881   2.820  14.077  2.5805 -0.3062 -1.2575
  720MPD2     N10702   2.195   3.088  14.256  0.0922 -0.3495 -0.3905
  720MPD2    H510703   2.256   3.008  14.240 -1.2468 -1.3069 -0.7153
  720MPD2    N110704   1.785   3.266  14.074 -0.6040 -0.1770 -0.0810
  720MPD2    H710705   1.830   3.357  14.076 -1.5930  0.2675  1.7003
  721TMC3    C110706   2.372   3.176  14.377 -0.7028  0.3347  0.0753
  721TMC3    C210707   2.391   3.208  14.507  0.0206  0.6432  0.2899
  721TMC3    C310708   2.517   3.237  14.557  0.9507  0.6428 -0.8757
  721TMC3    C410709   2.473   3.185  14.286 -0.5740  0.5981  0.5947
  721TMC3    C510710   2.590   3.240  14.331 -0.1247 -0.7520  1.1045
  721TMC3    C610711   2.616   3.258  14.468 -0.5924  0.5540  0.2848
  721TMC3     C10712   2.233   3.191  14.335  0.1103 -0.5216 -0.4604
  721TMC3     O10713   2.153   3.262  14.393  0.2439 -0.3086  0.4044
  721TMC3     H10714   2.307   3.201  14.575  1.0802 -0.2352  1.5084
  721TMC3    H110715   2.445   3.181  14.181 -1.8965 -2.4339  1.0703
  721TMC3    H210716   2.713   3.285  14.508 -0.2731  0.5773 -0.5210
  721TMC3    C710717   2.707   3.269  14.242  0.0387  0.0859 -0.3932
  721TMC3    C810718   2.530   3.314  14.678  0.4661 -0.5697  0.0569
  721TMC3    O110719   2.811   3.278  14.303 -0.5685 -0.0453  0.9637
  721TMC3    O210720   2.618   3.398  14.677 -0.2418  0.0190  0.1575
  722MPD2     C10721   0.683   2.131  13.525  0.2750 -0.6606  0.3267
  722MPD2    C110722   0.701   2.229  13.426 -0.3267 -0.1729  0.4407
  722MPD2    C210723   0.617   2.224  13.319 -0.4541  0.0161  0.4784
  722MPD2    C310724   0.514   2.132  13.312 -0.2182 -0.5907  0.0887
  722MPD2    C410725   0.492   2.039  13.421  0.7342 -0.4183 -0.0187
  722MPD2    C510726   0.577   2.042  13.524  0.5110 -0.1911  0.4375
  722MPD2     H10727   0.617   2.299  13.241 -0.2716 -0.9581 -0.4651
  722MPD2    H110728   0.412   1.966  13.421 -0.3737  0.7701  0.8559
  722MPD2    H210729   0.742   2.125  13.616  1.6946 -0.8099 -0.6092
  722MPD2    H310730   0.558   1.969  13.602 -0.5748  0.5819  0.8948
  722MPD2     N10731   0.425   2.129  13.201  0.2369 -0.3324 -0.4116
  722MPD2    H510732   0.449   2.197  13.129  0.1317 -1.5730 -1.6073
  722MPD2    N110733   0.797   2.327  13.434  0.0266  0.1454 -0.4923
  722MPD2    H710734   0.792   2.388  13.354 -0.4368 -1.0768 -1.3938
  723TMC3    C110735   0.274   2.079  13.047  0.0948  0.7980 -0.2461
  723TMC3    C210736   0.191   1.986  12.982  0.7026  0.3766 -0.5393
  723TMC3    C310737   0.121   2.032  12.879  0.1212 -0.1400  0.3587
  723TMC3    C410738   0.289   2.213  13.004  0.5579 -0.6945 -0.1212
  723TMC3    C510739   0.207   2.246  12.898 -0.4761  0.3562  0.4128
  723TMC3    C610740   0.129   2.156  12.830 -0.1302 -0.5184 -0.0841
  723TMC3     C10741   0.323   2.045  13.172 -0.1398 -0.0337 -0.5416
  723TMC3     O10742   0.279   1.949  13.238  0.0981  0.3385 -0.0561
  723TMC3     H10743   0.169   1.887  13.021 -0.2827  0.8779  0.1804
  723TMC3    H110744   0.351   2.289  13.051 -0.7856  1.0057 -1.0996
  723TMC3    H210745   0.081   2.183  12.737 -0.7091  0.7409  0.5716
  723TMC3    C710746   0.202   2.384  12.856 -0.2382  0.9227  0.1301
  723TMC3    C810747   0.024   1.945  12.808  0.2878  0.3524 -0.1194
  723TMC3    O110748   0.164   2.407  12.741  0.3956  0.0928  0.1266
  723TMC3    O210749   4.693   1.997  12.720  0.2389  0.1543 -0.1986
  724TMC3    C110750   4.711   0.560   9.468 -0.3481  0.1818 -0.6132
  724TMC3    C210751   4.610   0.652   9.443  0.7275 -0.6725  0.1282
  724TMC3    C310752   4.639   0.787   9.471 -0.0377 -0.1441  0.3421
  724TMC3    C410753   0.096   0.597   9.496 -0.1230  0.3108  0.3077
  724TMC3    C510754   0.130   0.729   9.524 -0.0837  0.0472 -0.6518
  724TMC3    C610755   0.024   0.824   9.511  0.4884  0.6785  0.3960
  724TMC3     C10756   4.672   0.420   9.470  0.2276  0.6306  0.1105
  724TMC3     O10757   4.551   0.397   9.477  0.1491  0.4940 -0.3327
  724TMC3     H10758   4.527   0.620   9.382  0.9473 -3.0622  1.0950
  724TMC3    H110759   0.172   0.524   9.522 -0.2313  0.7514  1.8223
  724TMC3    H210760   0.027   0.927   9.546  2.1785  0.5120  0.7489
  724TMC3    C710761   0.239   0.758   9.612  0.5914  0.3741 -0.4713
  724TMC3    C810762   4.531   0.881   9.438  0.2889  0.4571 -0.3082
  724TMC3    O110763   0.291   0.666   9.672 -0.3247  0.1123 -0.0878
  724TMC3    O210764   4.416   0.840   9.418 -0.2398  0.4547  0.4111
  725TMC3    C110765   2.602   3.794  12.766 -0.3157  0.2245  0.2191
  725TMC3    C210766   2.510   3.849  12.684 -0.0277  0.3845  0.9903
  725TMC3    C310767   2.397   3.775  12.651  0.7765  0.4776 -0.1554
  725TMC3    C410768   2.587   3.678  12.838 -0.1122 -0.3278  0.0779
  725TMC3    C510769   2.474   3.606  12.804  0.9791  0.2454 -0.1824
  725TMC3    C610770   2.378   3.654  12.717 -0.2172 -0.1070 -0.2312
  725TMC3     C10771   2.684   3.889  12.837 -0.3440  0.8209 -0.0030
  725TMC3     O10772   2.630   4.000  12.842  0.2867 -0.1263  0.2479
  725TMC3     H10773   2.529   3.946  12.639  2.1131 -1.0911 -1.3168
  725TMC3    H110774   2.664   3.632  12.900  0.8061  2.7192  1.2315
  725TMC3    H210775   2.287   3.596  12.705 -1.1086  1.7936 -2.5538
  725TMC3    C710776   2.513   3.467  12.777  0.3089 -0.0123  0.6220
  725TMC3    C810777   2.339   3.765  12.518  0.1969  0.0699  0.3754
  725TMC3    O110778   2.451   3.408  12.688  0.0385 -0.4604  0.2067
  725TMC3    O210779   2.289   3.657  12.489  0.2023 -0.4712  0.3608
  726MPD2     C10780   4.504   0.597  10.464  0.3889 -0.7622 -0.3298
  726MPD2    C110781   4.383   0.589  10.393  0.4534 -0.0779  0.1377
  726MPD2    C210782   4.287   0.489  10.417  0.6215 -0.6514 -0.9178
  726MPD2    C310783   4.316   0.390  10.511  0.5213  0.4990 -0.0661
  726MPD2    C410784   4.440   0.396  10.579  0.2108  0.0896  0.3776
  726MPD2    C510785   4.531   0.498  10.554  0.4694  0.9995  0.4012
  726MPD2     H10786   4.193   0.483  10.364  1.0037 -0.3838 -1.6334
  726MPD2    H110787   4.460   0.320  10.654 -0.1466 -0.1425  0.2358
  726MPD2    H210788   4.573   0.676  10.440 -0.7919  0.9368  1.8747
  726MPD2    H310789   4.630   0.505  10.598  1.5712 -2.1358 -1.6596
  726MPD2     N10790   4.232   0.281  10.554  0.4584 -0.3186 -0.3217
  726MPD2    H510791   4.279   0.226  10.625  0.3482  3.2518  2.5297
  726MPD2    N110792   4.371   0.691  10.295 -0.4327  0.1993 -0.3748
  726MPD2    H710793   4.455   0.741  10.267  1.0686 -0.8981  2.1474
  727TMC3    C110794   4.262   0.852  10.162 -0.4910  0.1739  0.5982
  727TMC3    C210795   4.357   0.942  10.208 -0.0330 -0.4749 -0.2499
  727TMC3    C310796   4.356   1.066  10.144  0.2748  0.2281 -0.2976
  727TMC3    C410797   4.167   0.880  10.068 -0.1222 -0.8233  0.3565
  727TMC3    C510798   4.166   1.001  10.011  0.2905  0.2315  0.0258
  727TMC3    C610799   4.269   1.092  10.044 -0.9899  0.7846  0.2897
  727TMC3     C10800   4.251   0.725  10.229 -0.6932 -0.5861 -0.3544
  727TMC3     O10801   4.146   0.669  10.225  0.6104 -0.0127 -0.1925
  727TMC3     H10802   4.432   0.925  10.285 -0.8233  0.2308  0.6662
  727TMC3    H110803   4.083   0.814  10.045  0.5638 -1.2678 -0.8981
  727TMC3    H210804   4.257   1.193  10.004  1.2892  0.3414 -1.5449
  727TMC3    C710805   4.068   1.035   9.913  0.3304  0.3729  0.5452
  727TMC3    C810806   4.481   1.138  10.152  0.1683 -0.4204 -0.5672
  727TMC3    O110807   3.959   0.980   9.929 -0.6280 -0.3785 -0.6785
  727TMC3    O210808   4.579   1.069  10.165  0.2347 -0.1663 -0.6040
  728TMC3    C110809   4.414   3.673  15.200  0.6095  0.0401  0.0247
  728TMC3    C210810   4.530   3.684  15.121  0.1348  0.2699 -0.3941
  728TMC3    C310811   4.517   3.674  14.983  0.2923  0.1338  0.0582
  728TMC3    C410812   4.290   3.691  15.136 -0.0484 -0.3661 -0.7835
  728TMC3    C510813   4.286   3.680  14.999  0.2714 -0.4196  0.4755
  728TMC3    C610814   4.396   3.658  14.918 -0.4974 -0.0196 -0.5515
  728TMC3     C10815   4.428   3.685  15.345  0.5408 -0.2088 -0.1252
  728TMC3     O10816   4.543   3.672  15.383  0.6546 -0.0314 -0.5649
  728TMC3     H10817   4.620   3.649  15.169  0.0850  1.2166  0.3979
  728TMC3    H110818   4.196   3.692  15.189  0.7283 -2.0034  0.6220
  728TMC3    H210819   4.370   3.665  14.813 -0.2270  1.1280 -0.5403
  728TMC3    C710820   4.155   3.712  14.943 -0.0582  0.7586  0.5086
  728TMC3    C810821   4.638   3.652  14.909 -0.8528 -0.3690 -0.3484
  728TMC3    O110822   4.060   3.664  15.003  0.5926  0.7090  0.5001
  728TMC3    O210823   0.006   3.635  14.977 -0.1095  0.0615  0.3372
  729MPD2     C10824   1.814   4.199  16.588  1.3781  0.2291  0.3872
  729MPD2    C110825   1.756   4.324  16.593 -0.2160  0.1699  0.1818
  729MPD2    C210826   1.700   4.363  16.717 -0.1974  0.1889 -0.4793
  729MPD2    C310827   1.720   4.284  16.831  0.6167  0.7054  0.2679
  729MPD2    C410828   1.776   4.159  16.821 -0.1716 -0.2701 -0.5790
  729MPD2    C510829   1.824   4.117  16.699  0.1869  0.2199  0.0527
  729MPD2     H10830   1.659   4.462  16.727 -1.8979 -0.6351  0.7710
  729MPD2    H110831   1.790   4.090  16.904  0.7277  1.8575  1.0536
  729MPD2    H210832   1.862   4.165  16.498 -0.3676  0.8829 -0.7848
  729MPD2    H310833   1.877   4.023  16.694 -0.1048  0.0548  0.1354
  729MPD2     N10834   1.664   4.320  16.951  0.1288  0.5433 -0.0055
  729MPD2    H510835   1.702   4.270  17.031 -0.4948 -0.9753 -0.6606
  729MPD2    N110836   1.741   4.402  16.477 -0.0826  0.0000 -0.2036
  729MPD2    H710837   1.800   4.382  16.397 -0.7602 -2.4819 -0.0647
  730TMC3    C110838   1.610   4.499  17.096 -0.8412 -0.1792 -0.1504
  730TMC3    C210839   1.741   4.492  17.136 -0.1986 -0.1930  0.3071
  730TMC3    C310840   1.791   4.599  17.201 -0.5432 -0.1947  0.1209
  730TMC3    C410841   1.530   4.606  17.122 -0.3429 -0.4773 -0.3684
  730TMC3    C510842   1.577   4.709  17.198  0.7250  0.0555 -0.3925
  730TMC3    C610843   1.710   4.703  17.241  0.4114  0.3681 -0.0002
  730TMC3     C10844   1.576   4.417  16.974 -0.6081  0.4201 -0.2320
  730TMC3     O10845   1.496   4.471  16.901 -0.2374  0.0680  0.2887
  730TMC3     H10846   1.804   4.406  17.118  2.1769  1.3687  1.1374
  730TMC3    H110847   1.429   4.617  17.086 -0.7987  1.6109  1.5155
  730TMC3    H210848   1.746   0.059  17.287 -2.2503  0.5609  1.6920
  730TMC3    C710849   1.517   0.106  17.170  1.2159  0.0981 -0.3075
  730TMC3    C810850   1.923   4.629  17.147 -0.2285  0.7637 -0.0073
  730TMC3    O110851   1.455   0.120  17.068  0.3369 -0.4318  0.2374
  730TMC3    O210852   1.951   4.569  17.048  0.5915 -0.3272 -0.3079
  731MPD2     C10853   1.548   3.055  12.358  0.2583  0.4291 -0.4356
  731MPD2    C110854   1.682   3.049  12.318 -1.3651  0.5139  0.2722
  731MPD2    C210855   1.776   2.997  12.405 -0.6350 -0.0526 -0.9662
  731MPD2    C310856   1.736   2.955  12.532 -0.6810 -0.1671 -0.1836
  731MPD2    C410857   1.602   2.960  12.573 -0.1632  1.0017  0.2466
  731MPD2    C510858   1.514   3.022  12.486  0.1439 -0.0073  0.4356
  731MPD2     H10859   1.881   2.990  12.380 -0.5569  1.0296 -0.9271
  731MPD2    H110860   1.560   2.920  12.664  3.2402 -1.5101  0.7202
  731MPD2    H210861   1.481   3.119  12.302 -0.9138  0.0741  0.5536
  731MPD2    H310862   1.413   3.043  12.518  0.4058  1.5642  0.2243
  731MPD2     N10863   1.851   2.919  12.609  0.8567  0.1953 -0.9638
  731MPD2    H510864   1.941   2.960  12.583  0.3172  2.5635  0.9497
  731MPD2    N110865   1.715   3.099  12.190 -0.6168 -0.2915 -0.3861
  731MPD2    H710866   1.642   3.140  12.133 -1.3669 -1.0208  0.0445
  732TMC3    C110867   1.850   3.173  12.007  0.3875  0.5645 -0.2828
  732TMC3    C210868   1.740   3.202  11.932  0.1502  0.3523 -0.7498
  732TMC3    C310869   1.759   3.260  11.809  0.2068 -0.5074 -0.8271
  732TMC3    C410870   1.975   3.192  11.958 -0.4545 -0.0667  0.3500
  732TMC3    C510871   1.983   3.237  11.826  0.0108 -0.3206  0.3738
  732TMC3    C610872   1.877   3.273  11.751 -0.3451 -0.3744  0.7870
  732TMC3     C10873   1.839   3.103  12.137  0.0572 -0.1336  0.0325
  732TMC3     O10874   1.940   3.058  12.188 -0.5164 -0.6091 -0.2364
  732TMC3     H10875   1.643   3.192  11.977 -0.7276  0.2254 -2.6691
  732TMC3    H110876   2.063   3.159  12.013 -1.5487 -0.5972  1.7812
  732TMC3    H210877   1.882   3.301  11.646 -1.1518 -0.4017  0.7405
  732TMC3    C710878   2.103   3.209  11.739 -0.9529 -0.2536 -0.4405
  732TMC3    C810879   1.640   3.311  11.739  0.3368  0.1343 -0.1042
  732TMC3    O110880   2.127   3.266  11.637  0.1211  0.6240  0.1235
  732TMC3    O210881   1.650   3.337  11.620  0.2718 -0.0286  0.0498
  733TMC3    C110882   2.563   1.416  13.179  0.3479  0.3845  0.1235
  733TMC3    C210883   2.611   1.387  13.308  0.0017  0.1743  0.1897
  733TMC3    C310884   2.723   1.306  13.306  0.1868 -0.2215 -0.1407
  733TMC3    C410885   2.611   1.354  13.068 -0.8751  0.5496 -0.0184
  733TMC3    C510886   2.721   1.274  13.079 -0.4174 -0.5206  0.5916
  733TMC3    C610887   2.782   1.252  13.198  0.1056 -0.3797 -0.1118
  733TMC3     C10888   2.447   1.494  13.172 -0.0232 -0.1759  0.1296
  733TMC3     O10889   2.447   1.601  13.107  0.1051  0.3065 -0.1883
  733TMC3     H10890   2.579   1.437  13.398  1.3455 -1.5721  1.6371
  733TMC3    H110891   2.563   1.377  12.973  0.7709  0.6443 -0.8125
  733TMC3    H210892   2.875   1.196  13.205  0.5932  0.3991 -0.3059
  733TMC3    C710893   2.792   1.263  12.952 -1.0358 -0.1510 -0.4107
  733TMC3    C810894   2.797   1.311  13.424 -0.3995  0.0961 -0.6880
  733TMC3    O110895   2.742   1.303  12.850 -0.3508  0.5088 -0.3880
  733TMC3    O210896   2.743   1.291  13.536  0.5711 -0.1188  0.2486
  734MPD2     C10897   0.276   3.200  12.303  0.6831  0.1239  0.5588
  734MPD2    C110898   0.140   3.213  12.325  0.4545  0.1107  0.7122
  734MPD2    C210899   0.063   3.285  12.237  0.3940  0.2395  0.0701
  734MPD2    C310900   0.125   3.334  12.128  0.4693  0.6881  0.1317
  734MPD2    C410901   0.259   3.327  12.097  0.3664 -0.5516  0.9098
  734MPD2    C510902   0.333   3.257  12.184 -0.8466 -0.3626 -0.1925
  734MPD2     H10903   4.691   3.296  12.247  0.4771  0.6839  0.5095
  734MPD2    H110904   0.302   3.363  12.004 -0.1843 -1.2084  0.3988
  734MPD2    H210905   0.334   3.151  12.380 -0.5197 -2.3185 -0.0996
  734MPD2    H310906   0.436   3.235  12.156 -0.3384  0.5740  0.9084
  734MPD2     N10907   0.040   3.398  12.042  0.4289  0.1732 -0.6199
  734MPD2    H510908   4.679   3.406  12.075 -0.2612 -0.8044 -2.4066
  734MPD2    N110909   0.084   3.170  12.446 -0.1241  0.5289 -0.8219
  734MPD2    H710910   0.147   3.122  12.510 -1.4427 -0.9401 -0.6079
  735TMC3    C110911   4.658   3.064  12.580 -0.0331 -0.4200 -0.8448
  735TMC3    C210912   4.529   3.071  12.601  0.5356  0.2533 -0.9847
  735TMC3    C310913   4.446   2.957  12.589  0.6149  0.0172  0.1008
  735TMC3    C410914   4.718   2.941  12.546  0.1545 -0.2112  0.3347
  735TMC3    C510915   4.644   2.833  12.543  0.3339  0.0554 -0.2231
  735TMC3    C610916   4.507   2.840  12.561 -0.2816  0.9366  0.1704
  735TMC3     C10917   4.686   3.179  12.493 -0.1958  0.1696  0.3691
  735TMC3     O10918   4.595   3.248  12.453  0.2020  0.3763  0.6376
  735TMC3     H10919   4.491   3.170  12.623  0.2477 -0.3933  1.4034
  735TMC3    H110920   0.088   2.935  12.523 -0.0278 -2.7034  0.2164
  735TMC3    H210921   4.452   2.752  12.528  2.0155 -0.3118 -0.3267
  735TMC3    C710922   4.700   2.734  12.457 -0.7143 -0.0426 -0.3780
  735TMC3    C810923   4.331   2.981  12.505  0.8326  0.2402 -0.7355
  735TMC3    O110924   4.674   2.616  12.481  0.3178 -0.1478 -0.1355
  735TMC3    O210925   4.220   2.958  12.549 -0.0944  0.0524  0.1850
  736MPD2     C10926   0.169   2.604  12.292  0.6079 -0.6739 -0.1749
  736MPD2    C110927   0.115   2.725  12.256  0.0720  0.7344 -0.1056
  736MPD2    C210928   0.154   2.793  12.144 -0.4590  0.6836  0.8551
  736MPD2    C310929   0.264   2.741  12.078 -0.1771  0.4018  0.3741
  736MPD2    C410930   0.329   2.630  12.120  0.0100  0.7414  0.4070
  736MPD2    C510931   0.285   2.562  12.229  0.3501  0.1137 -0.1099
  736MPD2     H10932   0.113   2.891  12.121  1.1050  0.7983 -1.4738
  736MPD2    H110933   0.415   2.601  12.060 -2.1526 -0.8753 -1.9286
  736MPD2    H210934   0.134   2.547  12.378 -1.0711 -1.6865 -1.5459
  736MPD2    H310935   0.328   2.472  12.270 -0.0271  0.2381  0.5597
  736MPD2     N10936   0.328   2.812  11.977 -0.7265 -0.5949 -0.3173
  736MPD2    H510937   0.414   2.772  11.942 -0.5794 -1.2158  0.7450
  736MPD2    N110938   0.034   2.790  12.351  0.1201 -0.1473 -0.1965
  736MPD2    H710939   0.021   2.889  12.331 -2.1201 -0.7411 -1.5862
  737TMC3    C110940   0.378   3.001  11.850  0.0248  0.1964  0.2588
  737TMC3    C210941   0.325   3.104  11.773  0.3126 -0.0956 -0.6103
  737TMC3    C310942   0.408   3.186  11.708  0.6470 -0.7751 -0.2924
  737TMC3    C410943   0.509   2.970  11.848 -0.0837 -0.3715  0.8700
  737TMC3    C510944   0.592   3.057  11.781 -0.7390  0.1771  0.0287
  737TMC3    C610945   0.545   3.169  11.721  0.2336  0.1497  0.5823
  737TMC3     C10946   0.276   2.930  11.924 -0.0218 -0.3308 -0.2342
  737TMC3     O10947   0.163   2.973  11.928 -0.0664  0.1935  0.1937
  737TMC3     H10948   0.219   3.123  11.786 -0.0436 -1.5925 -1.2209
  737TMC3    H110949   0.548   2.891  11.911  0.1938 -0.3704  0.6971
  737TMC3    H210950   0.603   3.248  11.674  2.3096 -0.5623  1.9771
  737TMC3    C710951   0.732   3.021  11.764  0.1785 -0.5626 -0.0497
  737TMC3    C810952   0.355   3.311  11.653  0.0732 -0.5524  0.0813
  737TMC3    O110953   0.774   2.913  11.810 -0.3847 -0.5687 -0.0155
  737TMC3    O210954   0.427   3.411  11.650 -0.0029 -1.2368 -0.0742
  738MPD2     C10955   1.256   1.961  15.428 -0.5919  0.1056  0.2777
  738MPD2    C110956   1.179   2.005  15.321  0.4494 -0.4789 -0.1540
  738MPD2    C210957   1.245   2.066  15.210 -0.5784  0.5088 -0.2321
  738MPD2    C310958   1.387   2.087  15.215  0.0979  0.4876  0.7607
  738MPD2    C410959   1.454   2.046  15.322  0.1713 -0.2582 -0.0843
  738MPD2    C510960   1.390   1.982  15.429 -0.2301  0.1049  0.1738
  738MPD2     H10961   1.183   2.092  15.125  0.1900 -0.8673 -1.2165
  738MPD2    H110962   1.560   2.061  15.336 -0.1681 -0.8607  3.1450
  738MPD2    H210963   1.206   1.913  15.511 -0.3903 -1.0313 -0.2536
  738MPD2    H310964   1.449   1.964  15.518 -1.4789  1.6771  1.3242
  738MPD2     N10965   1.463   2.164  15.124  0.3599  0.5408 -0.1251
  738MPD2    H510966   1.563   2.170  15.133  0.2951  0.6374  0.5144
  738MPD2    N110967   1.043   1.981  15.312  0.3814 -0.6983  0.2402
  738MPD2    H710968   1.002   1.998  15.221 -0.8902  0.3913  1.0082
  739TMC3    C110969   1.514   2.299  14.938 -0.0569 -0.5085  0.4928
  739TMC3    C210970   1.487   2.331  14.810 -0.2133  0.6766 -0.1949
  739TMC3    C310971   1.576   2.413  14.746  0.4273 -0.1515  0.9934
  739TMC3    C410972   1.633   2.347  14.998  0.3038  0.5991 -0.3523
  739TMC3    C510973   1.719   2.426  14.927  0.3176  0.1199  0.1306
  739TMC3    C610974   1.696   2.461  14.797  0.2170 -0.1032  0.2398
  739TMC3     C10975   1.412   2.222  15.011 -0.1249 -0.2210 -0.0957
  739TMC3     O10976   1.298   2.223  14.970 -0.1499  0.3228  0.3690
  739TMC3     H10977   1.393   2.301  14.766 -1.4251  1.2598  2.0395
  739TMC3    H110978   1.638   2.324  15.104 -0.5351  0.6211 -0.3104
  739TMC3    H210979   1.765   2.508  14.728 -1.7054 -0.8859 -2.2279
  739TMC3    C710980   1.859   2.420  14.955  0.6428 -1.1140 -0.2754
  739TMC3    C810981   1.529   2.455  14.617 -0.6692 -0.1866 -0.2144
  739TMC3    O110982   1.933   2.479  14.873  0.4681  0.1704 -0.4811
  739TMC3    O210983   1.437   2.392  14.571 -0.6851 -1.2232 -0.2593
  740TMC3    C110984   1.879   3.521  14.778  0.2160  0.4364 -0.0300
  740TMC3    C210985   1.909   3.389  14.800  0.0043 -0.6296 -0.1453
  740TMC3    C310986   2.031   3.343  14.772 -0.0205 -0.3301 -0.3080
  740TMC3    C410987   1.967   3.602  14.714 -0.6186  0.3531 -0.3766
  740TMC3    C510988   2.085   3.546  14.681 -0.4921 -0.6619  0.6391
  740TMC3    C610989   2.118   3.420  14.706 -0.5125 -0.3703 -0.0869
  740TMC3     C10990   1.764   3.582  14.844  0.6411  0.0815 -0.1808
  740TMC3     O10991   1.773   3.702  14.864  0.2399 -0.1741  0.8364
  740TMC3     H10992   1.837   3.315  14.832 -0.8377 -0.0040 -0.5990
  740TMC3    H110993   1.934   3.702  14.689  0.7023  1.3916  2.0716
  740TMC3    H210994   2.209   3.377  14.666 -0.2788 -1.0644  1.1873
  740TMC3    C710995   2.157   3.616  14.570  0.4561 -0.6212  0.1180
  740TMC3    C810996   2.056   3.199  14.796 -0.0147  0.1134 -0.3923
  740TMC3    O110997   2.078   3.658  14.486  0.7270  0.0733 -0.2803
  740TMC3    O210998   2.152   3.159  14.740 -0.6711  0.7745 -0.1727
  741TMC3    C110999   1.275   2.947  14.364  0.4263 -0.3219 -0.3155
  741TMC3    C211000   1.151   2.890  14.345 -0.2732  0.9015 -0.0019
  741TMC3    C311001   1.100   2.803  14.438 -0.3114 -0.1211  0.1541
  741TMC3    C411002   1.355   2.915  14.473  0.6658  0.4825  0.0340
  741TMC3    C511003   1.311   2.816  14.560 -0.5779  0.6284 -0.0443
  741TMC3    C611004   1.186   2.760  14.541 -0.6144  0.5768 -0.6983
  741TMC3     C11005   1.318   3.049  14.270  0.2114 -0.0407  0.7112
  741TMC3     O11006   1.415   3.109  14.304  0.2490  0.4539 -0.2940
  741TMC3     H11007   1.100   2.894  14.250 -2.3780  1.3080  1.1351
  741TMC3    H111008   1.445   2.973  14.489 -1.2514  4.0356 -2.0548
  741TMC3    H211009   1.149   2.688  14.613  2.5258  1.3682  1.7019
  741TMC3    C711010   1.381   2.804  14.693  0.4605 -0.3329 -0.1401
  741TMC3    C811011   0.984   2.729  14.399 -0.0955 -0.6627 -0.3428
  741TMC3    O111012   1.486   2.868  14.692 -0.1676  0.6560  0.3310
  741TMC3    O211013   0.900   2.792  14.338 -0.6318 -0.0717  0.7554
  742TMC3    C111014   1.410   1.474  15.332  0.3024  0.3721 -0.0496
  742TMC3    C211015   1.405   1.484  15.192  0.4339  0.6667 -0.3014
  742TMC3    C311016   1.377   1.368  15.122 -0.0102 -0.0336 -0.3836
  742TMC3    C411017   1.407   1.353  15.396  0.9762 -0.7592 -0.0922
  742TMC3    C511018   1.396   1.238  15.320 -0.8396  0.3496 -0.4104
  742TMC3    C611019   1.374   1.248  15.185 -0.3263 -0.2514  0.6405
  742TMC3     C11020   1.381   1.598  15.401  0.0087  0.7322 -0.0027
  742TMC3     O11021   1.299   1.674  15.352  0.1502  0.7168 -0.2559
  742TMC3     H11022   1.376   1.583  15.159 -1.3882 -0.1902 -1.2628
  742TMC3    H111023   1.409   1.349  15.505 -0.3772  0.9754 -0.0025
  742TMC3    H211024   1.374   1.154  15.132  1.2756 -2.1627  4.0502
  742TMC3    C711025   1.449   1.109  15.370 -0.3491  0.0586  0.5361
  742TMC3    C811026   1.315   1.367  14.991  0.0024 -0.5453 -0.2439
  742TMC3    O111027   1.441   1.082  15.486 -0.6143  0.1164  0.2384
  742TMC3    O211028   1.255   1.266  14.970  0.0017  0.4167  0.5606
  743MPD2     C11029   4.516   2.189   1.553  0.5463 -0.9246 -0.2754
  743MPD2    C111030   4.496   2.322   1.574 -0.0389 -0.1131 -0.6525
  743MPD2    C211031   4.609   2.404   1.603 -0.2886 -0.1995 -0.5046
  743MPD2    C311032   4.732   2.343   1.598  0.2468 -0.4881  0.3180
  743MPD2    C411033   0.004   2.204   1.584 -0.6574 -0.7161  0.5033
  743MPD2    C511034   4.629   2.129   1.551 -0.2915  0.1928  0.5098
  743MPD2     H11035   4.602   2.511   1.621  0.9070  0.0128 -1.3287
  743MPD2    H111036   0.092   2.142   1.587 -0.7668 -0.8144  1.7935
  743MPD2    H211037   4.426   2.136   1.527 -0.4748 -0.0027  1.4009
  743MPD2    H311038   4.631   2.023   1.528  0.5354  0.5711 -1.2106
  743MPD2     N11039   0.113   2.422   1.604 -0.2538  0.1455  0.2475
  743MPD2    H511040   0.094   2.521   1.619  3.1670  0.6469  1.2843
  743MPD2    N111041   4.369   2.376   1.561  0.0639 -0.0155 -0.2442
  743MPD2    H711042   4.300   2.317   1.515 -0.4604  0.0075  0.5273
  744TMC3    C111043   4.208   2.538   1.536 -0.3890  0.1682  0.4917
  744TMC3    C211044   4.125   2.627   1.597 -1.0093  0.4521  0.0741
  744TMC3    C311045   4.001   2.645   1.540  0.4844 -0.3890 -0.1046
  744TMC3    C411046   4.169   2.473   1.428  0.0538 -0.1744  0.4029
  744TMC3    C511047   4.049   2.497   1.366  0.1610  0.5944 -0.5858
  744TMC3    C611048   3.963   2.592   1.423  0.2744  0.1235  0.3344
  744TMC3     C11049   4.332   2.500   1.599 -0.2293 -0.6713 -0.1766
  744TMC3     O11050   4.390   2.581   1.669  0.1099  0.3022 -0.0472
  744TMC3     H11051   4.149   2.668   1.694  0.3051  1.6850 -0.7599
  744TMC3    H111052   4.251   2.425   1.377  2.4675  0.7916  3.3405
  744TMC3    H211053   3.869   2.597   1.370  0.2387 -0.6719  0.3223
  744TMC3    C711054   4.041   2.457   1.229 -0.2384 -0.1792 -0.8745
  744TMC3    C811055   3.893   2.720   1.604 -0.1065 -0.6325  0.1893
  744TMC3    O111056   3.981   2.542   1.164 -0.8481  0.2215  0.2066
  744TMC3    O211057   3.786   2.728   1.542  0.2917 -0.2668  0.1954
  745TMC3    C111058   1.701   1.132  13.433 -0.4986  0.4521 -0.1143
  745TMC3    C211059   1.640   1.020  13.477 -0.3151 -0.5438  0.3495
  745TMC3    C311060   1.517   0.984  13.436  0.1038  0.2364  0.0133
  745TMC3    C411061   1.637   1.215  13.343  0.7427 -0.4690  0.4476
  745TMC3    C511062   1.517   1.184  13.297  0.6354  0.3731 -1.0292
  745TMC3    C611063   1.449   1.066  13.347 -0.3129  0.3272  0.0990
  745TMC3     C11064   1.816   1.169  13.517  0.0320  1.0550  0.2248
  745TMC3     O11065   1.882   1.077  13.566  1.0906 -0.0133  0.3372
  745TMC3     H11066   1.692   0.952  13.543  1.4056  1.7009  1.3220
  745TMC3    H111067   1.696   1.299  13.308 -1.9904  0.4616 -1.9627
  745TMC3    H211068   1.346   1.045  13.322  0.2575  0.1570 -2.1263
  745TMC3    C711069   1.476   1.241  13.171  0.6504 -0.3052  0.6657
  745TMC3    C811070   1.441   0.965  13.552  0.6802  0.2844 -0.0386
  745TMC3    O111071   1.378   1.192  13.120  0.1148  0.9401  0.4998
  745TMC3    O211072   1.323   0.938  13.538  0.8046 -0.2093 -0.5161
  746TMC3    C111073   3.442   2.733  11.389  0.6195  0.2608 -0.0010
  746TMC3    C211074   3.539   2.721  11.292  0.7732 -0.1518  0.3457
  746TMC3    C311075   3.525   2.635  11.193  0.3620  0.2045  0.0618
  746TMC3    C411076   3.329   2.654  11.386  0.0069  0.1299 -0.3015
  746TMC3    C511077   3.326   2.558  11.283  0.4505 -0.3621  0.1674
  746TMC3    C611078   3.424   2.542  11.187  0.4101  0.3668 -0.8190
  746TMC3     C11079   3.435   2.868  11.447  1.3987 -0.5798  0.0561
  746TMC3     O11080   3.357   2.883  11.541  0.0348 -0.8197 -0.1152
  746TMC3     H11081   3.623   2.787  11.276 -0.7065  1.4897 -0.6462
  746TMC3    H111082   3.247   2.659  11.456 -0.5005 -1.5961 -0.7554
  746TMC3    H211083   3.433   2.462  11.114 -1.8068 -0.8128  0.2017
  746TMC3    C711084   3.198   2.496  11.247  0.5836 -0.0149 -0.7141
  746TMC3    C811085   3.537   2.714  11.078  0.6839  0.5533  0.6369
  746TMC3    O111086   3.190   2.475  11.127  0.0389  0.0376 -0.0884
  746TMC3    O211087   3.529   2.841  11.091  0.7914  0.2881 -0.0281
  747TMC3    C111088   1.114   3.577  11.110 -0.2087  0.6540  0.0071
  747TMC3    C211089   1.117   3.441  11.129  0.6254 -0.9863 -0.0012
  747TMC3    C311090   1.211   3.394  11.224  0.4141 -0.0923 -0.7328
  747TMC3    C411091   1.192   3.661  11.184 -0.2583  0.3669 -0.9603
  747TMC3    C511092   1.288   3.608  11.266  0.1081 -0.2993 -0.5819
  747TMC3    C611093   1.290   3.480  11.296 -0.3240  0.1935 -0.1350
  747TMC3     C11094   1.072   3.625  10.983  0.1770 -0.2738  0.2697
  747TMC3     O11095   1.047   3.743  10.985  0.7886  0.1246  0.1364
  747TMC3     H11096   1.041   3.378  11.086 -1.1297  1.4589 -0.4746
  747TMC3    H111097   1.197   3.767  11.167  0.7084  0.4729 -0.0427
  747TMC3    H211098   1.360   3.431  11.362 -1.9006  0.4824  1.7287
  747TMC3    C711099   1.354   3.692  11.353  0.2434 -0.7467  0.0071
  747TMC3    C811100   1.208   3.261  11.279 -0.1767  0.2962 -0.5006
  747TMC3    O111101   1.297   3.797  11.382 -0.0977 -0.2751  0.0281
  747TMC3    O211102   1.313   3.200  11.284 -0.2057  0.1986  0.4379
  748MPD2     C11103   2.867   4.009   1.920  0.4009  0.0686  0.5148
  748MPD2    C111104   2.928   3.890   1.907  0.3837  0.0527  0.1971
  748MPD2    C211105   3.059   3.886   1.872 -0.4596  0.3704 -0.4850
  748MPD2    C311106   3.130   4.000   1.834  0.1905  0.3241 -0.4887
  748MPD2    C411107   3.062   4.124   1.839 -0.3982 -0.4034 -0.3187
  748MPD2    C511108   2.932   4.128   1.880 -0.3254 -0.3242  0.4423
  748MPD2     H11109   3.109   3.791   1.886 -1.5723 -0.1437 -0.0396
  748MPD2    H111110   3.100   4.219   1.803  0.5696 -1.2888 -1.6507
  748MPD2    H211111   2.767   4.012   1.962  0.4097 -1.0710  0.6145
  748MPD2    H311112   2.876   4.221   1.884 -0.0333 -0.0259 -2.9096
  748MPD2     N11113   3.259   3.982   1.768 -0.2238  0.0272  0.4046
  748MPD2    H511114   3.280   3.889   1.735  0.7665 -0.3863  2.1594
  748MPD2    N111115   2.858   3.780   1.961  0.0914  0.0557 -0.2388
  748MPD2    H711116   2.760   3.798   1.980  0.1351 -0.0823  0.1193
  749TMC3    C111117   3.467   4.019   1.685  0.4924 -0.5044 -0.3328
  749TMC3    C211118   3.518   3.908   1.745  0.5213  0.2146 -0.0417
  749TMC3    C311119   3.647   3.872   1.721 -0.5742  0.0567 -0.7270
  749TMC3    C411120   3.542   4.104   1.612 -0.6694  0.4957 -0.0521
  749TMC3    C511121   3.672   4.073   1.614 -0.4157 -0.4984  0.6406
  749TMC3    C611122   3.725   3.948   1.641 -0.4603 -0.6019  0.3094
  749TMC3     C11123   3.348   4.079   1.747 -0.4780 -0.0306 -0.1171
  749TMC3     O11124   3.355   4.198   1.772 -0.5681  0.3234  0.1082
  749TMC3     H11125   3.463   3.862   1.826  0.8632 -1.5841 -0.8290
  749TMC3    H111126   3.506   4.204   1.587  0.0200  0.5965 -0.6491
  749TMC3    H211127   3.825   3.913   1.618  0.0191  0.8014  0.2849
  749TMC3    C711128   3.755   4.162   1.536  0.2390  0.5843  0.3347
  749TMC3    C811129   3.683   3.741   1.783 -0.2514  0.3689 -0.5482
  749TMC3    O111130   3.697   4.229   1.451 -0.1837  0.4681  0.5264
  749TMC3    O211131   3.635   3.709   1.889  0.2620  0.1690  0.1361
  750MPD2     C11132   3.790   4.730  11.593 -0.3698  0.3646  0.2499
  750MPD2    C111133   3.681   4.698  11.667  0.0486 -0.2019  0.8823
  750MPD2    C211134   3.650   4.566  11.693  0.7584 -0.3155  0.3447
  750MPD2    C311135   3.716   4.462  11.628 -0.6271  0.5992 -0.9050
  750MPD2    C411136   3.823   4.501  11.552  0.7662  0.7897 -0.3074
  750MPD2    C511137   3.860   4.631  11.529  0.6647  0.2181  0.0156
  750MPD2     H11138   3.565   4.548  11.758  1.8415  0.2363  1.9047
  750MPD2    H111139   3.872   4.414  11.510 -1.4275 -0.7361  0.2492
  750MPD2    H211140   3.816   0.099  11.577  1.1813 -0.0494  0.0618
  750MPD2    H311141   3.948   4.657  11.471  1.4520  0.8092  1.4778
  750MPD2     N11142   3.682   4.329  11.622  0.4406  0.0339  0.2553
  750MPD2    H511143   3.733   4.268  11.559  0.1926 -1.4998  1.5409
  750MPD2    N111144   3.609   0.070  11.728 -0.5503  0.3259  0.4282
  750MPD2    H711145   3.551   0.042  11.807 -2.4292  0.8449 -0.7557
  751TMC3    C111146   3.552   4.139  11.673  0.1002  0.5155 -0.0898
  751TMC3    C211147   3.428   4.085  11.699  0.1059 -0.3766 -0.2392
  751TMC3    C311148   3.392   3.957  11.658 -0.0734 -0.1085  0.1275
  751TMC3    C411149   3.633   4.068  11.590 -0.3256 -0.1612  0.3078
  751TMC3    C511150   3.594   3.948  11.538 -0.5369 -0.1437 -0.3375
  751TMC3    C611151   3.476   3.892  11.567  0.0441  0.0422 -0.2013
  751TMC3     C11152   3.577   4.277  11.695  0.3830  0.2858 -0.3001
  751TMC3     O11153   3.511   4.332  11.785  0.2243 -0.2995 -0.3071
  751TMC3     H11154   3.379   4.140  11.779 -1.4343 -1.0153 -0.7421
  751TMC3    H111155   3.732   4.100  11.560 -1.5816  2.9017 -0.5893
  751TMC3    H211156   3.445   3.801  11.518 -0.6582 -0.7070  1.6402
  751TMC3    C711157   3.674   3.895  11.431 -0.2942  0.1348 -0.5484
  751TMC3    C811158   3.264   3.910  11.676  0.5642 -0.2535 -0.1455
  751TMC3    O111159   3.737   3.980  11.365  0.3179  0.4782 -0.9412
  751TMC3    O211160   3.257   3.787  11.664 -0.7117  0.4149  0.4868
  752TMC3    C111161   2.654   4.447  16.216 -0.8606  0.2091  0.3141
  752TMC3    C211162   2.726   4.337  16.256 -0.3874 -0.2553  0.3993
  752TMC3    C311163   2.776   4.353  16.387 -0.3294  0.2433  0.1000
  752TMC3    C411164   2.614   4.548  16.307  0.7732  0.6884  0.1836
  752TMC3    C511165   2.664   4.552  16.434  0.2521  0.2434  0.2916
  752TMC3    C611166   2.739   4.445  16.474  0.0811 -0.3744  0.5328
  752TMC3     C11167   2.570   4.443  16.094 -0.4212 -0.2410 -0.1669
  752TMC3     O11168   2.624   4.400  15.990 -0.0677 -0.2438 -0.3019
  752TMC3     H11169   2.747   4.258  16.185 -1.9116  1.5508 -2.0582
  752TMC3    H111170   2.567   4.636  16.266  0.6085 -0.0490 -1.2350
  752TMC3    H211171   2.793   4.460  16.567  1.0929  1.5527 -0.3663
  752TMC3    C711172   2.617   4.656  16.525 -0.1298 -0.7339  0.5493
  752TMC3    C811173   2.829   4.229  16.439  0.1829 -0.5128 -0.6406
  752TMC3    O111174   2.596   4.621  16.641  0.2311  0.3626  0.4392
  752TMC3    O211175   2.870   4.144  16.362 -0.9955  0.0142 -0.1774
  753TMC3    C111176   4.638   1.216  13.477  0.2180 -0.3876  0.0196
  753TMC3    C211177   4.668   1.166  13.603  0.0145 -0.1305 -0.0931
  753TMC3    C311178   4.689   1.027  13.613  0.9659 -1.2445  0.2529
  753TMC3    C411179   4.608   1.135  13.371 -0.6410 -0.2231 -0.0332
  753TMC3    C511180   4.608   0.998  13.392 -0.4136  0.7319  0.0869
  753TMC3    C611181   4.661   0.941  13.511  0.4495 -0.0385 -0.1448
  753TMC3     C11182   4.650   1.358  13.466 -0.1151 -0.2094 -0.3940
  753TMC3     O11183   4.639   1.422  13.568  0.0774 -0.1107  0.5229
  753TMC3     H11184   4.708   1.235  13.676  0.8660 -0.1211 -0.5747
  753TMC3    H111185   4.545   1.161  13.287  0.2382  2.6213  0.1764
  753TMC3    H211186   4.657   0.837  13.538 -0.8624  0.1609  0.4073
  753TMC3    C711187   4.575   0.911  13.275 -0.3122 -0.0388 -0.2723
  753TMC3    C811188   0.017   0.961  13.726  1.1160  0.0007  0.3019
  753TMC3    O111189   4.528   0.967  13.172 -0.3877  0.2166 -0.1732
  753TMC3    O211190   0.042   0.841  13.709  0.0795  0.1231  0.1698
  754MPD2     C11191   3.580   0.204  13.369  0.2251 -0.0650  0.0663
  754MPD2    C111192   3.579   0.068  13.392 -0.5944 -0.1672 -0.3029
  754MPD2    C211193   3.457   0.001  13.374 -0.3233 -0.3745 -0.3677
  754MPD2    C311194   3.339   0.070  13.345 -0.9084 -0.2990 -0.0125
  754MPD2    C411195   3.345   0.205  13.318 -0.0130  0.6574 -0.1990
  754MPD2    C511196   3.462   0.271  13.337  0.8952  0.7910  0.1847
  754MPD2     H11197   3.464   4.629  13.368 -2.7832 -0.6108  0.8384
  754MPD2    H111198   3.256   0.259  13.289 -0.3236  0.5893  0.6076
  754MPD2    H211199   3.671   0.262  13.383  0.3550 -0.1070 -0.6463
  754MPD2    H311200   3.457   0.377  13.317 -0.0286  1.1939  2.5740
  754MPD2     N11201   3.209   0.010  13.326 -0.0867 -0.0181  0.0373
  754MPD2    H511202   3.128   0.062  13.294 -1.0214 -2.1124 -0.9830
  754MPD2    N111203   3.705   0.005  13.406 -0.0003 -0.0624 -0.7499
  754MPD2    H711204   3.780   0.070  13.383  0.7019 -0.0835  1.5484
  755MPD2     C11205   2.537   0.501  13.186  0.4104 -0.2040 -0.5667
  755MPD2    C111206   2.480   0.373  13.190 -0.1006  0.3025  0.2716
  755MPD2    C211207   2.566   0.262  13.194  0.1530  0.0353  0.7670
  755MPD2    C311208   2.706   0.278  13.198  0.4064  0.3474  0.1175
  755MPD2    C411209   2.757   0.405  13.191  0.2742 -0.0609  0.0355
  755MPD2    C511210   2.673   0.516  13.190  0.3520 -0.6597  0.7210
  755MPD2     H11211   2.511   0.169  13.188  0.2429  0.0405 -0.1803
  755MPD2    H111212   2.865   0.417  13.182  0.3229 -2.3439 -2.6511
  755MPD2    H211213   2.479   0.593  13.188  0.4059 -0.2131 -0.2673
  755MPD2    H311214   2.720   0.613  13.180 -2.5194  0.8726  2.0241
  755MPD2     N11215   2.791   0.168  13.196 -0.2216  0.3969  0.2170
  755MPD2    H511216   2.891   0.185  13.193 -0.3159  0.9701  0.3194
  755MPD2    N111217   2.343   0.347  13.206 -0.8358  0.1705 -0.2781
  755MPD2    H711218   2.310   0.254  13.183 -0.3866  0.1855 -0.9822
  756MPD2     C11219   3.045   1.078   9.740  0.4136 -0.3104  0.1219
  756MPD2    C111220   2.976   0.994   9.826  0.1939 -1.0143  0.0335
  756MPD2    C211221   2.835   0.989   9.809 -0.1104 -0.2189 -0.1625
  756MPD2    C311222   2.764   1.065   9.719 -0.1841  0.1923 -0.0398
  756MPD2    C411223   2.839   1.145   9.636  0.1531  0.0371  0.4863
  756MPD2    C511224   2.978   1.148   9.643 -0.0414  0.0101 -0.6373
  756MPD2     H11225   2.779   0.932   9.883 -3.1736  1.6148 -1.0451
  756MPD2    H111226   2.790   1.210   9.565 -0.9578  0.9746  2.0943
  756MPD2    H211227   3.151   1.088   9.757  0.1512  0.7089  1.1990
  756MPD2    H311228   3.029   1.222   9.583  1.5581 -0.0453  0.6355
  756MPD2     N11229   2.625   1.068   9.726  0.2179  0.1619  0.5248
  756MPD2    H511230   2.584   0.999   9.787 -1.6579  0.9086  0.0962
  756MPD2    N111231   3.032   0.917   9.930  0.1601 -0.4092 -0.5125
  756MPD2    H711232   2.977   0.854   9.988 -1.2483  0.2136 -1.1829
  757MPD2     C11233   2.217   0.365   9.897  0.8479  0.1426  0.1678
  757MPD2    C111234   2.332   0.396   9.827 -0.0731 -0.3768 -0.2289
  757MPD2    C211235   2.337   0.528   9.785  0.0494  0.0494  0.1421
  757MPD2    C311236   2.240   0.625   9.818 -0.5679  0.1788 -0.0378
  757MPD2    C411237   2.139   0.592   9.900 -0.2627 -0.9222 -0.0766
  757MPD2    C511238   2.123   0.460   9.936  0.0846  0.2908  0.8001
  757MPD2     H11239   2.418   0.550   9.716  1.2516 -2.0820  0.8736
  757MPD2    H111240   2.059   0.662   9.922  2.0964  1.8817 -0.5752
  757MPD2    H211241   2.203   0.264   9.932  2.3521 -0.2094 -0.2392
  757MPD2    H311242   2.029   0.432   9.981  0.5918  0.7617  2.1487
  757MPD2     N11243   2.252   0.754   9.748  0.3327 -0.2223 -0.6844
  757MPD2    H511244   2.337   0.772   9.695  1.5246 -0.8216  0.9941
  757MPD2    N111245   2.418   0.291   9.794  0.4676 -0.0561  0.0699
  757MPD2    H711246   2.403   0.199   9.835  1.5308 -0.1439  0.2709
  758MPD2     C11247   3.455   4.290  15.819  1.1132  0.8767  0.6850
  758MPD2    C111248   3.464   4.176  15.894 -0.5851 -0.5740  0.0912
  758MPD2    C211249   3.389   4.153  16.005 -0.3743  0.1900 -0.1539
  758MPD2    C311250   3.313   4.257  16.060 -0.1551  0.0781  0.3324
  758MPD2    C411251   3.302   4.372  15.986 -0.1220 -0.0191 -0.2163
  758MPD2    C511252   3.374   4.391  15.871 -0.4435 -0.1264  0.0564
  758MPD2     H11253   3.388   4.053  16.047 -1.2223  0.8766  1.4551
  758MPD2    H111254   3.252   4.458  16.029 -0.5564  0.2204 -1.2016
  758MPD2    H211255   3.511   4.316  15.729 -1.2155  3.6181  0.0046
  758MPD2    H311256   3.379   4.494  15.837 -1.6801 -0.1795 -0.2802
  758MPD2     N11257   3.247   4.252  16.185 -0.2694  0.0163 -0.3315
  758MPD2    H511258   3.203   4.341  16.208  1.1706  0.3211  1.2833
  758MPD2    N111259   3.571   4.089  15.849 -0.0255 -0.5292 -0.6502
  758MPD2    H711260   3.620   4.136  15.774 -0.0924  0.8636  0.1743
  759MPD2     C11261   1.605   3.058  10.696  0.0275  0.8200 -0.1074
  759MPD2    C111262   1.574   2.995  10.575  0.1492  0.0476 -0.1519
  759MPD2    C211263   1.624   3.046  10.462 -0.1528  0.5389  0.4701
  759MPD2    C311264   1.710   3.158  10.467  0.2635  0.2385  0.5623
  759MPD2    C411265   1.736   3.219  10.586 -0.5646  0.0818  0.2359
  759MPD2    C511266   1.688   3.161  10.698  0.1271 -0.6061 -0.2612
  759MPD2     H11267   1.605   2.989  10.372  1.6979  0.2751  0.2454
  759MPD2    H111268   1.795   3.309  10.603  0.2797  0.4135 -4.6882
  759MPD2    H211269   1.567   3.026  10.792 -0.2235  2.2509  0.2787
  759MPD2    H311270   1.706   3.212  10.793 -0.1772 -1.7689  0.4246
  759MPD2     N11271   1.771   3.205  10.345  0.0747 -0.3761  0.8381
  759MPD2    H511272   1.766   3.143  10.264 -0.4558 -0.0386  0.6161
  759MPD2    N111273   1.488   2.884  10.561  0.2547 -0.6673  0.3390
  759MPD2    H711274   1.467   2.855  10.466 -1.6095 -0.4698  0.6974
  760MPD2     C11275   1.771   4.691  12.185  0.1287  0.8885  0.3123
  760MPD2    C111276   1.883   0.029  12.147  0.2206 -0.1822 -0.4462
  760MPD2    C211277   1.979   4.715  12.065 -0.7529  0.1046  0.2393
  760MPD2    C311278   1.971   4.575  12.040 -0.4674 -0.3757  0.3988
  760MPD2    C411279   1.861   4.496  12.077 -0.0377  0.4035  0.2467
  760MPD2    C511280   1.758   4.564  12.136 -0.7692 -0.8604  0.2690
  760MPD2     H11281   2.062   0.045  12.042 -0.7734 -0.4167 -1.3196
  760MPD2    H111282   1.855   4.391  12.053  1.4630  0.2367  0.6121
  760MPD2    H211283   1.697   4.730  12.253 -1.1029 -0.2497 -0.3557
  760MPD2    H311284   1.672   4.511  12.176 -1.8565  0.5829 -0.1596
  760MPD2     N11285   2.068   4.505  11.961 -0.9950  0.4560  0.5211
  760MPD2    H511286   2.056   4.404  11.958 -0.3998  0.3953  0.0977
  760MPD2    N111287   1.903   0.160  12.190 -0.0368 -0.0110  0.8139
  760MPD2    H711288   1.980   0.210  12.147  0.6418 -1.0100  0.8746
  761MPD2     C11289   2.797   3.953  11.490 -0.1515 -0.4650  0.6361
  761MPD2    C111290   2.867   3.841  11.533 -0.1673 -0.1639  0.1881
  761MPD2    C211291   2.982   3.861  11.614  0.6390  0.6703  0.2773
  761MPD2    C311292   3.034   3.984  11.640  0.9635  0.0403  0.8409
  761MPD2    C411293   2.954   4.087  11.605 -0.0337 -0.4589  0.3109
  761MPD2    C511294   2.835   4.075  11.540  0.3360 -0.2670 -0.1224
  761MPD2     H11295   3.041   3.774  11.638 -1.5669 -0.6524  0.9429
  761MPD2    H111296   2.990   4.188  11.625 -1.3085  0.1093 -0.3044
  761MPD2    H211297   2.715   3.952  11.419 -0.5280  2.2493  1.0244
  761MPD2    H311298   2.776   4.156  11.498  0.1002  0.0763  0.8669
  761MPD2     N11299   3.169   4.006  11.675  0.5938  0.5245  0.5149
  761MPD2    H511300   3.199   4.103  11.676  0.2972  0.6074  1.5251
  761MPD2    N111301   2.826   3.720  11.475  0.0365  0.2211 -0.6538
  761MPD2    H711302   2.751   3.722  11.407 -0.3388  2.4466 -0.1966
  762MPD2     C11303   2.731   3.245  10.776 -0.2327 -0.4739 -0.1932
  762MPD2    C111304   2.828   3.311  10.849 -0.3571  0.4858  0.1535
  762MPD2    C211305   2.955   3.334  10.794 -0.5472  0.1850  0.2357
  762MPD2    C311306   2.983   3.292  10.661 -0.1325  0.6576  0.8494
  762MPD2    C411307   2.881   3.226  10.592  0.3525  0.3649  0.2047
  762MPD2    C511308   2.757   3.211  10.646  0.4092  0.4621  0.7718
  762MPD2     H11309   3.035   3.377  10.853 -0.9651  3.9760 -2.0318
  762MPD2    H111310   2.912   3.183  10.498 -1.1812 -0.5372  0.1269
  762MPD2    H211311   2.628   3.234  10.811 -0.3867  1.3092 -0.0774
  762MPD2    H311312   2.691   3.137  10.602  0.3416  0.1188  1.4515
  762MPD2     N11313   3.110   3.311  10.608  0.0976 -0.1077 -0.1486
  762MPD2    H511314   3.190   3.328  10.668 -0.3059  0.5850  0.1805
  762MPD2    N111315   2.784   3.333  10.983 -0.4859 -0.0705  0.4527
  762MPD2    H711316   2.689   3.301  11.001 -0.9695  1.2773  0.3044
  763MPD2     C11317   0.669   3.787  16.262 -0.8110 -0.3866  0.3921
  763MPD2    C111318   0.612   3.867  16.170 -0.0808  0.6177  0.6519
  763MPD2    C211319   0.636   4.001  16.171 -0.3289  0.2036 -0.0986
  763MPD2    C311320   0.712   4.059  16.272 -0.4987  0.3081 -0.2134
  763MPD2    C411321   0.755   3.971  16.372 -1.0002 -0.2161  0.0405
  763MPD2    C511322   0.737   3.835  16.368  0.0823  0.5756  1.2919
  763MPD2     H11323   0.595   4.062  16.091  2.6895 -0.9428 -2.4999
  763MPD2    H111324   0.805   4.012  16.459  0.3693 -3.0633  0.6269
  763MPD2    H211325   0.649   3.681  16.268 -2.1597 -0.2351 -1.4721
  763MPD2    H311326   0.761   3.777  16.456 -0.8722 -0.5047  0.8416
  763MPD2     N11327   0.740   4.199  16.284  0.1492  0.3570 -0.3661
  763MPD2    H511328   0.799   4.228  16.361  2.2351  1.3408 -2.3345
  763MPD2    N111329   0.537   3.817  16.054 -0.3123 -0.8354  0.2852
  763MPD2    H711330   0.509   3.889  15.988  1.3698 -0.5217 -0.0791
  764MPD2     C11331   3.125   1.296  17.649  0.4941  0.5402 -0.2191
  764MPD2    C111332   3.046   1.199  17.588  0.4956  0.7524  0.0507
  764MPD2    C211333   3.006   1.084  17.659  0.3322  0.0609  0.0093
  764MPD2    C311334   3.031   1.078   0.057 -0.7820  0.1935  0.0765
  764MPD2    C411335   3.110   1.170   0.116 -0.7193  0.2404  0.7309
  764MPD2    C511336   3.158   1.279   0.042  0.0104  0.0824  0.5557
  764MPD2     H11337   2.954   1.001  17.614 -0.4284  0.8398 -0.5470
  764MPD2    H111338   3.141   1.173   0.219  0.3219  1.8453  0.3660
  764MPD2    H211339   3.156   1.382  17.590 -1.1730  0.3109 -1.4297
  764MPD2    H311340   3.216   1.361   0.082  2.7466 -0.7150 -1.7265
  764MPD2     N11341   2.953   0.980   0.127  0.3695 -0.0395  0.6088
  764MPD2    H511342   2.881   0.926   0.081  1.2239 -1.5589  1.0730
  764MPD2    N111343   3.017   1.204  17.447 -0.6391  0.1888  0.5751
  764MPD2    H711344   2.949   1.136  17.414 -0.7579  0.8146 -0.4770
  765MPD2     C11345   3.043   3.459  15.833  0.5162 -0.8662 -0.7762
  765MPD2    C111346   3.132   3.565  15.839 -0.5275 -0.5281  0.4121
  765MPD2    C211347   3.270   3.542  15.860  0.4445  0.5901  1.0452
  765MPD2    C311348   3.322   3.414  15.833  0.9530  0.4942  0.2772
  765MPD2    C411349   3.225   3.320  15.808  0.3336 -0.5844 -0.5021
  765MPD2    C511350   3.091   3.341  15.800 -0.3652 -0.5439  0.0819
  765MPD2     H11351   3.336   3.628  15.864  2.4574 -0.8170 -1.8095
  765MPD2    H111352   3.252   3.218  15.781 -0.3441 -1.0938  0.7839
  765MPD2    H211353   2.935   3.464  15.840  0.6135 -2.9223  1.9794
  765MPD2    H311354   3.027   3.266  15.755  2.1081 -2.0709 -0.9205
  765MPD2     N11355   3.454   3.378  15.826 -0.1694 -0.6424  0.2052
  765MPD2    H511356   3.473   3.281  15.803 -0.3858 -0.2683 -1.5207
  765MPD2    N111357   3.071   3.694  15.833 -0.2277  0.1465 -0.0821
  765MPD2    H711358   2.969   3.696  15.825 -0.4167 -2.9452  1.5397
  766MPD2     C11359   2.587   3.842  15.355 -0.2069 -0.3836  0.9892
  766MPD2    C111360   2.721   3.834  15.377 -0.0329  0.3604 -0.0530
  766MPD2    C211361   2.803   3.791  15.281 -0.3763  0.4860  0.0574
  766MPD2    C311362   2.760   3.779  15.149  0.7767  1.4600  0.3866
  766MPD2    C411363   2.626   3.800  15.125 -0.0071  0.2802  0.3148
  766MPD2    C511364   2.539   3.824  15.232 -0.1145  0.3263 -1.2945
  766MPD2     H11365   2.905   3.768  15.306  0.3814  1.8489 -1.7596
  766MPD2    H111366   2.590   3.770  15.028 -0.1227  0.8380  0.1876
  766MPD2    H211367   2.513   3.863  15.431 -1.7465  2.0691 -1.1625
  766MPD2    H311368   2.432   3.832  15.219 -0.4454 -1.0379  0.6225
  766MPD2     N11369   2.845   3.771  15.033 -0.7812 -0.4257 -0.0647
  766MPD2    H511370   2.796   3.793  14.947  0.7382 -0.9562 -1.0572
  766MPD2    N111371   2.774   3.862  15.503 -0.1715  0.0172  0.3885
  766MPD2    H711372   2.869   3.829  15.512 -0.5649 -0.9831  0.9653
  767MPD2     C11373   2.395   4.018  14.901  0.2077 -0.0378  0.5060
  767MPD2    C111374   2.524   4.054  14.874  0.7234 -0.0962 -0.3542
  767MPD2    C211375   2.587   4.017  14.758 -0.5860  0.9289  0.6589
  767MPD2    C311376   2.515   3.954  14.664 -0.3686  0.0808 -0.4892
  767MPD2    C411377   2.386   3.909  14.697  0.2699  0.1969  0.5045
  767MPD2    C511378   2.324   3.943  14.816 -0.5899  0.2610 -0.0476
  767MPD2     H11379   2.678   4.073  14.739  1.1403 -0.9960  3.3766
  767MPD2    H111380   2.326   3.862  14.620  1.6569 -0.4834 -0.1688
  767MPD2    H211381   2.344   4.050  14.991  0.9706  2.2647  0.1182
  767MPD2    H311382   2.219   3.929  14.840 -0.5602 -0.9059 -0.5982
  767MPD2     N11383   2.574   3.944  14.529 -0.2751 -0.6656 -0.4896
  767MPD2    H511384   2.674   3.961  14.523 -0.6339  1.1093 -1.4066
  767MPD2    N111385   2.596   4.116  14.974  0.0304 -0.1689 -0.5339
  767MPD2    H711386   2.543   4.140  15.057  2.4336 -0.1267  0.9976
  768MPD2     C11387   3.015   2.054  10.628  1.0486  0.4952  0.0031
  768MPD2    C111388   2.946   2.070  10.751  0.8011  0.0794  0.4039
  768MPD2    C211389   3.005   2.034  10.861  0.1615 -0.4865  0.1805
  768MPD2    C311390   3.130   1.973  10.863 -0.0313  0.1580  0.0524
  768MPD2    C411391   3.202   1.965  10.741 -0.3262 -0.1539 -0.6375
  768MPD2    C511392   3.137   1.991  10.626  0.4702 -0.1512  0.3119
  768MPD2     H11393   2.966   2.051  10.961  0.2290  0.3062  0.0732
  768MPD2    H111394   3.307   1.940  10.739 -0.4738 -0.8874  0.2781
  768MPD2    H211395   2.968   2.077  10.533  0.6517  0.6027  0.2216
  768MPD2    H311396   3.181   1.979  10.528  1.6153  0.6682  0.7243
  768MPD2     N11397   3.199   1.939  10.982 -0.1333 -0.5095 -0.0533
  768MPD2    H511398   3.294   1.908  10.965  0.0533  0.9479 -1.6712
  768MPD2    N111399   2.827   2.149  10.758  0.1384 -0.1649 -0.2188
  768MPD2    H711400   2.798   2.189  10.846 -0.9401  0.6521 -0.9504
  769MPD2     C11401   4.306   0.891  14.656  0.0011 -0.7496 -0.3568
  769MPD2    C111402   4.249   0.779  14.715  0.0528 -0.0926  0.3962
  769MPD2    C211403   4.258   0.761  14.853 -0.4366  0.5255  0.3163
  769MPD2    C311404   4.330   0.848  14.927 -0.4597  0.2668  0.0546
  769MPD2    C411405   4.373   0.965  14.872  0.1242 -0.1004  0.1914
  769MPD2    C511406   4.358   0.987  14.738  0.3382 -0.2895 -1.2266
  769MPD2     H11407   4.206   0.681  14.904 -2.7859  1.4849 -0.6024
  769MPD2    H111408   4.424   1.044  14.926  1.1201 -0.0305 -0.8687
  769MPD2    H211409   4.290   0.913  14.551  1.8967  4.4865  0.4539
  769MPD2    H311410   4.382   1.084  14.695  0.9742 -0.2300 -0.7354
  769MPD2     N11411   4.338   0.828  15.064 -0.1863 -0.1382  0.1566
  769MPD2    H511412   4.285   0.754  15.108 -1.0721  0.1584 -0.3987
  769MPD2    N111413   4.187   0.682  14.630  0.0966  0.6520  0.3864
  769MPD2    H711414   4.187   0.706  14.531  2.2487  0.1201  0.2711
  770MPD2     C11415   3.585   4.600  14.761 -0.1746  0.1617 -1.1571
  770MPD2    C111416   3.722   4.567  14.755  0.8728 -0.2273 -0.5308
  770MPD2    C211417   3.811   4.652  14.688  0.3468  0.8018 -0.0280
  770MPD2    C311418   3.773   0.030  14.630  0.5302 -0.1246 -0.1720
  770MPD2    C411419   3.639   0.065  14.634  0.9011  0.1080  0.6675
  770MPD2    C511420   3.544   4.717  14.697 -0.2489  0.2147  0.4380
  770MPD2     H11421   3.916   4.629  14.675  0.6146  1.1464  1.6430
  770MPD2    H111422   3.608   0.154  14.582  1.6844 -0.9255 -1.5579
  770MPD2    H211423   3.511   4.555  14.826  1.5947 -0.0102  0.7535
  770MPD2    H311424   3.440   0.012  14.700  0.1167  1.1849  2.7791
  770MPD2     N11425   3.871   0.114  14.572 -0.0825  0.1726 -0.0044
  770MPD2    H511426   3.968   0.099  14.595 -0.4729  0.6896  1.9732
  770MPD2    N111427   3.757   4.446  14.823  0.0017 -0.0580  0.3172
  770MPD2    H711428   3.680   4.397  14.868 -0.4052 -0.9337 -1.2965
  771MPD2     C11429   0.530   3.436  13.882  0.0184 -0.1089 -0.3671
  771MPD2    C111430   0.418   3.512  13.854  0.0082 -0.4864 -0.3770
  771MPD2    C211431   0.310   3.445  13.794 -0.0512 -0.0018  0.0894
  771MPD2    C311432   0.320   3.321  13.745  0.0773  0.1265  0.3163
  771MPD2    C411433   0.441   3.249  13.771  0.3347  0.5120  0.1334
  771MPD2    C511434   0.541   3.313  13.834 -0.6088 -0.4917  1.0045
  771MPD2     H11435   0.220   3.502  13.776 -0.9770 -1.3139  0.5117
  771MPD2    H111436   0.445   3.142  13.755  1.0977  0.3739  1.2210
  771MPD2    H211437   0.611   3.481  13.938 -1.7901  0.6537  1.6205
  771MPD2    H311438   0.628   3.252  13.855  0.7314  1.4834  1.2621
  771MPD2     N11439   0.206   3.267  13.677 -0.4277 -0.2814 -1.4280
  771MPD2    H511440   0.125   3.327  13.667  0.3894  0.8985 -0.9667
  771MPD2    N111441   0.407   3.649  13.879  0.2597 -0.2375  0.3390
  771MPD2    H711442   0.315   3.689  13.859  1.0693  0.4631 -1.9730
  772MPD2     C11443   4.674   4.191  14.112  0.0680  0.3824 -0.1826
  772MPD2    C111444   4.727   4.066  14.102  0.9344 -0.2096 -0.0525
  772MPD2    C211445   4.645   3.957  14.129  0.2480 -0.2968  0.0546
  772MPD2    C311446   4.526   3.962  14.194  0.5249 -0.4627 -0.0950
  772MPD2    C411447   4.481   4.085  14.217  0.6183 -0.0396  0.5830
  772MPD2    C511448   4.553   4.193  14.172 -0.3214 -0.6018  0.6351
  772MPD2     H11449   4.673   3.860  14.091 -1.3271 -0.1609 -1.4477
  772MPD2    H111450   4.389   4.107  14.269  1.4210  2.5774  0.8918
  772MPD2    H211451   4.724   4.282  14.082  1.5999 -0.8062 -1.2814
  772MPD2    H311452   4.524   4.294  14.199 -0.7084  0.7934 -5.1410
  772MPD2     N11453   4.465   3.842  14.246  0.1594  0.0248 -1.1632
  772MPD2    H511454   4.373   3.850  14.287  0.5662 -0.1428 -0.1948
  772MPD2    N111455   0.118   4.031  14.042 -0.4002  0.4257  0.9469
  772MPD2    H711456   0.150   3.935  14.043  1.0216  0.8761 -0.7878
  773MPD2     C11457   4.017   0.235   0.409 -0.9096  0.1930 -0.5529
  773MPD2    C111458   3.931   0.130   0.374 -0.4651 -0.1476 -0.8327
  773MPD2    C211459   3.985   0.005   0.388  0.6465 -0.0088 -0.4695
  773MPD2    C311460   4.106   4.718   0.448  0.2570  0.7711 -0.1669
  773MPD2    C411461   4.189   0.088   0.492 -0.5648 -0.1043 -0.5600
  773MPD2    C511462   4.141   0.217   0.462  1.1643 -0.3739  0.0166
  773MPD2     H11463   3.921   4.663   0.347  1.9922 -1.0517 -0.5856
  773MPD2    H111464   4.282   0.085   0.546 -1.0916 -0.1632  0.3367
  773MPD2    H211465   3.996   0.341   0.404 -1.5918  0.1132  0.6539
  773MPD2    H311466   4.206   0.301   0.484  0.7019 -0.0919  0.3253
  773MPD2     N11467   4.133   4.581   0.476  0.0853  0.1678  0.3568
  773MPD2    H511468   4.065   4.517   0.435 -0.1108  1.9982 -2.1443
  773MPD2    N111469   3.803   0.142   0.314 -0.3237  0.0574 -0.4845
  773MPD2    H711470   3.754   0.056   0.290  0.0454 -0.0599 -0.8111
  774MPD2     C11471   3.870   3.841  14.028 -0.3122 -0.0358  0.4736
  774MPD2    C111472   3.741   3.835  13.985  0.5639 -0.1808 -0.2784
  774MPD2    C211473   3.697   3.938  13.911 -0.1924 -0.2407 -0.0022
  774MPD2    C311474   3.786   4.032  13.858  1.0304  0.6725 -0.4302
  774MPD2    C411475   3.919   4.045  13.898  0.2378 -0.2208 -0.0636
  774MPD2    C511476   3.949   3.947  13.992 -0.5843 -0.9123  0.0843
  774MPD2     H11477   3.591   3.954  13.892 -0.8986 -3.7011  1.0127
  774MPD2    H111478   3.991   4.114  13.857  0.8093  0.4274  2.0104
  774MPD2    H211479   3.916   3.770  14.096 -0.9517  1.2176  2.2360
  774MPD2    H311480   4.046   3.951  14.040 -0.3641  3.6919 -0.7041
  774MPD2     N11481   3.725   4.134  13.780 -0.1021  0.3150  0.0511
  774MPD2    H511482   3.625   4.120  13.767 -0.0048 -0.0975 -0.2452
  774MPD2    N111483   3.669   3.721  14.025 -0.0134 -0.0395  0.5724
  774MPD2    H711484   3.727   3.643  14.053  0.6963  1.0820  2.2082
  775MPD2     C11485   0.048   0.122  15.719 -0.2009  0.6090  0.5373
  775MPD2    C111486   0.102   0.207  15.820  0.0140  0.0910 -0.3013
  775MPD2    C211487   0.193   0.303  15.782  0.1381 -0.0201 -0.3244
  775MPD2    C311488   0.236   0.314  15.651  0.8388  0.2737  0.8348
  775MPD2    C411489   0.171   0.233  15.556  0.2851  0.0122  0.1167
  775MPD2    C511490   0.091   0.133  15.590  0.3946 -0.2611 -0.1421
  775MPD2     H11491   0.227   0.377  15.854  2.0109 -0.8279 -0.3975
  775MPD2    H111492   0.205   0.253  15.455 -2.5756 -0.1648 -0.8796
  775MPD2    H211493   4.703   0.053  15.742  0.2743  0.5443  1.9867
  775MPD2    H311494   0.052   0.072  15.509 -0.7536 -0.5533  0.6384
  775MPD2     N11495   0.311   0.425  15.604  0.5301 -0.6234  0.0284
  775MPD2    H511496   0.318   0.434  15.503 -0.5559  1.1484  0.1103
  775MPD2    N111497   0.050   0.193  15.950  0.0974  0.3531  0.0834
  775MPD2    H711498   4.707   0.130  15.959 -0.3574  1.3007  2.9481
  776MPD2     C11499   3.091   0.830  11.687 -1.1490  0.3764  0.1231
  776MPD2    C111500   3.225   0.801  11.676  0.0912 -0.4982  0.1990
  776MPD2    C211501   3.308   0.880  11.601  0.2426 -0.8424 -0.5827
  776MPD2    C311502   3.258   0.987  11.521  0.0209 -0.0283  0.2627
  776MPD2    C411503   3.120   1.012  11.531  0.3030  0.8168  0.1580
  776MPD2    C511504   3.039   0.940  11.623 -0.6632  0.5126 -0.2220
  776MPD2     H11505   3.414   0.861  11.606 -0.0076 -2.8501 -2.7131
  776MPD2    H111506   3.079   1.090  11.467  0.2047  0.2605 -0.4578
  776MPD2    H211507   3.024   0.756  11.730 -0.4306  0.6484  1.7072
  776MPD2    H311508   2.932   0.959  11.620 -0.5874  0.6523 -1.9936
  776MPD2     N11509   3.332   1.073  11.440 -0.2685 -0.1922 -0.2984
  776MPD2    H511510   3.284   1.110  11.359  0.1909  0.4860 -0.2633
  776MPD2    N111511   3.271   0.681  11.740  0.1691  0.3949  0.2354
  776MPD2    H711512   3.210   0.641  11.811 -3.6574  1.7113 -2.3389
  777MPD2     C11513   4.241   3.427   0.801  0.8555  0.1364  1.0734
  777MPD2    C111514   4.302   3.319   0.862  0.3126  0.2828  0.4536
  777MPD2    C211515   4.316   3.202   0.797 -0.4210  0.2488  0.1795
  777MPD2    C311516   4.274   3.190   0.663  0.6028 -0.0540  0.4927
  777MPD2    C411517   4.215   3.291   0.602 -0.9847  0.0149 -0.5470
  777MPD2    C511518   4.208   3.409   0.671 -0.0438 -0.0657  0.0362
  777MPD2     H11519   4.363   3.114   0.840 -0.1757  0.1189 -0.3559
  777MPD2    H111520   4.199   3.299   0.495  0.3708 -0.8857 -0.8190
  777MPD2    H211521   4.227   3.523   0.850 -1.2461  0.6601 -0.5820
  777MPD2    H311522   4.164   3.495   0.622 -1.1102 -0.0893  0.9670
  777MPD2     N11523   4.271   3.055   0.620 -0.2557 -0.4092 -0.5578
  777MPD2    H511524   4.318   2.988   0.680 -1.2576 -0.1189  0.5494
  777MPD2    N111525   4.320   3.329   1.003  0.1612  0.7197  0.3065
  777MPD2    H711526   4.277   3.412   1.042 -0.4124 -0.1911  1.6013
  778MPD2     C11527   0.382   2.923  15.069 -0.4717  0.2545 -0.3431
  778MPD2    C111528   0.398   2.810  14.994  0.5690  0.5463 -0.0108
  778MPD2    C211529   0.490   2.813  14.887 -0.7060  0.3348 -0.3122
  778MPD2    C311530   0.562   2.927  14.866  0.1476  0.5484 -0.1385
  778MPD2    C411531   0.531   3.044  14.936  0.0999 -0.7077 -0.6998
  778MPD2    C511532   0.442   3.042  15.036 -0.6515 -0.1181  0.2275
  778MPD2     H11533   0.519   2.726  14.830  0.7722 -0.5291  1.7586
  778MPD2    H111534   0.590   3.134  14.920 -2.1989  0.7767 -0.9162
  778MPD2    H211535   0.323   2.929  15.159 -1.4461  0.4371 -0.9921
  778MPD2    H311536   0.427   3.135  15.090 -0.2064  0.1059 -0.0421
  778MPD2     N11537   0.653   2.923  14.752  0.1135  0.1105  0.8316
  778MPD2    H511538   0.662   2.835  14.702  2.7719  0.0864  1.3599
  778MPD2    N111539   0.324   2.695  15.010 -0.1572  0.1156  0.0184
  778MPD2    H711540   0.340   2.619  14.945 -0.3890 -0.1511  0.2728
  779MPD2     C11541   4.568   1.948  14.492 -0.3524 -0.4404 -0.3426
  779MPD2    C111542   4.704   1.934  14.470  0.4666  0.2009 -0.0816
  779MPD2    C211543   0.039   2.043  14.412  1.0712  0.1087  0.0685
  779MPD2    C311544   4.710   2.167  14.386 -0.1950 -0.1931  0.1169
  779MPD2    C411545   4.575   2.175  14.406 -0.3709 -0.2070  0.2615
  779MPD2    C511546   4.507   2.063  14.447 -0.0020 -0.0140 -0.3387
  779MPD2     H11547   0.140   2.025  14.378  2.0966  1.4361  2.4095
  779MPD2    H111548   4.515   2.262  14.383 -0.3225 -0.2395  0.0136
  779MPD2    H211549   4.507   1.864  14.525  1.7046 -1.4150  0.9317
  779MPD2    H311550   4.399   2.063  14.439  0.0357  3.1112 -0.9592
  779MPD2     N11551   0.054   2.276  14.337 -0.1981 -0.3037 -0.5443
  779MPD2    H511552   0.154   2.265  14.349 -0.2809  0.1771  0.5750
  779MPD2    N111553   0.045   1.812  14.488 -0.0795  0.5332  0.4255
  779MPD2    H711554   0.143   1.808  14.463  0.0418 -2.1145  1.3513
  780MPD2     C11555   3.898   2.072   0.495 -0.5049  0.6308  0.9229
  780MPD2    C111556   3.945   1.955   0.551  1.2109 -0.1839  0.1270
  780MPD2    C211557   4.080   1.941   0.551 -0.9690 -0.7484  0.7983
  780MPD2    C311558   4.167   2.024   0.489 -0.2307  0.5505  0.4961
  780MPD2    C411559   4.114   2.136   0.427  0.3565  0.9342  0.1587
  780MPD2    C511560   3.981   2.164   0.435 -0.4010 -0.6196  0.2521
  780MPD2     H11561   4.116   1.850   0.597 -4.2243 -1.4933  1.8739
  780MPD2    H111562   4.173   2.202   0.365 -0.7874  0.7791 -1.0701
  780MPD2    H211563   3.797   2.110   0.489  0.2754  2.7694  1.5764
  780MPD2    H311564   3.932   2.243   0.379  1.3382  1.4593  1.6738
  780MPD2     N11565   4.296   1.971   0.454  0.2297 -0.4207 -0.6556
  780MPD2    H511566   4.322   1.877   0.483  1.1139  0.8052  2.5792
  780MPD2    N111567   3.860   1.863   0.615 -0.0231  0.1825  0.8186
  780MPD2    H711568   3.897   1.786   0.670 -1.3304 -1.2991 -0.4011
  781MPD2     C11569   1.312   4.176  12.839 -0.3146  0.3969  0.1697
  781MPD2    C111570   1.368   4.070  12.774  0.1769 -0.5335  0.0491
  781MPD2    C211571   1.393   4.061  12.637  0.0495  0.4024  0.3716
  781MPD2    C311572   1.361   4.167  12.556  0.7259 -0.0561  0.0953
  781MPD2    C411573   1.306   4.280  12.623 -0.3056  0.5299  0.3301
  781MPD2    C511574   1.284   4.282  12.762  0.1267 -0.6902  0.4697
  781MPD2     H11575   1.425   3.967  12.593  0.2519  0.0029  1.3671
  781MPD2    H111576   1.289   4.376  12.575  0.3196  0.3635 -0.2248
  781MPD2    H211577   1.293   4.181  12.945  0.1009  3.5676  0.0968
  781MPD2    H311578   1.239   4.372  12.803  1.0550 -0.2322  0.4821
  781MPD2     N11579   1.371   4.165  12.408 -0.1615  0.5704  0.8017
  781MPD2    H511580   1.333   4.247  12.361  2.6679  1.8967  0.8301
  781MPD2    N111581   1.393   3.947  12.839  0.2338  0.1552  0.7795
  781MPD2    H711582   1.438   3.870  12.790  3.1429  2.1349  0.3101
  782MPD2     C11583   3.566   4.170  10.455  0.2972  0.2440 -0.6352
  782MPD2    C111584   3.658   4.154  10.555  0.1372  0.4587  0.4180
  782MPD2    C211585   3.720   4.268  10.597  0.3770  0.1011 -0.9104
  782MPD2    C311586   3.710   4.391  10.534 -0.0883 -0.0852  0.6440
  782MPD2    C411587   3.610   4.399  10.440  0.1205  0.3322 -0.0086
  782MPD2    C511588   3.542   4.291  10.402  0.1178 -0.6385 -0.5496
  782MPD2     H11589   3.785   4.254  10.683  1.7681  1.1395 -1.8052
  782MPD2    H111590   3.578   4.493  10.397 -0.3840  0.6836  1.1201
  782MPD2    H211591   3.524   4.082  10.407 -0.6924 -0.1296  0.9432
  782MPD2    H311592   3.473   4.304  10.319 -1.7395 -1.6762  0.8296
  782MPD2     N11593   3.782   4.505  10.582 -0.1914  0.1211  0.2599
  782MPD2    H511594   3.840   4.486  10.663 -1.5680  0.2688  1.2878
  782MPD2    N111595   3.704   4.029  10.605 -0.6776 -0.1357  0.2527
  782MPD2    H711596   3.787   4.033  10.663 -0.2815 -0.2072 -0.3137
  783MPD2     C11597   3.741   3.545  11.339 -0.0029 -0.2788 -0.2232
  783MPD2    C111598   3.717   3.680  11.314 -0.5268 -0.4467  0.2329
  783MPD2    C211599   3.746   3.726  11.191 -0.2638  0.2479  0.0231
  783MPD2    C311600   3.796   3.647  11.090  0.0475  0.2734 -0.4927
  783MPD2    C411601   3.793   3.506  11.105 -0.3421 -0.2358  0.1543
  783MPD2    C511602   3.777   3.461  11.237 -0.3491  0.2120  0.4773
  783MPD2     H11603   3.740   3.833  11.177  0.1365  0.2226 -0.3395
  783MPD2    H111604   3.825   3.437  11.028  1.6064  1.3324 -0.4243
  783MPD2    H211605   3.718   3.506  11.437  0.4745 -0.7488 -0.2986
  783MPD2    H311606   3.792   3.356  11.261 -0.3499  0.9223  3.5586
  783MPD2     N11607   3.842   3.712  10.972  0.4900  0.1591 -0.6714
  783MPD2    H511608   3.828   3.813  10.972  0.1966  0.1219  1.2670
  783MPD2    N111609   3.666   3.759  11.422 -0.0613 -0.6561  0.7985
  783MPD2    H711610   3.629   3.709  11.502 -0.8836  0.1751  0.9312
  784MPD2     C11611   1.784   4.711   0.854  0.1064 -0.0577  0.3056
  784MPD2    C111612   1.816   0.110   0.856  0.4484  0.6913  0.2183
  784MPD2    C211613   1.722   0.197   0.825  0.1319 -0.4887 -0.2108
  784MPD2    C311614   1.602   0.155   0.770  0.5182  0.4033  0.0939
  784MPD2    C411615   1.573   0.020   0.762 -0.3541  0.4475 -0.7316
  784MPD2    C511616   1.663   4.664   0.803  0.4030  0.6324  0.0870
  784MPD2     H11617   1.737   0.303   0.844  2.4870 -1.1973  1.7153
  784MPD2    H111618   1.488   4.711   0.712 -0.0135  0.9163 -1.7323
  784MPD2    H211619   1.849   4.627   0.877  1.3093  0.3259 -1.6455
  784MPD2    H311620   1.647   4.558   0.788 -0.3243  0.7101  0.3241
  784MPD2     N11621   1.499   0.251   0.733  0.7355 -0.1926 -0.4712
  784MPD2    H511622   1.526   0.348   0.742  3.2695 -0.8366 -1.1614
  784MPD2    N111623   1.937   0.161   0.907  0.1443  0.3399  0.2105
  784MPD2    H711624   1.943   0.261   0.921 -0.6180  0.7905 -2.5264
  785MPD2     C11625   1.409   3.862  10.798  0.4788 -0.1090 -0.3788
  785MPD2    C111626   1.415   3.923  10.922 -0.2598  0.0120  0.8049
  785MPD2    C211627   1.316   4.012  10.949  0.2469  0.2097 -0.6483
  785MPD2    C311628   1.219   4.049  10.858 -0.0563  0.1152 -0.3838
  785MPD2    C411629   1.227   3.993  10.733  0.3659 -0.5846  0.0224
  785MPD2    C511630   1.320   3.898  10.702  0.3097 -0.6561 -0.5473
  785MPD2     H11631   1.312   4.072  11.039  1.5675  0.8587 -1.0010
  785MPD2    H111632   1.157   4.014  10.654  0.2314  0.4931  0.4285
  785MPD2    H211633   1.485   3.791  10.765  1.1821 -0.4146  1.8892
  785MPD2    H311634   1.324   3.851  10.605  1.3850 -0.1356 -0.7590
  785MPD2     N11635   1.145   4.162  10.888  0.3420 -0.1626  0.2726
  785MPD2    H511636   1.152   4.204  10.980 -0.2637 -0.7288  0.5749
  785MPD2    N111637   1.517   3.885  11.014  0.2093  0.1848  0.6763
  785MPD2    H711638   1.587   3.813  11.001  2.9743  2.8492  0.8062
  786MPD2     C11639   1.119   1.587  14.567 -0.1935 -0.2806  0.0638
  786MPD2    C111640   1.077   1.473  14.634 -0.4369 -0.6475 -0.0141
  786MPD2    C211641   1.142   1.442  14.756 -0.1945 -0.4565 -0.0550
  786MPD2    C311642   1.249   1.508  14.803  0.6383  0.6434  0.3554
  786MPD2    C411643   1.286   1.626  14.733  1.1118 -0.2724 -0.0992
  786MPD2    C511644   1.220   1.668  14.621  0.0411 -0.3279  1.0575
  786MPD2     H11645   1.110   1.355  14.813 -0.0126  0.0259  0.7852
  786MPD2    H111646   1.365   1.687  14.775  0.0690  0.2356  1.1278
  786MPD2    H211647   1.068   1.624  14.479  1.5995  0.7916 -0.5257
  786MPD2    H311648   1.252   1.753  14.560  0.6676  0.2007  2.1229
  786MPD2     N11649   1.319   1.482  14.919 -0.1824  0.0188  0.1956
  786MPD2    H511650   1.379   1.554  14.958  0.5072  0.1006 -1.0378
  786MPD2    N111651   0.967   1.391  14.598  0.5665 -0.6492  0.2597
  786MPD2    H711652   0.949   1.317  14.665 -2.5476 -1.0192 -0.9756
  787MPD2     C11653   0.762   1.078  15.056  0.0239  0.5291  0.2725
  787MPD2    C111654   0.720   1.012  14.942 -0.6146  0.0929 -0.9888
  787MPD2    C211655   0.746   0.874  14.938  0.5930 -1.0975 -0.9378
  787MPD2    C311656   0.808   0.810  15.049 -0.1403 -1.0562  0.1390
  787MPD2    C411657   0.818   0.879  15.165  0.0885 -0.0345  0.3208
  787MPD2    C511658   0.804   1.017  15.169  0.6547 -0.2080 -0.3240
  787MPD2     H11659   0.738   0.812  14.849 -0.2355 -1.5259 -0.5560
  787MPD2    H111660   0.865   0.839  15.254  1.8050  0.3310 -0.4085
  787MPD2    H211661   0.752   1.186  15.056 -1.8179  0.3708  2.0137
  787MPD2    H311662   0.809   1.070  15.263 -5.1043  2.5165 -1.5378
  787MPD2     N11663   0.865   0.678  15.025  0.0007 -0.1300  0.1652
  787MPD2    H511664   0.865   0.658  14.925 -0.6752 -0.5476  0.2490
  787MPD2    N111665   0.696   1.087  14.830  0.2278 -0.1477  0.5878
  787MPD2    H711666   0.722   1.185  14.832  2.0197 -0.6388  1.5698
  788MPD2     C11667   2.499   4.154   1.255  0.3220 -0.7332 -1.0908
  788MPD2    C111668   2.584   4.187   1.150 -0.6265  0.6339 -0.3472
  788MPD2    C211669   2.525   4.238   1.038 -0.9482 -0.0678  0.7820
  788MPD2    C311670   2.392   4.277   1.035  0.0373  0.2387 -0.0574
  788MPD2    C411671   2.315   4.258   1.146  0.6010  0.2773  1.0771
  788MPD2    C511672   2.369   4.192   1.253 -0.4505  0.3327 -0.4090
  788MPD2     H11673   2.589   4.245   0.951  1.4495  0.3943  2.5856
  788MPD2    H111674   2.209   4.282   1.151  1.0282  2.0057  1.7707
  788MPD2    H211675   2.530   4.103   1.345  0.7106 -1.4753 -1.6511
  788MPD2    H311676   2.303   4.154   1.330 -2.4350  1.3850 -1.5695
  788MPD2     N11677   2.326   4.337   0.925  0.6357  0.0586  0.7310
  788MPD2    H511678   2.234   4.373   0.946 -0.3887 -1.9730 -0.2699
  788MPD2    N111679   2.715   4.140   1.139  0.4388  0.0729 -0.5144
  788MPD2    H711680   2.778   4.183   1.072 -1.4980 -0.0021 -2.3931
  789MPD2     C11681   2.949   3.398  16.953  0.1903 -0.3089 -0.1572
  789MPD2    C111682   2.932   3.449  16.827 -0.0084 -0.4602 -0.4026
  789MPD2    C211683   2.844   3.552  16.800 -0.4737 -0.0803  0.0150
  789MPD2    C311684   2.781   3.618  16.902 -0.1741  0.3188  0.2318
  789MPD2    C411685   2.803   3.575  17.028 -0.3103 -0.2608  0.7409
  789MPD2    C511686   2.886   3.468  17.054  0.1105  0.2928  0.3497
  789MPD2     H11687   2.826   3.584  16.698 -0.8608 -0.5740 -0.0701
  789MPD2    H111688   2.765   3.625  17.117 -2.7564 -0.3734 -0.2584
  789MPD2    H211689   3.008   3.310  16.974  1.0467 -0.4594 -3.1103
  789MPD2    H311690   2.891   3.416  17.149  0.3089  0.4628  0.4313
  789MPD2     N11691   2.699   3.727  16.881  0.1519  0.0618 -0.0372
  789MPD2    H511692   2.669   3.775  16.965  3.0626  1.7943  0.0039
  789MPD2    N111693   2.991   3.384  16.717  0.0328 -0.3248 -0.4295
  789MPD2    H711694   2.955   3.408  16.625 -0.7530  1.6619  0.3978
  790MPD2     C11695   3.949   1.237  13.597 -0.3210  0.4678  0.6399
  790MPD2    C111696   3.938   1.112  13.644  1.1905  0.0165 -0.1588
  790MPD2    C211697   3.915   1.007  13.553  0.0766  1.0328 -0.1132
  790MPD2    C311698   3.905   1.029  13.418 -0.5799 -0.3154 -0.6421
  790MPD2    C411699   3.906   1.161  13.369 -0.3720 -0.0995 -0.5941
  790MPD2    C511700   3.924   1.259  13.461  0.5533  0.0191  0.2443
  790MPD2     H11701   3.900   0.907  13.593 -0.1220  1.4074  0.7555
  790MPD2    H111702   3.903   1.189  13.265 -2.5459 -2.3827 -1.1460
  790MPD2    H211703   3.978   1.323  13.656 -1.2548  1.0714  0.2170
  790MPD2    H311704   3.920   1.362  13.428 -0.6852 -0.3879 -0.8735
  790MPD2     N11705   3.872   0.921  13.335 -0.3755  0.0655  0.1990
  790MPD2    H511706   3.857   0.827  13.371  2.1204 -0.3417  0.1909
  790MPD2    N111707   3.955   1.097  13.786  0.2664  0.2460  0.5209
  790MPD2    H711708   3.946   1.183  13.838 -1.0210 -0.1380  0.9322
  791MPD2     C11709   3.313   0.863  12.796  0.1277  0.1300  0.0048
  791MPD2    C111710   3.339   0.751  12.874  0.5680  0.3174  0.0517
  791MPD2    C211711   3.239   0.659  12.896  0.9611 -0.1293  0.4179
  791MPD2    C311712   3.120   0.663  12.827  0.3684  0.4783  0.0697
  791MPD2    C411713   3.095   0.769  12.749 -0.4401 -0.0873  0.2267
  791MPD2    C511714   3.189   0.873  12.737  0.1808  0.7399  0.0045
  791MPD2     H11715   3.250   0.568  12.955 -0.0955 -0.2816  0.3940
  791MPD2    H111716   3.004   0.779  12.690 -2.1795 -0.5087  2.8714
  791MPD2    H211717   3.385   0.944  12.786 -0.7390  1.0137  1.0536
  791MPD2    H311718   3.173   0.952  12.664 -1.2422 -1.2665 -1.8699
  791MPD2     N11719   3.029   0.557  12.854  0.0272 -0.7812 -0.3091
  791MPD2    H511720   3.072   0.487  12.914  0.4035 -0.6209 -0.3872
  791MPD2    N111721   3.468   0.742  12.933 -0.5117  0.4729  0.2640
  791MPD2    H711722   3.528   0.823  12.919 -1.4041  0.9579 -0.7619
  792MPD2     C11723   3.926   0.927  11.339  0.0646 -0.3327  0.6524
  792MPD2    C111724   3.857   0.950  11.226  0.0421  0.2538 -0.2003
  792MPD2    C211725   3.730   0.896  11.216 -0.4062  0.2622 -0.4826
  792MPD2    C311726   3.672   0.821  11.314  0.1416 -0.1814  0.0198
  792MPD2    C411727   3.733   0.813  11.435  0.2009 -0.6030  0.9009
  792MPD2    C511728   3.860   0.867  11.443  0.5060  0.0318 -0.9314
  792MPD2     H11729   3.673   0.915  11.126  0.6305 -1.8412 -1.5868
  792MPD2    H111730   3.679   0.764  11.516 -0.0904 -1.9270 -0.0955
  792MPD2    H211731   4.030   0.955  11.354  0.3923 -1.1345 -0.0748
  792MPD2    H311732   3.901   0.873  11.543 -0.1110 -0.3507 -0.6493
  792MPD2     N11733   3.542   0.764  11.301  0.1319  0.1908 -0.1723
  792MPD2    H511734   3.514   0.713  11.385 -1.9027 -0.3721 -1.2014
  792MPD2    N111735   3.917   1.021  11.120 -0.4001 -0.0641 -0.1351
  792MPD2    H711736   4.002   1.073  11.143  0.2702 -0.3837 -1.9574
  793MPD2     C11737   2.820   0.905  10.635 -0.0030  1.0856 -0.1518
  793MPD2    C111738   2.954   0.896  10.640 -0.4386 -0.4023  0.9113
  793MPD2    C211739   3.012   0.873  10.766  0.1082 -0.5403 -0.0939
  793MPD2    C311740   2.938   0.864  10.878  0.3503 -1.0533  0.2141
  793MPD2    C411741   2.803   0.893  10.873 -0.2128 -0.3458 -0.6735
  793MPD2    C511742   2.751   0.919  10.749  0.1974  0.4351  0.1079
  793MPD2     H11743   3.119   0.862  10.775  0.0832  0.2167  1.0832
  793MPD2    H111744   2.742   0.898  10.963 -0.3342 -1.8410 -0.6722
  793MPD2    H211745   2.761   0.916  10.545  1.0617  2.3043 -0.7129
  793MPD2    H311746   2.646   0.942  10.741 -0.0963 -0.7988  0.3694
  793MPD2     N11747   3.004   0.825  10.995  0.1751  0.4872 -0.0661
  793MPD2    H511748   3.102   0.800  10.983  0.2181  0.4088  0.4342
  793MPD2    N111749   3.043   0.891  10.532  0.5315  0.2361 -0.1059
  793MPD2    H711750   3.134   0.852  10.554  0.0311 -0.5375  0.6063
  794MPD2     C11751   3.653   0.012  17.316 -0.5831 -0.1190 -0.2189
  794MPD2    C111752   3.546   0.087  17.362  0.1159  0.4025 -0.4382
  794MPD2    C211753   3.461   0.138  17.267  0.3660 -0.1285  0.6898
  794MPD2    C311754   3.468   0.112  17.133 -0.0070  0.4000  0.4851
  794MPD2    C411755   3.584   0.053  17.092  0.6030 -0.5085 -0.1168
  794MPD2    C511756   3.671   4.730  17.180  0.2719  0.3458  0.0810
  794MPD2     H11757   3.382   0.201  17.307  0.8366  1.0451 -0.2273
  794MPD2    H111758   3.600   0.035  16.987 -0.2436  1.6675 -0.6366
  794MPD2    H211759   3.718   4.692  17.384  0.3716 -0.9953 -1.8582
  794MPD2    H311760   3.752   4.666  17.146 -1.3268 -1.6280 -0.0596
  794MPD2     N11761   3.368   0.127  17.035  0.3317 -0.3329  0.3022
  794MPD2    H511762   3.389   0.110  16.937  0.7581 -0.2393  0.3754
  794MPD2    N111763   3.509   0.119  17.495  0.2344 -0.3032  0.1296
  794MPD2    H711764   3.423   0.169  17.514 -0.5580 -0.9646 -1.7950
  795MPD2     C11765   1.501   2.614  13.811  0.2584  0.2009 -0.2264
  795MPD2    C111766   1.445   2.507  13.758 -0.8812 -0.1814 -0.3622
  795MPD2    C211767   1.524   2.395  13.736 -0.4117  0.1927 -0.3073
  795MPD2    C311768   1.659   2.391  13.760  0.3280  0.4227 -0.0447
  795MPD2    C411769   1.709   2.497  13.828 -0.3874  0.8804 -0.1543
  795MPD2    C511770   1.631   2.604  13.850  0.2947 -0.2551 -0.6986
  795MPD2     H11771   1.472   2.315  13.685 -1.6201  0.5140  0.4405
  795MPD2    H111772   1.815   2.505  13.845 -0.4871 -0.3019  1.0579
  795MPD2    H211773   1.452   2.698  13.859 -1.4898 -1.1445  0.3297
  795MPD2    H311774   1.670   2.682  13.915 -2.8586  0.3197  0.4854
  795MPD2     N11775   1.732   2.283  13.710  0.1132  0.1532 -0.2479
  795MPD2    H511776   1.682   2.207  13.664  0.7623  0.6853 -1.8342
  795MPD2    N111777   1.315   2.507  13.717  0.0345 -0.0767 -0.3852
  795MPD2    H711778   1.277   2.426  13.669 -0.8663 -0.2137  0.5523
  796MPD2     C11779   0.711   3.632  15.659  0.7288  0.4427  0.2888
  796MPD2    C111780   0.745   3.725  15.750 -0.0936  0.3750 -0.1093
  796MPD2    C211781   0.720   3.856  15.723  0.6318 -0.6785 -0.6692
  796MPD2    C311782   0.647   3.892  15.609 -0.0886  0.2911  0.4607
  796MPD2    C411783   0.619   3.800  15.509  0.2105  0.5135 -0.3117
  796MPD2    C511784   0.647   3.670  15.544 -0.0410  0.2746 -0.2547
  796MPD2     H11785   0.763   3.930  15.789 -0.8621 -1.0003  0.6835
  796MPD2    H111786   0.576   3.821  15.412 -1.7433  0.0166  0.4305
  796MPD2    H211787   0.741   3.528  15.672 -1.3938 -0.3182 -0.8542
  796MPD2    H311788   0.619   3.587  15.480  0.1615  0.4538 -0.5758
  796MPD2     N11789   0.606   4.025  15.595  0.3296 -0.2633 -0.3988
  796MPD2    H511790   0.620   4.096  15.666  2.4335 -1.0942  0.0366
  796MPD2    N111791   0.824   3.680  15.864  0.2034 -0.2542 -0.2261
  796MPD2    H711792   0.826   3.579  15.873  3.1473 -0.0405  1.5484
  797MPD2     C11793   2.430   3.747  17.271 -0.5047  0.6646 -0.1986
  797MPD2    C111794   2.429   3.662  17.167  0.2916 -0.3782 -0.3378
  797MPD2    C211795   2.365   3.703  17.052  0.4593  0.3516 -0.2324
  797MPD2    C311796   2.304   3.826  17.042  0.6590 -0.0660  0.6415
  797MPD2    C411797   2.307   3.913  17.151 -0.5136  0.4765 -0.2081
  797MPD2    C511798   2.372   3.869  17.268  0.4060 -0.2269 -0.1702
  797MPD2     H11799   2.357   3.625  16.977 -0.4900  0.0824  0.1485
  797MPD2    H111800   2.261   4.010  17.145 -1.0162  0.1713 -1.2977
  797MPD2    H211801   2.476   3.720  17.366  2.5108  1.1310 -1.4995
  797MPD2    H311802   2.379   3.939  17.351 -2.5265  0.9872 -0.9464
  797MPD2     N11803   2.210   3.859  16.934  0.2154 -0.2928 -0.9189
  797MPD2    H511804   2.157   3.945  16.944 -0.2183 -0.6994  0.3308
  797MPD2    N111805   2.493   3.536  17.169 -0.5237  0.3549  0.0963
  797MPD2    H711806   2.480   3.478  17.087 -0.0541 -1.1905  1.0908
  798MPD2     C11807   1.857   3.294  16.869 -1.0767 -0.3812 -0.3425
  798MPD2    C111808   1.889   3.406  16.938  0.1503 -0.0415 -0.4876
  798MPD2    C211809   1.958   3.401  17.062  0.8325 -0.2468  0.3446
  798MPD2    C311810   2.017   3.283  17.099  0.3647 -0.5925  0.2100
  798MPD2    C411811   1.983   3.171  17.026 -0.2225 -0.3806  0.3181
  798MPD2    C511812   1.906   3.171  16.914 -0.4044  0.1671 -0.4983
  798MPD2     H11813   1.966   3.491  17.122  1.4512  0.0621 -0.1965
  798MPD2    H111814   2.018   3.072  17.055 -0.3066  0.1215  2.1708
  798MPD2    H211815   1.786   3.306  16.788  0.5001  2.2595 -1.3409
  798MPD2    H311816   1.881   3.076  16.867  0.4041 -0.7681  0.9764
  798MPD2     N11817   2.128   3.282  17.189 -0.0307  0.0176 -0.1495
  798MPD2    H511818   2.169   3.368  17.223  1.0801 -1.2184  1.6260
  798MPD2    N111819   1.825   3.521  16.883 -0.1597 -0.8420  0.0263
  798MPD2    H711820   1.795   3.508  16.786  0.0983 -0.6859 -0.0748
  799MPD2     C11821   1.105   0.289  14.432  0.5423  0.2794  0.4271
  799MPD2    C111822   1.002   0.234  14.512 -0.1450  0.3138  0.3300
  799MPD2    C211823   0.894   0.311  14.533 -0.2965  0.0882  0.4328
  799MPD2    C311824   0.879   0.434  14.473  1.0854 -0.8469 -0.2660
  799MPD2    C411825   0.982   0.493  14.409 -0.4706  0.0547  0.3257
  799MPD2    C511826   1.095   0.417  14.395  0.8060  0.0164  1.0062
  799MPD2     H11827   0.819   0.256  14.589 -0.1559  0.0181  0.5498
  799MPD2    H111828   0.983   0.596  14.376 -1.2293 -0.4522 -1.2754
  799MPD2    H211829   1.191   0.227  14.407 -1.2303 -2.2891  0.7733
  799MPD2    H311830   1.180   0.466  14.347  2.5521 -3.7487  0.3014
  799MPD2     N11831   0.765   0.509  14.492  0.0150  0.1351 -0.0641
  799MPD2    H511832   0.769   0.609  14.471  1.4232  0.2227  0.6167
  799MPD2    N111833   1.017   0.114  14.580  0.2760 -0.9358 -0.6151
  799MPD2    H711834   0.938   0.088  14.638 -1.4011 -1.4412 -3.1031
  800MPD2     C11835   1.342   1.283  13.937  0.7357  0.5001  0.1684
  800MPD2    C111836   1.480   1.289  13.918 -0.1556  0.0092 -0.6700
  800MPD2    C211837   1.528   1.193  13.828  0.7395 -0.2083  0.1254
  800MPD2    C311838   1.437   1.119  13.761 -0.0283  0.8720  0.2821
  800MPD2    C411839   1.303   1.113  13.781 -1.2219 -0.2000  0.7502
  800MPD2    C511840   1.258   1.193  13.877 -0.2273 -0.3017 -0.1466
  800MPD2     H11841   1.634   1.187  13.805  0.8444  3.6335 -0.4319
  800MPD2    H111842   1.243   1.036  13.735 -1.6372 -0.3901  1.5959
  800MPD2    H211843   1.301   1.357  14.004  0.3736  1.9203 -1.6341
  800MPD2    H311844   1.150   1.197  13.889 -0.0872  0.3085  0.8567
  800MPD2     N11845   1.498   1.035  13.663  0.0587 -0.5294  0.3663
  800MPD2    H511846   1.597   1.056  13.652  0.4450 -2.5304  0.1380
  800MPD2    N111847   1.558   1.392  13.972 -0.5947 -0.3239 -0.0587
  800MPD2    H711848   1.510   1.468  14.019 -0.7012  0.2606 -1.1192
  801MPD2     C11849   1.822   2.211  14.042 -0.5620  0.3493  0.0756
  801MPD2    C111850   1.739   2.103  14.051 -0.4061  0.0292  0.1232
  801MPD2    C211851   1.616   2.118  14.115 -1.0192 -0.2036  0.5217
  801MPD2    C311852   1.592   2.233  14.192 -0.4551 -0.0445  0.3838
  801MPD2    C411853   1.680   2.339  14.187  0.0408  0.1464  0.4874
  801MPD2    C511854   1.794   2.327  14.106 -0.2555 -0.1077  0.6374
  801MPD2     H11855   1.547   2.034  14.118 -0.2262 -0.8570  0.4470
  801MPD2    H111856   1.659   2.430  14.241 -1.1931 -0.8498  1.6815
  801MPD2    H211857   1.923   2.195  14.005 -1.2523 -0.9821 -1.2243
  801MPD2    H311858   1.870   2.405  14.111  1.0413 -1.2513 -1.3192
  801MPD2     N11859   1.500   2.240  14.299 -0.1932  0.4413 -0.1072
  801MPD2    H511860   1.517   2.311  14.370  1.0250  1.6785 -1.6711
  801MPD2    N111861   1.788   1.979  13.998  0.4838 -0.5936 -0.6176
  801MPD2    H711862   1.887   1.971  13.977  1.0695  1.0271  1.4974
  802MPD2     C11863   0.943   2.898   0.361  1.0390 -0.3628 -0.0747
  802MPD2    C111864   0.871   2.791   0.403  0.0861 -0.0254 -0.5377
  802MPD2    C211865   0.918   2.658   0.384 -0.2548  0.7159 -0.8063
  802MPD2    C311866   1.045   2.639   0.330  0.6679  0.0349  0.0252
  802MPD2    C411867   1.123   2.748   0.311  1.1111  0.0180  0.0015
  802MPD2    C511868   1.071   2.869   0.325  0.2041 -0.1612 -0.0608
  802MPD2     H11869   0.863   2.569   0.412  0.0802  0.9620  0.6482
  802MPD2    H111870   1.226   2.741   0.279  1.4973 -0.7227  1.3855
  802MPD2    H211871   0.904   2.999   0.368  2.4596  0.2306 -0.9379
  802MPD2    H311872   1.138   2.949   0.297  0.8499 -0.5224  0.4230
  802MPD2     N11873   1.087   2.503   0.298 -0.3117 -0.0158 -0.2610
  802MPD2    H511874   1.035   2.423   0.331  2.2665 -0.6978  2.2054
  802MPD2    N111875   0.738   2.805   0.447 -0.1022  0.0022 -0.6797
  802MPD2    H711876   0.692   2.719   0.478  2.6985 -0.7105  1.4695
  803MPD2     C11877   1.224   0.629  12.018  0.3879 -0.0290  0.2432
  803MPD2    C111878   1.302   0.743  12.037  0.0328  0.3766  0.4397
  803MPD2    C211879   1.380   0.754  12.149 -0.6402  0.8931  0.1585
  803MPD2    C311880   1.394   0.654  12.243 -0.3715 -0.1606 -0.1427
  803MPD2    C411881   1.326   0.538  12.213  0.1306  0.2929 -0.6720
  803MPD2    C511882   1.240   0.527  12.106 -0.3482 -0.3283 -0.2310
  803MPD2     H11883   1.434   0.847  12.145  1.2081 -0.1395  1.3653
  803MPD2    H111884   1.332   0.442  12.264  0.5145 -0.1325 -1.5074
  803MPD2    H211885   1.180   0.614  11.921  1.9884  2.9768 -0.9410
  803MPD2    H311886   1.186   0.435  12.087 -0.1674 -0.8538  1.8135
  803MPD2     N11887   1.475   0.657  12.359 -0.0062  0.1362 -0.1679
  803MPD2    H511888   1.471   0.575  12.420  0.6903  1.0673  1.1215
  803MPD2    N111889   1.300   0.847  11.940  0.1257 -0.3767  0.5116
  803MPD2    H711890   1.366   0.923  11.948 -0.7768  0.3453  1.1942
  804MPD2     C11891   1.355   2.136  16.810 -0.7942 -0.0405  0.2843
  804MPD2    C111892   1.443   2.046  16.871 -0.6005 -0.4611 -0.4844
  804MPD2    C211893   1.568   2.085  16.906 -0.0347 -0.1400 -0.2999
  804MPD2    C311894   1.605   2.216  16.886  0.3114  0.5356  0.1128
  804MPD2    C411895   1.515   2.304  16.831  0.0052  0.3392  0.0750
  804MPD2    C511896   1.392   2.266  16.790 -0.2813  0.2679  0.0024
  804MPD2     H11897   1.642   2.024  16.956 -0.0051  0.8524  0.8836
  804MPD2    H111898   1.553   2.402  16.807  0.2927  0.1651 -0.1814
  804MPD2    H211899   1.262   2.111  16.760 -0.8561 -1.3503  1.0629
  804MPD2    H311900   1.317   2.335  16.753 -0.2899  0.5049  0.4702
  804MPD2     N11901   1.737   2.241  16.916 -0.2284  0.6160 -0.3534
  804MPD2    H511902   1.811   2.171  16.922 -1.8465 -1.0711 -0.0033
  804MPD2    N111903   1.396   1.918  16.906  0.5574  1.0699  0.0295
  804MPD2    H711904   1.456   1.874  16.975  1.2328 -0.2089 -1.3681
  805MPD2     C11905   0.566   0.365  15.237  0.3456  0.0406  0.0463
  805MPD2    C111906   0.582   0.229  15.257  0.4060 -0.0028  0.8711
  805MPD2    C211907   0.660   0.188  15.359  0.4247  0.1975  0.0877
  805MPD2    C311908   0.726   0.280  15.438 -0.1244  0.5082  0.6395
  805MPD2    C411909   0.707   0.415  15.423 -0.0773  0.5005 -0.1911
  805MPD2    C511910   0.622   0.456  15.321 -0.7000 -0.1730  0.3274
  805MPD2     H11911   0.678   0.084  15.381 -0.7555  0.3133  1.5422
  805MPD2    H111912   0.769   0.486  15.477 -0.3068  0.7283 -0.2279
  805MPD2    H211913   0.513   0.401  15.149  0.1640  0.8507  0.4900
  805MPD2    H311914   0.621   0.557  15.282 -0.0314 -0.2656  0.0805
  805MPD2     N11915   0.814   0.225  15.528 -0.3739 -1.0494  0.1584
  805MPD2    H511916   0.828   0.125  15.529 -0.7579 -1.1082 -0.6993
  805MPD2    N111917   0.528   0.122  15.179 -0.0290  0.4541 -0.4695
  805MPD2    H711918   0.570   0.033  15.202 -0.7301  0.1689 -0.2854
  806MPD2     C11919   1.661   3.895   0.325  0.5902 -0.0247 -0.5686
  806MPD2    C111920   1.584   3.946   0.427 -0.1317 -0.3472 -0.4714
  806MPD2    C211921   1.571   4.084   0.437  0.3704 -0.3660 -0.3388
  806MPD2    C311922   1.648   4.175   0.372  0.1636 -0.4782 -0.1078
  806MPD2    C411923   1.727   4.126   0.269  0.0712 -0.1917  0.5763
  806MPD2    C511924   1.734   3.989   0.254 -0.0005 -0.0303 -0.2428
  806MPD2     H11925   1.505   4.125   0.513 -0.5692 -1.3874 -0.6079
  806MPD2    H111926   1.781   4.190   0.200  2.3483 -1.3881  1.2576
  806MPD2    H211927   1.681   3.789   0.315  1.0678 -0.3170  3.5235
  806MPD2    H311928   1.791   3.941   0.175  0.1534 -0.6751  0.2604
  806MPD2     N11929   1.632   4.315   0.400 -0.6429 -0.1800  0.1660
  806MPD2    H511930   1.559   4.339   0.467  0.1607  1.2734  0.5281
  806MPD2    N111931   1.527   3.858   0.518  0.2193 -0.2802  0.0706
  806MPD2    H711932   1.562   3.763   0.523  0.9224 -0.1294 -1.9513
  807MPD2     C11933   0.977   3.848   1.209 -0.2479 -0.1793 -0.3198
  807MPD2    C111934   1.093   3.766   1.214 -0.0019 -0.0974 -0.3413
  807MPD2    C211935   1.121   3.718   1.343  0.5343 -0.4581 -0.0624
  807MPD2    C311936   1.053   3.752   1.455 -1.0427 -0.8252 -0.4352
  807MPD2    C411937   0.941   3.832   1.442 -0.1880 -0.8191  0.4914
  807MPD2    C511938   0.915   3.886   1.324  0.1110 -0.5275 -0.0956
  807MPD2     H11939   1.207   3.654   1.355  1.7512  1.2343  0.2215
  807MPD2    H111940   0.876   3.847   1.527  1.2312  4.7712  0.6017
  807MPD2    H211941   0.942   3.904   1.123 -0.9443 -0.9788 -0.5625
  807MPD2    H311942   0.830   3.949   1.301  0.7300  0.3446  0.0101
  807MPD2     N11943   1.087   3.682   1.578 -0.3002 -0.0580 -0.1807
  807MPD2    H511944   1.153   3.604   1.580  0.9572  0.9596 -3.2171
  807MPD2    N111945   1.186   3.745   1.113 -0.2098  0.3684 -0.0903
  807MPD2    H711946   1.265   3.685   1.135 -1.1471 -1.1076 -0.7440
  808MPD2     C11947   0.445   1.998   9.752 -0.4109  0.8016 -0.3419
  808MPD2    C111948   0.388   2.078   9.656  0.1767 -0.0601 -0.6256
  808MPD2    C211949   0.434   2.206   9.637 -0.0388 -0.0081 -0.4891
  808MPD2    C311950   0.546   2.247   9.705 -0.2448 -0.3235  0.1984
  808MPD2    C411951   0.607   2.170   9.795 -0.4093  0.5159  0.9384
  808MPD2    C511952   0.559   2.044   9.823 -0.6602  0.4534  0.0027
  808MPD2     H11953   0.383   2.263   9.560 -2.2076  0.1441  1.0683
  808MPD2    H111954   0.695   2.211   9.844 -0.8518  5.7143 -2.6091
  808MPD2    H211955   0.419   1.894   9.767 -2.0345  1.1045 -1.1597
  808MPD2    H311956   0.599   1.980   9.900 -1.5885 -0.4769 -0.2877
  808MPD2     N11957   0.605   2.368   9.677  0.2447 -0.0362 -0.1629
  808MPD2    H511958   0.671   2.390   9.751 -3.3182 -2.3709  3.6494
  808MPD2    N111959   0.276   2.016   9.590  0.0194  0.0796 -0.0734
  808MPD2    H711960   0.227   2.087   9.536 -2.5465 -0.0151  2.1450
  809MPD2     C11961   1.181   2.927   8.955 -0.3163 -0.5669  0.3094
  809MPD2    C111962   1.173   2.799   8.989 -0.1678  0.2418  0.3745
  809MPD2    C211963   1.089   2.765   9.095  0.3184 -0.5628  0.6513
  809MPD2    C311964   1.018   2.857   9.165 -0.3890  0.2597  0.2678
  809MPD2    C411965   1.017   2.991   9.120 -0.3243  1.0742  0.2683
  809MPD2    C511966   1.104   3.028   9.016  0.6725  0.1194  0.3976
  809MPD2     H11967   1.086   2.661   9.125  0.2287 -0.2990  1.5508
  809MPD2    H111968   0.960   3.067   9.172  1.0850 -0.2209  3.7415
  809MPD2    H211969   1.254   2.960   8.882  0.5979 -0.1306  1.4232
  809MPD2    H311970   1.104   3.129   8.976 -0.4147  0.1972  0.6167
  809MPD2     N11971   0.938   2.822   9.275  0.4311  0.6960  0.0305
  809MPD2    H511972   0.889   2.904   9.310  0.6849 -0.2695  2.6314
  809MPD2    N111973   1.245   2.694   8.932 -0.4534 -0.5038  0.1892
  809MPD2    H711974   1.232   2.602   8.972  1.2679 -0.5332  0.6670
  810MPD2     C11975   0.490   0.553  10.770 -0.2038 -0.6359  0.0834
  810MPD2    C111976   0.390   0.601  10.696 -0.2268 -0.3334  0.1614
  810MPD2    C211977   0.371   0.735  10.685 -0.5653 -0.0167  0.3540
  810MPD2    C311978   0.469   0.827  10.726  0.1689  0.9784 -0.3582
  810MPD2    C411979   0.572   0.772  10.804  0.3948 -0.8216  0.3772
  810MPD2    C511980   0.572   0.639  10.833 -0.1069  0.0211  0.4633
  810MPD2     H11981   0.280   0.767  10.636 -0.3023  0.0461 -0.0938
  810MPD2    H111982   0.638   0.847  10.846  0.4749 -1.4403  1.3633
  810MPD2    H211983   0.499   0.445  10.776  0.3834 -0.6025 -0.1962
  810MPD2    H311984   0.649   0.607  10.903 -1.1869 -0.3988  1.4678
  810MPD2     N11985   0.459   0.971  10.700 -0.1237  0.0621 -0.1536
  810MPD2    H511986   0.511   1.036  10.758  1.1140 -1.0652  0.0043
  810MPD2    N111987   0.313   0.503  10.626  0.2782  0.3360 -0.0210
  810MPD2    H711988   0.348   0.409  10.608  1.2364  1.0001 -1.7040
  811MPD2     C11989   4.367   0.404  10.021 -0.4703  0.7099 -0.1443
  811MPD2    C111990   4.477   0.460  10.076  0.6371  0.3492  0.5805
  811MPD2    C211991   4.521   0.585  10.041  0.2515 -0.2124 -0.1218
  811MPD2    C311992   4.449   0.659   9.948  0.1466  0.5394  0.8209
  811MPD2    C411993   4.334   0.607   9.899  0.3175  0.3996  0.2041
  811MPD2    C511994   4.302   0.481   9.930 -0.1435 -0.0304 -0.1497
  811MPD2     H11995   4.607   0.638  10.080 -0.3162  1.1708 -0.7467
  811MPD2    H111996   4.256   0.658   9.843 -0.2385 -0.5829  0.0858
  811MPD2    H211997   4.328   0.306  10.045  0.3984  0.3388 -0.2298
  811MPD2    H311998   4.226   0.427   9.874 -0.7748 -0.4752  1.1188
  811MPD2     N11999   4.508   0.785   9.920 -0.5676  0.1166 -0.5159
  811MPD2    H512000   4.583   0.813   9.982 -0.5340 -0.6667 -0.1993
  811MPD2    N112001   4.557   0.372  10.156  0.1484 -0.2776 -0.1864
  811MPD2    H712002   4.511   0.291  10.196 -0.4081 -0.4994 -1.2923
  812MPD2     C12003   4.519   0.753  11.938  0.4577 -0.4876  0.1554
  812MPD2    C112004   4.470   0.800  12.057 -1.3429 -0.3239  0.4605
  812MPD2    C212005   4.517   0.743  12.169  0.4496 -0.4505 -0.0438
  812MPD2    C312006   4.598   0.625  12.164 -0.3316 -0.3825  0.6047
  812MPD2    C412007   4.644   0.580  12.045 -0.1641  0.1228 -0.1197
  812MPD2    C512008   4.604   0.652  11.935  0.1105  0.0755  0.0630
  812MPD2     H12009   4.490   0.781  12.267 -0.2411 -2.7100  0.6438
  812MPD2    H112010   4.721   0.504  12.040 -0.2071  0.1324 -0.9778
  812MPD2    H212011   4.500   0.810  11.848  0.6085  1.2005  1.1903
  812MPD2    H312012   4.657   0.640  11.841  1.3296  2.2366  0.4819
  812MPD2     N12013   4.635   0.567  12.289 -0.1558  0.6833 -0.7319
  812MPD2    H512014   4.606   0.613  12.375  0.2825 -0.0951 -0.1727
  812MPD2    N112015   4.378   0.912  12.059  0.2822  0.1601 -1.0152
  812MPD2    H712016   4.352   0.953  11.969 -0.9413  3.2321  0.7220
  813MPD2     C12017   4.063   2.442  13.184  0.3985 -0.1953 -0.2615
  813MPD2    C112018   4.042   2.582  13.183 -0.7835  0.2454  0.7074
  813MPD2    C212019   3.967   2.643  13.276 -0.8707  0.5129 -0.3235
  813MPD2    C312020   3.892   2.573  13.367  0.2408 -0.2400 -0.6783
  813MPD2    C412021   3.901   2.433  13.360  0.0250  0.2625 -0.5735
  813MPD2    C512022   3.983   2.374  13.272  0.0398  0.4996  0.0507
  813MPD2     H12023   3.967   2.751  13.274 -0.5596  0.4723 -2.7956
  813MPD2    H112024   3.847   2.366  13.427 -0.0086 -0.7414 -1.6194
  813MPD2    H212025   4.125   2.382  13.118  0.9325  0.1854 -0.1102
  813MPD2    H312026   4.001   2.267  13.271  0.9397  0.6478  1.2475
  813MPD2     N12027   3.818   2.642  13.465 -0.2770 -0.0867 -0.4463
  813MPD2    H512028   3.826   2.744  13.467  0.5715 -0.1869  1.0202
  813MPD2    N112029   4.100   2.670  13.080 -0.0964  0.0691  0.1247
  813MPD2    H712030   4.082   2.770  13.080 -0.0087  0.0925 -1.5777
  814MPD2     C12031   3.815   3.801  12.507 -0.6801  0.3293 -0.1592
  814MPD2    C112032   3.919   3.730  12.459  0.8051 -0.8580 -0.2118
  814MPD2    C212033   4.046   3.761  12.490  0.5908  0.6641 -0.2712
  814MPD2    C312034   4.069   3.857  12.601  0.3115 -0.0682 -0.0362
  814MPD2    C412035   3.968   3.934  12.648 -0.1547 -0.3933 -0.4097
  814MPD2    C512036   3.840   3.907  12.598  0.0804  0.2118 -0.2127
  814MPD2     H12037   4.116   3.690  12.446 -1.0445 -0.4937 -1.0015
  814MPD2    H112038   3.983   4.009  12.725  1.0498  0.3726 -1.4058
  814MPD2    H212039   3.711   3.780  12.482 -0.3268  0.4988 -1.7970
  814MPD2    H312040   3.761   3.973  12.632  0.2738  0.1239  0.4162
  814MPD2     N12041   4.197   3.888  12.646  0.5916 -0.0289  0.2958
  814MPD2    H512042   4.191   3.965  12.712  2.2836 -0.2295  0.6656
  814MPD2    N112043   3.887   3.620  12.366  1.1005  0.2797  0.4609
  814MPD2    H712044   3.955   3.589  12.298 -0.7504  0.5224 -1.5265
  815MPD2     C12045   4.266   2.129  12.121  0.5350 -0.7751  0.1753
  815MPD2    C112046   4.182   2.063  12.035  0.0135  0.2474 -0.1789
  815MPD2    C212047   4.048   2.047  12.065 -0.1507 -0.1994 -0.2816
  815MPD2    C312048   3.998   2.096  12.185 -0.2651 -0.4806 -0.1886
  815MPD2    C412049   4.079   2.161  12.273 -0.5294 -0.0831  0.5903
  815MPD2    C512050   4.215   2.176  12.244  0.0474  0.3879 -0.6706
  815MPD2     H12051   3.990   1.985  11.997 -0.6018 -1.7458  1.4982
  815MPD2    H112052   4.032   2.202  12.362 -0.5833 -0.1953  0.6143
  815MPD2    H212053   4.370   2.147  12.098  0.9397  0.8474  3.3108
  815MPD2    H312054   4.279   2.235  12.309 -2.3747 -1.0180  3.0236
  815MPD2     N12055   3.863   2.062  12.212 -0.6709  1.1793  0.9959
  815MPD2    H512056   3.814   2.009  12.141  1.1323 -1.4310  1.7204
  815MPD2    N112057   4.248   2.009  11.917  0.4915  0.3931  1.1983
  815MPD2    H712058   4.349   2.015  11.920  0.6472 -1.0777 -0.7486
  816MPD2     C12059   0.360   1.416  17.677 -0.1970  0.7132  0.1215
  816MPD2    C112060   0.449   1.516  17.632 -0.0922  0.0319 -0.2361
  816MPD2    C212061   0.534   1.474  17.528  0.3032 -0.7836 -0.4713
  816MPD2    C312062   0.537   1.349  17.475  0.7612 -0.2243 -0.1059
  816MPD2    C412063   0.448   1.250  17.528 -0.1029  0.3477  0.9203
  816MPD2    C512064   0.355   1.290  17.621  0.6412 -0.0367  0.1751
  816MPD2     H12065   0.607   1.543  17.489 -0.4066 -1.4696 -3.0145
  816MPD2    H112066   0.442   1.150  17.487  0.0212  0.0218  1.6986
  816MPD2    H212067   0.284   1.449   0.007 -0.2955 -0.3067  0.5066
  816MPD2    H312068   0.284   1.213  17.650  1.2200 -0.6538 -0.0457
  816MPD2     N12069   0.625   1.329  17.369 -0.3312 -0.2017 -0.4826
  816MPD2    H512070   0.676   1.411  17.337  0.4996 -1.3159 -2.0242
  816MPD2    N112071   0.435   1.647  17.689 -0.2032  0.0340 -0.2226
  816MPD2    H712072   0.368   1.658   0.025 -1.3871 -2.1712 -0.9469
  817MPD2     C12073   4.134   3.485   9.447  0.1311  0.2000  0.0873
  817MPD2    C112074   4.055   3.374   9.487  0.1942  0.5107  0.6907
  817MPD2    C212075   3.938   3.401   9.552 -0.1483 -0.0866 -0.5691
  817MPD2    C312076   3.911   3.535   9.588  0.4084 -0.0091 -0.0865
  817MPD2    C412077   3.993   3.638   9.546 -0.1315 -0.2734 -0.0985
  817MPD2    C512078   4.103   3.614   9.472 -0.1426  0.0544  0.1586
  817MPD2     H12079   3.877   3.317   9.584 -2.0988  1.9872  1.1535
  817MPD2    H112080   3.975   3.744   9.563 -3.4941 -1.5102  3.9841
  817MPD2    H212081   4.221   3.469   9.385  0.5293  0.2345  0.6371
  817MPD2    H312082   4.164   3.702   9.452 -2.1632  1.3430 -0.4380
  817MPD2     N12083   3.791   3.559   9.656  0.0837  0.2770  0.7269
  817MPD2    H512084   3.741   3.475   9.682 -0.9554  0.9108  0.7541
  817MPD2    N112085   4.086   3.240   9.458 -0.7393  0.0623  0.2770
  817MPD2    H712086   4.012   3.174   9.481 -2.1461  1.4351 -0.3481
  818MPD2     C12087   2.600   3.401   9.592  0.4726 -0.3496 -0.6456
  818MPD2    C112088   2.675   3.290   9.628  0.5501 -0.0267 -0.0381
  818MPD2    C212089   2.675   3.187   9.540 -1.9196 -1.3336  0.3888
  818MPD2    C312090   2.621   3.195   9.415 -0.4083 -0.5897  0.1328
  818MPD2    C412091   2.572   3.312   9.370 -0.1892 -0.3953  0.6274
  818MPD2    C512092   2.545   3.410   9.466  0.6414  0.6047  0.3830
  818MPD2     H12093   2.718   3.094   9.576  1.8198 -0.6295 -2.2692
  818MPD2    H112094   2.531   3.319   9.269  0.8476 -2.4783  0.0689
  818MPD2    H212095   2.574   3.482   9.660  0.4002 -0.0276 -1.0559
  818MPD2    H312096   2.491   3.495   9.427  0.2429  0.7533  1.2868
  818MPD2     N12097   2.608   3.082   9.327 -0.3700 -0.6682  0.2834
  818MPD2    H512098   2.539   3.100   9.254 -0.5034  0.6219  0.7305
  818MPD2    N112099   2.733   3.275   9.758 -0.0811  0.3102 -0.5514
  818MPD2    H712100   2.780   3.188   9.782 -2.7172 -1.0240 -0.2486
  819MPD2     C12101   1.242   4.345  15.829 -0.3662  0.3443  0.3790
  819MPD2    C112102   1.285   4.236  15.763 -0.3724  0.4705 -0.0154
  819MPD2    C212103   1.418   4.210  15.747 -0.4943  0.4966 -0.3213
  819MPD2    C312104   1.511   4.291  15.813  0.3336 -0.6593 -0.2003
  819MPD2    C412105   1.464   4.388  15.894  0.4238  0.5381  0.3535
  819MPD2    C512106   1.329   4.416  15.900  0.4034  0.1213  0.0828
  819MPD2     H12107   1.458   4.126  15.691  0.3765  0.3013  0.6052
  819MPD2    H112108   1.528   4.459  15.944 -0.9406  2.1386 -0.1688
  819MPD2    H212109   1.138   4.374  15.842  0.0907  1.8021  0.7982
  819MPD2    H312110   1.309   4.502  15.963  0.3367  1.0826 -1.2457
  819MPD2     N12111   1.657   4.262  15.803  0.3486  0.5910 -0.0626
  819MPD2    H512112   1.697   4.206  15.728  0.4819  0.7781 -0.1338
  819MPD2    N112113   1.193   4.151  15.700  0.0415 -0.9750 -0.2388
  819MPD2    H712114   1.101   4.192  15.684  0.2352 -0.8067 -0.9146
  820MPD2     C12115   0.572   4.060  14.905 -0.1882  0.1224 -0.1624
  820MPD2    C112116   0.598   4.152  15.000 -0.4458  0.1592 -0.1072
  820MPD2    C212117   0.687   4.114  15.103  0.1206 -0.2491  0.1017
  820MPD2    C312118   0.741   3.982  15.110  0.9717  0.4331  0.1241
  820MPD2    C412119   0.711   3.895  15.014  0.6110  0.5013  0.1266
  820MPD2    C512120   0.623   3.934  14.914 -0.2264  0.4245 -0.3621
  820MPD2     H12121   0.710   4.191  15.176  1.2202 -1.2427  0.7971
  820MPD2    H112122   0.748   3.794  15.027 -1.3367 -0.3480 -0.8903
  820MPD2    H212123   0.504   4.079  14.822  1.7271 -0.8575 -1.9703
  820MPD2    H312124   0.593   3.864  14.837  3.7049 -0.5550 -0.9804
  820MPD2     N12125   0.826   3.940  15.220 -0.9776  0.2255  0.4726
  820MPD2    H512126   0.853   3.843  15.224 -1.5028  0.0299 -0.6885
  820MPD2    N112127   0.527   4.276  14.983  0.1656 -0.3319 -0.1099
  820MPD2    H712128   0.463   4.276  14.904 -1.6562  2.9886  1.3639
  821MPD2     C12129   1.479   1.404  12.921 -0.0094  0.8406 -0.3960
  821MPD2    C112130   1.535   1.438  13.041 -0.0921 -0.1266  0.2781
  821MPD2    C212131   1.596   1.563  13.057  0.6917 -0.2362  0.5224
  821MPD2    C312132   1.594   1.658  12.954 -0.7934  0.0259 -0.4676
  821MPD2    C412133   1.527   1.628  12.836 -0.3014  0.1144 -0.0730
  821MPD2    C512134   1.471   1.502  12.821  0.4620  0.2625  0.1292
  821MPD2     H12135   1.638   1.586  13.154  3.3004  0.0363 -0.6538
  821MPD2    H112136   1.505   1.709  12.767 -0.0321  0.9351  0.8007
  821MPD2    H212137   1.431   1.307  12.908 -0.8398  1.2559 -0.4481
  821MPD2    H312138   1.434   1.477  12.722 -0.7033 -1.9312  1.1094
  821MPD2     N12139   1.647   1.787  12.965  0.1241  0.1205 -0.3709
  821MPD2    H512140   1.645   1.839  12.878 -0.0918  0.7675  0.0196
  821MPD2    N112141   1.544   1.348  13.150 -0.2638  0.3856 -0.7081
  821MPD2    H712142   1.587   1.390  13.231 -1.2539  0.2771 -0.1231
  822MPD2     C12143   2.070   1.159  15.745 -0.6789 -0.8480 -0.2940
  822MPD2    C112144   2.048   1.136  15.880 -0.3480  0.1710 -0.2297
  822MPD2    C212145   1.968   1.214  15.950  0.2652  0.3015 -0.9486
  822MPD2    C312146   1.908   1.319  15.890  0.7812  0.5741  0.2887
  822MPD2    C412147   1.920   1.342  15.755 -0.1364  0.2060 -0.1767
  822MPD2    C512148   2.005   1.263  15.687  0.1489 -0.1365  0.8395
  822MPD2     H12149   1.932   1.186  16.048  1.9447  1.0057 -0.1287
  822MPD2    H112150   1.876   1.427  15.703  0.5429 -0.2770 -1.5536
  822MPD2    H212151   2.144   1.109  15.684  0.6243  1.3210 -0.5089
  822MPD2    H312152   2.019   1.274  15.580  1.8046 -4.4205  0.5882
  822MPD2     N12153   1.831   1.400  15.975  0.1238 -0.0081 -0.4160
  822MPD2    H512154   1.809   1.361  16.066 -2.2665  2.1903 -0.0344
  822MPD2    N112155   2.101   1.026  15.948  0.3325  0.3668 -0.4854
  822MPD2    H712156   2.080   1.011  16.046 -1.8199 -1.2543 -1.2019
  823MPD2     C12157   1.542   1.551  16.745  0.2476  0.2099 -0.0433
  823MPD2    C112158   1.554   1.470  16.633  0.4398 -0.1431 -0.3497
  823MPD2    C212159   1.543   1.331  16.659 -0.2293  0.0611 -0.3773
  823MPD2    C312160   1.516   1.286  16.787 -0.0331 -1.0783  0.2089
  823MPD2    C412161   1.480   1.368  16.892  0.7632  0.0761  0.7053
  823MPD2    C512162   1.500   1.501  16.865 -1.3399  0.0591  0.6731
  823MPD2     H12163   1.560   1.262  16.578  0.0496 -0.7885  0.4059
  823MPD2    H112164   1.451   1.330  16.990  0.2927  0.7441  0.8243
  823MPD2    H212165   1.563   1.657  16.742 -0.5286  0.3226 -1.6255
  823MPD2    H312166   1.510   1.576  16.941 -2.8966  2.0304 -1.0764
  823MPD2     N12167   1.492   1.145  16.802  0.8361 -0.1622 -0.3371
  823MPD2    H512168   1.426   1.128  16.877 -0.7937 -0.6504 -1.8822
  823MPD2    N112169   1.581   1.529  16.506  0.0694 -0.0261  0.8190
  823MPD2    H712170   1.594   1.630  16.511 -0.6720  0.0231  1.8798
  824MPD2     C12171   2.862   0.658  16.052  0.0430 -0.4581  0.2328
  824MPD2    C112172   2.774   0.681  15.953 -0.0933 -0.6913 -0.2209
  824MPD2    C212173   2.786   0.608  15.835  0.0577  0.0633 -0.1944
  824MPD2    C312174   2.900   0.534  15.815  0.2141  0.3448 -0.0392
  824MPD2    C412175   2.995   0.527  15.910 -0.2561  0.0724  0.9711
  824MPD2    C512176   2.976   0.592  16.031  0.5797  0.0013 -0.3539
  824MPD2     H12177   2.706   0.614  15.762 -1.3241  0.7811  1.3782
  824MPD2    H112178   3.087   0.474  15.889 -0.8387 -0.7909  0.5856
  824MPD2    H212179   2.856   0.703  16.150 -0.1847  0.9553 -0.4209
  824MPD2    H312180   3.042   0.590  16.117  1.7051 -0.3013 -1.2240
  824MPD2     N12181   2.910   0.475  15.687 -0.0616  0.1566  0.1286
  824MPD2    H512182   2.835   0.484  15.619 -1.3303  1.9821  1.7769
  824MPD2    N112183   2.651   0.750  15.966 -0.1865 -0.8499 -0.0320
  824MPD2    H712184   2.592   0.749  15.884 -0.5796  0.2667  0.2427
  825MPD2     C12185   3.516   0.605  15.111  0.0490 -0.2893 -0.0821
  825MPD2    C112186   3.418   0.641  15.200 -0.6338  0.1084 -0.5028
  825MPD2    C212187   3.425   0.774  15.247  0.4199  0.3255 -0.3090
  825MPD2    C312188   3.528   0.858  15.219 -0.4364  0.2496 -0.8372
  825MPD2    C412189   3.620   0.823  15.123 -0.2047 -0.1191  0.2939
  825MPD2    C512190   3.610   0.699  15.071 -0.2305  0.2678 -0.0511
  825MPD2     H12191   3.346   0.809  15.312  1.9609  0.3618  1.5469
  825MPD2    H112192   3.706   0.879  15.089  0.1298  0.1933  1.6573
  825MPD2    H212193   3.522   0.507  15.066  1.2578 -0.8833  1.3515
  825MPD2    H312194   3.685   0.676  14.996  0.4620 -0.0429  0.7228
  825MPD2     N12195   3.548   0.990  15.274  0.4541 -0.2818 -0.1033
  825MPD2    H512196   3.628   1.043  15.241 -0.4824  0.2867 -1.4429
  825MPD2    N112197   3.318   0.542  15.233  0.0330 -0.6755 -0.0106
  825MPD2    H712198   3.315   0.452  15.186  0.8001 -0.1603 -1.0379
  826MPD2     C12199   2.400   0.486  13.634  0.4901 -0.4894 -0.3138
  826MPD2    C112200   2.511   0.575  13.633 -1.3326 -0.7960  0.2547
  826MPD2    C212201   2.495   0.703  13.679  0.1351 -0.4105 -0.0832
  826MPD2    C312202   2.380   0.737  13.744  0.1513 -0.3127 -0.2921
  826MPD2    C412203   2.271   0.655  13.750  0.3023 -0.5685 -0.2434
  826MPD2    C512204   2.281   0.526  13.698 -0.0021 -0.1070  0.1022
  826MPD2     H12205   2.580   0.771  13.684  0.0814 -0.4611  1.3658
  826MPD2    H112206   2.175   0.679  13.795 -1.3158 -2.4288 -2.7468
  826MPD2    H212207   2.409   0.397  13.573  2.5933  0.8860 -2.0460
  826MPD2    H312208   2.185   0.479  13.686  0.1307 -0.7683  1.5550
  826MPD2     N12209   2.385   0.858  13.811  0.1998 -0.5519 -0.2103
  826MPD2    H512210   2.471   0.912  13.807  0.0587 -0.4076 -1.5714
  826MPD2    N112211   2.636   0.530  13.583  0.2100  0.2052 -0.2956
  826MPD2    H712212   2.640   0.434  13.550  0.0171  0.1894 -0.2748
  827MPD2     C12213   3.276   1.975   9.955  0.3709 -0.3725 -0.0345
  827MPD2    C112214   3.204   1.867  10.008  0.1578 -0.2046 -0.4446
  827MPD2    C212215   3.081   1.830   9.955  0.6738 -0.4017  0.2973
  827MPD2    C312216   3.028   1.902   9.854  0.0250  0.6367 -0.4366
  827MPD2    C412217   3.093   2.015   9.811 -0.0619 -0.0870 -0.1021
  827MPD2    C512218   3.217   2.049   9.860 -0.3662  0.0088 -0.9732
  827MPD2     H12219   3.027   1.742   9.989  0.9734  0.3882  2.8322
  827MPD2    H112220   3.052   2.096   9.752 -0.4327 -1.2642 -1.4354
  827MPD2    H212221   3.374   2.010   9.985  0.4825 -1.1087  0.4571
  827MPD2    H312222   3.265   2.145   9.838  1.0514 -0.1962  1.2006
  827MPD2     N12223   2.904   1.855   9.794 -0.4095 -0.0722  0.5223
  827MPD2    H512224   2.860   1.766   9.816 -0.4933  0.4350  2.3769
  827MPD2    N112225   3.267   1.809  10.123  0.8627 -0.0135  0.0691
  827MPD2    H712226   3.348   1.860  10.158 -0.0295  0.2799  1.7523
  828MPD2     C12227   1.941   1.932  12.259  0.8895  0.3485  0.5060
  828MPD2    C112228   1.831   1.976  12.185  0.7763  0.4396 -0.2042
  828MPD2    C212229   1.841   1.990  12.048 -0.4027  0.0458 -0.4542
  828MPD2    C312230   1.945   1.933  11.974 -1.4658 -0.8284 -0.1811
  828MPD2    C412231   2.044   1.877  12.045 -0.3807 -0.0660 -0.0028
  828MPD2    C512232   2.040   1.879  12.182 -0.6454  0.6560  1.3203
  828MPD2     H12233   1.762   2.039  11.993  0.4140  2.7564  0.7902
  828MPD2    H112234   2.139   1.849  12.001  0.3064 -2.4354  2.9512
  828MPD2    H212235   1.946   1.928  12.367 -0.6810 -4.2563  0.4154
  828MPD2    H312236   2.130   1.844  12.232  0.7158 -3.3216 -3.9491
  828MPD2     N12237   1.953   1.928  11.834 -0.3243  0.7001 -0.8027
  828MPD2    H512238   2.027   1.863  11.810  0.4814  0.8530  1.2797
  828MPD2    N112239   1.708   2.017  12.250 -0.5540  0.3778 -0.2562
  828MPD2    H712240   1.632   2.033  12.184 -1.0678 -0.0154  0.2389
  829MPD2     C12241   1.066   2.359  11.827 -0.1883 -0.7863  0.9459
  829MPD2    C112242   0.997   2.330  11.944  0.6320 -0.3802 -0.2268
  829MPD2    C212243   1.068   2.290  12.058  0.1965  0.2741  0.2011
  829MPD2    C312244   1.203   2.261  12.051 -0.9241 -0.5567 -0.6085
  829MPD2    C412245   1.261   2.280  11.926  0.1792 -0.2127  0.5188
  829MPD2    C512246   1.199   2.343  11.824  0.2597 -0.3248 -0.2011
  829MPD2     H12247   1.013   2.275  12.150  2.5239  0.5760  1.6454
  829MPD2    H112248   1.368   2.267  11.925 -0.0036 -1.7761  0.9976
  829MPD2    H212249   1.014   2.394  11.739 -1.1618 -0.5455  1.6180
  829MPD2    H312250   1.249   2.384  11.738  1.4876 -0.6234  0.3735
  829MPD2     N12251   1.289   2.221  12.162 -0.1130 -0.8874  0.2357
  829MPD2    H512252   1.385   2.206  12.136  0.3106  0.7769  0.8199
  829MPD2    N112253   0.860   2.351  11.926 -0.0380  0.1038  0.2692
  829MPD2    H712254   0.826   2.395  11.841  1.5547  1.0631  0.1149
  830MPD2     C12255   2.188   3.933  15.355 -0.8260 -1.0685 -0.5859
  830MPD2    C112256   2.129   4.056  15.376 -0.3615  0.3282  0.2719
  830MPD2    C212257   2.064   4.120  15.278 -0.2750 -0.5420  0.2367
  830MPD2    C312258   2.045   4.059  15.153  0.5365 -0.1110  0.0993
  830MPD2    C412259   2.095   3.934  15.133 -0.6668  0.3823  0.3482
  830MPD2    C512260   2.167   3.875  15.238 -0.3001  0.2649 -0.0602
  830MPD2     H12261   2.031   4.222  15.295 -0.3320 -1.2400  4.2031
  830MPD2    H112262   2.073   3.876  15.044 -1.4349  0.1971  0.6597
  830MPD2    H212263   2.233   3.881  15.438 -0.1574 -0.8246 -0.7923
  830MPD2    H312264   2.196   3.771  15.227  0.4466  0.3700  0.8568
  830MPD2     N12265   1.985   4.128  15.044 -0.2027 -0.4177  0.2359
  830MPD2    H512266   1.966   4.075  14.959  1.3069 -0.4108 -0.0984
  830MPD2    N112267   2.129   4.105  15.510  0.1793  0.3769  0.3901
  830MPD2    H712268   2.170   4.039  15.575  3.1624  0.4870 -1.3380
  831MPD2     C12269   2.104   1.454  16.359 -0.0925  0.2307 -0.1879
  831MPD2    C112270   2.135   1.345  16.286  0.3015  0.0766 -0.6968
  831MPD2    C212271   2.055   1.234  16.301  0.2692  0.3492  0.7330
  831MPD2    C312272   1.946   1.231  16.388  0.8146 -0.0631 -0.2510
  831MPD2    C412273   1.909   1.350  16.452 -0.3042  0.1124 -0.1626
  831MPD2    C512274   1.992   1.457  16.439  0.0192  0.5535 -0.2669
  831MPD2     H12275   2.074   1.151  16.235  0.3683  0.6607  0.3673
  831MPD2    H112276   1.824   1.355  16.520 -0.4613 -1.1907 -0.2654
  831MPD2    H212277   2.159   1.548  16.356 -0.4393  0.4759  0.8892
  831MPD2    H312278   1.967   1.549  16.490  1.1458 -0.2210  1.7066
  831MPD2     N12279   1.848   1.129  16.376 -0.4827  1.1083 -0.7443
  831MPD2    H512280   1.764   1.133  16.434 -1.0474 -0.8891 -1.4394
  831MPD2    N112281   2.239   1.352  16.197  0.0152 -0.4931 -0.4057
  831MPD2    H712282   2.276   1.444  16.177 -0.4668 -0.2754 -0.2926
  832MPD2     C12283   0.691   2.542  17.492 -0.0276 -0.5921  0.1415
  832MPD2    C112284   0.715   2.651  17.416  0.2345  0.0874  0.5036
  832MPD2    C212285   0.607   2.732  17.388  0.1562  0.0850  1.0281
  832MPD2    C312286   0.476   2.709  17.436 -0.3900  0.3248 -0.3776
  832MPD2    C412287   0.459   2.594  17.520 -0.0257 -0.3436  0.6413
  832MPD2    C512288   0.566   2.513  17.541 -0.4567  0.0210 -0.2887
  832MPD2     H12289   0.619   2.826  17.336 -1.5935 -1.7324 -2.6607
  832MPD2    H112290   0.359   2.572  17.555 -0.4930  2.9012  1.3324
  832MPD2    H212291   0.774   2.475  17.511 -0.3613 -0.8412  0.7173
  832MPD2    H312292   0.558   2.418  17.592  2.4220 -0.8706 -1.4746
  832MPD2     N12293   0.358   2.788  17.419  0.0568 -0.2281 -0.1708
  832MPD2    H512294   0.271   2.741  17.440 -0.0666  0.6522  1.2933
  832MPD2    N112295   0.850   2.680  17.383 -0.4201  0.7263 -0.0040
  832MPD2    H712296   0.919   2.606  17.377 -2.1860 -0.8698 -0.4749
  833MPD2     C12297   2.844   4.099  12.588  0.0912 -0.3363 -0.5258
  833MPD2    C112298   2.788   4.197  12.510  0.1419  0.0523 -0.9090
  833MPD2    C212299   2.831   4.205  12.380 -0.0821 -0.4568 -0.0565
  833MPD2    C312300   2.929   4.117  12.328 -0.1887 -0.3508  0.1415
  833MPD2    C412301   2.981   4.014  12.409 -0.4985  0.6546 -0.1487
  833MPD2    C512302   2.932   4.010  12.543 -0.3017  0.0856 -0.0141
  833MPD2     H12303   2.769   4.266  12.316 -2.5415  0.4045  3.1198
  833MPD2    H112304   3.033   3.929  12.365 -0.0636 -0.1746  1.9359
  833MPD2    H212305   2.818   4.092  12.693 -0.6935  0.4587 -0.6742
  833MPD2    H312306   2.947   3.921  12.602 -3.1583 -0.6203 -0.3629
  833MPD2     N12307   2.958   4.123  12.187  0.0109  0.2513  0.3510
  833MPD2    H512308   2.892   4.178  12.132  0.1498  1.1874  1.1256
  833MPD2    N112309   2.682   4.277  12.554 -0.4406  0.4608  0.9688
  833MPD2    H712310   2.640   4.257  12.644 -1.0457  1.4279  0.9012
  834MPD2     C12311   2.389   3.505  11.681  0.2879 -0.2023 -0.0226
  834MPD2    C112312   2.430   3.591  11.587 -0.1367  0.3829 -0.0562
  834MPD2    C212313   2.534   3.678  11.623  0.1439  0.0599 -0.4059
  834MPD2    C312314   2.593   3.672  11.747  0.0238  0.2262  0.0726
  834MPD2    C412315   2.556   3.573  11.835  0.5865  0.7618  0.0507
  834MPD2    C512316   2.448   3.499  11.804  0.1332  0.4630  0.2033
  834MPD2     H12317   2.576   3.753  11.556  1.5252 -0.0987  0.2770
  834MPD2    H112318   2.607   3.560  11.930  0.0002 -0.9918  0.1424
  834MPD2    H212319   2.300   3.447  11.664  2.0905 -2.8297 -0.4681
  834MPD2    H312320   2.412   3.432  11.882 -0.8640 -0.0137 -0.6774
  834MPD2     N12321   2.690   3.769  11.786  0.3897  0.2670  0.4049
  834MPD2    H512322   2.706   3.844  11.720 -1.9107  0.7617  0.4124
  834MPD2    N112323   2.391   3.577  11.451 -0.0507  0.1308  0.0836
  834MPD2    H712324   2.315   3.513  11.432  0.4182 -0.4312  0.0985
  835MPD2     C12325   2.541   1.908  10.501 -0.1751 -0.0142 -1.0169
  835MPD2    C112326   2.447   1.969  10.580 -0.3262 -0.4090  0.7520
  835MPD2    C212327   2.470   1.968  10.722  0.0625 -0.3096 -0.3437
  835MPD2    C312328   2.585   1.912  10.774 -0.2036  0.2911  0.3015
  835MPD2    C412329   2.677   1.856  10.687 -0.0167 -0.3877 -0.2652
  835MPD2    C512330   2.651   1.850  10.557  0.1602  0.0105 -0.1107
  835MPD2     H12331   2.396   2.010  10.788  0.0073  0.2718 -0.7749
  835MPD2    H112332   2.771   1.822  10.730 -0.0728 -0.2752 -0.0534
  835MPD2    H212333   2.529   1.907  10.393 -0.5750 -1.1108 -0.9542
  835MPD2    H312334   2.727   1.810  10.491  1.5483  0.7266  1.0344
  835MPD2     N12335   2.619   1.919  10.913  0.5091 -0.5148  0.1404
  835MPD2    H512336   2.692   1.863  10.957  1.0429  0.0272 -0.0577
  835MPD2    N112337   2.328   2.033  10.540 -0.4443 -0.3030 -0.6577
  835MPD2    H712338   2.264   2.051  10.616 -0.6172  1.8348 -1.3267
  836MPD2     C12339   2.133   2.194  11.307 -0.4797 -0.0545  0.1599
  836MPD2    C112340   2.222   2.155  11.404 -0.3145 -0.5055  0.1523
  836MPD2    C212341   2.187   2.185  11.532 -0.3830 -0.3948  0.7619
  836MPD2    C312342   2.072   2.251  11.569 -0.4885  0.2070  0.3499
  836MPD2    C412343   1.988   2.285  11.470 -0.0303  0.0927 -0.0224
  836MPD2    C512344   2.024   2.263  11.342  0.5675  0.9980  0.1328
  836MPD2     H12345   2.258   2.150  11.606  0.2763  3.5481  1.9772
  836MPD2    H112346   1.903   2.350  11.485  1.7280  2.3595  0.1902
  836MPD2    H212347   2.161   2.170  11.205  0.1006 -1.7685  0.7223
  836MPD2    H312348   1.959   2.304  11.266  1.7442  2.2113 -0.2219
  836MPD2     N12349   2.035   2.289  11.703 -0.7178 -0.0847  0.2410
  836MPD2    H512350   1.942   2.329  11.708 -0.1626  1.1121  0.8687
  836MPD2    N112351   2.329   2.081  11.358  0.4108 -0.5293 -0.4923
  836MPD2    H712352   2.343   2.079  11.257 -0.3752  1.8211 -0.6528
  837MPD2     C12353   0.368   1.136  10.133  0.5865  0.2811  0.2652
  837MPD2    C112354   0.311   1.211  10.040 -0.1658  0.2571 -0.5987
  837MPD2    C212355   0.340   1.346  10.028 -0.4067  0.1582  0.4352
  837MPD2    C312356   0.424   1.411  10.124 -0.2170  0.3534 -0.9417
  837MPD2    C412357   0.475   1.338  10.224 -0.6174 -1.1017  0.1923
  837MPD2    C512358   0.441   1.205  10.230  0.1658 -0.1496 -0.5023
  837MPD2     H12359   0.286   1.406   9.955  2.2974  0.1674 -1.5461
  837MPD2    H112360   0.529   1.372  10.312 -2.1083 -1.5296  1.2763
  837MPD2    H212361   0.348   1.029  10.131 -3.0682  1.0057 -2.3607
  837MPD2    H312362   0.492   1.148  10.307  0.2579  2.8311  1.6232
  837MPD2     N12363   0.459   1.548  10.105  0.3955 -0.4647  0.0540
  837MPD2    H512364   0.409   1.587  10.026  3.4371  2.8912 -0.2548
  837MPD2    N112365   0.222   1.164   9.945 -0.5943  0.4846 -0.0544
  837MPD2    H712366   0.186   1.238   9.887 -0.7719  0.2171 -0.2843
  838MPD2     C12367   4.401   0.019  12.102  0.0832  0.2750 -0.1588
  838MPD2    C112368   4.297   4.660  12.108  0.0744 -0.0505 -0.5486
  838MPD2    C212369   4.236   4.643  12.233  0.3490  0.7260  0.1882
  838MPD2    C312370   4.260   4.721  12.346 -1.0581  0.3905  0.0818
  838MPD2    C412371   4.341   0.092  12.325 -0.2107  0.5157  0.5148
  838MPD2    C512372   4.412   0.111  12.207  0.2007 -0.0046 -1.1775
  838MPD2     H12373   4.152   4.574  12.242  0.5105  0.1286 -3.0638
  838MPD2    H112374   4.364   0.165  12.401 -2.2641 -0.4922  2.0908
  838MPD2    H212375   4.450   0.044  12.009  1.5315  1.3560  0.8944
  838MPD2    H312376   4.465   0.206  12.200  1.2727 -0.5066  0.0905
  838MPD2     N12377   4.200   4.703  12.466 -0.1007 -0.4980  0.3244
  838MPD2    H512378   4.197   0.050  12.526 -1.4175  0.0975 -0.5502
  838MPD2    N112379   4.250   4.585  11.996  0.5720  0.4825 -0.1817
  838MPD2    H712380   4.163   4.537  12.015  0.6422  0.0453 -0.9759
  839MPD2     C12381   3.826   3.903  12.148  0.0016  0.3718  1.0886
  839MPD2    C112382   3.803   3.894  12.013  0.4063 -0.3226 -0.1666
  839MPD2    C212383   3.864   3.986  11.923  0.3454 -0.1510 -0.6699
  839MPD2    C312384   3.935   4.090  11.982 -0.0973  0.0114 -0.0008
  839MPD2    C412385   3.940   4.102  12.122 -0.5877  0.1035 -0.1676
  839MPD2    C512386   3.900   4.000  12.202 -0.3539  0.6529  0.6066
  839MPD2     H12387   3.850   3.979  11.816  1.3554  1.1072 -0.8799
  839MPD2    H112388   4.000   4.180  12.166  1.1398  0.1335 -2.5399
  839MPD2    H212389   3.791   3.830  12.221  0.4527  0.4731  1.4055
  839MPD2    H312390   3.920   4.007  12.308  1.4647  0.1856  0.3005
  839MPD2     N12391   3.993   4.194  11.903 -0.0090 -0.3409 -1.0353
  839MPD2    H512392   4.041   4.266  11.955 -0.9731 -1.8006  1.8503
  839MPD2    N112393   3.711   3.802  11.967 -0.3789 -0.5514 -1.0948
  839MPD2    H712394   3.696   3.790  11.867  0.9104 -1.9868 -1.1226
  840MPD2     C12395   3.821   1.998  10.280  0.2196 -0.1332  0.3308
  840MPD2    C112396   3.776   1.945  10.400  0.9229  0.7697 -1.0873
  840MPD2    C212397   3.857   1.950  10.509  0.0488  1.1355  0.4233
  840MPD2    C312398   3.990   2.001  10.493 -0.8158  0.1647 -0.4448
  840MPD2    C412399   4.035   2.050  10.370 -0.4992  0.7070 -0.8232
  840MPD2    C512400   3.947   2.045  10.265 -0.2000 -0.4147  0.1507
  840MPD2     H12401   3.821   1.897  10.596  3.8293 -3.6902 -0.9482
  840MPD2    H112402   4.133   2.093  10.353  0.9442 -2.0766  0.4180
  840MPD2    H212403   3.759   2.015  10.193  0.6178  2.5566  0.5793
  840MPD2    H312404   3.972   2.076  10.165  0.0704  0.4805  0.4927
  840MPD2     N12405   4.074   2.028  10.598 -0.2498 -0.2032  0.2843
  840MPD2    H512406   4.166   2.065  10.577 -0.9060  1.9091  1.1294
  840MPD2    N112407   3.644   1.885  10.395  0.1248 -0.0503  0.4465
  840MPD2    H712408   3.595   1.899  10.307 -0.6328  3.1059  1.3504
  841MPD2     C12409   3.917   0.919  14.867  0.1702 -0.0874  0.4027
  841MPD2    C112410   3.863   0.993  14.758  0.2151 -0.0315 -0.0148
  841MPD2    C212411   3.918   1.119  14.734 -0.4002  0.1424 -0.2018
  841MPD2    C312412   4.027   1.157  14.808 -0.8705  0.0137  0.6226
  841MPD2    C412413   4.066   1.092  14.925  0.7600  0.1785 -0.7141
  841MPD2    C512414   4.012   0.973  14.952 -0.3630  0.2372  0.3018
  841MPD2     H12415   3.887   1.166  14.641  0.5415  2.1509  0.5017
  841MPD2    H112416   4.156   1.123  14.977 -0.9325  1.7698  1.2129
  841MPD2    H212417   3.885   0.823  14.906  2.1522 -1.3774 -1.1698
  841MPD2    H312418   4.051   0.903  15.025  1.7774  0.1333 -0.9322
  841MPD2     N12419   4.095   1.277  14.766  0.3796  0.4876 -1.0103
  841MPD2    H512420   4.068   1.303  14.672 -1.5195 -0.0794 -0.6270
  841MPD2    N112421   3.751   0.954  14.686 -0.0583 -0.0938 -0.0608
  841MPD2    H712422   3.714   1.015  14.614 -1.0484  0.7252  1.1179
  842MPD2     C12423   3.880   2.527  16.400 -0.4513 -0.3056 -0.3527
  842MPD2    C112424   3.969   2.610  16.467  0.2360  0.1659 -0.0541
  842MPD2    C212425   3.974   2.618  16.605 -0.2768 -0.0089  0.3669
  842MPD2    C312426   3.905   2.525  16.680  0.3828 -0.0260  0.1769
  842MPD2    C412427   3.819   2.437  16.618 -0.7190  0.1145  0.9406
  842MPD2    C512428   3.804   2.442  16.479 -0.2086  0.1117  0.7418
  842MPD2     H12429   4.039   2.683  16.662 -1.2178  2.2326 -1.1585
  842MPD2    H112430   3.758   2.369  16.677  0.5743 -1.7892  0.0960
  842MPD2    H212431   3.861   2.542  16.294  2.7102  3.7363 -0.3188
  842MPD2    H312432   3.721   2.387  16.438  1.0763 -1.4946  0.3096
  842MPD2     N12433   3.918   2.528  16.819 -0.3308 -0.4944 -0.1214
  842MPD2    H512434   3.988   2.592  16.855 -0.4920  0.3771 -1.3806
  842MPD2    N112435   4.036   2.708  16.390 -0.5515 -0.4476  0.1490
  842MPD2    H712436   4.025   2.696  16.289 -1.8982 -1.3197  0.3827
  843MPD2     C12437   1.811   3.175  17.491  0.4412 -0.1232 -0.4412
  843MPD2    C112438   1.925   3.108  17.537 -0.1062  0.1609  0.4737
  843MPD2    C212439   2.047   3.172  17.538 -0.8908  0.1562  0.4556
  843MPD2    C312440   2.060   3.302  17.498  0.2852  0.0344  0.3227
  843MPD2    C412441   1.948   3.363  17.435  0.2005 -0.1488 -0.2622
  843MPD2    C512442   1.825   3.299  17.430 -0.1790 -0.2211  0.1187
  843MPD2     H12443   2.142   3.133  17.576 -0.1885  2.8013  1.3936
  843MPD2    H112444   1.951   3.465  17.398  1.7184 -0.9271 -2.3107
  843MPD2    H212445   1.710   3.138  17.500  0.3030  0.4962  0.5297
  843MPD2    H312446   1.735   3.345  17.390  0.2299  0.8752  0.4583
  843MPD2     N12447   2.174   3.385  17.525 -0.3926 -0.0840 -0.0729
  843MPD2    H512448   2.171   3.479  17.486  1.1607 -0.2442 -0.5796
  843MPD2    N112449   1.917   2.992  17.605  0.2024 -0.2883 -0.1851
  843MPD2    H712450   1.821   2.963  17.622  0.3613 -1.1040 -0.6781
  844MPD2     C12451   0.409   2.502  16.663 -0.3290 -0.1668 -0.0386
  844MPD2    C112452   0.485   2.387  16.671  0.9108  0.2904  0.1261
  844MPD2    C212453   0.606   2.388  16.740 -0.8387  0.0688  0.1169
  844MPD2    C312454   0.655   2.508  16.799  0.8636  0.0452 -0.1261
  844MPD2    C412455   0.572   2.610  16.797  0.1564  0.0001 -0.7409
  844MPD2    C512456   0.457   2.609  16.725 -0.1298  0.0312 -0.2626
  844MPD2     H12457   0.677   2.307  16.729  0.3771  1.0493  0.6812
  844MPD2    H112458   0.609   2.708  16.826 -0.7605  0.4756 -1.1859
  844MPD2    H212459   0.319   2.500  16.603  0.9825  0.0992 -2.0192
  844MPD2    H312460   0.398   2.699  16.714 -0.8294 -0.2794  0.8737
  844MPD2     N12461   0.787   2.515  16.855 -0.6666 -0.6108  0.5320
  844MPD2    H512462   0.830   2.425  16.838  1.7497  0.5844  0.4580
  844MPD2    N112463   0.440   2.268  16.594  0.0616  0.1852 -0.1992
  844MPD2    H712464   0.516   2.206  16.567 -2.2995 -2.8394  0.0955
  845MPD2     C12465   1.508   3.250  16.813  0.3307 -0.0215  0.1192
  845MPD2    C112466   1.381   3.268  16.868  0.5868 -0.7041 -0.2140
  845MPD2    C212467   1.296   3.162  16.892  0.5314 -0.8261  0.6139
  845MPD2    C312468   1.346   3.034  16.875 -0.3111  0.4551 -0.2838
  845MPD2    C412469   1.478   3.017  16.833 -0.1110  0.0255  0.0754
  845MPD2    C512470   1.553   3.125  16.798  0.4392 -0.6909  0.0408
  845MPD2     H12471   1.192   3.172  16.924 -0.4138 -3.1039 -1.7380
  845MPD2    H112472   1.524   2.923  16.806 -0.6366 -0.3583  0.5110
  845MPD2    H212473   1.562   3.335  16.772 -0.7531  0.4112 -0.4152
  845MPD2    H312474   1.648   3.107  16.750  0.8388 -0.9604  0.9346
  845MPD2     N12475   1.263   2.928  16.889 -0.3216 -0.1481 -0.1448
  845MPD2    H512476   1.167   2.953  16.908  0.1162  1.1209  0.3969
  845MPD2    N112477   1.340   3.397  16.892 -0.2701 -0.0333  0.0479
  845MPD2    H712478   1.407   3.468  16.867  1.9809 -2.2973 -0.3244
  846MPD2     C12479   2.513   3.559  14.213 -0.4448 -0.0136  0.1010
  846MPD2    C112480   2.381   3.571  14.193 -0.2571 -0.2451  0.2046
  846MPD2    C212481   2.304   3.566  14.306  0.1598  0.5606 -0.1782
  846MPD2    C312482   2.360   3.579  14.433  0.4696 -0.1241  0.0594
  846MPD2    C412483   2.496   3.566  14.449 -0.0602  0.0135  0.1586
  846MPD2    C512484   2.573   3.560  14.339 -0.2032 -0.6987 -0.3786
  846MPD2     H12485   2.199   3.571  14.283 -0.0940 -2.0485  0.4175
  846MPD2    H112486   2.547   3.560  14.545  0.2888 -3.3779 -0.2156
  846MPD2    H212487   2.573   3.554  14.123  0.8423 -0.1140  0.9587
  846MPD2    H312488   2.678   3.537  14.351  0.4907  2.8822  0.5209
  846MPD2     N12489   2.291   3.585  14.555 -0.2229 -0.1815  0.5012
  846MPD2    H512490   2.353   3.581  14.636 -0.7135 -1.9682  0.7928
  846MPD2    N112491   2.320   3.566  14.069  0.0692  0.1716  0.0385
  846MPD2    H712492   2.219   3.559  14.067  0.0506  0.3654  0.3253
  847MPD2     C12493   1.781   4.487  14.404 -0.2701  0.9374  0.6844
  847MPD2    C112494   1.887   4.566  14.358  0.2788 -0.4846  0.0938
  847MPD2    C212495   2.010   4.503  14.335  0.1247 -0.4866  1.2463
  847MPD2    C312496   2.026   4.364  14.353 -0.4043  0.0609 -0.7855
  847MPD2    C412497   1.919   4.281  14.384  0.1852  0.4268 -0.6648
  847MPD2    C512498   1.800   4.345  14.403  0.3345  0.2270 -0.5080
  847MPD2     H12499   2.094   4.571  14.325 -0.0529 -0.6758 -1.7530
  847MPD2    H112500   1.936   4.175  14.400 -0.0188  0.3487 -0.9683
  847MPD2    H212501   1.688   4.518  14.451  0.1593  2.8166  0.2871
  847MPD2    H312502   1.716   4.285  14.435  0.5070  0.4159  0.3141
  847MPD2     N12503   2.157   4.315  14.346 -0.2812 -0.3735  0.4864
  847MPD2    H512504   2.231   4.378  14.315 -1.4432  0.7401 -0.0308
  847MPD2    N112505   1.878   4.705  14.340  0.0176 -0.5467 -0.4767
  847MPD2    H712506   1.959   0.010  14.295 -0.8563 -0.0701 -1.6333
  848MPD2     C12507   0.179   2.833  16.722  0.0323 -0.0564 -0.6615
  848MPD2    C112508   0.174   2.948  16.794 -0.2508  0.3851  0.1072
  848MPD2    C212509   0.188   3.073  16.734  0.5850  0.1866 -1.0027
  848MPD2    C312510   0.195   3.084  16.594  0.4452  0.2357 -0.2885
  848MPD2    C412511   0.186   2.968  16.527  0.1041  0.3262  0.4723
  848MPD2    C512512   0.178   2.841  16.586  0.2383  0.3281 -0.8941
  848MPD2     H12513   0.171   3.155  16.802  0.0658 -1.2418  0.5782
  848MPD2    H112514   0.176   2.980  16.420 -2.5975 -3.9563  0.2527
  848MPD2    H212515   0.168   2.733  16.763 -0.7445 -0.1641 -1.1448
  848MPD2    H312516   0.155   2.751  16.529  1.1577 -1.4155  1.4869
  848MPD2     N12517   0.232   3.202  16.523  0.1925 -0.0983 -0.5054
  848MPD2    H512518   0.249   3.188  16.424  2.5695  1.6985 -0.3578
  848MPD2    N112519   0.149   2.934  16.940  0.4900  0.2338 -0.0114
  848MPD2    H712520   0.144   3.020  16.992 -1.1606  0.5126 -0.6458
  849MPD2     C12521   3.999   2.694  13.914 -1.0043 -0.0146 -0.5046
  849MPD2    C112522   4.016   2.563  13.941 -0.1236 -0.0430  0.3001
  849MPD2    C212523   3.997   2.519  14.075  1.1221 -0.3768 -0.2397
  849MPD2    C312524   3.963   2.608  14.180 -0.2022  0.6915  0.5583
  849MPD2    C412525   3.956   2.739  14.143  0.6831  0.2053  0.6045
  849MPD2    C512526   3.974   2.786  14.014  0.9629 -0.2662 -0.5055
  849MPD2     H12527   4.016   2.413  14.086 -1.3188 -0.8481 -0.5419
  849MPD2    H112528   3.949   2.813  14.222 -0.0256  1.3518 -0.5337
  849MPD2    H212529   3.994   2.750  13.821 -0.5703  0.7047 -0.1001
  849MPD2    H312530   3.952   2.889  13.990  2.0455  0.4571  1.5802
  849MPD2     N12531   3.955   2.563  14.319  1.2468 -0.1633  1.0795
  849MPD2    H512532   3.928   2.628  14.391 -1.3608 -0.1827  0.1263
  849MPD2    N112533   4.048   2.465  13.839 -0.1022 -0.0298  0.3350
  849MPD2    H712534   4.041   2.369  13.871  1.9525 -0.9942 -2.1241
  850MPD2     C12535   2.511   0.775  14.570  0.2101 -0.3164 -0.9718
  850MPD2    C112536   2.481   0.742  14.701  0.1205  0.0026 -0.1171
  850MPD2    C212537   2.577   0.730  14.801  0.1051 -0.4087  0.3680
  850MPD2    C312538   2.710   0.753  14.765 -0.1864  0.0291 -0.1726
  850MPD2    C412539   2.736   0.791  14.638 -0.1367 -0.5207  0.0611
  850MPD2    C512540   2.647   0.799  14.540 -1.0578 -0.8895 -0.3123
  850MPD2     H12541   2.550   0.704  14.902 -0.0276  0.5645  0.5829
  850MPD2    H112542   2.839   0.799  14.606  0.2386  1.1617  1.6854
  850MPD2    H212543   2.436   0.789  14.493 -0.5636  0.4554 -0.0827
  850MPD2    H312544   2.684   0.831  14.443 -0.0808 -0.9524  0.0477
  850MPD2     N12545   2.822   0.742  14.849  0.0537  0.2076  0.3192
  850MPD2    H512546   2.913   0.767  14.812 -1.3372  1.5301 -2.2494
  850MPD2    N112547   2.352   0.711  14.722 -0.2624 -0.2162  0.4012
  850MPD2    H712548   2.292   0.694  14.643 -0.2549  2.7303 -0.2317
  851MPD2     C12549   2.297   0.107  14.651  0.7548 -0.2064 -0.0498
  851MPD2    C112550   2.167   0.148  14.672 -0.3225  0.6279  0.4043
  851MPD2    C212551   2.065   0.056  14.676  0.3129 -0.4090 -0.1907
  851MPD2    C312552   2.093   4.656  14.663  0.5450 -0.6980  0.6900
  851MPD2    C412553   2.214   4.622  14.618 -0.3415  0.3807 -0.4674
  851MPD2    C512554   2.314   4.713  14.621 -0.2155 -0.3749 -0.5031
  851MPD2     H12555   1.963   0.078  14.705  0.1572  1.3698 -2.1050
  851MPD2    H112556   2.230   4.517  14.595 -0.5674  0.1029  0.6375
  851MPD2    H212557   2.386   0.168  14.658  0.7114 -0.0918 -0.4785
  851MPD2    H312558   2.415   4.676  14.607  1.8298  3.9097  2.9670
  851MPD2     N12559   1.995   4.559  14.691 -0.3384 -0.3437  0.5364
  851MPD2    H512560   1.912   4.606  14.725 -0.2385  0.3439 -0.1696
  851MPD2    N112561   2.140   0.291  14.687  0.1404 -0.0561 -0.4297
  851MPD2    H712562   2.212   0.360  14.670 -0.9020  0.9736 -0.6796
  852MPD2     C12563   1.431   0.127  10.643  0.3871 -0.6989  0.4285
  852MPD2    C112564   1.464   0.020  10.715  0.0174 -0.1794  0.4238
  852MPD2    C212565   1.593   4.715  10.733  0.2403 -0.0024 -0.7916
  852MPD2    C312566   1.695   0.042  10.661 -0.5062 -0.1058 -0.9381
  852MPD2    C412567   1.655   0.158  10.589  0.6473 -1.0012  0.2472
  852MPD2    C512568   1.526   0.206  10.587  0.0024  0.3210 -0.0803
  852MPD2     H12569   1.610   4.629  10.796 -0.1693 -0.2275 -0.9952
  852MPD2    H112570   1.732   0.215  10.537  0.6125 -0.0506  1.2178
  852MPD2    H212571   1.330   0.167  10.640  1.1248  1.2534  1.7663
  852MPD2    H312572   1.508   0.290  10.522  0.1634 -1.3976 -2.3644
  852MPD2     N12573   1.826   4.729  10.669 -0.1075 -0.2423 -0.4082
  852MPD2    H512574   1.836   4.636  10.708  0.0612 -0.4653 -0.9847
  852MPD2    N112575   1.365   4.681  10.790  0.1361  0.0528 -0.2401
  852MPD2    H712576   1.399   4.620  10.864 -0.0110  0.0363 -0.1880
  853MPD2     C12577   3.880   2.924  12.531 -0.1603 -0.2288 -0.0313
  853MPD2    C112578   3.757   2.973  12.539 -0.5788 -0.3250 -0.2796
  853MPD2    C212579   3.675   2.952  12.431 -0.1563 -0.2025 -0.3094
  853MPD2    C312580   3.715   2.876  12.324 -0.3513 -0.2186  0.1691
  853MPD2    C412581   3.847   2.848  12.312 -0.2050 -0.3883  0.5405
  853MPD2    C512582   3.926   2.856  12.423  0.4566  0.3297 -0.1019
  853MPD2     H12583   3.577   2.999  12.430  0.5391  1.3162  2.5403
  853MPD2    H112584   3.902   2.813  12.226 -1.2707 -1.5350  0.3270
  853MPD2    H212585   3.962   2.966  12.587 -1.7073 -0.1219  2.1406
  853MPD2    H312586   4.030   2.828  12.416  0.5672  0.5113  0.7682
  853MPD2     N12587   3.636   2.853  12.212 -0.1742 -0.3672  0.0430
  853MPD2    H512588   3.677   2.807  12.132 -1.3287 -1.8110  0.2788
  853MPD2    N112589   3.720   3.063  12.642 -0.1153  0.2597  1.0444
  853MPD2    H712590   3.791   3.071  12.713  0.1859  0.1130  0.7561
  854MPD2     C12591   0.361   3.694  13.156 -0.1875  0.1352  0.1533
  854MPD2    C112592   0.267   3.610  13.106 -0.3742  0.7197 -0.2949
  854MPD2    C212593   0.285   3.475  13.120 -0.7211  0.2983 -0.9664
  854MPD2    C312594   0.395   3.428  13.188 -0.1100  0.0333  0.5662
  854MPD2    C412595   0.487   3.519  13.235 -0.5228  0.2686  0.4932
  854MPD2    C512596   0.473   3.654  13.224 -0.3652 -0.1069 -0.3269
  854MPD2     H12597   0.213   3.412  13.069 -0.2141  0.2349 -1.6092
  854MPD2    H112598   0.577   3.484  13.285 -0.8036 -0.1513  0.7040
  854MPD2    H212599   0.354   3.801  13.137 -0.1370  0.1852  0.4219
  854MPD2    H312600   0.543   3.726  13.265 -0.7668 -0.2594  0.6169
  854MPD2     N12601   0.416   3.290  13.214 -0.3302  0.2764 -0.1674
  854MPD2    H512602   0.508   3.269  13.252  0.6758  0.7966 -2.3242
  854MPD2    N112603   0.165   3.681  13.043  0.4239  0.3435  0.2795
  854MPD2    H712604   0.171   3.782  13.042  1.8537  0.2616  0.4301
  855MPD2     C12605   0.858   3.064  13.827  0.5517  0.1086  0.0741
  855MPD2    C112606   0.837   2.936  13.781 -0.0161 -0.2293 -0.0684
  855MPD2    C212607   0.796   2.921  13.653  0.5854 -0.1124 -0.3544
  855MPD2    C312608   0.771   3.030  13.570  0.2569 -0.6893  0.1804
  855MPD2    C412609   0.796   3.159  13.618  0.0735 -0.7002  0.1805
  855MPD2    C512610   0.837   3.173  13.746 -0.0575 -0.6555  0.6925
  855MPD2     H12611   0.778   2.825  13.606  3.5160 -1.3013  1.0104
  855MPD2    H112612   0.781   3.245  13.554 -0.1997 -1.2092 -0.4404
  855MPD2    H212613   0.869   3.082  13.933 -4.0375  0.6424  0.4547
  855MPD2    H312614   0.854   3.275  13.779  2.1365 -0.0855 -2.2343
  855MPD2     N12615   0.695   3.010  13.450  0.5620 -0.2776 -0.0903
  855MPD2    H512616   0.673   3.095  13.401  1.5103 -0.3779 -0.6833
  855MPD2    N112617   0.855   2.823  13.862  0.0682  0.4882  0.2348
  855MPD2    H712618   0.824   2.732  13.828  1.5374  0.0702  0.0136
  856MPD2     C12619   2.927   3.850  13.503  0.5549 -0.1355  0.2998
  856MPD2    C112620   2.918   3.971  13.564 -0.0529  0.1533 -0.8207
  856MPD2    C212621   2.841   4.078  13.508 -0.0577 -0.2746 -0.0974
  856MPD2    C312622   2.787   4.060  13.381  0.2370 -0.0163 -0.5585
  856MPD2    C412623   2.791   3.934  13.319  0.2864  0.5301 -0.2223
  856MPD2    C512624   2.871   3.836  13.382  0.0746 -0.9189  0.4691
  856MPD2     H12625   2.843   4.172  13.562 -0.3680 -0.0851 -0.4150
  856MPD2    H112626   2.739   3.918  13.225  1.7220 -1.5717 -0.6680
  856MPD2    H212627   2.980   3.763  13.538 -0.5801 -1.5379 -1.4565
  856MPD2    H312628   2.869   3.739  13.332  0.7492 -1.4899  1.5435
  856MPD2     N12629   2.729   4.164  13.318 -0.4372 -0.1007 -1.1614
  856MPD2    H512630   2.673   4.142  13.236 -0.4477 -0.8747 -0.9424
  856MPD2    N112631   2.975   3.998  13.691 -0.6436 -0.1062  0.0501
  856MPD2    H712632   2.944   4.086  13.730  0.4029 -0.6619  2.1151
  857MPD2     C12633   4.499   1.524  12.677 -0.4511 -0.2506  0.6129
  857MPD2    C112634   4.617   1.482  12.718  0.6298 -0.9141  0.2448
  857MPD2    C212635   4.710   1.575  12.771  0.2254  0.3940  0.0274
  857MPD2    C312636   4.681   1.713  12.771  0.3056 -0.3193  0.1963
  857MPD2    C412637   4.555   1.747  12.739 -0.2274 -0.6618 -0.2331
  857MPD2    C512638   4.465   1.654  12.695  0.1320 -0.2084  0.1682
  857MPD2     H12639   0.070   1.533  12.801  1.0775  1.0582 -1.7520
  857MPD2    H112640   4.515   1.846  12.754 -0.1945 -1.2171  3.5543
  857MPD2    H212641   4.419   1.460  12.642 -1.3807  0.6262  1.1436
  857MPD2    H312642   4.367   1.696  12.678  0.7334  0.6516 -1.0919
  857MPD2     N12643   0.037   1.812  12.833  0.0833  0.6062 -0.2427
  857MPD2    H512644   0.122   1.775  12.874 -0.0401  0.3604 -0.2061
  857MPD2    N112645   4.648   1.347  12.705 -0.3442 -0.0429 -0.1301
  857MPD2    H712646   0.011   1.321  12.706 -0.7648 -1.6303  1.2427
  858MPD2     C12647   1.090   4.484  16.729 -0.0778  0.2026 -0.0335
  858MPD2    C112648   1.010   4.585  16.682 -0.1229  0.1912 -0.8307
  858MPD2    C212649   0.991   4.693  16.771  0.3376  0.0557  0.0204
  858MPD2    C312650   1.052   4.692  16.897  0.3435 -0.3938  0.1809
  858MPD2    C412651   1.128   4.586  16.934 -0.5356 -0.2333  0.4873
  858MPD2    C512652   1.161   4.488  16.844  0.2228 -0.4010  0.1875
  858MPD2     H12653   0.930   0.044  16.749 -1.3143 -1.2733 -0.6463
  858MPD2    H112654   1.163   4.588  17.036 -1.7527 -0.1056  0.8980
  858MPD2    H212655   1.109   4.398  16.666  2.5209  0.4011  0.4940
  858MPD2    H312656   1.220   4.400  16.867 -1.9890 -2.1735 -1.0165
  858MPD2     N12657   1.019   0.046  17.001 -0.3305  0.2070  0.6906
  858MPD2    H512658   1.049   0.014  17.093  0.2728  3.0934  1.4985
  858MPD2    N112659   0.940   4.570  16.557  0.2308 -0.3568  0.0669
  858MPD2    H712660   0.965   4.488  16.502 -1.6109 -0.4051 -0.6980
  859MPD2     C12661   3.620   2.781  15.249 -0.4509  0.6444  0.3235
  859MPD2    C112662   3.722   2.695  15.268 -0.5803 -0.2382  1.0963
  859MPD2    C212663   3.702   2.557  15.295 -0.4144 -0.2216  0.7966
  859MPD2    C312664   3.574   2.508  15.302  0.6029  0.2745  0.2257
  859MPD2    C412665   3.471   2.598  15.275 -0.7678 -0.0358 -0.3597
  859MPD2    C512666   3.493   2.734  15.248  0.2194 -0.4633 -0.5077
  859MPD2     H12667   3.788   2.491  15.298 -0.3663 -0.1021  2.3680
  859MPD2    H112668   3.368   2.563  15.276 -1.0878  0.8964 -0.4080
  859MPD2    H212669   3.647   2.881  15.219 -1.1386  0.6883 -0.1427
  859MPD2    H312670   3.414   2.789  15.199  3.2450  2.6033 -1.8843
  859MPD2     N12671   3.540   2.378  15.348  0.4071  0.1837 -0.0406
  859MPD2    H512672   3.448   2.343  15.323  0.8209 -0.0369 -1.2662
  859MPD2    N112673   3.856   2.745  15.247 -0.6373 -0.3383  0.1449
  859MPD2    H712674   3.870   2.844  15.227  2.2080 -0.6007  0.8719
  860MPD2     C12675   1.353   3.390  11.665 -0.2482 -0.3719 -1.1219
  860MPD2    C112676   1.393   3.312  11.772  0.5994 -0.2483  0.6092
  860MPD2    C212677   1.295   3.265  11.861 -0.8920  0.2289  0.4939
  860MPD2    C312678   1.160   3.292  11.851  0.4085 -0.2973  0.5205
  860MPD2    C412679   1.122   3.355  11.738 -0.0271 -0.7792 -0.0106
  860MPD2    C512680   1.216   3.408  11.649 -0.3694  0.1450 -0.0085
  860MPD2     H12681   1.316   3.208  11.951  1.6018 -1.1043 -0.9232
  860MPD2    H112682   1.019   3.373  11.706 -0.0418  0.2382  0.6250
  860MPD2    H212683   1.417   3.430  11.588  0.5309  1.4207  0.4606
  860MPD2    H312684   1.183   3.457  11.558  1.5344 -3.2974 -2.5712
  860MPD2     N12685   1.083   3.252  11.961  0.0282  0.3231  0.0965
  860MPD2    H512686   1.132   3.210  12.039  1.5630 -2.0373 -2.1226
  860MPD2    N112687   1.527   3.288  11.812 -0.2294  0.1716  0.1892
  860MPD2    H712688   1.529   3.237  11.900  1.6370  0.9712  0.5903
  861MPD2     C12689   0.175   1.056  10.973 -0.7044  0.0170  0.3329
  861MPD2    C112690   0.191   1.185  11.007  0.0320  0.9282 -0.2613
  861MPD2    C212691   0.119   1.287  10.938 -0.2989 -0.6117  0.0300
  861MPD2    C312692   0.045   1.245  10.827 -0.4771  0.2205 -0.2269
  861MPD2    C412693   0.038   1.112  10.796 -0.0198 -0.0848 -0.5783
  861MPD2    C512694   0.100   1.010  10.864 -0.7947  0.3633 -0.1204
  861MPD2     H12695   0.114   1.388  10.975  2.3290 -0.6460  0.5227
  861MPD2    H112696   4.714   1.077  10.712  1.1685  1.1555 -1.9337
  861MPD2    H212697   0.238   0.984  11.024  0.2973 -1.0423 -2.4200
  861MPD2    H312698   0.086   0.906  10.837  2.1041 -0.2144  0.5800
  861MPD2     N12699   4.704   1.338  10.746 -0.5981  0.0716 -0.1096
  861MPD2    H512700   4.626   1.299  10.693  0.4312 -2.2363  0.0617
  861MPD2    N112701   0.266   1.226  11.117  0.5980 -0.4262  0.0302
  861MPD2    H712702   0.248   1.322  11.147 -0.5179 -1.6092  3.1959
  862MPD2     C12703   4.129   1.253  10.327 -0.3404  0.7891  0.3916
  862MPD2    C112704   4.217   1.225  10.426  0.7882  0.2251  0.0961
  862MPD2    C212705   4.209   1.104  10.493 -0.6654 -0.2845  0.7159
  862MPD2    C312706   4.125   1.004  10.461 -0.1993 -0.2025  0.6316
  862MPD2    C412707   4.040   1.030  10.354 -0.0105  0.3023  0.1340
  862MPD2    C512708   4.039   1.151  10.293 -0.2953 -0.3425 -0.2287
  862MPD2     H12709   4.289   1.099  10.565  0.0115  3.0032  0.2131
  862MPD2    H112710   3.962   0.958  10.333 -2.8796  2.3971  3.6943
  862MPD2    H212711   4.139   1.342  10.267  0.1085  1.0821  0.8975
  862MPD2    H312712   3.972   1.160  10.209 -1.0990  0.8584  0.5376
  862MPD2     N12713   4.115   0.881  10.533  0.1168 -0.2542  0.5300
  862MPD2    H512714   4.045   0.815  10.501  0.4513 -0.8509  1.0462
  862MPD2    N112715   4.314   1.315  10.478  0.1640 -0.1890 -0.2404
  862MPD2    H712716   4.378   1.281  10.550 -0.8472 -2.9440 -0.6492
  863MPD2     C12717   3.347   3.739  16.754  0.4472  0.3313  0.3887
  863MPD2    C112718   3.394   3.864  16.790  0.1002 -0.6436  0.4529
  863MPD2    C212719   3.479   3.882  16.903 -0.1130 -0.2595  0.0953
  863MPD2    C312720   3.521   3.770  16.978  0.4898 -0.0655 -0.1817
  863MPD2    C412721   3.462   3.653  16.948  0.5135  0.5265 -0.2433
  863MPD2    C512722   3.380   3.637  16.834  0.5034 -0.4525 -0.8671
  863MPD2     H12723   3.506   3.982  16.933 -0.2274  0.0076 -0.6819
  863MPD2    H112724   3.497   3.565  17.002 -1.1018  0.4602  0.6771
  863MPD2    H212725   3.278   3.724  16.672  1.5377  1.5516 -0.7488
  863MPD2    H312726   3.362   3.535  16.803  1.6865 -1.3125  1.2831
  863MPD2     N12727   3.608   3.773  17.087  0.2327 -0.5039 -0.5617
  863MPD2    H512728   3.619   3.693  17.149  2.8177  0.4804  0.2589
  863MPD2    N112729   3.352   3.975  16.711 -0.2281 -0.1302  0.0256
  863MPD2    H712730   3.311   3.955  16.621  1.4410  2.8383 -1.3796
  864MPD2     C12731   4.222   0.221  17.492  0.3288  0.3012  0.2500
  864MPD2    C112732   4.292   0.137  17.404 -0.0654  0.2709 -0.2548
  864MPD2    C212733   4.419   0.178  17.371  0.4802  0.3440 -0.0310
  864MPD2    C312734   4.472   0.299  17.421  0.0342 -0.7441  0.5225
  864MPD2    C412735   4.396   0.379  17.504  0.0122 -0.3416 -0.2615
  864MPD2    C512736   4.275   0.336  17.540  0.1929  0.4348 -0.1223
  864MPD2     H12737   4.478   0.109  17.312  2.0853 -0.6305  2.6837
  864MPD2    H112738   4.434   0.465  17.557 -1.9698  0.4253 -0.0869
  864MPD2    H212739   4.125   0.194  17.532  0.6054 -1.4403 -0.2508
  864MPD2    H312740   4.220   0.393  17.614  0.2337  0.0166  0.2316
  864MPD2     N12741   4.604   0.348  17.386 -0.5321 -1.0739 -0.2829
  864MPD2    H512742   4.632   0.430  17.439  0.2021 -1.5661  0.0917
  864MPD2    N112743   4.229   0.029  17.340  0.0536  0.2023 -0.3440
  864MPD2    H712744   4.138   0.012  17.381  0.0519  0.3019 -0.3053
  865MPD2     C12745   4.504   0.663  16.673 -0.6721 -0.3088  0.1662
  865MPD2    C112746   4.615   0.590  16.654  0.0708 -0.3304  0.3060
  865MPD2    C212747   4.723   0.599  16.738 -0.1277 -0.0546  0.2056
  865MPD2    C312748   4.704   0.665  16.859 -0.4742  0.0679  0.0143
  865MPD2    C412749   4.590   0.740  16.885 -1.2384  0.4602  0.5779
  865MPD2    C512750   4.490   0.737  16.793 -0.1057  0.0885  0.2147
  865MPD2     H12751   0.077   0.537  16.736 -0.3415 -0.3215 -1.8241
  865MPD2    H112752   4.567   0.796  16.975 -0.2406  1.9979 -0.1378
  865MPD2    H212753   4.425   0.660  16.599  1.5834  1.0849 -2.3172
  865MPD2    H312754   4.397   0.791  16.809 -0.3370  0.6544 -3.0443
  865MPD2     N12755   0.070   0.647  16.957 -0.2180  0.0338 -0.0540
  865MPD2    H512756   0.155   0.601  16.923  1.7194  2.0967  2.0729
  865MPD2    N112757   4.612   0.506  16.550  0.5656 -0.0896  0.0760
  865MPD2    H712758   4.517   0.502  16.513  0.7534 -0.1777 -0.3949
  866MPD2     C12759   0.866   1.272  11.216 -0.0586 -0.2618  0.9088
  866MPD2    C112760   0.830   1.277  11.081 -0.6223  0.1372  0.9804
  866MPD2    C212761   0.734   1.365  11.034 -0.4532  0.2492  0.3775
  866MPD2    C312762   0.670   1.452  11.123  0.6206  0.0059 -0.1200
  866MPD2    C412763   0.705   1.446  11.259 -0.3139  0.3003 -0.2351
  866MPD2    C512764   0.806   1.362  11.300 -0.7702  0.0707 -0.1574
  866MPD2     H12765   0.707   1.367  10.929  0.1840  0.3241  0.2173
  866MPD2    H112766   0.661   1.503  11.340  0.0395 -0.8116  0.7405
  866MPD2    H212767   0.922   1.189  11.258  0.7475  0.0997  0.5565
  866MPD2    H312768   0.828   1.354  11.406 -2.7273  0.3911  0.2562
  866MPD2     N12769   0.564   1.538  11.095 -0.3117  0.2790  0.2350
  866MPD2    H512770   0.510   1.578  11.171 -0.5686  0.5120 -0.0739
  866MPD2    N112771   0.895   1.186  11.000 -0.0069  0.2111 -0.0236
  866MPD2    H712772   0.932   1.107  11.053  0.8668  1.1987  0.8417
  867MPD2     C12773   3.280   0.729  16.676  1.1544  0.4774 -0.1532
  867MPD2    C112774   3.169   0.709  16.741  0.0966  0.3686  0.7764
  867MPD2    C212775   3.088   0.813  16.792 -0.3939  0.5863  0.4435
  867MPD2    C312776   3.143   0.942  16.796 -0.0975  0.5274 -0.0067
  867MPD2    C412777   3.258   0.963  16.727  0.3060 -0.0640 -0.3219
  867MPD2    C512778   3.326   0.857  16.668 -0.2699 -0.1734 -0.7532
  867MPD2     H12779   2.991   0.796  16.836 -0.5607 -1.8953 -0.8684
  867MPD2    H112780   3.307   1.060  16.726 -0.3608  0.2597 -0.8840
  867MPD2    H212781   3.346   0.648  16.646  1.0436  0.8264 -1.3472
  867MPD2    H312782   3.420   0.875  16.618  0.6713 -1.7967  0.4152
  867MPD2     N12783   3.083   1.046  16.867  0.4704  0.2370 -0.3264
  867MPD2    H512784   3.128   1.137  16.869 -0.0192  0.5074 -1.5686
  867MPD2    N112785   3.142   0.569  16.757 -0.0497 -0.2706  0.8069
  867MPD2    H712786   3.209   0.505  16.716  2.1905  2.6929 -0.1608
  868MPD2     C12787   0.040   0.489  13.651 -0.1443  0.7672 -0.9860
  868MPD2    C112788   0.049   0.359  13.612 -0.0432  0.0137  0.8822
  868MPD2    C212789   4.683   0.260  13.633  0.5553  0.4455  0.6196
  868MPD2    C312790   4.564   0.297  13.693  0.3536  0.0305  0.8476
  868MPD2    C412791   4.561   0.429  13.740  0.1340 -0.1884  0.0037
  868MPD2    C512792   4.663   0.516  13.719  0.0185 -0.5219  0.5566
  868MPD2     H12793   4.698   0.162  13.591 -0.4299 -0.2336  1.8676
  868MPD2    H112794   4.478   0.461  13.802 -0.3950  1.4728 -1.5653
  868MPD2    H212795   0.113   0.568  13.641 -0.7843  1.5474  0.5855
  868MPD2    H312796   4.652   0.612  13.769 -1.3435 -1.0691  1.3023
  868MPD2     N12797   4.460   0.199  13.711 -0.6250 -0.4893 -0.0764
  868MPD2    H512798   4.479   0.100  13.707 -0.8173 -0.5220 -0.1652
  868MPD2    N112799   0.168   0.312  13.549 -0.1893 -0.1781 -0.1837
  868MPD2    H712800   0.175   0.211  13.539 -1.6368 -0.3177  0.0924
  869MPD2     C12801   0.837   3.530   0.152 -0.8877  0.0270  0.5262
  869MPD2    C112802   0.760   3.449   0.223 -0.2831 -0.2842  0.4122
  869MPD2    C212803   0.816   3.370   0.329  0.2394  0.1775 -0.6281
  869MPD2    C312804   0.960   3.362   0.331 -0.7679  0.0012 -0.4504
  869MPD2    C412805   1.033   3.431   0.237  0.5771 -0.2816 -0.0087
  869MPD2    C512806   0.975   3.523   0.156 -0.1281  1.1210 -0.2250
  869MPD2     H12807   0.760   3.294   0.382  0.7965 -0.8093 -1.4434
  869MPD2    H112808   1.141   3.423   0.233  0.6047 -0.0752  0.3090
  869MPD2    H212809   0.797   3.612   0.093  1.5276  0.7259 -0.1334
  869MPD2    H312810   1.034   3.584   0.089  1.4237 -0.8399 -0.6459
  869MPD2     N12811   1.027   3.280   0.423  0.2123 -0.3158 -0.0406
  869MPD2    H512812   1.123   3.261   0.399  0.8594 -0.4269  2.5976
  869MPD2    N112813   0.623   3.444   0.185  0.6756 -0.2612  0.0347
  869MPD2    H712814   0.597   3.515   0.117 -0.2464 -1.7494 -1.1884
  870MPD2     C12815   1.359   2.025   1.372 -1.0082  0.0532  0.1074
  870MPD2    C112816   1.285   1.913   1.326  1.0399 -0.8287 -0.2567
  870MPD2    C212817   1.153   1.935   1.286 -0.2209  0.2335  0.2958
  870MPD2    C312818   1.098   2.065   1.270  0.6136 -0.5588  0.8788
  870MPD2    C412819   1.173   2.169   1.324 -0.0630 -0.1973  0.1036
  870MPD2    C512820   1.312   2.152   1.363 -0.5371 -0.2072  0.2148
  870MPD2     H12821   1.100   1.850   1.244 -2.5663  1.7378  0.2829
  870MPD2    H112822   1.136   2.270   1.336 -1.1497 -0.5713 -0.0934
  870MPD2    H212823   1.460   2.010   1.408 -1.1313  0.3850  0.5870
  870MPD2    H312824   1.372   2.230   1.410  0.6827  1.1404 -3.5851
  870MPD2     N12825   0.971   2.083   1.218 -0.1751  0.4542 -0.0295
  870MPD2    H512826   0.906   2.005   1.207 -0.5932  1.1759 -2.8871
  870MPD2    N112827   1.352   1.785   1.331 -0.5739 -0.3573  0.0966
  870MPD2    H712828   1.445   1.778   1.370  0.3900 -0.5211 -2.2303
  871MPD2     C12829   1.294   0.584  16.237  0.2499  0.4096  0.5021
  871MPD2    C112830   1.359   0.549  16.352 -0.8956 -0.0408  0.3336
  871MPD2    C212831   1.384   0.413  16.370 -0.5406  0.9064 -0.0103
  871MPD2    C312832   1.378   0.323  16.264  0.3978 -0.3478 -0.4611
  871MPD2    C412833   1.316   0.364  16.150  0.3853 -0.1343  0.5817
  871MPD2    C512834   1.275   0.491  16.135 -0.2344  0.3332 -0.1834
  871MPD2     H12835   1.432   0.374  16.459  1.6378 -1.2906 -2.1572
  871MPD2    H112836   1.293   0.300  16.065 -0.2158 -0.5755  1.0729
  871MPD2    H212837   1.256   0.683  16.215  0.0929  0.2480  0.0401
  871MPD2    H312838   1.213   0.519  16.050  1.6699 -0.5286 -1.8488
  871MPD2     N12839   1.442   0.196  16.275  0.1301  0.4337  0.8625
  871MPD2    H512840   1.485   0.172  16.364 -1.0126 -0.5552  1.1509
  871MPD2    N112841   1.356   0.638  16.460  0.3288  0.3368 -0.1169
  871MPD2    H712842   1.325   0.734  16.448  0.0835  0.4150  1.1629
  872MPD2     C12843   2.972   3.310  13.798  0.5101  0.4855 -0.2144
  872MPD2    C112844   3.015   3.305  13.927 -0.6157  0.7072 -0.8373
  872MPD2    C212845   2.921   3.293  14.033  0.2845  0.4629  0.3028
  872MPD2    C312846   2.788   3.280  14.004  0.9455 -0.5853 -0.4859
  872MPD2    C412847   2.748   3.282  13.869 -1.0452  0.1792 -0.1754
  872MPD2    C512848   2.842   3.302  13.768  0.4905  0.1065  0.3278
  872MPD2     H12849   2.953   3.280  14.135 -1.8296 -3.6625  0.4311
  872MPD2    H112850   2.643   3.292  13.843 -1.0796  0.2809 -0.0001
  872MPD2    H212851   3.037   3.310  13.712 -1.8159 -1.6085 -1.9680
  872MPD2    H312852   2.804   3.301  13.666 -2.0475 -2.4404  1.2696
  872MPD2     N12853   2.684   3.262  14.102 -0.5151  0.2512 -0.4553
  872MPD2    H512854   2.589   3.248  14.068  0.0915  0.5606 -2.3062
  872MPD2    N112855   3.156   3.307  13.965 -0.0332  0.2372  0.3053
  872MPD2    H712856   3.164   3.296  14.066 -1.2722 -1.2133  0.2483
  873MPD2     C12857   4.335   3.693   1.366  0.5925  0.6075 -0.0949
  873MPD2    C112858   4.435   3.611   1.414 -0.4827  0.3532  0.5674
  873MPD2    C212859   4.529   3.552   1.327 -0.7322  0.5959 -0.0850
  873MPD2    C312860   4.535   3.591   1.196  0.1118  0.7168 -0.1469
  873MPD2    C412861   4.432   3.668   1.151 -0.2064  0.1060  0.1576
  873MPD2    C512862   4.329   3.720   1.235 -0.7780  0.0815 -0.5669
  873MPD2     H12863   4.612   3.494   1.366 -0.5744  0.2625 -0.9041
  873MPD2    H112864   4.427   3.676   1.043  0.5009  0.4658  0.1494
  873MPD2    H212865   4.248   3.708   1.429  1.2722 -2.2769  1.5180
  873MPD2    H312866   4.246   3.780   1.200 -0.8701 -1.0436 -2.2589
  873MPD2     N12867   4.634   3.544   1.100  0.2648  0.0675 -0.4787
  873MPD2    H512868   4.626   3.582   1.006  0.4454  3.3955  0.8256
  873MPD2    N112869   4.427   3.578   1.551 -0.1490  0.0479 -1.0136
  873MPD2    H712870   4.348   3.623   1.596 -0.4208 -1.2615 -0.1502
  874MPD2     C12871   4.339   3.593  16.199  0.3383 -0.3162  0.3349
  874MPD2    C112872   4.387   3.462  16.218  0.6920  0.0032 -0.4967
  874MPD2    C212873   4.522   3.439  16.224 -0.5724 -0.1255  0.6479
  874MPD2    C312874   4.616   3.541  16.214  0.0545  0.0490  0.3281
  874MPD2    C412875   4.569   3.670  16.202  0.2132  0.9613  0.6727
  874MPD2    C512876   4.432   3.694  16.192  0.6236  0.2083  0.0187
  874MPD2     H12877   4.560   3.338  16.216  0.4792  0.3665 -0.6428
  874MPD2    H112878   4.631   3.757  16.217  1.5175  0.4105 -1.5642
  874MPD2    H212879   4.236   3.620  16.178  0.1504 -0.2650  1.3329
  874MPD2    H312880   4.398   3.794  16.170  0.6654  0.3796  0.7139
  874MPD2     N12881   0.019   3.501  16.238 -0.8661  0.2722 -0.2652
  874MPD2    H512882   0.042   3.402  16.237 -0.5501  0.3447  0.0656
  874MPD2    N112883   4.291   3.358  16.240  0.2233 -0.1245  0.3312
  874MPD2    H712884   4.196   3.389  16.225 -0.8043 -3.2127  0.4963
  875MPD2     C12885   0.683   1.596  14.656 -0.4981 -0.3801  0.3711
  875MPD2    C112886   0.571   1.591  14.731 -0.4686 -0.3046  0.2827
  875MPD2    C212887   0.571   1.644  14.855  0.1006  0.0285 -0.0354
  875MPD2    C312888   0.683   1.722  14.897  0.4316  0.2451 -0.3617
  875MPD2    C412889   0.797   1.720  14.826 -0.0169 -0.7100  0.4263
  875MPD2    C512890   0.795   1.669  14.702 -0.3749 -0.3728  0.7205
  875MPD2     H12891   0.480   1.631  14.913  0.5114  1.2892  0.9246
  875MPD2    H112892   0.874   1.795  14.844  2.2086 -3.1308  0.9386
  875MPD2    H212893   0.683   1.564  14.552 -0.1979  0.1569  0.2047
  875MPD2    H312894   0.874   1.690  14.631 -0.8541 -0.9424  0.0058
  875MPD2     N12895   0.705   1.767  15.031  0.3123 -0.0033 -0.0605
  875MPD2    H512896   0.790   1.820  15.048  1.0602 -1.4378  0.7029
  875MPD2    N112897   0.443   1.532  14.687 -0.1766  0.0945 -0.5170
  875MPD2    H712898   0.365   1.538  14.751  0.5131  0.0215  0.3428
  876MPD2     C12899   4.013   2.848  15.970  0.9172  0.2188 -0.3585
  876MPD2    C112900   4.147   2.856  15.984 -0.1473 -0.1329  0.7452
  876MPD2    C212901   4.207   2.747  16.052  0.4513  0.5710  0.0910
  876MPD2    C312902   4.133   2.631  16.084  0.3999 -0.1399 -0.3910
  876MPD2    C412903   4.003   2.620  16.050 -0.5132  0.3217 -0.1183
  876MPD2    C512904   3.939   2.734  15.995  0.2936 -0.7214 -0.4609
  876MPD2     H12905   4.315   2.744  16.056  0.3762  3.4878  3.4416
  876MPD2    H112906   3.940   2.534  16.064  0.4662 -0.2607  0.6578
  876MPD2    H212907   3.949   2.922  15.921  1.5587  1.7850  1.1734
  876MPD2    H312908   3.837   2.730  15.958  0.3848  1.7607 -0.9821
  876MPD2     N12909   4.208   2.521  16.139  0.1680 -0.4646  0.6116
  876MPD2    H512910   4.308   2.514  16.149  0.1316  0.0943  1.3668
  876MPD2    N112911   4.227   2.965  15.937  0.2802  0.0386  0.3240
  876MPD2    H712912   4.183   3.012  15.858 -1.7382  2.5449  2.9406
  877MPD2     C12913   4.251   3.334  15.316  0.6055 -0.0142  0.1146
  877MPD2    C112914   4.380   3.296  15.339 -0.3937  0.2478  0.0976
  877MPD2    C212915   4.466   3.279  15.234 -0.0989 -0.6536 -0.8097
  877MPD2    C312916   4.411   3.288  15.102 -0.3667  0.0076 -0.0824
  877MPD2    C412917   4.277   3.325  15.083  0.9527  0.4558 -0.6897
  877MPD2    C512918   4.200   3.350  15.194  0.3425  0.1721  0.2728
  877MPD2     H12919   4.567   3.241  15.245 -0.8749 -1.5887  3.1066
  877MPD2    H112920   4.233   3.337  14.984  2.7633  2.2825 -1.2791
  877MPD2    H212921   4.183   3.371  15.392 -1.1164  0.3021 -1.5811
  877MPD2    H312922   4.097   3.382  15.192  0.4068  0.4141  0.6570
  877MPD2     N12923   4.487   3.273  14.987 -0.1564  0.3951  0.7472
  877MPD2    H512924   4.432   3.268  14.902  0.3733  0.5603  0.3970
  877MPD2    N112925   4.423   3.272  15.471  0.1215 -0.0218 -0.2683
  877MPD2    H712926   4.520   3.245  15.485  0.6278  1.0230 -1.7956
  878MPD2     C12927   4.543   2.289  13.015 -0.0607 -0.1246  0.3479
  878MPD2    C112928   4.513   2.403  13.078 -0.2434 -0.3689 -0.6255
  878MPD2    C212929   4.478   2.415  13.205 -0.1752  0.1758 -0.6978
  878MPD2    C312930   4.448   2.297  13.270 -0.8052 -0.1562  0.1734
  878MPD2    C412931   4.473   2.175  13.208  0.2955  0.2580  0.5361
  878MPD2    C512932   4.516   2.176  13.074  0.1626  0.2738 -0.6432
  878MPD2     H12933   4.451   2.508  13.253 -0.4717 -0.0841 -0.3577
  878MPD2    H112934   4.446   2.080  13.254  0.7889  0.7707  1.8725
  878MPD2    H212935   4.584   2.283  12.915  0.1220  0.3321  0.3994
  878MPD2    H312936   4.529   2.085  13.017 -0.2422  1.7457 -3.0928
  878MPD2     N12937   4.394   2.311  13.397 -0.3991  0.1226  0.6384
  878MPD2    H512938   4.379   2.406  13.430  1.3085  0.4164  0.6002
  878MPD2    N112939   4.531   2.517  12.990  0.0720  0.2943 -0.0389
  878MPD2    H712940   4.559   2.507  12.893  0.2476 -0.9092  0.1350
  879MPD2     C12941   4.000   3.622  17.606  0.1957 -0.0671 -0.1440
  879MPD2    C112942   4.103   3.652  17.512  0.6868  0.3506 -0.3875
  879MPD2    C212943   4.073   3.641  17.378 -0.1939  0.3366 -0.9795
  879MPD2    C312944   3.948   3.589  17.332  0.0998 -0.6113  0.1401
  879MPD2    C412945   3.853   3.558  17.420  0.3020 -0.1891 -0.1033
  879MPD2    C512946   3.883   3.580  17.557  0.7656  0.1052  0.2844
  879MPD2     H12947   4.152   3.657  17.306 -0.1863  1.5252 -0.7110
  879MPD2    H112948   3.757   3.516  17.395 -0.2713  1.2714 -0.3160
  879MPD2    H212949   4.022   3.607  17.711 -0.4461  0.5299  0.0810
  879MPD2    H312950   3.816   3.543  17.634  0.3934  1.6900  0.7122
  879MPD2     N12951   3.919   3.572  17.195 -0.0401 -0.2100  0.2649
  879MPD2    H512952   3.839   3.514  17.174 -1.1584  0.3740  2.8565
  879MPD2    N112953   4.233   3.687  17.559  0.2682  0.0791 -0.2189
  879MPD2    H712954   4.239   3.707  17.658  1.9747 -0.6957 -0.1635
  880MPD2     C12955   0.993   0.893   0.072  0.1373 -0.0450 -0.5113
  880MPD2    C112956   0.994   0.951   0.199  0.2600 -0.8090 -0.6366
  880MPD2    C212957   1.010   0.866   0.306  0.4024 -0.1228  0.3528
  880MPD2    C312958   1.031   0.729   0.296 -0.4053  0.5655  0.1434
  880MPD2    C412959   1.050   0.682   0.169  0.3824  0.2753 -0.1617
  880MPD2    C512960   1.033   0.762   0.060  0.0319  0.0977 -0.4879
  880MPD2     H12961   1.013   0.910   0.405  0.5743  2.1669 -0.6747
  880MPD2    H112962   1.087   0.580   0.158  0.7311  0.4796 -0.8451
  880MPD2    H212963   0.979   0.943  17.717  1.0305  0.1969 -0.5140
  880MPD2    H312964   1.045   0.724  17.699  0.9046 -1.0499  0.0458
  880MPD2     N12965   1.038   0.654   0.417  0.1189  0.3315  0.2154
  880MPD2    H512966   1.022   0.707   0.502 -0.3049  0.1787  0.2293
  880MPD2    N112967   0.977   1.088   0.211 -0.2200  0.0622 -0.4870
  880MPD2    H712968   0.968   1.130   0.119 -1.9388 -1.2508 -0.9046
  881MPD2     C12969   1.430   1.860  17.494 -0.3903  0.5596 -0.3288
  881MPD2    C112970   1.320   1.773  17.463 -0.8265  0.1691  0.1560
  881MPD2    C212971   1.277   1.687  17.566  0.3012  0.1235  0.4342
  881MPD2    C312972   1.300   1.718  17.696  0.3389 -0.4102 -0.3321
  881MPD2    C412973   1.390   1.811  17.726  0.0667 -0.0690 -0.0326
  881MPD2    C512974   1.462   1.873  17.624 -0.8214 -0.7719  0.2127
  881MPD2     H12975   1.209   1.604  17.548 -0.9205  1.1064  0.5754
  881MPD2    H112976   1.407   1.829   0.092  1.4319  0.8200 -0.4006
  881MPD2    H212977   1.487   1.919  17.423  1.2827 -0.5486  0.0821
  881MPD2    H312978   1.533   1.950  17.653  0.0114 -1.2663 -0.4826
  881MPD2     N12979   1.231   1.656   0.062  0.1111  0.0016 -0.2731
  881MPD2    H512980   1.247   1.697   0.154 -1.2357  0.7410 -0.3601
  881MPD2    N112981   1.282   1.751  17.328  0.1084  0.2046 -0.0038
  881MPD2    H712982   1.326   1.807  17.256  1.4076 -0.2642  0.4262
  882MPD2     C12983   4.407   2.876  14.396  0.3774  0.4587 -0.5355
  882MPD2    C112984   4.390   3.000  14.450 -0.0413  0.3854 -0.6318
  882MPD2    C212985   4.261   3.046  14.483  0.5207  0.0951 -0.0423
  882MPD2    C312986   4.153   2.965  14.467 -0.2555 -0.7468 -0.6082
  882MPD2    C412987   4.166   2.838  14.405  0.3989  0.0857 -0.6751
  882MPD2    C512988   4.293   2.802  14.369 -0.3504  0.1319 -1.0118
  882MPD2     H12989   4.246   3.146  14.521 -0.7029 -0.5761  1.2504
  882MPD2    H112990   4.088   2.770  14.373  1.4184 -1.8952  1.1363
  882MPD2    H212991   4.508   2.840  14.384  1.1005  1.3436  2.7202
  882MPD2    H312992   4.316   2.703  14.332  0.5482 -0.4668  1.0947
  882MPD2     N12993   4.023   2.993  14.515  0.4879 -0.3191  0.1629
  882MPD2    H512994   3.952   2.920  14.513  0.2221 -0.0365 -0.7166
  882MPD2    N112995   4.509   3.076  14.473 -0.0524 -0.3146 -0.6016
  882MPD2    H712996   4.588   3.018  14.447  0.7889  0.2494  0.7275
  883MPD2     C12997   1.295   2.883  16.198  0.1586 -0.3320  0.5458
  883MPD2    C112998   1.348   2.994  16.140  0.2126 -0.4266  0.1360
  883MPD2    C212999   1.488   3.005  16.137 -0.2690 -0.5865 -0.7326
  883MPD2    C313000   1.571   2.905  16.186 -1.0767 -0.7804  0.2840
  883MPD2    C413001   1.510   2.788  16.229 -0.4987  0.0945  0.0908
  883MPD2    C513002   1.376   2.776  16.227 -0.4372 -0.0877  0.0109
  883MPD2     H13003   1.543   3.089  16.098  0.1086 -0.4705  0.0504
  883MPD2    H113004   1.564   2.697  16.252  0.6830  0.9901  0.8600
  883MPD2    H213005   1.188   2.867  16.206  0.3524 -1.6419  0.4532
  883MPD2    H313006   1.331   2.690  16.276 -1.4010 -0.3224 -1.2683
  883MPD2     N13007   1.712   2.932  16.191 -0.4159  0.8669 -0.1816
  883MPD2    H513008   1.730   3.027  16.162  3.4139  0.2166 -0.0264
  883MPD2    N113009   1.266   3.095  16.089 -0.2917  0.4446 -0.1175
  883MPD2    H713010   1.300   3.184  16.054 -1.2619  0.3867 -1.2054
  884MPD2     C13011   3.477   3.881  15.186  0.6612  0.0258 -0.0318
  884MPD2    C113012   3.472   4.010  15.149 -0.3267  0.1282 -0.1356
  884MPD2    C213013   3.362   4.083  15.184  0.0851  0.0938  0.4272
  884MPD2    C313014   3.251   4.027  15.247 -0.1301  0.7702 -0.4032
  884MPD2    C413015   3.255   3.899  15.286 -0.2518 -0.1969 -0.3024
  884MPD2    C513016   3.367   3.826  15.245  0.1115 -0.5169  0.4393
  884MPD2     H13017   3.351   4.184  15.147  2.2481  1.1434  2.6770
  884MPD2    H113018   3.167   3.853  15.328  1.0971 -0.7608  1.9104
  884MPD2    H213019   3.559   3.814  15.167  1.2600  1.2889 -1.8415
  884MPD2    H313020   3.364   3.719  15.260 -0.9375 -0.0434  3.6815
  884MPD2     N13021   3.137   4.108  15.260 -0.2154 -0.6273 -0.0518
  884MPD2    H513022   3.126   4.199  15.215  0.6551  0.7089  2.4684
  884MPD2    N113023   3.584   4.067  15.075 -0.4595  0.0238  0.2839
  884MPD2    H713024   3.573   4.165  15.050 -0.8594 -0.0677  0.1017
  885MPD2     C13025   1.971   3.499   0.066 -0.2323 -0.2390 -0.5146
  885MPD2    C113026   2.061   3.581   0.125  0.4037 -1.0159  0.0952
  885MPD2    C213027   2.056   3.712   0.094 -0.5437 -0.1077  0.0055
  885MPD2    C313028   1.967   3.761   0.001 -0.1760  0.4735  0.1345
  885MPD2    C413029   1.881   3.676  17.675  0.2385  0.2707 -0.6065
  885MPD2    C513030   1.882   3.545  17.711 -0.0774 -0.1443 -1.0099
  885MPD2     H13031   2.127   3.776   0.144  0.0999  0.1227 -1.2132
  885MPD2    H113032   1.816   3.711  17.595  0.5911 -3.0675 -2.3345
  885MPD2    H213033   1.969   3.394   0.092 -0.0271  0.4700  2.3417
  885MPD2    H313034   1.813   3.483  17.656 -1.0864 -0.8788  1.0575
  885MPD2     N13035   1.976   3.903  17.720 -0.0339  0.4081  0.1747
  885MPD2    H513036   2.063   3.944   0.013 -0.5028  0.4986  1.2983
  885MPD2    N113037   2.149   3.522   0.221 -0.2066 -0.3515 -0.1458
  885MPD2    H713038   2.131   3.426   0.247 -1.2993 -0.0310  0.2913
  886MPD2     C13039   2.926   2.817  15.481 -0.3740  0.8106  0.1161
  886MPD2    C113040   3.051   2.790  15.439 -0.0706 -0.2892 -0.0052
  886MPD2    C213041   3.111   2.881  15.352  0.3390 -0.2928 -0.6524
  886MPD2    C313042   3.040   2.992  15.299  0.2748 -0.4502  0.2309
  886MPD2    C413043   2.916   3.013  15.347  0.8532  0.0317  0.6785
  886MPD2    C513044   2.855   2.928  15.438 -0.2834 -0.2992 -0.3966
  886MPD2     H13045   3.214   2.864  15.322  0.7929  2.0760 -0.4221
  886MPD2    H113046   2.853   3.098  15.328  1.8637  0.4613 -0.7560
  886MPD2    H213047   2.864   2.751  15.541  1.4033 -0.9352  0.0365
  886MPD2    H313048   2.755   2.960  15.464 -0.0194  0.6802 -0.5696
  886MPD2     N13049   3.100   3.077  15.203 -0.7416  0.3281 -0.6746
  886MPD2    H513050   3.183   3.037  15.162  0.1134  4.4622 -3.0032
  886MPD2    N113051   3.124   2.676  15.482  0.7130 -0.1342  0.1077
  886MPD2    H713052   3.225   2.675  15.476  0.8383 -0.4948  2.2813
  887MPD2     C13053   3.777   2.585  15.659  0.1050 -0.4584  0.0237
  887MPD2    C113054   3.657   2.642  15.709 -0.4791  0.1302  1.1600
  887MPD2    C213055   3.646   2.775  15.738  0.0543  0.1441 -0.4864
  887MPD2    C313056   3.751   2.860  15.707 -0.8499  0.2432  0.6525
  887MPD2    C413057   3.861   2.805  15.650 -1.4694 -0.0668  0.1644
  887MPD2    C513058   3.875   2.669  15.628 -0.0688 -0.3331 -0.2074
  887MPD2     H13059   3.554   2.811  15.782 -0.6559  0.1439 -1.9509
  887MPD2    H113060   3.921   2.877  15.595 -0.1546 -1.2533  0.0660
  887MPD2    H213061   3.787   2.481  15.628 -1.0550 -0.6065  0.1298
  887MPD2    H313062   3.952   2.632  15.560  0.3498  0.5877 -0.2354
  887MPD2     N13063   3.740   2.992  15.743 -0.1094 -0.2634 -0.3143
  887MPD2    H513064   3.651   3.025  15.778 -0.0682 -1.0101  0.4993
  887MPD2    N113065   3.537   2.566  15.711  0.8349 -0.3156  0.2969
  887MPD2    H713066   3.455   2.616  15.741 -0.7432 -0.1487 -4.2483
  888MPD2     C13067   0.739   2.354  14.862  0.7236  0.4142  0.1019
  888MPD2    C113068   0.698   2.417  14.975 -0.6048 -0.1013  0.3346
  888MPD2    C213069   0.736   2.551  15.002  0.0564 -0.3729 -0.4345
  888MPD2    C313070   0.832   2.619  14.931 -0.7156  0.0518  0.0112
  888MPD2    C413071   0.875   2.561  14.816 -0.2719  0.1463  0.0290
  888MPD2    C513072   0.818   2.435  14.781  0.0496 -0.1613 -0.1858
  888MPD2     H13073   0.696   2.599  15.090  0.8309  0.2861 -0.4432
  888MPD2    H113074   0.952   2.601  14.752  1.6187 -0.0129  2.1937
  888MPD2    H213075   0.711   2.255  14.829  0.0835  0.1107  1.5671
  888MPD2    H313076   0.870   2.393  14.696 -0.0962  0.0967 -0.4012
  888MPD2     N13077   0.888   2.740  14.984  0.0224 -0.4395  0.2998
  888MPD2    H513078   0.856   2.767  15.077  2.1530  3.6716 -0.1779
  888MPD2    N113079   0.628   2.351  15.073  0.3904  0.1517  0.8354
  888MPD2    H713080   0.592   2.407  15.149 -0.3243  0.9981 -0.1143
  889MPD2     C13081   0.163   2.682  12.847 -0.6321 -0.0997  0.2342
  889MPD2    C113082   0.189   2.617  12.962 -0.2924 -0.3322 -0.4638
  889MPD2    C213083   0.151   2.677  13.081 -0.0344  0.4981  0.0811
  889MPD2    C313084   0.101   2.803  13.080 -0.0359 -0.5843 -0.1373
  889MPD2    C413085   0.092   2.875  12.960 -0.2487  0.5211  0.1067
  889MPD2    C513086   0.130   2.815  12.847 -0.3919  0.7912 -0.3460
  889MPD2     H13087   0.154   2.624  13.175 -1.0617  1.7960  0.8394
  889MPD2    H113088   0.062   2.979  12.958 -0.6484  0.4207  1.0155
  889MPD2    H213089   0.190   2.635  12.753 -1.0536 -2.5121  1.3283
  889MPD2    H313090   0.130   2.862  12.750 -0.6980  0.3849 -0.5445
  889MPD2     N13091   0.070   2.867  13.205 -0.1258  0.0954  0.4744
  889MPD2    H513092   0.115   2.825  13.285 -2.0227 -2.4238  0.2070
  889MPD2    N113093   0.202   2.474  12.963 -0.4688  0.2989  0.4562
  889MPD2    H713094   0.207   2.433  13.055 -0.6841 -0.6824  0.0350
  890MPD2     C13095   3.871   3.989  14.609 -0.1133  0.6435 -0.1027
  890MPD2    C113096   4.002   4.033  14.601  0.3806  0.1077  0.0131
  890MPD2    C213097   4.105   3.966  14.674 -0.2058  0.2140 -0.0650
  890MPD2    C313098   4.067   3.859  14.756  0.4863 -0.2334  0.0967
  890MPD2    C413099   3.936   3.812  14.752 -0.2825 -0.0817 -0.3890
  890MPD2    C513100   3.842   3.874  14.677  0.4500  1.1202 -0.2427
  890MPD2     H13101   4.208   3.996  14.686 -0.9000  2.9303 -1.0314
  890MPD2    H113102   3.913   3.725  14.814  1.2028 -1.5783 -1.9224
  890MPD2    H213103   3.788   4.041  14.562 -0.7259  0.7813  1.1321
  890MPD2    H313104   3.742   3.836  14.697  0.0965  2.3375  0.3262
  890MPD2     N13105   4.170   3.802  14.838  0.0564  0.1512 -0.5208
  890MPD2    H513106   4.264   3.835  14.819  1.0091 -2.1450  0.1288
  890MPD2    N113107   4.032   4.149  14.530 -0.0852  0.4520  0.4553
  890MPD2    H713108   3.961   4.206  14.484  0.6342  0.4021 -0.7049
  891MPD2     C13109   2.353   2.320  16.518  0.2984  0.8736  0.0878
  891MPD2    C113110   2.270   2.419  16.559 -0.2753 -0.2838 -0.1711
  891MPD2    C213111   2.318   2.517  16.654  0.0046 -0.3497  0.0217
  891MPD2    C313112   2.444   2.503  16.709  0.8491  0.3748 -0.2381
  891MPD2    C413113   2.522   2.392  16.668  0.2022 -0.3873  0.2443
  891MPD2    C513114   2.478   2.301  16.579 -0.4607  0.1534 -0.4490
  891MPD2     H13115   2.254   2.604  16.669  1.4762  1.0563 -1.8258
  891MPD2    H113116   2.625   2.388  16.702  0.4172  0.2129 -0.3351
  891MPD2    H213117   2.318   2.246  16.447  0.2523 -1.1839  2.2610
  891MPD2    H313118   2.547   2.225  16.545  0.8949  1.1242  0.1622
  891MPD2     N13119   2.498   2.607  16.781 -0.1803 -0.3746 -0.2757
  891MPD2    H513120   2.445   2.693  16.790  2.1021  0.9481  0.5584
  891MPD2    N113121   2.141   2.423  16.505  0.8499  1.1734 -0.6006
  891MPD2    H713122   2.115   2.353  16.436  0.5550  2.0815 -1.4303
  892MPD2     C13123   3.549   3.840  14.456 -0.2001  0.1245 -0.1051
  892MPD2    C113124   3.493   3.768  14.565  0.0896 -0.5270  0.4535
  892MPD2    C213125   3.511   3.630  14.577 -0.1206 -0.4646  0.5317
  892MPD2    C313126   3.599   3.563  14.488  1.0878 -0.7342  0.7971
  892MPD2    C413127   3.656   3.635  14.388 -0.3034  0.0803 -1.0304
  892MPD2    C513128   3.630   3.771  14.371  0.8486  0.7306  0.5585
  892MPD2     H13129   3.445   3.569  14.638 -0.3513 -0.8239 -0.0743
  892MPD2    H113130   3.727   3.590  14.319 -1.1563 -0.5202 -1.5215
  892MPD2    H213131   3.529   3.946  14.442  1.5049  0.6808  1.5754
  892MPD2    H313132   3.681   3.819  14.289  0.7222 -0.2960 -0.1283
  892MPD2     N13133   3.631   3.425  14.492  0.8296  0.2771  0.6386
  892MPD2    H513134   3.703   3.397  14.426 -0.2343 -0.3657 -0.2454
  892MPD2    N113135   3.401   3.840  14.647  0.1006  0.5715 -0.0236
  892MPD2    H713136   3.356   3.927  14.620  0.4674  0.6885 -0.2626
  893MPD2     C13137   0.174   2.537   1.185  0.9492  0.3744 -0.2844
  893MPD2    C113138   0.311   2.557   1.184  0.2436  0.0404  0.1703
  893MPD2    C213139   0.389   2.451   1.239 -0.3758  0.3881  0.3381
  893MPD2    C313140   0.332   2.341   1.300  0.9362 -0.3999  0.0086
  893MPD2    C413141   0.195   2.331   1.296  0.1814  0.6601 -0.1957
  893MPD2    C513142   0.121   2.427   1.240 -0.0856  0.4270  0.2109
  893MPD2     H13143   0.496   2.460   1.229 -0.7698  2.2315 -2.0632
  893MPD2    H113144   0.144   2.250   1.348 -1.7485  1.7183 -0.4734
  893MPD2    H213145   0.106   2.617   1.159 -2.1253 -1.7838  1.1866
  893MPD2    H313146   0.013   2.421   1.249 -0.0924 -0.3601 -0.4641
  893MPD2     N13147   0.413   2.238   1.364 -0.0429 -0.0417 -0.1425
  893MPD2    H513148   0.372   2.155   1.405 -0.1989  0.8945  1.5891
  893MPD2    N113149   0.359   2.679   1.129 -0.2812 -0.1824  0.1337
  893MPD2    H713150   0.293   2.723   1.066 -1.2083 -0.9094  0.5899
  894MPD2     C13151   3.151   4.195   1.441 -0.0604 -0.0643  0.0523
  894MPD2    C113152   3.032   4.269   1.434  0.3367  0.0872 -0.3285
  894MPD2    C213153   3.035   4.397   1.378 -0.3335  0.0732  0.1338
  894MPD2    C313154   3.156   4.466   1.366 -0.3687 -0.3785  0.5782
  894MPD2    C413155   3.271   4.394   1.379  0.2204 -0.5212 -0.6015
  894MPD2    C513156   3.264   4.265   1.420 -0.3325 -0.4961 -0.4930
  894MPD2     H13157   2.946   4.450   1.347 -0.6566  1.0558  2.7110
  894MPD2    H113158   3.367   4.433   1.348  0.6789 -0.1811  1.2754
  894MPD2    H213159   3.169   4.094   1.479 -0.8363 -1.0384 -2.1908
  894MPD2    H313160   3.356   4.208   1.429 -1.8426 -2.9474 -0.6526
  894MPD2     N13161   3.153   4.601   1.327  0.1866 -0.0071 -0.6933
  894MPD2    H513162   3.063   4.647   1.326 -0.5819 -1.5565 -2.1938
  894MPD2    N113163   2.906   4.205   1.459 -0.5508  0.2086  0.3895
  894MPD2    H713164   2.820   4.255   1.439 -0.8142  0.4727  2.1927
  895MPD2     C13165   2.611   2.965  14.007 -0.1800 -0.5459 -0.5277
  895MPD2    C113166   2.546   2.942  13.888  0.1430 -0.5993 -0.0486
  895MPD2    C213167   2.607   2.851  13.808  0.2827 -1.1734 -0.2994
  895MPD2    C313168   2.743   2.813  13.821  0.3748 -0.0247  0.3425
  895MPD2    C413169   2.810   2.848  13.938  0.4250 -0.0145  0.7550
  895MPD2    C513170   2.743   2.926  14.025 -0.7416  0.0232  0.0198
  895MPD2     H13171   2.555   2.826  13.716 -0.4278 -0.6032 -0.0498
  895MPD2    H113172   2.909   2.812  13.963  0.9270  1.4606  0.9211
  895MPD2    H213173   2.566   3.020  14.089  1.4208  1.1515 -0.7726
  895MPD2    H313174   2.789   2.961  14.117 -0.2857  0.0346 -0.2134
  895MPD2     N13175   2.807   2.747  13.709  0.3327 -0.3344 -0.5301
  895MPD2    H513176   2.753   2.753  13.623 -1.2996  0.1358  0.5406
  895MPD2    N113177   2.429   3.004  13.851 -0.4151 -0.1425  0.2904
  895MPD2    H713178   2.376   2.959  13.777  1.2553  2.2178 -2.3272
  896MPD2     C13179   0.241   1.570   0.957 -0.8134  0.1766 -0.3631
  896MPD2    C113180   0.226   1.441   0.908 -1.0870 -0.1203  0.0902
  896MPD2    C213181   0.101   1.383   0.912 -0.7554  0.8971  0.4842
  896MPD2    C313182   4.722   1.444   0.956  0.0441  0.2651  0.3051
  896MPD2    C413183   0.000   1.575   0.990  0.9925 -0.5870  0.1396
  896MPD2    C513184   0.121   1.632   0.993 -0.2686 -0.2260  0.4876
  896MPD2     H13185   0.095   1.275   0.901 -0.8794  1.0624 -1.0150
  896MPD2    H113186   4.654   1.636   1.028  0.3943  0.2714 -2.4951
  896MPD2    H213187   0.336   1.621   0.965 -0.3699 -0.6540 -0.2982
  896MPD2    H313188   0.132   1.739   1.002 -0.0218 -0.3972  2.3494
  896MPD2     N13189   4.613   1.364   0.990 -0.7287  0.0499  0.1661
  896MPD2    H513190   4.616   1.267   0.961 -0.8454  0.3091 -0.7055
  896MPD2    N113191   0.346   1.377   0.857 -0.7147 -0.3397 -0.3306
  896MPD2    H713192   0.436   1.419   0.879 -0.8015  0.6236 -1.8057
  897MPD2     C13193   0.945   2.788  10.702 -0.0628 -0.0810 -0.2179
  897MPD2    C113194   0.843   2.788  10.607 -0.3839  0.4837  0.3634
  897MPD2    C213195   0.730   2.708  10.633 -0.6808  0.8560 -0.2091
  897MPD2    C313196   0.736   2.619  10.741 -0.1674  0.6215 -0.1296
  897MPD2    C413197   0.838   2.613  10.826  0.0324 -0.1507 -0.2560
  897MPD2    C513198   0.943   2.696  10.801 -0.1433 -0.2355  0.3175
  897MPD2     H13199   0.638   2.725  10.579  0.3888  1.4357 -1.8642
  897MPD2    H113200   0.835   2.552  10.916  1.3802 -0.7401 -0.6251
  897MPD2    H213201   1.036   2.845  10.695 -1.2846  2.0753  1.4645
  897MPD2    H313202   1.030   2.695  10.866 -1.0074  1.3834  1.5060
  897MPD2     N13203   0.614   2.542  10.760 -0.1593 -0.1954 -0.1364
  897MPD2    H513204   0.538   2.567  10.697  0.2262 -1.0877 -0.9437
  897MPD2    N113205   0.846   2.891  10.508  0.3333 -0.2482  0.7206
  897MPD2    H713206   0.928   2.948  10.492 -1.4189  2.4457  1.3463
  898MPD2     C13207   3.401   2.943  17.411  0.2504 -0.3167 -0.6303
  898MPD2    C113208   3.461   2.954  17.536  0.5362  0.3249 -0.4762
  898MPD2    C213209   3.426   3.060  17.608 -0.2462 -0.3434  0.0832
  898MPD2    C313210   3.335   3.155  17.574 -0.1079 -0.0754  0.5868
  898MPD2    C413211   3.276   3.146  17.449  0.7950  0.2735 -1.1597
  898MPD2    C513212   3.309   3.040  17.372  0.6881 -0.6990 -0.6769
  898MPD2     H13213   3.484   3.076  17.698 -0.7937 -1.0421  0.5624
  898MPD2    H113214   3.195   3.211  17.417  1.0940  0.2959 -1.8733
  898MPD2    H213215   3.424   2.855  17.353 -0.5893 -1.6565  1.0864
  898MPD2    H313216   3.238   3.015  17.293  0.3901  0.0925 -0.6564
  898MPD2     N13217   3.318   3.265  17.654 -0.7485 -0.2133 -0.2915
  898MPD2    H513218   3.369   3.258   0.001 -0.3683  0.7485 -0.4375
  898MPD2    N113219   3.551   2.865  17.593  0.3159  0.0971  0.4027
  898MPD2    H713220   3.592   2.891  17.682 -0.2302  3.9030 -0.4693
  899MPD2     C13221   3.286   3.942  17.602 -0.2109  0.2069  0.0318
  899MPD2    C113222   3.410   3.953  17.658  0.3358  0.0784 -0.0930
  899MPD2    C213223   3.437   4.021   0.037 -0.0634  0.0589  0.3321
  899MPD2    C313224   3.329   4.085   0.104 -0.8674  0.3474  0.0202
  899MPD2    C413225   3.199   4.069   0.043  0.3616  0.1584  0.1005
  899MPD2    C513226   3.180   4.002  17.669  0.0730  0.8990  0.0231
  899MPD2     H13227   3.534   4.044   0.079  0.0291  0.2683 -0.0005
  899MPD2    H113228   3.106   4.097   0.093 -1.0633 -0.7750 -2.0193
  899MPD2    H213229   3.264   3.892  17.508 -1.9443  1.1302 -0.0592
  899MPD2    H313230   3.080   3.998  17.627  0.4771  0.3844 -0.9037
  899MPD2     N13231   3.351   4.149   0.229  0.1866  0.0448 -0.2476
  899MPD2    H513232   3.265   4.186   0.267 -0.3906  0.0010 -1.5064
  899MPD2    N113233   3.506   3.897  17.573 -0.3255  0.1719  0.1972
  899MPD2    H713234   3.469   3.882  17.480 -0.1445  2.0171 -0.1820
  900MPD2     C13235   3.726   0.553  12.730 -0.0303 -0.0790  0.1500
  900MPD2    C113236   3.652   0.436  12.735 -0.3193 -0.3726 -0.2179
  900MPD2    C213237   3.533   0.438  12.661  0.2170  0.2822 -0.5851
  900MPD2    C313238   3.486   0.547  12.591 -0.4439  0.5024 -0.4662
  900MPD2    C413239   3.567   0.651  12.581  0.5480  0.1752  0.0161
  900MPD2    C513240   3.681   0.654  12.650  0.3186 -0.2277  0.4496
  900MPD2     H13241   3.461   0.359  12.675  0.7953 -0.2082 -0.3562
  900MPD2    H113242   3.545   0.746  12.533 -0.3543 -0.9158 -1.6953
  900MPD2    H213243   3.822   0.562  12.779  0.5323  0.5401 -1.0682
  900MPD2    H313244   3.735   0.747  12.649 -0.5207  0.2324 -0.9158
  900MPD2     N13245   3.358   0.536  12.530 -0.3733 -0.0824  0.4615
  900MPD2    H513246   3.327   0.440  12.533 -2.6361  0.6459  0.2944
  900MPD2    N113247   3.703   0.328  12.817  0.0679  0.3276  0.0341
  900MPD2    H713248   3.798   0.337  12.853  0.4171  1.0335 -1.0771
  901MPD2     C13249   3.538   4.139  13.408 -0.1826 -0.7057 -0.0302
  901MPD2    C113250   3.669   4.133  13.369  0.3821 -0.4123 -0.7062
  901MPD2    C213251   3.732   4.240  13.302  0.2630  0.1199 -0.1559
  901MPD2    C313252   3.649   4.339  13.257  0.0057 -0.4693 -0.4761
  901MPD2    C413253   3.520   4.343  13.306  0.2983  0.4223  0.1957
  901MPD2    C513254   3.463   4.244  13.375 -0.2939  0.2747  0.1951
  901MPD2     H13255   3.838   4.241  13.282  0.6781 -1.0838  1.9730
  901MPD2    H113256   3.458   4.429  13.283 -0.0979 -0.1678 -0.9239
  901MPD2    H213257   3.498   4.053  13.460  0.5114 -0.9790  0.0443
  901MPD2    H313258   3.358   4.248  13.403  0.1395  0.8569  1.7492
  901MPD2     N13259   3.703   4.450  13.175  0.4790  0.4601 -0.2864
  901MPD2    H513260   3.804   4.445  13.165  0.4325  0.1718 -0.6130
  901MPD2    N113261   3.724   4.003  13.388  0.2997 -0.0523  0.7098
  901MPD2    H713262   3.675   3.934  13.444 -0.8410  0.1004 -0.1048
  902MPD2     C13263   2.724   3.225  12.953  0.5168 -0.4814 -0.9147
  902MPD2    C113264   2.651   3.276  12.848 -0.3370 -0.4327  0.2039
  902MPD2    C213265   2.626   3.187  12.746  0.5611  0.0365 -0.5172
  902MPD2    C313266   2.656   3.053  12.753 -0.2541  0.6075  0.4229
  902MPD2    C413267   2.740   3.010  12.855  0.8917 -0.6896  0.3383
  902MPD2    C513268   2.767   3.095  12.955  0.2186 -0.3077  1.1197
  902MPD2     H13269   2.572   3.232  12.664  1.5141 -0.0450 -1.1801
  902MPD2    H113270   2.768   2.906  12.863 -1.0108 -0.9971  3.0652
  902MPD2    H213271   2.737   3.296  13.034 -2.4284 -0.3313 -0.5717
  902MPD2    H313272   2.827   3.053  13.035 -0.1449 -0.8139  1.1268
  902MPD2     N13273   2.619   2.965  12.655 -0.0559 -0.4210  0.2571
  902MPD2    H513274   2.628   2.865  12.665  1.7210 -0.4053 -1.2313
  902MPD2    N113275   2.599   3.406  12.861 -0.0206 -0.4654 -0.0382
  902MPD2    H713276   2.632   3.461  12.939 -0.0145 -0.5286  0.0041
  903MPD2     C13277   2.582   3.052  11.852 -0.1360  0.2897 -0.2960
  903MPD2    C113278   2.492   2.982  11.930  0.3066 -0.8900 -0.8311
  903MPD2    C213279   2.359   2.992  11.899  0.7962  0.7510 -0.6768
  903MPD2    C313280   2.319   3.088  11.809  0.5934  0.3498  0.0001
  903MPD2    C413281   2.406   3.159  11.729 -0.3347  0.0086  0.8759
  903MPD2    C513282   2.541   3.143  11.757 -0.4610 -1.1695  0.3438
  903MPD2     H13283   2.285   2.935  11.955  2.0438  0.6490  0.8608
  903MPD2    H113284   2.385   3.233  11.652 -1.4567 -0.3908  0.8007
  903MPD2    H213285   2.688   3.049  11.870 -0.0035 -0.3972 -1.2142
  903MPD2    H313286   2.622   3.182  11.696 -2.7151  0.7400 -1.3898
  903MPD2     N13287   2.179   3.108  11.800  0.5063  0.8446  0.3835
  903MPD2    H513288   2.122   3.045  11.857 -0.4820  0.9439 -0.4781
  903MPD2    N113289   2.538   2.900  12.038  0.0007  0.1602  0.1858
  903MPD2    H713290   2.637   2.897  12.057 -0.3802 -1.8841  1.9022
  904MPD2     C13291   2.426   2.073  14.086 -0.6169 -0.8574 -0.3667
  904MPD2    C113292   2.478   2.198  14.078 -0.0286 -0.7322  0.1954
  904MPD2    C213293   2.605   2.228  14.126 -0.4621  0.8832  0.5999
  904MPD2    C313294   2.682   2.127  14.187  0.0190  0.6937  0.3675
  904MPD2    C413295   2.627   1.999  14.200  0.1205  0.2972 -0.3059
  904MPD2    C513296   2.500   1.970  14.139  0.2409 -1.1556 -0.0123
  904MPD2     H13297   2.649   2.326  14.112  0.1503  0.5729  0.3692
  904MPD2    H113298   2.684   1.914  14.235 -0.4875  0.1347  0.2868
  904MPD2    H213299   2.324   2.056  14.052 -0.7678  1.7048 -1.1821
  904MPD2    H313300   2.465   1.868  14.135  0.4151 -1.2377  0.5772
  904MPD2     N13301   2.806   2.169  14.242 -0.6312 -0.1153 -0.1106
  904MPD2    H513302   2.824   2.269  14.235  1.3928 -0.4712 -0.1265
  904MPD2    N113303   2.400   2.310  14.040 -0.6169 -0.1555  0.0924
  904MPD2    H713304   2.453   2.397  14.037  0.6720 -0.8513  2.4713
  905MPD2     C13305   2.181   2.497  13.406 -0.3519  0.0663  0.5287
  905MPD2    C113306   2.246   2.562  13.512  0.1968  0.1910  0.1421
  905MPD2    C213307   2.381   2.590  13.495  0.2216 -0.4219  0.0333
  905MPD2    C313308   2.446   2.555  13.375 -0.4559  0.1630  0.1156
  905MPD2    C413309   2.380   2.488  13.280 -0.0768  0.1868  0.3127
  905MPD2    C513310   2.246   2.467  13.288 -0.9157  0.0015  0.1194
  905MPD2     H13311   2.441   2.649  13.564  0.9055 -0.4537 -0.5316
  905MPD2    H113312   2.428   2.443  13.194  1.8784  3.1899 -0.1742
  905MPD2    H213313   2.082   2.454  13.415 -1.2379  1.8122 -0.8557
  905MPD2    H313314   2.195   2.413  13.209 -1.1506 -3.8402  2.8932
  905MPD2     N13315   2.583   2.570  13.350  0.1142  0.4468  0.5242
  905MPD2    H513316   2.625   2.515  13.275  0.9169  0.8289  0.6939
  905MPD2    N113317   2.177   2.594  13.633 -0.4541 -1.3881  0.6983
  905MPD2    H713318   2.091   2.547  13.660 -0.0702 -2.4631  0.0788
  906MPD2     C13319   3.954   2.165  11.449 -0.1557 -0.4976  0.4136
  906MPD2    C113320   3.932   2.078  11.343  0.1687  0.2176  0.2652
  906MPD2    C213321   3.863   1.966  11.356 -0.2628 -0.4288 -1.0578
  906MPD2    C313322   3.820   1.927  11.477 -0.5891 -0.1126 -0.7829
  906MPD2    C413323   3.850   2.002  11.585 -0.2575  0.2445 -0.0075
  906MPD2    C513324   3.910   2.126  11.571  0.3717  0.2587  0.3108
  906MPD2     H13325   3.851   1.901  11.270 -0.4747  1.9495 -2.7980
  906MPD2    H113326   3.817   1.965  11.681 -0.8207 -0.0659 -0.3155
  906MPD2    H213327   4.015   2.255  11.445  0.3168 -0.7645  1.8899
  906MPD2    H313328   3.935   2.185  11.658 -0.5255  0.6023  0.3419
  906MPD2     N13329   3.746   1.808  11.496  0.1390 -0.2163  0.4814
  906MPD2    H513330   3.718   1.788  11.591  0.7902  0.5694  0.8428
  906MPD2    N113331   3.999   2.097  11.213  0.3047  0.4897  0.0488
  906MPD2    H713332   3.975   2.018  11.154  1.6024  0.3238 -0.2532
  907MPD2     C13333   4.012   1.373  15.711  0.1493 -0.9536 -0.4740
  907MPD2    C113334   3.932   1.268  15.692 -0.4727 -0.0759  0.0609
  907MPD2    C213335   3.944   1.167  15.783  0.3411  0.3488 -0.1173
  907MPD2    C313336   4.038   1.171  15.888 -0.1436  0.6016 -0.0552
  907MPD2    C413337   4.129   1.270  15.895 -0.6553 -0.2422 -0.2414
  907MPD2    C513338   4.114   1.370  15.801  0.1560  0.1179 -0.0184
  907MPD2     H13339   3.867   1.090  15.785  0.6016  0.0211 -2.2634
  907MPD2    H113340   4.217   1.266  15.958 -0.3122 -0.2852 -0.7233
  907MPD2    H213341   3.995   1.465  15.655  2.5813  0.3130  0.8678
  907MPD2    H313342   4.177   1.459  15.801 -0.0412  0.2594  0.1322
  907MPD2     N13343   4.041   1.058  15.974  0.4170  0.8058 -0.8674
  907MPD2    H513344   3.973   0.987  15.948 -0.0216  0.5350  0.9657
  907MPD2    N113345   3.828   1.265  15.602 -0.1686  0.1245  0.5545
  907MPD2    H713346   3.758   1.193  15.620 -0.6832  0.8234  1.3533
  908MPD2     C13347   0.467   2.875   9.577  0.5598 -0.4193  0.3672
  908MPD2    C113348   0.436   2.805   9.687  0.3406  0.3028 -0.0567
  908MPD2    C213349   0.488   2.848   9.807  0.1783  0.9656  0.4915
  908MPD2    C313350   0.563   2.959   9.826 -0.7542  0.2685  0.2801
  908MPD2    C413351   0.586   3.033   9.707  0.3623  0.2657 -0.2611
  908MPD2    C513352   0.548   2.984   9.588  0.2194  0.6070  0.5682
  908MPD2     H13353   0.452   2.792   9.893  0.2762  0.6118  0.3029
  908MPD2    H113354   0.653   3.118   9.712 -2.8847  2.7999  0.0827
  908MPD2    H213355   0.440   2.853   9.474  2.6257 -0.3919 -0.1939
  908MPD2    H313356   0.570   3.052   9.506 -0.8533  0.9739  0.5786
  908MPD2     N13357   0.608   2.999   9.956 -0.3746 -0.4303 -0.8629
  908MPD2    H513358   0.580   2.936  10.030  2.2378  0.1795  0.6492
  908MPD2    N113359   0.351   2.686   9.682 -0.5730 -0.3925  0.2082
  908MPD2    H713360   0.330   2.644   9.772  0.5493 -0.1393  0.5884
  909MPD2     C13361   1.110   0.195  11.647  0.4103  0.5126  0.0895
  909MPD2    C113362   1.118   0.335  11.631  0.0561 -0.3847 -0.5538
  909MPD2    C213363   1.062   0.418  11.721  0.4618  0.4575  0.1291
  909MPD2    C313364   0.988   0.371  11.828  0.2120  0.4891 -0.1903
  909MPD2    C413365   0.990   0.234  11.843  0.5409 -0.1730  0.6938
  909MPD2    C513366   1.045   0.151  11.758 -0.2643  0.1044  0.1537
  909MPD2     H13367   1.078   0.525  11.719 -1.0684  0.6810  0.0519
  909MPD2    H113368   0.936   0.182  11.921  0.1788 -0.4541  0.2560
  909MPD2    H213369   1.157   0.113  11.594 -0.9010  1.3339 -2.3446
  909MPD2    H313370   1.027   0.046  11.777 -2.5973  0.5899  0.6386
  909MPD2     N13371   0.926   0.458  11.922 -0.0615  0.4843  0.5014
  909MPD2    H513372   0.914   0.555  11.894 -0.5484  0.9326  2.2843
  909MPD2    N113373   1.182   0.404  11.521  0.5341  0.3539  0.0870
  909MPD2    H713374   1.163   0.504  11.521  0.5110  0.3515 -2.0871
  910MPD2     C13375   2.901   1.438  16.087 -0.0079 -0.4610 -0.6533
  910MPD2    C113376   2.780   1.475  16.155 -0.4967  0.3027 -0.4553
  910MPD2    C213377   2.699   1.566  16.089  0.0409 -0.0938 -0.6835
  910MPD2    C313378   2.739   1.626  15.966  0.6402  0.9785 -0.0757
  910MPD2    C413379   2.860   1.598  15.910  0.0195 -0.1536 -0.4794
  910MPD2    C513380   2.935   1.504  15.970 -0.4374  0.7069 -0.3496
  910MPD2     H13381   2.600   1.583  16.130  1.7679  1.9252  2.6222
  910MPD2    H113382   2.893   1.656  15.824 -2.8097  1.2135 -0.6484
  910MPD2    H213383   2.971   1.365  16.126 -0.8208 -2.0725 -2.1874
  910MPD2    H313384   3.035   1.488  15.931  1.0589  4.1078  2.0200
  910MPD2     N13385   2.665   1.722  15.898 -0.1360 -0.0646  0.2805
  910MPD2    H513386   2.712   1.766  15.819 -2.3584 -0.0303 -1.0088
  910MPD2    N113387   2.746   1.418  16.279  0.3949  0.0568  0.6045
  910MPD2    H713388   2.654   1.454  16.306 -0.0065 -1.1359  0.8093
  911MPD2     C13389   0.436   2.251  16.098 -0.0405 -0.3484  0.5997
  911MPD2    C113390   0.469   2.346  16.191 -0.1936 -0.7683 -0.2056
  911MPD2    C213391   0.381   2.444  16.236 -0.9645  0.8582 -0.5982
  911MPD2    C313392   0.261   2.459  16.164 -0.5469  0.4190 -0.2315
  911MPD2    C413393   0.239   2.378  16.059  0.9354  0.3294  0.4712
  911MPD2    C513394   0.326   2.279  16.024  0.6610 -0.6315  0.2041
  911MPD2     H13395   0.402   2.510  16.320 -0.5105 -2.5959  1.9646
  911MPD2    H113396   0.146   2.384  16.004  0.3476 -0.4351  1.3831
  911MPD2    H213397   0.499   2.169  16.066  0.3492 -0.4287  1.5812
  911MPD2    H313398   0.305   2.223  15.934  2.3263 -4.3399  2.1313
  911MPD2     N13399   0.164   2.565  16.175  0.5307 -0.4024 -0.3450
  911MPD2    H513400   0.080   2.556  16.118  0.6575  1.0242 -0.7346
  911MPD2    N113401   0.603   2.331  16.245  0.1092  0.3691 -0.5111
  911MPD2    H713402   0.653   2.246  16.224  2.4602  1.5299  0.4033
  912MPD2     C13403   4.614   2.298  15.840 -0.8655  0.8734  0.0150
  912MPD2    C113404   4.607   2.372  15.958  0.1920  0.6891 -0.2001
  912MPD2    C213405   4.643   2.303  16.079 -0.0029  0.1151 -0.6027
  912MPD2    C313406   4.690   2.176  16.080  0.2950  0.2710 -0.0752
  912MPD2    C413407   4.683   2.109  15.966 -0.4754 -0.1625 -0.1803
  912MPD2    C513408   4.658   2.169  15.845 -0.8832  0.6288  0.5645
  912MPD2     H13409   4.648   2.358  16.172 -1.2484 -1.9196  0.6750
  912MPD2    H113410   4.716   2.006  15.957 -0.0223 -0.1253  0.9418
  912MPD2    H213411   4.597   2.349  15.746 -0.6368  0.9352  0.0066
  912MPD2    H313412   4.650   2.108  15.756  2.0639 -0.0078  0.7437
  912MPD2     N13413   0.014   2.130  16.199  0.4037 -0.0632 -0.2631
  912MPD2    H513414   0.002   2.181  16.286  0.8823 -0.8029  0.2498
  912MPD2    N113415   4.599   2.512  15.948  0.2581 -0.1319  0.0590
  912MPD2    H713416   4.619   2.562  15.862  3.2317 -1.1979  0.1341
  913MPD2     C13417   0.106   3.081  10.869  0.1265 -0.1639  0.0247
  913MPD2    C113418   0.165   3.203  10.868  0.4980 -0.8640 -0.0706
  913MPD2    C213419   0.168   3.273  10.750  0.1517 -0.0495 -0.5485
  913MPD2    C313420   0.111   3.220  10.627  0.4831 -0.4599  0.1490
  913MPD2    C413421   0.037   3.109  10.634 -0.3380  0.3707 -0.3438
  913MPD2    C513422   0.045   3.039  10.753 -0.5690  0.4347 -0.0572
  913MPD2     H13423   0.221   3.368  10.754  1.3574 -0.7953  1.0349
  913MPD2    H113424   4.725   3.061  10.549  0.5992  0.7358 -1.0676
  913MPD2    H213425   0.107   3.013  10.953  0.8733 -0.5654 -0.3077
  913MPD2    H313426   4.724   2.946  10.747  1.4031 -0.7837  0.5578
  913MPD2     N13427   0.118   3.287  10.504 -0.0974 -0.5334  0.2606
  913MPD2    H513428   0.071   3.235  10.430 -1.1757 -0.9318  1.2403
  913MPD2    N113429   0.225   3.247  10.994  0.0318  0.0584  0.2249
  913MPD2    H713430   0.227   3.186  11.074  0.2203  1.5915  1.3863
  914MPD2     C13431   3.518   4.182  12.838  0.3456  0.0577  0.9320
  914MPD2    C113432   3.653   4.186  12.841  0.2026  1.0957  0.2503
  914MPD2    C213433   3.734   4.073  12.884  0.5764  0.3897 -0.3132
  914MPD2    C313434   3.666   3.955  12.933 -0.2446 -0.2074 -0.3822
  914MPD2    C413435   3.529   3.953  12.931 -0.3730 -0.2728  0.7826
  914MPD2    C513436   3.459   4.062  12.880  0.0935 -0.3814  0.0318
  914MPD2     H13437   3.842   4.081  12.894  1.0326 -2.6313 -2.5633
  914MPD2    H113438   3.465   3.875  12.972 -0.6340 -0.1184  0.6734
  914MPD2    H213439   3.466   4.270  12.802  0.7236 -0.1355 -0.0778
  914MPD2    H313440   3.351   4.056  12.877  0.0398 -0.0670  1.8599
  914MPD2     N13441   3.746   3.846  12.985 -0.9245 -0.1737 -0.3543
  914MPD2    H513442   3.844   3.874  12.989 -1.0448 -0.3429  3.7216
  914MPD2    N113443   3.706   4.306  12.791  0.5492  0.2211 -0.2176
  914MPD2    H713444   3.641   4.378  12.764  1.0861  0.7081 -0.2155
  915MPD2     C13445   2.018   3.842  15.820  0.2019  0.0981  0.3369
  915MPD2    C113446   1.906   3.901  15.767 -0.0755 -0.1439 -0.2540
  915MPD2    C213447   1.818   3.962  15.843  0.6241 -0.9838 -0.2914
  915MPD2    C313448   1.842   3.976  15.979 -0.7717  0.1313  0.6372
  915MPD2    C413449   1.963   3.926  16.033 -0.6588  0.5819 -0.1669
  915MPD2    C513450   2.045   3.859  15.952  0.1808  0.4985  0.0445
  915MPD2     H13451   1.719   3.984  15.803  1.0273 -0.7962 -1.1812
  915MPD2    H113452   1.992   3.941  16.136 -0.1862 -2.1396  0.0862
  915MPD2    H213453   2.084   3.785  15.756  2.8569  1.4686  1.8542
  915MPD2    H313454   2.139   3.815  15.983  0.8982  0.7823 -1.7222
  915MPD2     N13455   1.740   4.021  16.064 -0.1053 -0.4742 -0.9923
  915MPD2    H513456   1.646   4.027  16.027 -0.5764 -0.0853  0.2675
  915MPD2    N113457   1.888   3.886  15.625  0.1116  0.3060 -0.0293
  915MPD2    H713458   1.953   3.816  15.591 -2.5577 -2.0139 -0.3440
  916MPD2     C13459   4.399   1.881  15.839 -0.0125  0.5784 -0.6208
  916MPD2    C113460   4.438   1.887  15.974 -0.4035 -1.2163 -0.6249
  916MPD2    C213461   4.524   1.788  16.024 -0.3495 -0.0238  0.5813
  916MPD2    C313462   4.591   1.704  15.930 -0.0659  0.2884  0.3828
  916MPD2    C413463   4.554   1.709  15.801 -0.4155  0.4456 -0.3300
  916MPD2    C513464   4.462   1.796  15.753  0.0674 -1.0892 -0.0437
  916MPD2     H13465   4.546   1.774  16.129  2.9714  2.1192  0.1731
  916MPD2    H113466   4.613   1.663  15.722  0.5416 -2.4644  2.1033
  916MPD2    H213467   4.327   1.954  15.805 -0.8592 -0.1918 -0.4978
  916MPD2    H313468   4.447   1.787  15.646  2.1038  1.1789 -0.5294
  916MPD2     N13469   4.699   1.625  15.980  0.3748  0.2520 -0.3353
  916MPD2    H513470   4.710   1.641  16.079  2.1705  1.2585 -0.7059
  916MPD2    N113471   4.388   1.989  16.063  0.5171 -0.4119  0.4216
  916MPD2    H713472   4.317   2.047  16.020 -1.5522 -2.8020  0.5782
  917MPD2     C13473   4.274   4.199  11.224 -0.6926 -0.5689 -0.6130
  917MPD2    C113474   4.382   4.228  11.307 -0.7742  0.0961 -0.3578
  917MPD2    C213475   4.491   4.295  11.252 -0.0348  0.1910  0.1789
  917MPD2    C313476   4.490   4.333  11.116 -0.1963 -0.4337 -0.0999
  917MPD2    C413477   4.377   4.311  11.042 -0.0719  0.4856 -0.4548
  917MPD2    C513478   4.274   4.243  11.092 -0.1853 -0.0471 -0.1950
  917MPD2     H13479   4.583   4.321  11.302 -0.8782  1.2392  1.1904
  917MPD2    H113480   4.369   4.354  10.943  0.9571 -0.3277 -0.8817
  917MPD2    H213481   4.191   4.137  11.256 -1.6588  0.4470 -1.1670
  917MPD2    H313482   4.183   4.216  11.039  0.6610 -4.2696  0.4951
  917MPD2     N13483   4.600   4.396  11.054 -0.5727  0.0962  0.9224
  917MPD2    H513484   4.581   4.418  10.957  0.1101  0.3676  0.8507
  917MPD2    N113485   4.372   4.187  11.441 -0.8672  0.0761 -0.1506
  917MPD2    H713486   4.301   4.117  11.461  0.3162 -1.0301  0.1896
  918MPD2     C13487   4.594   4.544  12.408 -0.7416  0.2085 -0.8471
  918MPD2    C113488   4.669   4.566  12.299  0.3389  0.2285 -0.0503
  918MPD2    C213489   4.631   4.495  12.186  0.7725  0.3601 -0.4210
  918MPD2    C313490   4.522   4.411  12.173 -0.3161  0.0038 -0.0607
  918MPD2    C413491   4.442   4.401  12.286  0.2083 -0.4620  0.1858
  918MPD2    C513492   4.480   4.478  12.396  0.4896  0.1128  0.7043
  918MPD2     H13493   4.692   4.505  12.096 -0.0082 -0.8946 -1.0957
  918MPD2    H113494   4.348   4.347  12.288  0.6194 -1.1112  1.6345
  918MPD2    H213495   4.627   4.586  12.502 -0.2651 -0.7353 -0.5906
  918MPD2    H313496   4.428   4.466  12.490 -1.3043 -0.3090 -0.3491
  918MPD2     N13497   4.509   4.351  12.044 -0.0672  0.0734  0.0650
  918MPD2    H513498   4.587   4.364  11.981 -0.9028  0.4467 -0.8883
  918MPD2    N113499   0.050   4.648  12.291  0.6927 -0.9850  0.2644
  918MPD2    H713500   0.108   4.640  12.209  1.5542 -1.9730  0.9724
  919MPD2     C13501   0.197   3.520  11.527  0.2662  0.3750  0.1111
  919MPD2    C113502   0.179   3.386  11.496  0.0592 -1.0555 -0.0690
  919MPD2    C213503   0.088   3.351  11.392  0.8338  0.4823  0.0464
  919MPD2    C313504   0.037   3.450  11.309  0.1557  0.5105  0.4952
  919MPD2    C413505   0.071   3.579  11.339  0.0553  0.8634 -0.1982
  919MPD2    C513506   0.137   3.615  11.453 -0.5338 -0.1767  0.5701
  919MPD2     H13507   0.068   3.247  11.368  1.8069 -0.3656  2.8972
  919MPD2    H113508   0.045   3.663  11.276 -1.4365 -0.1301 -0.8996
  919MPD2    H213509   0.256   3.546  11.614  0.3474  1.4066 -0.2585
  919MPD2    H313510   0.159   3.719  11.473 -1.4522  0.4139 -1.6213
  919MPD2     N13511   4.699   3.424  11.182 -0.1673 -0.0207  0.4900
  919MPD2    H513512   4.670   3.506  11.131 -0.7342 -0.6764 -0.2377
  919MPD2    N113513   0.248   3.282  11.567  0.4846  0.8450  0.5429
  919MPD2    H713514   0.215   3.186  11.562 -2.1910  1.8877 -1.3699
  920MPD2     C13515   4.636   3.851  10.308 -0.9872  0.5176 -0.6838
  920MPD2    C113516   4.524   3.773  10.300  0.5211  0.3459  0.8266
  920MPD2    C213517   4.504   3.678  10.399  0.6775  0.2138 -0.3292
  920MPD2    C313518   4.590   3.652  10.500  0.0883 -0.0768  0.3214
  920MPD2    C413519   4.698   3.736  10.507 -0.2539 -0.5146 -0.6599
  920MPD2    C513520   4.715   3.838  10.419 -0.1347 -0.4239  0.3352
  920MPD2     H13521   4.418   3.612  10.398  2.6591 -2.3755  0.6825
  920MPD2    H113522   0.027   3.731  10.594  0.0427 -0.4167 -0.8715
  920MPD2    H213523   4.671   3.922  10.234  1.0435 -0.3447 -0.5594
  920MPD2    H313524   0.069   3.898  10.433 -0.1220 -0.0135 -1.5212
  920MPD2     N13525   4.551   3.554  10.601  0.0665 -0.5746  0.1244
  920MPD2    H513526   4.471   3.496  10.580 -0.1170  0.0996 -1.0563
  920MPD2    N113527   4.434   3.767  10.192 -0.2231  0.2968 -0.1882
  920MPD2    H713528   4.359   3.700  10.208 -0.1345  0.1965 -0.1961
  921MPD2     C13529   1.459   2.781  16.562 -0.3963  0.4065 -0.5523
  921MPD2    C113530   1.447   2.645  16.584 -0.6344  0.3315  0.1861
  921MPD2    C213531   1.323   2.592  16.595 -0.2510 -0.0870 -0.1051
  921MPD2    C313532   1.206   2.662  16.564 -0.6812  0.0390  0.5779
  921MPD2    C413533   1.221   2.799  16.539 -0.5724  0.1878  0.5235
  921MPD2    C513534   1.347   2.860  16.549 -0.8108 -0.4910 -0.3923
  921MPD2     H13535   1.318   2.486  16.620 -1.6249 -0.0786 -0.3342
  921MPD2    H113536   1.135   2.860  16.514 -0.7531  0.3682  1.5920
  921MPD2    H213537   1.556   2.829  16.559  1.0594 -2.5661 -0.7468
  921MPD2    H313538   1.359   2.965  16.521  1.2241 -0.7625 -0.5415
  921MPD2     N13539   1.076   2.602  16.553  0.2426 -0.4535 -0.0681
  921MPD2    H513540   1.009   2.651  16.495  1.6094  2.3142  0.6620
  921MPD2    N113541   1.564   2.567  16.567 -0.5729  0.3883 -0.9453
  921MPD2    H713542   1.655   2.611  16.564  0.8771 -2.4645  0.9756
  922MPD2     C13543   2.217   0.296  17.014 -0.7648 -0.0360  0.1902
  922MPD2    C113544   2.144   0.323  17.127  1.0581 -0.9046  0.1557
  922MPD2    C213545   2.071   0.223  17.189 -0.0074  0.4616  0.2639
  922MPD2    C313546   2.067   0.093  17.140 -0.7608  0.4837  0.5736
  922MPD2    C413547   2.131   0.067  17.021 -0.3060 -0.5178 -0.0007
  922MPD2    C513548   2.209   0.168  16.972  0.5099  0.1201  0.0604
  922MPD2     H13549   2.003   0.264  17.263  0.2343 -0.8692  1.2115
  922MPD2    H113550   2.123   4.706  16.971 -2.3906 -0.0121 -0.6712
  922MPD2    H213551   2.287   0.368  16.972  0.4548 -0.9224  0.6723
  922MPD2    H313552   2.267   0.146  16.883  1.6909  3.0237  0.0883
  922MPD2     N13553   1.971   0.010  17.199 -0.2944 -0.0448  0.0332
  922MPD2    H513554   1.928   0.042  17.286  1.3150 -1.9235  1.5009
  922MPD2    N113555   2.133   0.456  17.188 -0.0499 -0.2743 -0.5379
  922MPD2    H713556   2.090   0.471  17.279  0.6193  0.5342 -0.3608
  923MPD2     C13557   2.347   3.209   8.884 -0.3720  0.0698  0.2145
  923MPD2    C113558   2.366   3.077   8.934 -0.0154  0.0263 -0.6066
  923MPD2    C213559   2.495   3.035   8.954 -0.0231  0.3412 -0.5856
  923MPD2    C313560   2.600   3.127   8.940 -0.0012  0.0836 -0.6297
  923MPD2    C413561   2.576   3.253   8.892  0.2649  0.3348 -0.7157
  923MPD2    C513562   2.446   3.296   8.865 -0.2343  0.1555 -0.7189
  923MPD2     H13563   2.507   2.935   8.994  1.1403  0.1805 -1.3278
  923MPD2    H113564   2.650   3.323   8.856  3.7291 -3.4365 -0.9473
  923MPD2    H213565   2.243   3.240   8.874 -0.8039 -1.7025 -0.8108
  923MPD2    H313566   2.433   3.396   8.825  0.5300  0.7178  0.4422
  923MPD2     N13567   2.739   3.101   8.969  0.5436 -0.0725  0.1441
  923MPD2    H513568   2.808   3.174   8.956  0.6935 -0.1341  0.5970
  923MPD2    N113569   2.255   2.992   8.950  0.2850  0.0215 -0.1106
  923MPD2    H713570   2.165   3.035   8.937  0.0307  0.1403  1.9434
  924MPD2     C13571   3.640   0.359  15.816  0.8895  0.1387 -0.5528
  924MPD2    C113572   3.654   0.384  15.946 -0.2860  0.4370  0.6979
  924MPD2    C213573   3.768   0.444  15.994 -0.0430 -0.3451  0.4197
  924MPD2    C313574   3.860   0.503  15.909 -0.9952 -0.4480  0.6339
  924MPD2    C413575   3.846   0.475  15.771 -0.1994  0.7446  0.1255
  924MPD2    C513576   3.742   0.403  15.733  0.3653 -0.9588  0.2662
  924MPD2     H13577   3.783   0.456  16.100  0.6956 -0.3511  0.3156
  924MPD2    H113578   3.917   0.499  15.692 -0.0197  0.1464  0.1106
  924MPD2    H213579   3.554   0.314  15.767 -0.1582  0.3474  1.1087
  924MPD2    H313580   3.741   0.376  15.628 -1.4517  0.9348 -0.1926
  924MPD2     N13581   3.964   0.587  15.957  0.2051 -0.3278  0.0793
  924MPD2    H513582   4.023   0.630  15.887 -0.2389 -1.3617 -0.9345
  924MPD2    N113583   3.559   0.343  16.038  0.9430 -0.2015  0.0602
  924MPD2    H713584   3.574   0.367  16.135 -2.2505 -0.0987  0.5125
  925MPD2     C13585   2.436   3.494  14.894 -0.1039 -0.4115  0.0593
  925MPD2    C113586   2.403   3.362  14.883  0.3585 -0.7617  0.2007
  925MPD2    C213587   2.319   3.308  14.977 -0.4761 -0.7883 -0.3349
  925MPD2    C313588   2.290   3.372  15.098  0.5131 -0.0823 -0.6103
  925MPD2    C413589   2.323   3.505  15.108  0.5902  0.4656  0.2973
  925MPD2    C513590   2.396   3.563  15.005  0.2885  0.7275  0.1719
  925MPD2     H13591   2.283   3.206  14.962  2.8941 -2.0419  0.0712
  925MPD2    H113592   2.287   3.573  15.184 -1.1905 -0.4730  0.2937
  925MPD2    H213593   2.481   3.555  14.817 -0.8853  0.7791  0.5442
  925MPD2    H313594   2.405   3.671  15.002 -0.6606  0.7907 -0.4798
  925MPD2     N13595   2.213   3.307  15.188 -0.3997 -0.6289 -0.2673
  925MPD2    H513596   2.203   3.206  15.177  0.5782 -0.6875 -0.5849
  925MPD2    N113597   2.429   3.293  14.762 -0.6421  0.1327  0.2136
  925MPD2    H713598   2.386   3.202  14.749 -0.3130  0.1572 -1.0784
  926MPD2     C13599   0.924   1.564  13.856 -0.1637 -0.6930  0.1980
  926MPD2    C113600   0.815   1.624  13.802 -0.0059 -0.3381  0.0985
  926MPD2    C213601   0.816   1.688  13.680 -0.3921 -0.3778 -1.1121
  926MPD2    C313602   0.938   1.702  13.609  0.0559 -0.6160 -0.4160
  926MPD2    C413603   1.046   1.643  13.663  0.6275 -0.0166 -0.5209
  926MPD2    C513604   1.037   1.573  13.782 -0.2111 -0.6253 -0.2461
  926MPD2     H13605   0.726   1.737  13.646  1.0050  0.9156 -2.9695
  926MPD2    H113606   1.144   1.652  13.617  1.0097 -1.7255 -0.0396
  926MPD2    H213607   0.908   1.504  13.945 -1.0288 -2.6287 -1.2559
  926MPD2    H313608   1.128   1.527  13.820 -0.5963 -1.7144 -0.6242
  926MPD2     N13609   0.957   1.802  13.511 -0.3294  0.0810  0.1135
  926MPD2    H513610   1.046   1.851  13.508 -0.7979  0.8304 -1.7218
  926MPD2    N113611   0.687   1.613  13.862  0.3116 -0.0027  0.6037
  926MPD2    H713612   0.610   1.638  13.802  1.3554  0.0050 -0.7281
  927MPD2     C13613   1.032   3.588   0.640  0.0279  0.2251 -0.3150
  927MPD2    C113614   0.984   3.688   0.559  0.0084 -0.2260  0.1980
  927MPD2    C213615   1.057   3.736   0.452 -0.1534  0.2891 -0.0042
  927MPD2    C313616   1.183   3.683   0.422 -0.4252 -0.1149 -0.6067
  927MPD2    C413617   1.226   3.575   0.500 -0.4727  0.1500 -0.6008
  927MPD2    C513618   1.155   3.531   0.608 -0.7664 -0.5172  0.7176
  927MPD2     H13619   1.025   3.822   0.394  1.5815 -0.6881 -2.4445
  927MPD2    H113620   1.320   3.529   0.474  0.0752  0.3573  0.9732
  927MPD2    H213621   0.975   3.556   0.725  1.0453  1.2974  0.7746
  927MPD2    H313622   1.194   3.450   0.671  0.1100  0.3897  1.3455
  927MPD2     N13623   1.249   3.729   0.305  0.3515  0.2577 -0.2349
  927MPD2    H513624   1.216   3.813   0.258  3.3921  1.5495 -0.0985
  927MPD2    N113625   0.851   3.734   0.598  0.0130 -0.0232 -0.2993
  927MPD2    H713626   0.807   3.689   0.678  3.6383  0.7253  2.0692
  928MPD2     C13627   4.230   2.188   1.052  0.3409  0.2272  0.1416
  928MPD2    C113628   4.167   2.310   1.070  0.2800  0.2043  0.7929
  928MPD2    C213629   4.158   2.396   0.967  0.0141 -0.1726 -0.5895
  928MPD2    C313630   4.220   2.371   0.848  0.0147 -0.5035  0.0894
  928MPD2    C413631   4.273   2.249   0.825 -1.1130  0.0166 -1.0684
  928MPD2    C513632   4.286   2.158   0.928  0.4987 -0.4749 -0.3120
  928MPD2     H13633   4.110   2.493   0.980  0.0839 -0.3842  1.3760
  928MPD2    H113634   4.279   2.209   0.724 -1.4559  0.9155 -1.4369
  928MPD2    H213635   4.245   2.118   1.134 -1.1318  0.4202  0.5643
  928MPD2    H313636   4.320   2.057   0.909  1.4725 -0.3273  0.6692
  928MPD2     N13637   4.225   2.465   0.744 -0.2571  0.1060 -0.0271
  928MPD2    H513638   4.262   2.433   0.655  0.3622  0.0095  0.2618
  928MPD2    N113639   4.117   2.351   1.194  0.7152 -0.1475 -0.1233
  928MPD2    H713640   4.136   2.277   1.260 -1.6975  1.4295  2.3722
  929MPD2     C13641   3.103   2.443   9.652  0.2189 -0.1543  0.6452
  929MPD2    C113642   2.977   2.402   9.687 -0.0474  0.3571 -0.0756
  929MPD2    C213643   2.869   2.427   9.602  0.7494 -0.0580  0.1757
  929MPD2    C313644   2.886   2.489   9.481  0.6809  0.4353  0.3586
  929MPD2    C413645   3.017   2.511   9.437  0.1469 -0.0429  0.1754
  929MPD2    C513646   3.124   2.499   9.528  0.6042 -0.0048  0.3861
  929MPD2     H13647   2.771   2.422   9.648  0.8799 -0.2822  0.4259
  929MPD2    H113648   3.041   2.562   9.344 -1.9866  1.0373  0.2390
  929MPD2    H213649   3.188   2.429   9.718  0.0053 -2.1702  0.4629
  929MPD2    H313650   3.223   2.533   9.501  0.9117 -0.3866  1.0213
  929MPD2     N13651   2.784   2.527   9.387 -0.6518  0.3883 -0.3509
  929MPD2    H513652   2.816   2.558   9.296  0.5947 -2.7902 -0.9998
  929MPD2    N113653   2.959   2.342   9.815  0.1173 -0.6005  0.0968
  929MPD2    H713654   3.043   2.335   9.871  0.5035  0.9317 -0.2832
  930MPD2     C13655   0.445   4.282  14.207 -0.1960 -0.3795  0.0466
  930MPD2    C113656   0.578   4.260  14.188  0.5524  0.3605  0.0863
  930MPD2    C213657   0.645   4.334  14.085 -0.1363 -0.1530 -0.1759
  930MPD2    C313658   0.584   4.441  14.022 -0.3007 -0.6764 -0.2727
  930MPD2    C413659   0.450   4.465  14.038  0.1966  0.0501  0.9544
  930MPD2    C513660   0.382   4.378  14.125  0.5789  0.8995  0.4844
  930MPD2     H13661   0.748   4.306  14.066 -0.1207  0.7160 -1.3805
  930MPD2    H113662   0.398   4.543  13.983 -2.7287 -1.6073  1.3393
  930MPD2    H213663   0.391   4.222  14.279 -0.2565 -0.2053  0.1467
  930MPD2    H313664   0.275   4.390  14.130  0.3319 -1.5743  1.2733
  930MPD2     N13665   0.647   4.524  13.926  0.8447 -0.0854  0.1936
  930MPD2    H513666   0.595   4.605  13.895 -1.8982 -0.8627  2.7732
  930MPD2    N113667   0.644   4.156  14.256 -0.1597 -0.1797 -0.2486
  930MPD2    H713668   0.590   4.091  14.312 -0.1891 -0.2076 -0.3089
  931MPD2     C13669   0.181   3.746   1.135  0.6245  0.1226 -0.0047
  931MPD2    C113670   0.306   3.725   1.082 -0.5504  0.5620  0.2301
  931MPD2    C213671   0.393   3.654   1.159  0.1288 -0.4828 -0.4380
  931MPD2    C313672   0.371   3.623   1.287 -0.1945 -0.0618 -0.3401
  931MPD2    C413673   0.245   3.645   1.338  0.8788 -0.0952  0.0010
  931MPD2    C513674   0.145   3.701   1.261  0.0631 -0.0714  0.1217
  931MPD2     H13675   0.494   3.634   1.125  1.7682  2.7632  2.4669
  931MPD2    H113676   0.221   3.612   1.438  0.8507 -0.9416 -0.2850
  931MPD2    H213677   0.106   3.786   1.067  0.4050  0.4510  0.4338
  931MPD2    H313678   0.044   3.702   1.299 -1.0483  0.0920 -2.7867
  931MPD2     N13679   0.470   3.562   1.376  0.2847  0.0167  0.0974
  931MPD2    H513680   0.434   3.539   1.468 -3.2030  2.6542 -0.5926
  931MPD2    N113681   0.344   3.777   0.952  0.0175  0.0196  0.1911
  931MPD2    H713682   0.281   3.837   0.900  1.5099 -1.3283 -3.1187
  932MPD2     C13683   1.870   3.228  11.069  0.9276 -0.3003  0.5954
  932MPD2    C113684   1.955   3.256  11.179  0.0026 -0.5329 -0.4158
  932MPD2    C213685   1.940   3.194  11.305 -0.0340 -0.2701  0.8985
  932MPD2    C313686   1.823   3.116  11.321  0.1100  0.3513 -0.5405
  932MPD2    C413687   1.727   3.102  11.217 -0.1333  0.1643  0.4371
  932MPD2    C513688   1.758   3.153  11.094  0.1933 -0.5964 -0.3177
  932MPD2     H13689   1.999   3.218  11.392  0.8382  2.9990 -0.6073
  932MPD2    H113690   1.640   3.039  11.232 -1.0628  1.6505  1.2378
  932MPD2    H213691   1.885   3.269  10.970  0.6401 -0.6122  0.4253
  932MPD2    H313692   1.681   3.149  11.018 -0.7487 -0.6983  0.6421
  932MPD2     N13693   1.780   3.050  11.442  0.5374 -0.2718  0.3791
  932MPD2    H513694   1.682   3.023  11.438  0.6105  0.1255 -3.6436
  932MPD2    N113695   2.072   3.338  11.171  0.2390  0.0265 -0.0879
  932MPD2    H713696   2.125   3.355  11.256 -1.1496  2.9531  0.1726
  933MPD2     C13697   3.864   2.832   1.951 -0.1373  0.3198 -0.1204
  933MPD2    C113698   3.836   2.824   1.814 -0.6679  0.4426  0.8784
  933MPD2    C213699   3.761   2.935   1.766 -0.1438 -0.2776 -0.2179
  933MPD2    C313700   3.702   3.025   1.847 -1.1069  0.2647  0.0993
  933MPD2    C413701   3.721   3.020   1.984 -0.4938  0.1602  0.4709
  933MPD2    C513702   3.803   2.927   2.041  0.1107 -0.3161 -0.8511
  933MPD2     H13703   3.748   2.942   1.658  2.8630 -1.5055 -0.6700
  933MPD2    H113704   3.666   3.078   2.057  0.2784  0.6785  0.6438
  933MPD2    H213705   3.934   2.763   1.995 -0.5677 -0.2331 -0.3067
  933MPD2    H313706   3.821   2.929   2.148 -2.5773  1.0358 -0.4013
  933MPD2     N13707   3.631   3.130   1.786 -0.2791 -0.2363 -0.6687
  933MPD2    H513708   3.611   3.122   1.687  2.1229 -4.2038 -0.8365
  933MPD2    N113709   3.900   2.721   1.740 -0.5483  0.2052  0.0119
  933MPD2    H713710   3.965   2.662   1.792 -0.3427 -1.4645 -2.1790
  934MPD2     C13711   4.360   1.174   1.590 -0.2287 -0.0296  0.6320
  934MPD2    C113712   4.453   1.080   1.556 -0.6466  0.2948  0.3061
  934MPD2    C213713   4.421   0.945   1.569  0.2804 -0.0611 -0.3200
  934MPD2    C313714   4.295   0.908   1.614 -0.4031  0.3864 -0.6670
  934MPD2    C413715   4.204   1.003   1.652  0.2241 -0.1361 -0.0171
  934MPD2    C513716   4.238   1.137   1.640  0.9471 -0.8745 -0.1157
  934MPD2     H13717   4.497   0.872   1.545 -0.3774 -0.5474 -0.9576
  934MPD2    H113718   4.106   0.981   1.690  0.0335 -2.5530 -1.8621
  934MPD2    H213719   4.370   1.281   1.574  0.1897 -0.3702 -1.3764
  934MPD2    H313720   4.166   1.212   1.671  1.3557 -0.2801 -0.6055
  934MPD2     N13721   4.255   0.774   1.616 -0.0189  0.3748  1.0538
  934MPD2    H513722   4.155   0.763   1.630 -0.2853  0.2121 -0.8969
  934MPD2    N113723   4.569   1.117   1.487  0.4375  0.3716 -0.7523
  934MPD2    H713724   4.637   1.046   1.461 -0.1319 -0.3648 -0.2490
  935MPD2     C13725   4.671   4.638   1.395  0.3127 -0.4649 -0.4713
  935MPD2    C113726   4.540   4.642   1.359 -0.2412  0.3087  0.1060
  935MPD2    C213727   4.470   0.006   1.418 -0.6206 -0.9855 -0.1388
  935MPD2    C313728   4.526   0.076   1.523  0.9225 -1.0117  0.4190
  935MPD2    C413729   4.662   0.075   1.548 -0.5004  0.3461  0.3181
  935MPD2    C513730   4.734   4.720   1.477  0.0343  0.2732  0.2702
  935MPD2     H13731   4.369   0.027   1.386  0.9165  1.0354 -3.5854
  935MPD2    H113732   4.706   0.136   1.627 -2.1309  1.3591  0.4444
  935MPD2    H213733   0.002   4.562   1.355  1.5119 -0.6787  1.9147
  935MPD2    H313734   0.106   4.716   1.495 -0.3530  2.8347  3.1368
  935MPD2     N13735   4.451   0.174   1.595  0.4487  0.1665  0.3416
  935MPD2    H513736   4.494   0.243   1.655  0.4581  1.2553 -0.9272
  935MPD2    N113737   4.477   4.550   1.266  0.4418 -0.1687  0.4325
  935MPD2    H713738   4.376   4.560   1.259  0.7723  2.6071 -0.6153
  936MPD2     C13739   3.024   1.268  12.772  0.0650 -0.5187  0.3711
  936MPD2    C113740   3.032   1.228  12.900  0.0374  0.2614 -0.4612
  936MPD2    C213741   3.153   1.197  12.965 -0.5559 -0.0635  0.4936
  936MPD2    C313742   3.274   1.221  12.891 -0.2225 -0.2664 -0.3712
  936MPD2    C413743   3.266   1.280  12.765 -0.0299 -0.0987  0.2377
  936MPD2    C513744   3.143   1.299  12.713 -0.2852 -0.4284 -1.1401
  936MPD2     H13745   3.155   1.150  13.062 -1.2845  1.0473  1.0464
  936MPD2    H113746   3.349   1.316  12.706 -0.6380  1.0664  0.1027
  936MPD2    H213747   2.930   1.296  12.727  1.2857  0.5161 -1.5237
  936MPD2    H313748   3.138   1.336  12.611  0.9034  2.2359 -0.2192
  936MPD2     N13749   3.405   1.215  12.941 -0.0358  0.5062  0.0374
  936MPD2    H513750   3.481   1.233  12.877  1.2225  1.2029  1.7649
  936MPD2    N113751   2.914   1.213  12.978  0.0168 -0.1870  0.5538
  936MPD2    H713752   2.933   1.177  13.071 -2.2167  0.0823  1.1035
  937MPD2     C13753   1.017   2.991  11.670 -0.1217 -0.0619 -0.3693
  937MPD2    C113754   0.922   3.078  11.621 -0.7145 -0.4518 -0.1283
  937MPD2    C213755   0.959   3.165  11.522 -0.1146  0.9765 -0.3645
  937MPD2    C313756   1.073   3.143  11.444 -0.1498  0.8701  0.0058
  937MPD2    C413757   1.161   3.043  11.477  0.3200 -0.6789  0.0608
  937MPD2    C513758   1.132   2.972  11.589 -0.0214 -0.0638 -0.1903
  937MPD2     H13759   0.881   3.232  11.489 -1.1077 -0.1663 -0.3748
  937MPD2    H113760   1.247   3.007  11.423 -0.5570 -0.8624 -1.2061
  937MPD2    H213761   0.991   2.916  11.743 -0.2811  0.1503 -0.2072
  937MPD2    H313762   1.193   2.888  11.620 -0.2898 -0.1329  0.1534
  937MPD2     N13763   1.094   3.243  11.346 -0.0336  0.4345 -0.1483
  937MPD2    H513764   1.025   3.318  11.344 -2.0736 -1.4444 -0.4794
  937MPD2    N113765   0.800   3.114  11.683  0.0595  0.1080 -0.4030
  937MPD2    H713766   0.752   3.187  11.632 -1.8283 -1.0039 -0.2207
  938MPD2     C13767   4.173   4.415   1.420 -0.2760  0.5427 -0.4786
  938MPD2    C113768   4.041   4.449   1.409 -0.5015 -0.4407  0.7536
  938MPD2    C213769   3.950   4.364   1.467  0.0091  0.1217  0.3473
  938MPD2    C313770   3.988   4.241   1.519 -0.1783  0.3430 -0.1859
  938MPD2    C413771   4.117   4.194   1.505 -0.7548  0.1835 -0.3647
  938MPD2    C513772   4.211   4.290   1.467  0.2565 -0.1120 -0.2338
  938MPD2     H13773   3.846   4.394   1.464  0.4910  1.8676  0.8874
  938MPD2    H113774   4.158   4.100   1.540 -0.4950  0.4159 -0.0395
  938MPD2    H213775   4.252   4.489   1.411 -1.2194  1.9308  2.6899
  938MPD2    H313776   4.315   4.264   1.476  0.4235  0.1036 -1.5037
  938MPD2     N13777   3.888   4.149   1.567  0.0342 -0.6853 -0.3946
  938MPD2    H513778   3.911   4.072   1.629 -3.1759 -1.7821 -0.5552
  938MPD2    N113779   4.002   4.569   1.358 -0.8111 -0.1126 -0.1388
  938MPD2    H713780   3.905   4.596   1.368 -1.0636 -0.2631 -2.1936
  939MPD2     C13781   0.216   1.061   0.175  0.9137 -0.2025  0.2429
  939MPD2    C113782   0.131   1.024   0.274  0.2594 -0.0532 -0.6916
  939MPD2    C213783   0.108   0.889   0.296 -0.1880 -0.2236 -0.1808
  939MPD2    C313784   0.178   0.792   0.224  0.8761  0.0118 -0.0122
  939MPD2    C413785   0.264   0.832   0.122  0.7103  0.1177  1.0539
  939MPD2    C513786   0.278   0.967   0.100  0.8731 -0.1303 -0.2152
  939MPD2     H13787   0.042   0.849   0.372  1.0874 -1.3614  0.3233
  939MPD2    H113788   0.319   0.765   0.056  0.9222 -0.4423  1.8107
  939MPD2    H213789   0.244   1.165   0.164  0.9202 -0.4501 -1.9696
  939MPD2    H313790   0.347   1.012   0.029  0.4921 -0.0237 -0.5184
  939MPD2     N13791   0.155   0.656   0.254 -0.6151  0.3923  0.7272
  939MPD2    H513792   0.111   0.625   0.340 -0.0394 -1.4230  0.3685
  939MPD2    N113793   0.069   1.131   0.337 -0.1829 -0.7742 -0.8187
  939MPD2    H713794   0.082   1.222   0.296 -0.4668  0.0765  0.9659
  940MPD2     C13795   3.367   1.882  13.274 -0.2108  0.6022 -0.7915
  940MPD2    C113796   3.480   1.817  13.326  0.0305  0.7223 -0.0275
  940MPD2    C213797   3.598   1.812  13.252  0.4558  0.1011 -0.7142
  940MPD2    C313798   3.610   1.874  13.133 -0.4549 -0.6850 -0.4825
  940MPD2    C413799   3.504   1.941  13.083 -0.2433  0.1451 -0.1632
  940MPD2    C513800   3.387   1.946  13.157 -0.1511 -0.1786  0.1594
  940MPD2     H13801   3.679   1.767  13.307 -0.8126 -0.4930  0.6635
  940MPD2    H113802   3.496   1.984  12.984 -1.5890 -0.6244 -0.4043
  940MPD2    H213803   3.277   1.905  13.331  0.5553 -0.2859  0.7860
  940MPD2    H313804   3.302   1.998  13.115  0.0598 -0.4207 -0.5539
  940MPD2     N13805   3.720   1.857  13.043 -0.4047 -0.1758 -0.1819
  940MPD2    H513806   3.706   1.911  12.958 -1.4031  1.4451  1.0031
  940MPD2    N113807   3.490   1.755  13.452  0.7073  0.3490 -0.3580
  940MPD2    H713808   3.584   1.727  13.478  0.9889  2.9398  1.4883
  941MPD2     C13809   2.354   1.008  10.087  0.6249 -0.4586 -0.2253
  941MPD2    C113810   2.469   0.974  10.148 -0.6236  0.8628  0.0797
  941MPD2    C213811   2.472   0.856  10.221  0.6207 -0.2341  0.4984
  941MPD2    C313812   2.353   0.788  10.245 -0.4300  0.6687  0.1319
  941MPD2    C413813   2.237   0.841  10.201 -0.8511  0.0459 -0.5810
  941MPD2    C513814   2.239   0.952  10.121 -0.7838 -0.3434 -0.0854
  941MPD2     H13815   2.565   0.829  10.269  0.7876 -0.0697  0.2695
  941MPD2    H113816   2.142   0.795  10.228  0.1547 -1.8418 -0.2998
  941MPD2    H213817   2.350   1.092  10.018  1.4413  0.2940  0.6649
  941MPD2    H313818   2.140   0.980  10.085 -0.5176  0.1248 -0.4633
  941MPD2     N13819   2.345   0.677  10.332  0.4783 -0.1549  0.0031
  941MPD2    H513820   2.253   0.640  10.355  0.3330  0.0237 -0.2983
  941MPD2    N113821   2.583   1.055  10.134 -0.1435  0.8565 -0.4580
  941MPD2    H713822   2.672   1.020  10.168  0.2285 -0.5924 -2.9498
  942MPD2     C13823   1.753   2.410  10.355 -0.0506 -0.4092 -0.0836
  942MPD2    C113824   1.826   2.525  10.339 -0.0166 -0.4553 -0.5124
  942MPD2    C213825   1.913   2.546  10.238 -0.2118 -0.4811 -0.5818
  942MPD2    C313826   1.950   2.446  10.147 -0.0877 -0.5950  0.4616
  942MPD2    C413827   1.887   2.322  10.164  0.2039  0.0245 -0.3181
  942MPD2    C513828   1.789   2.307  10.262 -0.3511 -0.4473 -0.3301
  942MPD2     H13829   1.959   2.645  10.238  0.1007 -0.6136  1.3876
  942MPD2    H113830   1.910   2.242  10.095 -1.5948  1.7477 -2.9314
  942MPD2    H213831   1.690   2.377  10.437  0.2487 -1.1628 -0.1580
  942MPD2    H313832   1.751   2.207  10.276 -1.4459  0.1393  0.9201
  942MPD2     N13833   2.047   2.458  10.040 -0.0339 -0.5600 -0.4425
  942MPD2    H513834   2.068   2.373   9.989  0.1792 -0.5046 -0.4470
  942MPD2    N113835   1.838   2.626  10.435 -0.9442  0.1417  0.3666
  942MPD2    H713836   1.902   2.699  10.408  0.7262 -1.0887  1.0254
  943MPD2     C13837   0.276   0.142  10.070  0.4938  0.8829  0.0443
  943MPD2    C113838   0.363   0.143  10.174 -0.0184 -0.7477  0.2460
  943MPD2    C213839   0.417   0.264  10.222 -0.2968 -0.1018 -0.7598
  943MPD2    C313840   0.385   0.381  10.159 -0.8171  0.1919 -0.2287
  943MPD2    C413841   0.295   0.377  10.051 -0.0485  0.2807  0.8786
  943MPD2    C513842   0.236   0.262  10.019 -0.2550 -0.5071  0.5660
  943MPD2     H13843   0.495   0.260  10.297 -0.1838 -1.4835 -0.9564
  943MPD2    H113844   0.282   0.465   9.989  3.3648  1.4033  1.7923
  943MPD2    H213845   0.249   0.053  10.014 -0.9268  0.5134  1.3227
  943MPD2    H313846   0.180   0.253   9.927  2.0267  1.5984 -1.0533
  943MPD2     N13847   0.431   0.507  10.202  0.0721  0.7996 -0.5519
  943MPD2    H513848   0.402   0.586  10.145 -1.7671  0.5736  0.0728
  943MPD2    N113849   0.415   0.016  10.216  1.0149 -0.2394 -0.0009
  943MPD2    H713850   0.352   4.676  10.191  0.0834  0.1229  1.3072
  944MPD2     C13851   0.717   4.223  10.970 -0.2065 -0.0688 -0.0007
  944MPD2    C113852   0.753   4.187  11.096  0.0618  0.4183  0.2749
  944MPD2    C213853   0.787   4.287  11.186  0.3200  0.5824 -0.5007
  944MPD2    C313854   0.780   4.422  11.143 -0.3118  0.2681 -0.9655
  944MPD2    C413855   0.741   4.455  11.021 -0.0199 -0.2387 -0.0002
  944MPD2    C513856   0.705   4.353  10.934  0.4001 -0.1355  0.1876
  944MPD2     H13857   0.808   4.259  11.288 -0.2460  0.6271 -0.3708
  944MPD2    H113858   0.724   4.560  11.002 -0.3610 -0.3450 -0.2802
  944MPD2    H213859   0.684   4.147  10.901 -0.4489 -0.6257  0.7250
  944MPD2    H313860   0.664   4.383  10.839  1.9617 -1.7206 -0.9678
  944MPD2     N13861   0.812   4.522  11.241 -0.0008 -0.4904 -0.2693
  944MPD2    H513862   0.805   4.489  11.337 -0.2857 -2.2461 -0.8984
  944MPD2    N113863   0.766   4.051  11.128  0.0856 -0.6498  0.3439
  944MPD2    H713864   0.758   3.987  11.049  2.1734  1.7708 -1.8353
    1TMC1    C113865   4.183   0.163  15.035  0.0144  0.0067 -0.4638
    1TMC1    C213866   4.075   0.222  14.978 -0.3656  0.5868 -0.1991
    1TMC1    C313867   3.957   0.150  14.961  0.8506 -0.0214 -0.1188
    1TMC1    C413868   4.193   0.028  15.053 -0.0863 -0.8712 -0.2651
    1TMC1    C513869   4.085   4.693  15.016 -0.0092 -0.6164 -0.4089
    1TMC1    C613870   3.960   0.014  14.987  0.0187 -0.5250  0.2657
    1TMC1     C13871   4.300   0.243  15.066 -0.0937  0.2147 -0.5006
    1TMC1     O13872   4.374   0.203  15.155  0.1698 -0.3389 -0.1780
    1TMC1     H13873   4.070   0.330  14.967  1.7692  0.8661  1.5288
    1TMC1    H113874   4.277   4.722  15.107 -1.1026  2.3394  3.7831
    1TMC1    H213875   3.876   4.687  14.959  0.3503 -0.1819 -1.5300
    1TMC1    C713876   4.084   4.555  15.046 -0.3858  0.4137  0.4028
    1TMC1    C813877   3.839   0.238  14.947  0.0949 -0.5587 -0.0682
    1TMC1    O113878   3.993   4.507  15.111  0.1296  0.1263  0.7499
    1TMC1    O213879   3.853   0.360  14.927 -0.4603 -0.4368 -0.3708
    1TMC1    O313880   4.211   4.500  15.026 -0.2196 -1.3936 -0.1842
    1TMC1    H313881   4.255   4.561  14.963  0.6467  1.3707  3.0866
    1TMC1    O513882   3.751   0.195  15.040 -0.7769  0.3807 -1.0405
    1TMC1    H513883   3.763   0.101  15.065 -1.1829  0.3775 -0.8555
    2MPD2     C13884   4.644   0.618  14.989  0.3384 -0.8257  0.3104
    2MPD2    C113885   4.574   0.601  14.868  0.3105 -0.5115 -0.4893
    2MPD2    C213886   4.461   0.514  14.872  0.2973 -0.4317 -0.5361
    2MPD2    C313887   4.432   0.436  14.988  0.4858 -0.7401  0.2715
    2MPD2    C413888   4.514   0.452  15.099  0.5676  0.9947  0.3386
    2MPD2    C513889   4.613   0.545  15.098  0.3460 -0.1907  0.6138
    2MPD2     H13890   4.392   0.507  14.788 -1.5365 -1.8004  1.0638
    2MPD2    H113891   4.497   0.413  15.198 -0.4510 -0.3769 -0.3786
    2MPD2    H213892   0.004   0.670  14.984 -0.0373 -0.2512 -1.0697
    2MPD2    H313893   4.666   0.559  15.191  0.0452 -1.4248  0.9773
    2MPD2     N13894   4.323   0.351  14.982  0.1012 -0.4101  0.3119
    2MPD2    H513895   4.262   0.360  14.901 -0.7135 -0.9714  0.8664
    2MPD2    N113896   4.625   0.676  14.758 -0.3951  0.7362 -0.0947
    2MPD2    H713897   4.699   0.745  14.765 -0.1309  0.3770  0.6751
    3TMC2    C113898   4.615   0.760  14.535 -0.2196 -0.2273 -0.2712
    3TMC2    C213899   4.634   0.881  14.572 -0.0292  0.6998 -0.3396
    3TMC2    C313900   4.621   0.980  14.479 -0.7265 -0.4315 -1.1820
    3TMC2    C413901   4.607   0.721  14.404  0.2258 -0.5123 -0.1654
    3TMC2    C513902   4.607   0.813  14.309 -0.1889  0.0819 -0.0713
    3TMC2    C613903   4.613   0.948  14.345  0.3203 -0.1856  0.2230
    3TMC2     C13904   4.574   0.659  14.629  0.3219  0.0617 -0.1508
    3TMC2     O13905   4.491   0.578  14.591 -0.2527 -0.0478  0.1134
    3TMC2     H13906   4.644   0.924  14.671  3.0846  1.0005 -0.7879
    3TMC2    H113907   4.615   0.619  14.369 -1.3973 -0.9761  0.8007
    3TMC2    H213908   4.604   1.030  14.274 -0.2660  0.1631  0.6920
    3TMC2    C713909   4.576   0.777  14.166  0.3619 -0.1726  0.5500
    3TMC2    C813910   4.633   1.126  14.526  0.1506  0.2151 -0.3666
    3TMC2    O113911   4.581   0.659  14.138  0.5938 -0.2665 -0.3064
    3TMC2    O213912   4.705   1.146  14.625  0.5856  0.0671  0.4897
    3TMC2    O513913   4.526   1.201  14.500 -0.0693 -0.0916  0.5524
    3TMC2    H513914   4.465   1.145  14.448 -2.2608  2.2766  0.5724
    4TMC2    C113915   4.194   1.557  13.700  0.7497  1.0377 -0.4025
    4TMC2    C213916   4.210   1.554  13.560 -0.3380 -0.2183 -0.5523
    4TMC2    C313917   4.275   1.450  13.504  0.3532  0.8177  0.1369
    4TMC2    C413918   4.242   1.450  13.772  0.7056  0.1447  0.4485
    4TMC2    C513919   4.282   1.338  13.708 -0.7255 -1.1586 -0.1083
    4TMC2    C613920   4.295   1.336  13.572 -0.2840 -0.1034  0.0078
    4TMC2     C13921   4.117   1.653  13.775 -0.2278  0.4175 -0.2207
    4TMC2     O13922   4.110   1.641  13.895 -0.4432 -0.1171  0.1387
    4TMC2     H13923   4.172   1.639  13.506 -0.8653 -0.4838 -0.5936
    4TMC2    H113924   4.220   1.447  13.878  1.5673  0.9989  0.6507
    4TMC2    H213925   4.326   1.243  13.525  1.4872  1.3868 -1.7641
    4TMC2    C713926   4.313   1.222  13.790  0.2716 -0.1756  0.1093
    4TMC2    C813927   4.306   1.448  13.367 -0.6284 -0.0993  0.2157
    4TMC2    O113928   4.331   1.244  13.910  0.5464  0.0257  0.5790
    4TMC2    O213929   4.341   1.343  13.315  0.1104 -0.2985 -0.0655
    4TMC2    O513930   4.356   1.575  13.351 -0.4351 -0.5562 -0.4591
    4TMC2    H513931   4.346   1.635  13.428  2.1276 -0.2762 -0.3393
    5MPD2     C13932   3.750   1.999  13.774 -0.8797  0.7311 -0.0015
    5MPD2    C113933   3.791   1.989  13.641  0.0312  0.3315  0.5158
    5MPD2    C213934   3.888   1.894  13.614 -0.4760  0.0605  0.1799
    5MPD2    C313935   3.943   1.820  13.719 -0.6586  0.0171  0.1912
    5MPD2    C413936   3.905   1.840  13.848  0.1483  0.4267  0.2214
    5MPD2    C513937   3.812   1.932  13.872 -0.4831 -0.3948  0.1365
    5MPD2     H13938   3.919   1.870  13.513 -0.2474  0.2032  0.2149
    5MPD2    H113939   3.962   1.801  13.931  0.5471  1.0579  0.2420
    5MPD2    H213940   3.673   2.074  13.793 -1.8597 -0.2649 -0.0293
    5MPD2    H313941   3.792   1.953  13.976  1.3304  1.7045  0.0500
    5MPD2     N13942   4.048   1.731  13.691  0.3161 -0.6535 -0.3218
    5MPD2    H513943   4.060   1.723  13.590 -0.5114 -0.9607 -0.3979
    5MPD2    N113944   3.727   2.066  13.548 -0.3444  0.1372  0.1875
    5MPD2    H713945   3.662   2.134  13.588 -0.7002  1.2904 -2.3588
    6MPD1     C13946   2.665   3.518  13.520  0.2317  0.3002 -0.0909
    6MPD1    C113947   2.668   3.425  13.419  0.3632  0.0728 -0.3315
    6MPD1    C213948   2.790   3.376  13.383  0.2742  0.5159  0.0161
    6MPD1    C313949   2.909   3.424  13.443 -0.4449  0.6674 -0.3886
    6MPD1    C413950   2.902   3.516  13.534 -0.2060 -1.0120  1.2023
    6MPD1    C513951   2.782   3.562  13.578  0.9692 -0.2002  0.0810
    6MPD1     H13952   2.799   3.304  13.302  0.8198 -0.1857  0.7031
    6MPD1    H113953   2.988   3.557  13.586 -1.4293  0.1695  2.2735
    6MPD1    H213954   2.572   3.565  13.548 -0.9225 -0.4395 -2.6666
    6MPD1    H313955   2.776   3.626  13.665 -1.1000  0.2505 -0.4079
    6MPD1     N13956   3.036   3.375  13.415  0.2522  0.2810 -0.0153
    6MPD1    H513957   3.112   3.415  13.469  0.6549 -1.9612  1.1051
    6MPD1    N113958   2.550   3.400  13.338  0.1422 -0.0277 -0.1352
    6MPD1    H613959   2.550   3.318  13.278 -1.3267 -0.5468  0.5741
    6MPD1    H713960   2.461   3.401  13.388  0.2899  0.9741  0.1143
    7MPD2     C13961   3.314   2.729  13.745 -0.6691  0.1505  0.5684
    7MPD2    C113962   3.313   2.740  13.609  0.1973  0.0787  0.5648
    7MPD2    C213963   3.329   2.622  13.532  0.3597  0.7470  0.7288
    7MPD2    C313964   3.352   2.498  13.586 -0.7154 -0.6164  0.4242
    7MPD2    C413965   3.346   2.489  13.721 -0.4824 -0.6825 -0.2846
    7MPD2    C513966   3.328   2.606  13.793 -0.7111  0.1391  0.3426
    7MPD2     H13967   3.325   2.644  13.426 -0.6930  2.0457  1.0240
    7MPD2    H113968   3.338   2.394  13.774 -0.7356 -0.6285 -0.2247
    7MPD2    H213969   3.286   2.812  13.810  1.7131  2.4159 -1.2887
    7MPD2    H313970   3.329   2.591  13.900  2.2498 -0.3107  0.2506
    7MPD2     N13971   3.381   2.381  13.514 -0.2288  0.1214 -0.2182
    7MPD2    H513972   3.390   2.295  13.567 -0.6718  0.3402  0.2138
    7MPD2    N113973   3.297   2.857  13.531 -0.2671 -0.2672 -0.3155
    7MPD2    H713974   3.300   2.840  13.431  0.0531  0.8211 -0.4949
    8TMC3    C113975   3.458   2.261  13.326 -0.2181  0.0833  0.1133
    8TMC3    C213976   3.552   2.197  13.406  0.1825 -0.1111 -0.4340
    8TMC3    C313977   3.668   2.154  13.349  0.4742 -0.3589 -0.4243
    8TMC3    C413978   3.478   2.282  13.196  0.2064  0.2291 -0.4095
    8TMC3    C513979   3.598   2.245  13.138  0.1861 -0.0382  0.0370
    8TMC3    C613980   3.694   2.182  13.214 -0.5308  0.6993  0.1065
    8TMC3     C13981   3.396   2.374  13.378  0.7092  0.0892 -0.1118
    8TMC3     O13982   3.389   2.461  13.291 -0.4170 -0.4342  0.1639
    8TMC3     H13983   3.522   2.175  13.508  0.1334  0.2796 -0.3633
    8TMC3    H113984   3.402   2.325  13.131 -1.4005 -0.1522  1.2185
    8TMC3    H213985   3.779   2.152  13.154 -0.5375  1.3037 -0.2065
    8TMC3    C713986   3.658   2.358  13.064 -0.4439 -0.3135 -0.0134
    8TMC3    C813987   3.761   2.065  13.415 -0.1189 -0.5237 -0.2986
    8TMC3    O113988   3.742   2.336  12.977  0.2304  0.5019 -0.4807
    8TMC3    O213989   3.849   2.006  13.351  0.2035  0.2694 -0.0906
    9TMC3    C113990   3.211   3.241  13.340 -0.1433  0.5153 -0.3780
    9TMC3    C213991   3.264   3.184  13.227  0.1140  0.2080  0.3149
    9TMC3    C313992   3.351   3.091  13.249 -0.6291  0.1933 -0.3411
    9TMC3    C413993   3.219   3.186  13.463  0.0315 -0.5957 -0.2980
    9TMC3    C513994   3.299   3.076  13.472  0.3779  0.4311  0.7751
    9TMC3    C613995   3.373   3.033  13.369  0.1356 -0.6435 -0.6881
    9TMC3     C13996   3.078   3.294  13.315 -0.1146  0.0518 -0.6046
    9TMC3     O13997   3.011   3.258  13.219 -0.3523  0.3100  0.4040
    9TMC3     H13998   3.257   3.230  13.129  0.9216 -0.2597  0.0345
    9TMC3    H113999   3.163   3.226  13.547 -1.7131  0.1777 -1.8275
    9TMC3    H214000   3.444   2.953  13.384 -0.7256 -1.2202  0.3126
    9TMC3    C714001   3.288   2.986  13.583 -0.3387  0.5495 -0.0164
    9TMC3    C814002   3.413   3.033  13.131  0.2418 -0.5488 -0.3062
    9TMC3    O114003   3.251   3.017  13.697 -0.0476  0.2153  0.0318
    9TMC3    O214004   3.399   3.083  13.020  0.0366 -0.2946  0.8171
   10MPD2     C14005   3.678   2.638  12.942  0.1247  0.7294  0.5265
   10MPD2    C114006   3.615   2.603  13.056  0.5869  0.4782  0.8143
   10MPD2    C214007   3.549   2.698  13.124 -0.6859 -0.1563 -0.8268
   10MPD2    C314008   3.535   2.829  13.075 -0.2220  0.2283  0.6602
   10MPD2    C414009   3.604   2.866  12.959  0.0047 -0.6332  0.6610
   10MPD2    C514010   3.673   2.768  12.902  0.1383 -0.1969 -0.0325
   10MPD2     H14011   3.514   2.672  13.223  2.0052 -1.6167 -0.2720
   10MPD2    H114012   3.600   2.966  12.918 -0.3623 -0.1960  1.7833
   10MPD2    H214013   3.729   2.566  12.878 -0.3516  1.6422 -0.8952
   10MPD2    H314014   3.732   2.793  12.815 -0.5908  0.2799 -0.3855
   10MPD2     N14015   3.447   2.909  13.157 -0.2474 -0.0326  0.2068
   10MPD2    H514016   3.410   2.862  13.239 -2.0479  0.8576 -0.1083
   10MPD2    N114017   3.610   2.478  13.117  0.7480  0.7541 -0.3823
   10MPD2    H714018   3.547   2.473  13.197  1.4470 -1.0248  0.0660
   11MPD2     C14019   4.444   0.743  13.887  0.1821  0.2892  0.4317
   11MPD2    C114020   4.462   0.865  13.959 -0.4704  0.6193  0.6803
   11MPD2    C214021   4.411   0.977  13.905  0.0287 -0.1567  0.6690
   11MPD2    C314022   4.352   0.982  13.780  0.1019 -0.3498  0.1788
   11MPD2    C414023   4.340   0.866  13.705  0.5237 -0.2136  0.3271
   11MPD2    C514024   4.387   0.745  13.763  0.0200  0.2183  0.1415
   11MPD2     H14025   4.447   1.068  13.951  0.0961 -0.3884  1.0716
   11MPD2    H114026   4.294   0.858  13.607 -1.9459 -0.1919  1.4818
   11MPD2    H214027   4.480   0.648  13.926  0.4816  0.5653  0.8337
   11MPD2    H314028   4.375   0.648  13.716 -3.1844  0.2805  0.7996
   11MPD2     N14029   4.309   1.103  13.722  0.4158  0.7806  0.4814
   11MPD2    H514030   4.269   1.108  13.629  0.0617  1.1800  0.6584
   11MPD2    N114031   4.521   0.881  14.090  0.4220 -0.3654 -0.5232
   11MPD2    H714032   4.519   0.972  14.136  1.6503 -0.4675 -0.2727
    1MPD1     C14033   1.638   2.899  17.161 -0.0971 -0.2802 -0.5427
    1MPD1    C114034   1.678   2.771  17.150 -0.2518  0.6144 -0.3121
    1MPD1    C214035   1.799   2.727  17.205 -0.6636 -0.3578 -0.0308
    1MPD1    C314036   1.885   2.820  17.254  0.2035 -0.4628 -0.7363
    1MPD1    C414037   1.848   2.956  17.253  0.0238 -0.6690 -0.0415
    1MPD1    C514038   1.723   2.998  17.209 -0.2752  0.0923  0.6819
    1MPD1     H14039   1.820   2.621  17.197  1.1374  0.1231 -1.7782
    1MPD1    H114040   1.913   3.039  17.277  1.6932 -1.9234 -0.2603
    1MPD1    H214041   1.532   2.919  17.150  0.4369  1.7033 -1.9574
    1MPD1    H314042   1.694   3.100  17.228 -0.2815 -0.2463  2.5844
    1MPD1     N14043   2.022   2.798  17.275  0.0467  0.5217  0.3814
    1MPD1    H514044   2.084   2.877  17.285  0.0244  0.5964 -0.0599
    1MPD1    N114045   1.584   2.676  17.103 -0.0599  0.2957  0.7860
    1MPD1    H614046   1.520   2.713  17.033  0.7468 -1.9206 -1.1337
    1MPD1    H714047   1.636   2.597  17.066  0.3806  0.7511  0.4434
    2MPD1     C14048   2.721   2.314   0.207  0.2583 -0.2263  0.6581
    2MPD1    C114049   2.778   2.424   0.158  0.0328  0.0302 -0.1108
    2MPD1    C214050   2.718   2.482   0.043 -0.4989 -0.1211  0.4308
    2MPD1    C314051   2.604   2.442  17.725  0.2328  0.2063  0.1707
    2MPD1    C414052   2.540   2.338   0.049  0.4829  0.6546  0.3183
    2MPD1    C514053   2.600   2.272   0.156  0.1093  0.0357 -0.6184
    2MPD1     H14054   2.765   2.572   0.004 -0.9615  0.0275  0.2208
    2MPD1    H114055   2.449   2.287   0.019  1.6201 -0.1304 -1.7751
    2MPD1    H214056   2.752   2.265   0.298  0.0307 -0.4520  0.6144
    2MPD1    H314057   2.543   2.187   0.191 -1.9788  0.3891 -3.1649
    2MPD1     N14058   2.548   2.515  17.621  0.1748  0.2183  0.2806
    2MPD1    H514059   2.617   2.564  17.564  1.1334 -0.0706  1.2039
    2MPD1    N114060   2.883   2.481   0.231 -0.4002  0.6572  0.3360
    2MPD1    H614061   2.958   2.415   0.252  1.1012  2.1205 -0.4530
    2MPD1    H714062   2.930   2.560   0.188  0.5848 -0.1132 -0.0141
    3TMC3    C114063   2.382   2.571  17.454 -0.0069  0.0344  0.0202
    3TMC3    C214064   2.476   2.650  17.396  0.0177 -0.0232  0.1624
    3TMC3    C314065   2.422   2.748  17.323  0.1492 -0.5070 -0.7076
    3TMC3    C414066   2.249   2.570  17.430  0.3217 -0.1545 -0.0750
    3TMC3    C514067   2.202   2.675  17.360  0.0510 -0.6408 -0.8195
    3TMC3    C614068   2.288   2.765  17.302  0.1456 -0.4516  0.1668
    3TMC3     C14069   2.415   2.509  17.581  0.4237 -0.2787  0.4559
    3TMC3     O14070   2.318   2.468  17.644 -0.0501  0.6162 -0.2794
    3TMC3     H14071   2.581   2.646  17.421  0.1224 -1.3001 -0.5101
    3TMC3    H114072   2.174   2.510  17.480  0.5368  0.6157  1.1887
    3TMC3    H214073   2.259   2.840  17.229 -0.8265 -0.8176  0.1792
    3TMC3    C714074   2.068   2.672  17.314 -0.7016  0.4029  0.2486
    3TMC3    C814075   2.515   2.835  17.249 -0.2557  0.5697 -0.4396
    3TMC3    O114076   2.022   2.560  17.297 -0.4056 -0.6999  0.7253
    3TMC3    O214077   2.469   2.937  17.198 -0.1993 -0.4929 -0.2345
    4MPD1     C14078   2.980   2.994  17.115  0.0195 -0.6565 -0.2020
    4MPD1    C114079   2.987   2.861  17.141  1.4368 -0.3316 -0.1305
    4MPD1    C214080   2.869   2.801  17.181 -0.1368 -0.4742 -0.2847
    4MPD1    C314081   2.756   2.867  17.202 -0.0436  0.4407  0.5685
    4MPD1    C414082   2.753   3.005  17.192  0.0349 -0.8940 -0.2184
    4MPD1    C514083   2.863   3.070  17.135 -0.5942 -0.2145  0.4288
    4MPD1     H14084   2.864   2.696  17.209 -0.4337 -0.3985 -0.0563
    4MPD1    H114085   2.664   3.058  17.222 -1.2266 -1.5116 -2.9030
    4MPD1    H214086   3.063   3.039  17.062  0.3658 -2.0555 -0.8207
    4MPD1    H314087   2.862   3.176  17.112  2.4409  0.1806  2.1380
    4MPD1     N14088   2.644   2.788  17.236 -0.0148 -0.0513 -0.4877
    4MPD1    H514089   2.669   2.690  17.244 -2.8652 -0.3592  4.3950
    4MPD1    N114090   3.116   2.796  17.143 -0.2202 -0.3219 -0.8474
    4MPD1    H614091   3.164   2.836  17.063  0.3083 -0.0614 -0.4010
    4MPD1    H714092   3.107   2.696  17.132 -1.3232 -0.1827 -1.2237
    1TCq1    O114093   1.446   3.508  10.217 -0.4310  0.5380 -0.1059
    1TCq1    C114094   1.383   3.396  10.248  0.1138 -0.2473  0.5687
    1TCq1    O214095   1.364   3.310  10.161  0.2907 -0.3631 -0.1707
    1TCq1    C214096   1.375   3.360  10.387 -0.2907  0.2027 -0.0724
    1TCq1    C314097   1.298   3.255  10.422 -0.2160  0.3372 -0.4163
    1TCq1    C414098   1.266   3.228  10.551  0.0524 -0.3155 -0.0731
    1TCq1    C514099   1.354   3.281  10.642  0.1105  0.6169  0.6105
    1TCq1    C614100   1.430   3.387  10.602 -0.5303  0.3058 -0.4714
    1TCq1    C714101   1.433   3.439  10.476  0.1556  0.1158  0.0102
    1TCq1    C814102   1.489   3.480  10.688  0.1694  0.5854 -0.1827
    1TCq1    O414103   1.558   3.567  10.649  0.1114  0.3974 -0.1922
    1TCq1    C914104   1.181   3.121  10.587  0.1742  0.5421  0.2740
    1TCq1    O514105   1.101   3.082  10.497  0.4702  0.4133 -0.6592
    1TCq1    O614106   1.172   3.097  10.711 -0.1099  0.2240  0.1712
    1TCq1    H114107   1.424   3.575  10.285  1.1256 -0.1459  1.0570
    1TCq1    H214108   1.233   3.216  10.345  0.4183 -1.4539 -0.0454
    1TCq1    H314109   1.366   3.230  10.737  0.7481 -2.4359 -1.1208
    1TCq1    H414110   1.488   3.529  10.452  1.2808 -0.7463 -0.6594
    2MPD1     C14111   1.724   3.542  11.148 -0.5155  0.7490 -0.5538
    2MPD1    C114112   1.622   3.452  11.162 -0.4778 -0.2897  0.7983
    2MPD1    C214113   1.543   3.428  11.051  0.8180  0.3159 -0.2032
    2MPD1    C314114   1.575   3.474  10.923 -0.4762  0.1543  0.3022
    2MPD1    C414115   1.690   3.552  10.903 -0.8596  0.2964  0.3340
    2MPD1    C514116   1.765   3.585  11.015  0.0718 -0.6358 -0.6467
    2MPD1     H14117   1.447   3.383  11.068  1.0059  0.0654  0.1953
    2MPD1    H114118   1.720   3.593  10.807  1.1338 -0.3615  0.6715
    2MPD1    H214119   1.789   3.578  11.226  0.2513  0.1223 -0.9035
    2MPD1    H314120   1.849   3.652  11.003 -1.1437  0.6967 -1.6141
    2MPD1     N14121   1.485   3.432  10.822 -0.2211 -0.1300 -0.0051
    2MPD1    H514122   1.411   3.367  10.846  1.0570 -1.8058 -0.6059
    2MPD1    N114123   1.587   3.400  11.286 -0.0896 -0.0479  0.2474
    2MPD1    H614124   1.663   3.356  11.337 -0.5311  0.0089  0.9617
    2MPD1    H714125   1.524   3.321  11.273  1.1328 -1.2030  1.3537
    1TMC1    C114126   2.152   3.638   0.917 -0.2655 -0.2218 -0.1413
    1TMC1    C214127   2.282   3.614   0.884 -0.1237  0.0886  0.2231
    1TMC1    C314128   2.347   3.543   0.978  0.3417 -0.5788 -0.1262
    1TMC1    C414129   2.088   3.592   1.025 -0.4109  0.0151 -0.5762
    1TMC1    C514130   2.154   3.503   1.101 -0.8081  0.1513 -0.3070
    1TMC1    C614131   2.292   3.483   1.085 -0.3360  0.0405  0.4965
    1TMC1     C14132   2.078   3.731   0.831 -0.5062  0.2665  0.2383
    1TMC1     O14133   2.134   3.748   0.723 -0.1328  0.1825  0.4180
    1TMC1     H14134   2.324   3.652   0.791  1.8083  1.1425  1.5418
    1TMC1    H114135   1.980   3.594   1.036 -0.3649 -1.1797  0.0702
    1TMC1    H214136   2.346   3.421   1.155  0.7403  0.0196 -0.3669
    1TMC1    C714137   2.108   3.452   1.225  0.1032 -0.1544 -0.8099
    1TMC1    C814138   2.483   3.498   0.947 -0.4646  0.0865  0.2272
    1TMC1    O114139   2.130   3.337   1.250  0.2020 -0.2465  0.4746
    1TMC1    O214140   2.513   3.382   0.974 -0.1294  0.4593  0.1732
    1TMC1    O314141   1.995   3.522   1.259  0.1284 -0.1311 -0.4782
    1TMC1    H314142   1.998   3.616   1.230 -4.3074 -0.0238 -0.5279
    1TMC1    O514143   2.565   3.603   0.966 -0.1310 -0.1289  0.3690
    1TMC1    H514144   2.522   3.690   0.957  0.9863  0.3872  0.0902
    2MPD1     C14145   1.728   4.092   0.719 -0.1400 -0.5030 -0.2814
    2MPD1    C114146   1.705   4.057   0.847  0.6979  0.4617  0.6295
    2MPD1    C214147   1.783   3.954   0.904 -0.0897  0.8006  0.8503
    2MPD1    C314148   1.877   3.878   0.826 -0.4669  0.2377 -1.0539
    2MPD1    C414149   1.885   3.903   0.692  0.2727 -0.2211  0.0014
    2MPD1    C514150   1.805   4.007   0.642  0.7777 -0.2282 -0.5531
    2MPD1     H14151   1.787   3.931   1.010 -1.5195  0.9172  0.9194
    2MPD1    H114152   1.936   3.842   0.618  0.4371  0.6244 -0.5883
    2MPD1    H214153   1.687   4.178   0.666  1.1344  0.0023 -0.4404
    2MPD1    H314154   1.823   4.030   0.537 -2.9161  2.7668 -0.5000
    2MPD1     N14155   1.966   3.786   0.890  0.1597 -0.3961 -0.5578
    2MPD1    H514156   1.943   3.767   0.987  0.2436  1.3902 -0.1779
    2MPD1    N114157   1.621   4.139   0.930 -0.2546 -0.4377 -0.0076
    2MPD1    H614158   1.593   4.094   1.017  0.5531  1.1540  1.0840
    2MPD1    H714159   1.542   4.177   0.878 -0.3004  0.5135  0.7509
    1MPD1     C14160   4.261   1.872  13.132  0.2530  0.3310  0.1644
    1MPD1    C114161   4.187   1.979  13.167 -0.2576 -0.0029 -0.0582
    1MPD1    C214162   4.169   2.081  13.076  0.1386  0.2779  0.2189
    1MPD1    C314163   4.208   2.061  12.948  0.3048  0.6298  0.4955
    1MPD1    C414164   4.259   1.936  12.902  0.3059 -0.3579  0.7240
    1MPD1    C514165   4.283   1.848  13.002  0.7324  0.3724  0.1566
    1MPD1     H14166   4.102   2.162  13.098 -1.1469 -0.8209  0.3632
    1MPD1    H114167   4.303   1.927  12.803 -0.5880 -1.8217  0.4697
    1MPD1    H214168   4.280   1.793  13.203 -0.4716  1.1637  1.2696
    1MPD1    H314169   4.328   1.753  12.978 -0.9365 -0.3468 -0.1095
    1MPD1     N14170   4.182   2.169  12.863 -0.2809 -0.0609 -0.3340
    1MPD1    H514171   4.139   2.255  12.896  0.9513 -0.2048  1.5777
    1MPD1    N114172   4.133   1.989  13.296 -0.2146 -0.2618  0.4795
    1MPD1    H614173   4.038   2.026  13.289  0.4298  1.1562 -0.7365
    1MPD1    H714174   4.133   1.903  13.350 -1.5859  0.5269  1.7346
    2MPD1     C14175   4.140   2.449  10.138  0.2407 -0.5795 -0.2208
    2MPD1    C114176   4.097   2.577  10.115  0.6767 -0.3592 -0.0297
    2MPD1    C214177   4.046   2.662  10.214  0.5905  0.0890  0.3342
    2MPD1    C314178   4.051   2.612  10.342  0.4894  0.8408  0.1422
    2MPD1    C414179   4.106   2.484  10.361  0.8452 -0.6413 -0.5451
    2MPD1    C514180   4.145   2.398  10.265  0.1560 -0.0610  0.4406
    2MPD1     H14181   4.000   2.758  10.199 -0.0660 -0.3778 -0.6060
    2MPD1    H114182   4.126   2.446  10.460 -0.4459 -1.9212 -0.7885
    2MPD1    H214183   4.164   2.384  10.055  1.3717  0.0143 -0.3600
    2MPD1    H314184   4.189   2.302  10.289 -1.5962 -0.9493  0.0612
    2MPD1     N14185   4.016   2.696  10.452 -0.0634  0.3108 -0.4787
    2MPD1    H514186   4.006   2.793  10.423 -0.6931  0.0970 -0.9724
    2MPD1    N114187   4.094   2.622   9.982  0.4704  0.3880 -0.0183
    2MPD1    H614188   4.127   2.717   9.967  0.6852  0.4825  1.0322
    2MPD1    H714189   4.155   2.571   9.918  0.9101 -0.0615  0.7588
    3MPD1     C14190   3.617   3.533  10.688  0.6945 -0.0362  0.5247
    3MPD1    C114191   3.605   3.472  10.816  0.2160  0.0925  0.5143
    3MPD1    C214192   3.658   3.342  10.809 -0.6698 -0.9578 -0.2850
    3MPD1    C314193   3.741   3.287  10.710 -0.5471  0.4630 -0.2677
    3MPD1    C414194   3.760   3.361  10.603 -0.1626 -0.4961  0.4127
    3MPD1    C514195   3.695   3.481  10.586  0.2342  0.6228 -0.3399
    3MPD1     H14196   3.653   3.273  10.893  2.6228 -1.0477 -0.1497
    3MPD1    H114197   3.825   3.328  10.523  0.6565  1.0626  0.4292
    3MPD1    H214198   3.562   3.625  10.672  1.3743  0.3171  0.2552
    3MPD1    H314199   3.726   3.535  10.498  1.8636  1.1356  0.5529
    3MPD1     N14200   3.805   3.161  10.738 -1.0567  0.1931  0.6855
    3MPD1    H514201   3.788   3.119  10.829 -0.3227  0.7538  1.0865
    3MPD1    N114202   3.522   3.519  10.916  0.1579  0.0370  0.4123
    3MPD1    H614203   3.520   3.620  10.928 -0.8601 -0.1417  1.7699
    3MPD1    H714204   3.537   3.475  11.007 -2.3923 -1.9282 -0.1256
    4MPD2     C14205   3.690   2.453  12.379 -0.0202 -0.0953 -0.5482
    4MPD2    C114206   3.825   2.483  12.355 -0.3063 -0.4029 -0.1291
    4MPD2    C214207   3.861   2.494  12.217 -0.5525 -0.1326  1.1108
    4MPD2    C314208   3.778   2.455  12.116 -0.1693 -0.6060  0.5058
    4MPD2    C414209   3.644   2.419  12.146  0.2658  0.3282 -0.0801
    4MPD2    C514210   3.600   2.422  12.275  0.3574 -1.3331 -0.3014
    4MPD2     H14211   3.967   2.506  12.200 -0.3885 -0.5893  1.7880
    4MPD2    H114212   3.565   2.387  12.079  1.1030 -2.9957  0.5118
    4MPD2    H214213   3.641   2.453  12.476 -1.1716 -0.9713 -1.1196
    4MPD2    H314214   3.497   2.391  12.294  0.0581  0.9294  1.6876
    4MPD2     N14215   3.827   2.436  11.984 -0.1957  0.0922  0.1864
    4MPD2    H514216   3.778   2.366  11.927  1.9919 -0.6758 -0.7579
    4MPD2    N114217   3.920   2.493  12.458 -0.4573  0.1984  0.1679
    4MPD2    H714218   4.016   2.498  12.424 -1.0327 -1.2436 -1.6754
    5TMC3    C114219   4.032   2.499  12.651  0.5072  0.7504 -0.0711
    5TMC3    C214220   4.061   2.383  12.705  0.3996  0.3968 -0.0012
    5TMC3    C314221   4.191   2.330  12.682  0.4165 -0.5904 -0.4566
    5TMC3    C414222   4.118   2.557  12.564  0.3299  0.0527  0.2501
    5TMC3    C514223   4.247   2.511  12.546  0.4223  0.1607 -0.6320
    5TMC3    C614224   4.281   2.389  12.599  0.6668 -0.5673 -0.4543
    5TMC3     C14225   3.899   2.490  12.594  0.0052  0.0403 -0.3884
    5TMC3     O14226   3.795   2.467  12.650  0.1692 -0.2455  0.1993
    5TMC3     H14227   3.985   2.332  12.764  0.0525 -0.3617 -1.1152
    5TMC3    H114228   4.087   2.657  12.535 -1.0619 -1.4318 -3.3655
    5TMC3    H214229   4.377   2.347  12.573  0.9430  0.0542 -0.4556
    5TMC3    C714230   4.290   2.546  12.411 -0.0256 -0.0478 -0.5595
    5TMC3    C814231   4.223   2.198  12.731  0.5696 -0.2599 -0.5397
    5TMC3    O114232   4.194   2.581  12.351  0.4839  0.2825  0.1807
    5TMC3    O214233   4.300   2.130  12.669 -0.0171 -0.5749 -0.0546
    6TMC3    C114234   3.974   2.752  10.670 -0.5178 -0.1992  0.5280
    6TMC3    C214235   3.994   2.887  10.633  0.4763  0.0131  0.2121
    6TMC3    C314236   3.958   2.986  10.716  0.5150 -0.6553  0.2223
    6TMC3    C414237   3.925   2.725  10.793  0.3271 -0.4285  0.5243
    6TMC3    C514238   3.893   2.828  10.880  0.4835  0.6649  0.3478
    6TMC3    C614239   3.900   2.955  10.838 -0.3833  0.5586  0.0663
    6TMC3     C14240   4.013   2.652  10.582  0.9283 -0.1220 -0.7024
    6TMC3     O14241   4.001   2.543  10.632  0.0419 -0.2854  0.3742
    6TMC3     H14242   4.046   2.921  10.544  1.5867  1.8527  1.5712
    6TMC3    H114243   3.922   2.621  10.823  0.1267 -0.3016  0.9620
    6TMC3    H214244   3.883   3.033  10.912  1.9956  1.7866 -0.6692
    6TMC3    C714245   3.889   2.784  11.021  0.2530 -0.3666 -0.5925
    6TMC3    C814246   3.895   3.096  10.652 -0.0343 -0.8563 -0.6232
    6TMC3    O114247   3.920   2.669  11.053 -0.1707  0.1531 -0.1287
    6TMC3    O214248   3.935   3.125  10.544  0.2854 -0.5651 -0.2541
    7MPD2     C14249   4.537   2.413  11.979 -0.0799  0.1041 -0.1396
    7MPD2    C114250   4.402   2.449  12.000  0.1856 -0.5913 -0.0490
    7MPD2    C214251   4.364   2.489  12.130 -0.0586  0.2050  0.4882
    7MPD2    C314252   4.447   2.471  12.238  0.5348 -0.0555 -0.0379
    7MPD2    C414253   4.578   2.440  12.218  0.7921 -0.2286 -0.4326
    7MPD2    C514254   4.619   2.419  12.089  0.3306  0.0586  0.1334
    7MPD2     H14255   4.258   2.513  12.138 -0.1301 -0.5508  1.8963
    7MPD2    H114256   4.656   2.438  12.293  1.5093 -0.4397 -1.1833
    7MPD2    H214257   4.583   2.392  11.884  3.1550  0.6078  1.3153
    7MPD2    H314258   4.722   2.388  12.071  0.9780  2.5685 -0.4343
    7MPD2     N14259   4.410   2.500  12.371  0.2267  0.1071 -0.3343
    7MPD2    H514260   4.486   2.503  12.439 -0.9993 -1.7158  1.1266
    7MPD2    N114261   4.307   2.444  11.900 -0.3156  0.0077 -0.2774
    7MPD2    H714262   4.216   2.476  11.932 -0.0816  2.3702 -2.0235
    8TMC3    C114263   4.198   2.374  11.722  0.3280  0.6536 -0.3681
    8TMC3    C214264   4.178   2.458  11.622 -0.4337  0.0607 -0.4261
    8TMC3    C314265   4.054   2.513  11.611 -0.3763  0.1367 -0.0293
    8TMC3    C414266   4.106   2.353  11.823  0.1241  0.3244 -0.1378
    8TMC3    C514267   3.990   2.423  11.815 -0.1857 -0.4194  0.2925
    8TMC3    C614268   3.964   2.503  11.712  0.6247 -0.0312  0.0328
    8TMC3     C14269   4.328   2.396  11.774 -0.1976 -0.0113  0.0460
    8TMC3     O14270   4.426   2.386  11.704 -0.0323  0.3148  0.3514
    8TMC3     H14271   4.251   2.473  11.543  0.7303 -0.1845  0.6134
    8TMC3    H114272   4.132   2.284  11.903  0.0871 -0.1174 -0.5023
    8TMC3    H214273   3.871   2.558  11.715 -0.1658 -1.3366 -0.7574
    8TMC3    C714274   3.954   2.473  11.945 -0.1159 -0.1969 -0.9168
    8TMC3    C814275   4.036   2.603  11.499 -0.3259  0.9391  0.0745
    8TMC3    O114276   4.038   2.545  11.991 -0.0796 -0.1352  0.7245
    8TMC3    O214277   4.075   2.567  11.389 -0.8685 -0.4395  0.2172
    9MPD2     C14278   3.855   2.933  11.510 -0.1112  0.2430  0.3040
    9MPD2    C114279   3.918   2.816  11.459 -0.2081 -0.7443 -0.4681
    9MPD2    C214280   3.917   2.805  11.318 -0.2082 -0.0284 -0.2289
    9MPD2    C314281   3.853   2.901  11.240 -0.5248 -0.9602 -0.5197
    9MPD2    C414282   3.787   3.003  11.294 -0.1418  0.4471 -0.1216
    9MPD2    C514283   3.787   3.015  11.427 -0.1941 -0.0818  0.0255
    9MPD2     H14284   3.957   2.717  11.271 -0.9856  0.7863 -2.4280
    9MPD2    H114285   3.742   3.083  11.237 -0.7955 -0.4357 -0.8355
    9MPD2    H214286   3.850   2.950  11.617 -2.2101  1.1960  0.0545
    9MPD2    H314287   3.757   3.111  11.467 -0.8505  0.1954 -1.1554
    9MPD2     N14288   3.855   2.892  11.099  0.8875 -0.0949 -0.9775
    9MPD2    H514289   3.813   2.969  11.047 -0.0700  0.6125  0.8248
    9MPD2    N114290   3.983   2.722  11.542  0.0557  0.0249 -0.2253
    9MPD2    H714291   3.983   2.745  11.641 -0.4917  0.5731 -0.3490
    1MPD1     C14292   4.647   3.463  16.573  0.3067 -0.4180  0.0969
    1MPD1    C114293   4.620   3.481  16.710  0.2278  0.2976  0.5388
    1MPD1    C214294   4.564   3.380  16.785 -0.0783 -0.1182  0.1550
    1MPD1    C314295   4.545   3.252  16.730  0.8529  0.5390  0.4549
    1MPD1    C414296   4.584   3.230  16.601  0.5585  0.2365  0.9057
    1MPD1    C514297   4.636   3.333  16.523 -0.1761  0.2024  0.4278
    1MPD1     H14298   4.532   3.394  16.888  0.5190  1.5904  0.0960
    1MPD1    H114299   4.569   3.133  16.555  0.5696 -0.2856  2.0096
    1MPD1    H214300   4.673   3.543  16.506  0.5566  0.0027  0.6972
    1MPD1    H314301   4.656   3.311  16.418 -0.4162 -2.5148  0.9610
    1MPD1     N14302   4.477   3.148  16.792 -0.0083 -0.0137  0.3406
    1MPD1    H514303   4.471   3.065  16.734 -0.3359  0.1207  0.1827
    1MPD1    N114304   4.629   3.611  16.760  0.0338  0.6645  0.3834
    1MPD1    H614305   4.642   3.609  16.861 -1.3164 -2.0433  0.5123
    1MPD1    H714306   4.705   3.669  16.727 -0.5008  1.3615  0.3740
    2TMC2    C114307   4.453   2.831  17.121 -0.0324  0.2747 -0.6664
    2TMC2    C214308   4.372   2.746  17.050  0.0235 -0.3112 -0.6472
    2TMC2    C314309   4.321   2.794  16.936 -0.0797 -0.4424 -0.7463
    2TMC2    C414310   4.468   2.963  17.086 -0.5908 -0.9796  1.1724
    2TMC2    C514311   4.406   3.007  16.971  0.8854 -0.0032  0.0794
    2TMC2    C614312   4.336   2.922  16.894  0.0127 -0.7065 -0.5359
    2TMC2     C14313   4.454   2.810  17.261 -0.4424 -0.6124 -0.1832
    2TMC2     O14314   4.483   2.694  17.299 -0.4748  0.8320 -0.7932
    2TMC2     H14315   4.356   2.640  17.065 -1.6901 -0.0881 -0.9031
    2TMC2    H114316   4.532   3.027  17.146 -0.9974  0.6009 -0.0735
    2TMC2    H214317   4.282   2.954  16.806 -0.3931 -0.1996 -0.0994
    2TMC2    C714318   4.443   3.140  16.923 -0.3529 -0.5483 -0.1327
    2TMC2    C814319   4.213   2.717  16.879  0.6215  0.4680  0.4414
    2TMC2    O114320   4.483   3.211  17.015 -0.6069 -0.4511 -0.0672
    2TMC2    O214321   4.220   2.598  16.891  0.7044 -0.8561 -0.3360
    2TMC2    O514322   4.100   2.793  16.884 -0.5611  0.2434  0.1551
    2TMC2    H514323   4.119   2.876  16.933  0.5198 -0.4225  0.8568
    3MPD1     C14324   4.327   2.970  17.731 -0.4148 -0.2197  0.3028
    3MPD1    C114325   4.290   3.066  17.640 -0.0677  0.2830  0.2204
    3MPD1    C214326   4.318   3.051  17.505 -0.5167  0.0937 -0.2319
    3MPD1    C314327   4.380   2.933  17.460 -0.3068  0.6541 -0.4634
    3MPD1    C414328   4.417   2.840  17.557 -0.2461 -0.7550 -0.0461
    3MPD1    C514329   4.391   2.855  17.692  0.1607 -0.0851  0.5179
    3MPD1     H14330   4.287   3.120  17.427 -3.0915  0.5606  1.2171
    3MPD1    H114331   4.459   2.744  17.531  1.9797  0.4605 -0.9614
    3MPD1    H214332   4.305   2.963   0.097 -2.8942  0.7675 -0.1383
    3MPD1    H314333   4.416   2.783   0.029 -2.7847 -0.8982  0.6803
    3MPD1     N14334   4.397   2.920  17.318  0.0144 -0.0486  0.3040
    3MPD1    H514335   4.378   3.001  17.260  0.2690  1.5197  2.4156
    3MPD1    N114336   4.234   3.190  17.680 -0.0200 -0.4037 -0.3365
    3MPD1    H614337   4.233   3.219   0.037 -0.5497 -1.4899 -0.0173
    3MPD1    H714338   4.256   3.266  17.616 -0.3367 -0.9857 -1.1373
    1TMC1    C114339   2.422   0.862  13.034  0.0202  0.4434 -0.1937
    1TMC1    C214340   2.361   0.960  13.102  0.2899  0.3073 -0.0582
    1TMC1    C314341   2.227   0.967  13.106  0.4160  0.3040 -0.1956
    1TMC1    C414342   2.355   0.747  12.993 -0.9143  0.0433  0.4314
    1TMC1    C514343   2.221   0.752  13.013  0.2538 -0.3311 -0.6747
    1TMC1    C614344   2.154   0.858  13.065  0.1215  0.0892  0.0329
    1TMC1     C14345   2.570   0.857  13.032 -0.1759  0.9794 -0.2591
    1TMC1     O14346   2.610   0.822  12.922  0.1968 -0.2184  0.0260
    1TMC1     H14347   2.420   1.047  13.126  0.5904 -0.5957  2.5168
    1TMC1    H114348   2.404   0.667  12.939  0.8920  1.8824 -0.6466
    1TMC1    H214349   2.046   0.851  13.063  0.1385 -0.0684 -0.3724
    1TMC1    C714350   2.138   0.646  12.957 -0.3183 -0.2389  0.1792
    1TMC1    C814351   2.171   1.098  13.108  0.1334  1.1262 -0.0573
    1TMC1    O114352   2.037   0.598  13.011 -0.4813  0.1567 -0.4179
    1TMC1    O214353   2.215   1.175  13.024 -0.0592 -0.2346 -0.0886
    1TMC1    O314354   2.156   0.665  12.826  0.0739  0.1387 -0.6571
    1TMC1    H314355   2.239   0.710  12.801 -1.3175  0.9446 -3.8539
    1TMC1    O514356   2.046   1.086  13.153 -0.0161 -0.0626  0.5874
    1TMC1    H514357   2.045   1.018  13.224 -1.6126  0.5875  1.1910
    2MPD2     C14358   2.868   0.880  13.075  0.5897  0.2265 -0.1994
    2MPD2    C114359   2.769   0.900  13.170  0.2743  0.4250 -0.2696
    2MPD2    C214360   2.809   0.933  13.300 -0.0710  0.8088 -0.2147
    2MPD2    C314361   2.941   0.944  13.340  0.0412  0.3439  0.0337
    2MPD2    C414362   3.034   0.911  13.239  0.8363  0.6357  0.4310
    2MPD2    C514363   3.003   0.877  13.114 -0.5070 -1.2698 -0.5556
    2MPD2     H14364   2.734   0.959  13.374 -2.2906 -2.7014 -1.2406
    2MPD2    H114365   3.140   0.897  13.259  0.7117 -0.5485  0.2473
    2MPD2    H214366   2.843   0.874  12.970 -1.5750 -2.0892  0.4312
    2MPD2    H314367   3.074   0.855  13.035 -0.4268 -0.4461 -0.7161
    2MPD2     N14368   2.965   0.964  13.480 -0.0323 -0.0332 -0.1617
    2MPD2    H514369   2.879   0.971  13.533 -0.3627  0.1385 -0.7239
    2MPD2    N114370   2.632   0.891  13.145 -0.1126 -0.4161 -0.0975
    2MPD2    H714371   2.565   0.873  13.219 -1.6336 -2.5173 -1.9839
    3TCq1    O114372   3.187   0.910  14.093 -0.1354  0.4479  0.3383
    3TCq1    C114373   3.230   0.993  13.997 -0.1435 -0.0314 -0.4351
    3TCq1    O214374   3.345   1.010  13.955  0.5586  0.2468  0.3498
    3TCq1    C214375   3.121   0.988  13.905  0.7863 -0.4678 -0.1672
    3TCq1    C314376   2.994   0.998  13.956  0.4230 -0.5842 -0.1027
    3TCq1    C414377   2.896   0.976  13.867 -0.5783 -1.0190 -0.0057
    3TCq1    C514378   2.921   0.937  13.738  0.1767  0.1382  0.5022
    3TCq1    C614379   3.051   0.931  13.691  0.4805 -0.0697 -1.0701
    3TCq1    C714380   3.151   0.967  13.772 -0.0652 -0.0046 -0.1337
    3TCq1    C814381   3.081   0.948  13.554  0.0536 -0.0082 -0.0252
    3TCq1    O414382   3.193   0.927  13.514  0.4141  0.3982 -0.4099
    3TCq1    C914383   2.756   0.974  13.925  0.3517  0.1159  0.1727
    3TCq1    O514384   2.660   0.986  13.844  0.4528 -0.6320  0.1579
    3TCq1    O614385   2.749   0.934  14.045 -0.0908 -0.0091 -0.2142
    3TCq1    H114386   3.092   0.893  14.077 -0.1183  1.7435 -1.1200
    3TCq1    H214387   2.971   1.030  14.057  0.8510 -0.7758  0.0565
    3TCq1    H314388   2.836   0.906  13.678  1.3179  0.2615 -1.1424
    3TCq1    H414389   3.255   0.945  13.748  0.1256 -0.7543  1.4049
    1MPD2     C14390   2.420   2.000  14.907  0.0839  0.2825  0.5558
    1MPD2    C114391   2.339   1.943  14.811 -0.3801 -0.1689  0.3847
    1MPD2    C214392   2.283   1.814  14.840 -0.0470 -0.3671 -0.6375
    1MPD2    C314393   2.304   1.745  14.956 -0.3408 -1.0370  0.1993
    1MPD2    C414394   2.387   1.805  15.048  0.6474  0.1219  0.1633
    1MPD2    C514395   2.438   1.932  15.031 -0.5041  0.1730 -0.3038
    1MPD2     H14396   2.223   1.764  14.765 -0.1656  0.4677 -1.0985
    1MPD2    H114397   2.420   1.754  15.138  1.1547 -0.2922 -0.2608
    1MPD2    H214398   2.461   2.099  14.890 -1.9981  0.9820 -0.3511
    1MPD2    H314399   2.492   1.981  15.111  0.2414 -0.3788 -0.4724
    1MPD2     N14400   2.241   1.620  15.002  0.0054 -0.0171 -0.3148
    1MPD2    H514401   2.290   1.573  15.077  1.3109 -1.7559 -2.2692
    1MPD2    N114402   2.322   2.009  14.686  0.1416  0.0123  0.3756
    1MPD2    H714403   2.343   2.108  14.692 -1.8242  0.2767  2.9701
    2TMC3    C114404   2.237   2.033  14.459  0.1675  0.2681 -0.7022
    2TMC3    C214405   2.190   1.958  14.354  0.2951 -0.4856 -0.1128
    2TMC3    C314406   2.095   2.024  14.285  0.0617  0.1654  0.5143
    2TMC3    C414407   2.210   2.164  14.481  0.0206 -0.2338 -0.3075
    2TMC3    C514408   2.131   2.223  14.388  0.7712 -0.0269  0.7254
    2TMC3    C614409   2.076   2.155  14.283 -0.3902 -0.2747  0.4874
    2TMC3     C14410   2.265   1.950  14.569 -0.7287 -0.2165 -0.1663
    2TMC3     O14411   2.240   1.835  14.548  0.3596 -0.6556  0.0701
    2TMC3     H14412   2.207   1.852  14.339 -3.8770 -1.2779  0.9792
    2TMC3    H114413   2.250   2.219  14.565  0.8116  1.7148 -1.9584
    2TMC3    H214414   2.018   2.206  14.208 -0.7328 -0.9177  0.3203
    2TMC3    C714415   2.098   2.363  14.412  0.1419  0.3674 -0.0173
    2TMC3    C814416   1.967   1.970  14.322  0.2091  0.4421  0.3862
    2TMC3    O114417   2.009   2.412  14.346 -0.3878 -0.4760  0.6729
    2TMC3    O214418   1.879   2.051  14.302  0.2325 -0.3242  0.0761
    3TCq1    O114419   2.759   3.258  14.995 -0.5307 -0.2500 -0.3451
    3TCq1    C114420   2.674   3.174  15.059  0.3651  0.9080 -0.3963
    3TCq1    O214421   2.619   3.188  15.169 -0.5655  0.0937  0.1987
    3TCq1    C214422   2.683   3.049  14.984 -0.1175  0.1677 -0.1174
    3TCq1    C314423   2.803   2.997  14.956  0.4223 -0.2807  0.1217
    3TCq1    C414424   2.815   2.891  14.864 -0.2612  0.3664 -0.4591
    3TCq1    C514425   2.696   2.855  14.808  0.1805  0.0598  0.5846
    3TCq1    C614426   2.578   2.919  14.834  0.4635 -0.7894  0.0688
    3TCq1    C714427   2.567   3.011  14.926  0.4101  0.2993 -1.0414
    3TCq1    C814428   2.465   2.909  14.745  0.2766 -0.0948 -0.2484
    3TCq1    O414429   2.405   3.015  14.726 -0.0624  0.4729 -0.2198
    3TCq1    C914430   2.947   2.830  14.830  0.1891 -0.2085 -0.8097
    3TCq1    O514431   2.950   2.735  14.745  0.1890  0.0117 -0.3725
    3TCq1    O614432   3.046   2.865  14.904 -0.1154 -0.1833  0.7309
    3TCq1    H114433   2.787   3.227  14.906 -0.3447  0.8727 -0.6815
    3TCq1    H214434   2.893   3.037  15.000  0.4778 -0.6794  0.3746
    3TCq1    H314435   2.701   2.787  14.724  1.3445  0.7232  0.1088
    3TCq1    H414436   2.474   3.059  14.955  0.5371 -0.3075  0.3547
    4MPD2     C14437   2.252   2.841  14.566  0.1812 -0.4720 -0.0388
    4MPD2    C114438   2.339   2.749  14.609  0.2877 -0.1852 -0.8139
    4MPD2    C214439   2.315   2.612  14.584  0.4765 -0.9607  0.3014
    4MPD2    C314440   2.207   2.574  14.510  0.0317  0.0045  0.0472
    4MPD2    C414441   2.122   2.667  14.461 -0.0608 -0.0184  0.0702
    4MPD2    C514442   2.148   2.800  14.484 -0.7093 -0.4321 -0.3617
    4MPD2     H14443   2.380   2.535  14.624  1.4231 -0.7788 -0.9058
    4MPD2    H114444   2.035   2.642  14.401 -0.6335 -1.6097  1.5668
    4MPD2    H214445   2.261   2.948  14.583 -0.4646 -0.3337 -0.5662
    4MPD2    H314446   2.083   2.874  14.438 -1.8534 -1.0212  0.3193
    4MPD2     N14447   2.193   2.431  14.488  1.1282 -0.1908 -0.7983
    4MPD2    H514448   2.259   2.370  14.536  0.8773  0.7772  0.7759
    4MPD2    N114449   2.448   2.786  14.690  0.5168  0.5304  0.1016
    4MPD2    H714450   2.510   2.716  14.729 -1.1771 -0.6686  0.6687
    5TMC2    C114451   1.844   1.453  14.953  0.7002  0.3300  0.4368
    5TMC2    C214452   1.807   1.501  15.077  0.5407  0.4411 -0.0245
    5TMC2    C314453   1.912   1.508  15.170  0.5632 -0.7079  0.5830
    5TMC2    C414454   1.971   1.416  14.928 -0.3821 -0.2209  0.3485
    5TMC2    C514455   2.069   1.451  15.008  0.5025 -0.1910  0.1202
    5TMC2    C614456   2.041   1.483  15.140  0.1474 -0.0215  0.0433
    5TMC2     C14457   1.767   1.503  14.842 -0.1263 -0.0191  0.3955
    5TMC2     O14458   1.647   1.482  14.845  0.6903 -0.4845  0.0865
    5TMC2     H14459   1.711   1.540  15.108 -1.0342 -3.0025 -0.6011
    5TMC2    H114460   1.985   1.384  14.825  1.8259 -0.9539  0.8869
    5TMC2    H214461   2.122   1.494  15.212  0.7116  2.3762 -0.9733
    5TMC2    C714462   2.143   1.551  14.929  0.5902  0.1204 -0.9424
    5TMC2    C814463   1.876   1.547  15.304 -0.1322 -0.4524  0.2354
    5TMC2    O114464   2.100   1.578  14.821 -0.2889  0.2316 -0.0231
    5TMC2    O214465   1.769   1.606  15.322  0.0421 -0.6723  0.4147
    5TMC2    O514466   1.931   1.453  15.387  0.1099  0.3313  0.2172
    5TMC2    H514467   1.982   1.386  15.337 -0.5386  2.4908 -3.4003
    6MPD2     C14468   1.732   1.815  14.427  0.2297  0.1472 -1.1440
    6MPD2    C114469   1.863   1.812  14.473  0.0650  0.2255 -0.4635
    6MPD2    C214470   1.898   1.737  14.582 -0.4003 -0.5697 -0.1752
    6MPD2    C314471   1.803   1.653  14.640 -0.4120 -0.5120  0.6348
    6MPD2    C414472   1.672   1.664  14.603 -0.2964  0.1494  0.5704
    6MPD2    C514473   1.642   1.742  14.496  0.5511 -0.5984 -0.1246
    6MPD2     H14474   1.998   1.737  14.622 -0.6710  1.3773  0.4854
    6MPD2    H114475   1.596   1.607  14.655 -0.0778  0.2523  1.0003
    6MPD2    H214476   1.705   1.885  14.348 -2.1474  0.2353 -0.2453
    6MPD2    H314477   1.536   1.749  14.473  0.8298 -0.8066 -1.4862
    6MPD2     N14478   1.845   1.574  14.753  0.2855  0.4565 -0.7149
    6MPD2    H514479   1.945   1.567  14.761  0.3144  0.8148 -0.7274
    6MPD2    N114480   1.971   1.861  14.405 -0.0934  0.6572  0.0482
    6MPD2    H714481   2.064   1.832  14.434  0.3223  0.2733 -1.6501
  945NH3     N114482   4.674   4.126  15.687  0.4513 -0.3856  0.1003
  945NH3     H214483   0.034   4.143  15.718  0.7748  1.0382 -1.6698
  945NH3     H314484   4.681   4.054  15.617 -2.3045 -2.7734  2.3142
  945NH3     H414485   4.642   4.082  15.772 -0.2695 -0.4599 -0.2101
  946SOD     NA14486   1.445   0.033  14.446  0.4250 -0.9474 -0.2246
  947SOD     NA14487   1.643   2.337  10.978  0.3357 -0.0633 -0.2595
  948SOD     NA14488   1.440   0.248   5.877 -0.3533  0.4597  0.4909
  949SOD     NA14489   1.276   0.722  10.397  0.0757 -0.0219  0.3174
  950SOD     NA14490   0.724   3.495   0.955 -0.0697 -0.3008  0.0125
  951SOD     NA14491   3.523   1.368   8.244 -0.0874  0.2531  0.3558
  952SOD     NA14492   4.158   1.532  17.000 -0.1800 -0.6276  0.7265
  953SOD     NA14493   0.697   0.509  16.109  0.1553  0.2838  0.0996
  954SOL     OW14494   3.620   0.348   5.125 -0.2790 -0.1446  0.0773
  954SOL    HW114495   3.596   0.255   5.129 -1.7219  0.2248 -0.3355
  954SOL    HW214496   3.655   0.365   5.037 -0.6579 -0.0095 -0.0463
  955SOL     OW14497   0.781   0.618  16.516 -0.4734 -0.2836 -0.0841
  955SOL    HW114498   0.812   0.537  16.477  0.2730 -0.1303  0.1936
  955SOL    HW214499   0.698   0.630  16.469 -0.9794  0.8298  1.0493
  956SOL     OW14500   2.699   2.928   7.226 -0.1981 -0.2879  0.1163
  956SOL    HW114501   2.609   2.945   7.199 -0.8709 -1.0227  1.8576
  956SOL    HW214502   2.731   3.016   7.248  0.6816 -1.2009  2.5917
  957SOL     OW14503   4.422   2.951   2.062  0.0093 -0.3436  0.1218
  957SOL    HW114504   4.492   2.954   1.997 -2.0422 -0.2233 -2.1022
  957SOL    HW214505   4.452   2.901   2.138 -0.8916 -1.0480  0.0306
  958SOL     OW14506   4.317   2.422  14.300 -0.2469  0.2354 -0.0749
  958SOL    HW114507   4.403   2.453  14.271 -0.1478 -1.5617 -1.7110
  958SOL    HW214508   4.302   2.342  14.251 -1.7932 -0.2054  1.1024
  959SOL     OW14509   2.929   4.148   2.280 -0.5901 -0.1868  0.1327
  959SOL    HW114510   2.842   4.127   2.247 -0.4219  0.5148 -0.7965
  959SOL    HW214511   2.960   4.197   2.203  1.2179  1.6210  2.0074
  960SOL     OW14512   3.401   1.752   4.608  0.0771  0.1558  0.1412
  960SOL    HW114513   3.328   1.689   4.607 -0.2095  0.5210 -1.3069
  960SOL    HW214514   3.356   1.824   4.652 -0.6418 -1.2058  1.6632
  961SOL     OW14515   0.900   1.253   1.776 -0.0594 -0.4340  0.8033
  961SOL    HW114516   0.804   1.257   1.775 -0.0343 -0.1047 -1.7041
  961SOL    HW214517   0.926   1.309   1.703  0.7806 -1.7374  0.1042
  962SOL     OW14518   1.828   0.086   4.883  0.1834  0.2101  0.0668
  962SOL    HW114519   1.886   0.091   4.959 -0.8998 -0.5348  0.9264
  962SOL    HW214520   1.759   0.038   4.928 -1.2034  2.5472  0.4094
  963SOL     OW14521   4.351   2.374   0.500  0.5694  0.1042 -0.3917
  963SOL    HW114522   4.361   2.293   0.450  1.4162  0.1729 -0.3213
  963SOL    HW214523   4.321   2.435   0.432 -2.3271  1.3905  2.0473
  964SOL     OW14524   0.837   0.679  16.150  0.2367  0.2228 -0.1729
  964SOL    HW114525   0.780   0.730  16.206  1.8107  2.2498 -0.4205
  964SOL    HW214526   0.927   0.678  16.181  0.0016  1.7319  0.5105
  965SOL     OW14527   2.581   0.178   5.984  0.7733  0.2231 -0.3033
  965SOL    HW114528   2.511   0.166   5.920 -1.1950 -0.9437  2.0828
  965SOL    HW214529   2.637   0.244   5.942  0.6613  1.2223  1.1390
  966SOL     OW14530   0.919   2.900   3.894 -0.3113 -0.7369 -0.1639
  966SOL    HW114531   0.985   2.917   3.827 -0.5575  0.3485 -0.1304
  966SOL    HW214532   0.866   2.828   3.860  0.8736 -2.5100  1.7695
  967SOL     OW14533   2.473   3.548   7.893  0.3223  0.5748  0.0134
  967SOL    HW114534   2.509   3.479   7.837  2.7033 -0.0674  2.3700
  967SOL    HW214535   2.548   3.562   7.951  0.3948 -0.2174  0.1085
  968SOL     OW14536   0.623   1.756  13.020  0.4735 -0.3230 -0.2141
  968SOL    HW114537   0.582   1.688  12.966  1.6642 -1.1684 -0.0789
  968SOL    HW214538   0.640   1.707  13.100  1.4338  1.9182  0.9543
  969SOL     OW14539   1.760   2.376  12.835  0.0750  0.7331  0.4870
  969SOL    HW114540   1.674   2.416  12.837 -1.1105 -1.6575 -1.4548
  969SOL    HW214541   1.762   2.350  12.742 -2.0844  1.3401  0.2803
  970SOL     OW14542   4.290   2.079   8.606  0.4539 -0.4524  0.2053
  970SOL    HW114543   4.222   2.078   8.673 -0.1773 -0.0843 -0.4249
  970SOL    HW214544   4.373   2.062   8.650  0.6744  2.4120  0.9158
  971SOL     OW14545   3.694   2.626   2.175 -0.8067  0.1575 -0.1886
  971SOL    HW114546   3.622   2.583   2.219  0.7458 -0.3051  1.8950
  971SOL    HW214547   3.661   2.716   2.183  0.1011  0.6156 -1.5430
  972SOL     OW14548   2.905   0.557   7.552  0.0583  0.2427  0.0387
  972SOL    HW114549   2.832   0.498   7.569  0.3329  0.3747  1.6626
  972SOL    HW214550   2.874   0.627   7.610  0.8109  0.6046 -0.0012
  973SOL     OW14551   0.807   0.045   3.560  0.6640  0.3062  0.2615
  973SOL    HW114552   0.766   4.695   3.549  0.1659  0.6915 -0.9141
  973SOL    HW214553   0.789   0.070   3.650  0.6532  1.0100  0.0661
  974SOL     OW14554   2.334   3.562   7.427 -0.1710  0.2189 -0.0507
  974SOL    HW114555   2.344   3.628   7.496  0.5299 -0.9319  0.9474
  974SOL    HW214556   2.295   3.487   7.472 -1.7643  1.8182  1.2341
  975SOL     OW14557   1.500   0.126   6.630 -0.1178 -0.1093  0.5013
  975SOL    HW114558   1.529   0.042   6.667  0.7924  0.3814  0.9119
  975SOL    HW214559   1.447   0.160   6.702  1.7235  4.0183 -0.0653
  976SOL     OW14560   2.500   2.388   4.178  0.7786  0.1701  0.2324
  976SOL    HW114561   2.588   2.355   4.160 -0.4939 -1.9503 -2.1594
  976SOL    HW214562   2.505   2.406   4.271  0.5413 -0.2054  0.3183
  977SOL     OW14563   1.468   2.833  10.258 -0.3880 -0.1138  0.1691
  977SOL    HW114564   1.555   2.846  10.220 -0.5575 -0.9068 -0.5187
  977SOL    HW214565   1.420   2.895  10.203  0.2400 -0.8569 -1.2421
  978SOL     OW14566   0.691   3.627   7.801 -0.2108  0.3126 -0.0055
  978SOL    HW114567   0.622   3.561   7.797 -0.7644  0.9146 -0.4870
  978SOL    HW214568   0.735   3.604   7.719 -0.0565 -0.0163  0.1703
  979SOL     OW14569   0.191   1.869   6.365 -0.2959  0.4631  0.3007
  979SOL    HW114570   0.176   1.889   6.273 -0.1203 -0.8967 -0.0264
  979SOL    HW214571   0.207   1.960   6.391 -0.4394  0.0798  1.7391
  980SOL     OW14572   2.762   2.030   0.448  0.4416  0.4926  0.0797
  980SOL    HW114573   2.686   2.082   0.475  1.0660  1.9763 -0.9860
  980SOL    HW214574   2.828   2.099   0.454  0.1212  0.4998  3.1919
  981SOL     OW14575   1.063   0.628   9.354 -0.1610 -0.0653 -0.2770
  981SOL    HW114576   1.118   0.572   9.410  0.0348  0.1076 -0.2953
  981SOL    HW214577   1.127   0.694   9.326  1.8524 -1.8475  0.0975
  982SOL     OW14578   1.209   0.435   9.149  0.2001  0.0871  0.4436
  982SOL    HW114579   1.217   0.469   9.238 -0.3002  1.2293  0.0514
  982SOL    HW214580   1.300   0.450   9.122 -0.2544 -1.8498 -2.2019
  983SOL     OW14581   4.438   3.807   7.716  0.0439 -0.2423 -0.8385
  983SOL    HW114582   4.425   3.730   7.772 -0.0132 -0.7697 -1.5826
  983SOL    HW214583   4.350   3.817   7.680 -0.0740 -1.3955 -0.8736
  984SOL     OW14584   4.134   1.249   6.352  1.0484  0.2801  0.1291
  984SOL    HW114585   4.209   1.300   6.322  0.5129  0.6476 -0.5863
  984SOL    HW214586   4.099   1.231   6.265 -1.5848  3.9420  0.4757
  985SOL     OW14587   1.091   3.838   4.451 -0.3356  0.3536 -0.1965
  985SOL    HW114588   1.063   3.783   4.525 -1.3900 -0.1652 -0.9749
  985SOL    HW214589   1.117   3.917   4.497  2.8583 -0.5540 -0.4689
  986SOL     OW14590   3.787   0.671  13.996  0.2232 -0.0431  0.3162
  986SOL    HW114591   3.729   0.595  13.988  0.2252 -0.2684  2.3047
  986SOL    HW214592   3.733   0.746  13.971 -0.5936 -0.4879  0.7258
  987SOL     OW14593   2.522   0.011  15.489  0.5909 -0.5303  0.2173
  987SOL    HW114594   2.460   0.049  15.550  0.3098  0.3060 -0.5965
  987SOL    HW214595   2.552   0.094  15.451  1.5883 -0.9627  0.0463
  988SOL     OW14596   2.238   3.908   8.889 -0.3934 -0.2496 -0.7404
  988SOL    HW114597   2.291   3.832   8.912 -2.0935 -0.7596  1.4401
  988SOL    HW214598   2.239   3.954   8.973 -0.8483  1.1615 -1.5122
  989SOL     OW14599   0.986   0.527   2.757  0.2420 -0.5443 -0.5181
  989SOL    HW114600   0.964   0.619   2.776 -2.0423 -1.4242  1.1693
  989SOL    HW214601   1.060   0.522   2.818  0.1956 -1.2390 -0.5190
  990SOL     OW14602   2.473   2.684   5.727 -0.0499  0.2070  0.1769
  990SOL    HW114603   2.412   2.610   5.717 -0.9880  1.0772 -0.5977
  990SOL    HW214604   2.546   2.647   5.679  0.9211  1.2874  0.8134
  991SOL     OW14605   0.903   1.176   5.521 -0.3343 -0.1152  0.1459
  991SOL    HW114606   0.839   1.179   5.449  3.1521 -0.5780 -2.9983
  991SOL    HW214607   0.891   1.087   5.555  0.4991 -0.8199 -1.3675
  992SOL     OW14608   0.596   4.368   1.203  0.9048  0.0480  0.0963
  992SOL    HW114609   0.546   4.382   1.284  2.6010 -0.0776  1.1554
  992SOL    HW214610   0.601   4.461   1.180 -1.2944  0.8031  2.5990
  993SOL     OW14611   0.142   2.898   5.720  1.1348  0.4472  0.2343
  993SOL    HW114612   0.164   2.977   5.770 -0.7485  1.0650  0.0885
  993SOL    HW214613   0.228   2.871   5.689 -0.7501 -3.1393 -1.8426
  994SOL     OW14614   2.480   2.324  14.412  0.1206 -0.0050 -0.0924
  994SOL    HW114615   2.512   2.288  14.495 -2.3070 -0.7988  0.4971
  994SOL    HW214616   2.550   2.312  14.348  0.3238 -0.2965  0.1815
  995SOL     OW14617   0.701   3.305   4.097 -0.3578 -0.1675 -0.4145
  995SOL    HW114618   0.741   3.260   4.171  1.1536 -0.1438 -1.2184
  995SOL    HW214619   0.749   3.283   4.018 -1.3432 -0.5716 -0.9033
  996SOL     OW14620   0.303   1.856   3.893 -0.0181  0.2638 -0.3048
  996SOL    HW114621   0.255   1.790   3.843  0.1345 -0.8116  0.9505
  996SOL    HW214622   0.240   1.903   3.948 -0.2606 -0.0299 -0.3303
  997SOL     OW14623   4.091   4.102   2.976  0.2231 -0.0777  0.4281
  997SOL    HW114624   4.071   4.157   2.900  0.0467  0.4147  0.8295
  997SOL    HW214625   4.027   4.146   3.032  0.6753 -0.9528  1.6271
  998SOL     OW14626   0.161   3.113   3.887 -0.0579 -0.1992 -0.1900
  998SOL    HW114627   0.079   3.080   3.923  0.8581 -2.8969 -0.5488
  998SOL    HW214628   0.222   3.115   3.961 -2.8023 -1.0595  2.0815
  999SOL     OW14629   3.207   2.986   6.390  0.6372  0.1670 -0.0870
  999SOL    HW114630   3.199   3.082   6.396  1.8114  0.2489  0.0828
  999SOL    HW214631   3.206   2.967   6.484 -1.0723  2.2542  0.3329
 1000SOL     OW14632   4.589   2.999  16.231  0.3151  0.2426  0.6341
 1000SOL    HW114633   4.537   2.972  16.156 -0.2560  0.7572  0.8455
 1000SOL    HW214634   4.532   3.068  16.262  2.6934  2.7186 -0.4904
 1001SOL     OW14635   2.945   2.948  12.479 -0.0578  0.0501  0.0928
 1001SOL    HW114636   3.016   2.982  12.424  0.5777  1.1727  1.6162
 1001SOL    HW214637   2.881   3.019  12.473  0.8397  0.9597  1.1927
 1002SOL     OW14638   0.389   2.940  14.474 -0.1485  0.5903 -0.3319
 1002SOL    HW114639   0.314   2.899  14.516 -1.1004  1.6996 -0.9606
 1002SOL    HW214640   0.445   2.861  14.473 -3.8916 -2.0521 -1.1337
 1003SOL     OW14641   3.763   2.009   9.159 -0.3822 -0.0950 -0.1029
 1003SOL    HW114642   3.825   2.029   9.230  1.0239  1.4875 -1.7985
 1003SOL    HW214643   3.778   2.084   9.102 -2.0881  2.5881  2.9679
 1004SOL     OW14644   3.776   0.500   4.473 -0.4287  1.0733  0.0674
 1004SOL    HW114645   3.821   0.462   4.397 -2.7606 -1.1315 -0.1932
 1004SOL    HW214646   3.687   0.472   4.452 -0.4965  0.8191  0.7163
 1005SOL     OW14647   1.281   3.766   5.042  0.4192  0.1875  0.7863
 1005SOL    HW114648   1.250   3.846   5.085 -0.6157 -1.0572  2.3407
 1005SOL    HW214649   1.214   3.769   4.973  0.2235 -0.9330  0.9370
 1006SOL     OW14650   1.318   4.222   1.539  0.4482 -0.3997 -0.2640
 1006SOL    HW114651   1.233   4.250   1.572  0.2687  1.6160 -2.4040
 1006SOL    HW214652   1.284   4.163   1.471 -0.7836 -0.0304  0.0315
 1007SOL     OW14653   0.841   0.683   4.918 -0.0636  0.9294 -0.1916
 1007SOL    HW114654   0.909   0.702   4.853 -0.8875  0.2448 -1.2611
 1007SOL    HW214655   0.788   0.760   4.895  0.8018  1.7609  0.6181
 1008SOL     OW14656   1.455   1.144  14.372  0.0478 -0.2469 -0.8527
 1008SOL    HW114657   1.524   1.132  14.307 -0.6223  0.7299 -1.7566
 1008SOL    HW214658   1.387   1.184  14.317 -1.5682 -0.8078  0.7348
 1009SOL     OW14659   1.889   4.579   6.592 -0.0336  0.0141  0.2113
 1009SOL    HW114660   1.827   4.579   6.518 -1.9612  0.8372  1.8382
 1009SOL    HW214661   1.866   4.667   6.622 -0.6052 -0.4637  1.1624
 1010SOL     OW14662   2.143   0.002  10.098  0.2713 -0.8027 -0.1842
 1010SOL    HW114663   2.194   4.719  10.177  2.1934  0.0187 -1.2411
 1010SOL    HW214664   2.086   0.072  10.131  1.4003 -0.0885  0.2410
 1011SOL     OW14665   1.754   0.728   5.129 -0.4628  0.3353  0.2744
 1011SOL    HW114666   1.714   0.652   5.173 -1.0925  1.7511  2.1519
 1011SOL    HW214667   1.846   0.715   5.149 -0.2354  1.4429 -0.0764
 1012SOL     OW14668   2.336   0.495   5.013 -0.0679  0.3781 -0.1895
 1012SOL    HW114669   2.279   0.523   5.085 -0.0766  0.2456 -0.1448
 1012SOL    HW214670   2.275   0.444   4.961 -0.6823  1.4821 -0.5517
 1013SOL     OW14671   1.847   0.167   4.640 -0.1473 -0.1425  0.0896
 1013SOL    HW114672   1.826   0.131   4.726 -0.9164 -0.8030 -0.3796
 1013SOL    HW214673   1.796   0.106   4.586  0.4071  1.8309 -2.6550
 1014SOL     OW14674   4.054   3.107  15.467 -0.9736 -0.0882 -0.2195
 1014SOL    HW114675   4.129   3.162  15.490 -0.0482 -1.2282 -0.5175
 1014SOL    HW214676   4.027   3.072  15.552  1.9002  0.3392  0.8652
 1015SOL     OW14677   1.945   2.050   7.767 -0.3543  0.1444 -0.0410
 1015SOL    HW114678   1.873   2.113   7.767 -2.7616 -2.6465 -0.0442
 1015SOL    HW214679   1.941   2.020   7.677 -0.4734  0.6798 -0.2122
 1016SOL     OW14680   3.069   0.831   7.656  0.3357  0.0248  0.3882
 1016SOL    HW114681   3.099   0.902   7.600  1.6669 -1.0743 -0.2667
 1016SOL    HW214682   2.992   0.804   7.605  1.1944  1.0873 -1.4365
 1017SOL     OW14683   3.411   2.292   1.064 -0.1082 -0.3424  0.2615
 1017SOL    HW114684   3.426   2.386   1.050  1.6492 -0.6177  0.2879
 1017SOL    HW214685   3.446   2.280   1.152 -1.8275 -4.0149  0.4260
 1018SOL     OW14686   0.642   0.903   4.028  0.1637  0.2710  0.2426
 1018SOL    HW114687   0.611   0.823   4.071  0.7311 -0.8068 -1.3410
 1018SOL    HW214688   0.557   0.942   4.007 -0.3471 -1.4479 -0.9226
 1019SOL     OW14689   3.392   1.309   2.324  0.1793 -0.1410 -0.4149
 1019SOL    HW114690   3.353   1.396   2.332 -0.1976 -0.5713  2.3661
 1019SOL    HW214691   3.364   1.260   2.401  2.9814 -1.0546  0.0482
 1020SOL     OW14692   0.002   2.367   6.610  0.3155  1.0751  0.1670
 1020SOL    HW114693   4.724   2.456   6.643  0.1586  0.6962  1.1226
 1020SOL    HW214694   4.657   2.359   6.557  0.0898  0.4587  0.5976
 1021SOL     OW14695   1.287   2.109  15.812  0.2427  0.0926 -0.6108
 1021SOL    HW114696   1.249   2.022  15.815  0.2425  0.1325  0.3756
 1021SOL    HW214697   1.216   2.162  15.776  0.1024 -0.8482 -1.7021
 1022SOL     OW14698   1.342   0.721  12.915 -0.2113  0.1626  0.4088
 1022SOL    HW114699   1.433   0.710  12.887 -1.1585  0.7349 -2.8301
 1022SOL    HW214700   1.328   0.643  12.968 -1.0412 -1.2067 -1.8515
 1023SOL     OW14701   4.707   3.779   3.442  0.0072  0.1833 -0.2005
 1023SOL    HW114702   4.717   3.843   3.513  1.3867  0.0484 -0.2639
 1023SOL    HW214703   4.612   3.778   3.433  0.0317 -2.8545  0.0918
 1024SOL     OW14704   2.378   0.255   6.236  0.6272  0.3773  0.4517
 1024SOL    HW114705   2.437   0.308   6.290  1.5317  2.1672 -2.2610
 1024SOL    HW214706   2.392   0.297   6.151 -1.0779  0.3016  0.1275
 1025SOL     OW14707   2.634   3.696   4.197 -0.3600 -0.2194 -0.2742
 1025SOL    HW114708   2.690   3.662   4.267  0.1142  2.3862  0.6019
 1025SOL    HW214709   2.580   3.621   4.171  1.3212 -2.0887  1.6533
 1026SOL     OW14710   2.421   0.868   3.951  0.2273  0.2430 -0.4163
 1026SOL    HW114711   2.467   0.793   3.989 -1.0949 -0.6348 -0.5167
 1026SOL    HW214712   2.468   0.943   3.986  1.7398 -0.0309 -1.8368
 1027SOL     OW14713   2.162   1.447   8.735  0.1747  0.0971  0.1273
 1027SOL    HW114714   2.192   1.501   8.807  0.2429  1.5660 -0.9963
 1027SOL    HW214715   2.066   1.445   8.739  0.2113  0.8098  1.1290
 1028SOL     OW14716   1.593   1.112   7.352  0.3078 -0.3025  0.4130
 1028SOL    HW114717   1.526   1.102   7.419  0.8762 -3.4376  0.4884
 1028SOL    HW214718   1.561   1.198   7.323 -1.3626 -1.1032 -0.1089
 1029SOL     OW14719   2.084   2.175   2.789  0.5085 -0.2047 -0.4791
 1029SOL    HW114720   2.053   2.260   2.756 -0.5292 -0.2236  0.4454
 1029SOL    HW214721   2.017   2.156   2.854  0.4464  0.3300 -0.3875
 1030SOL     OW14722   0.504   1.553   7.062 -0.1633 -0.3701 -0.9660
 1030SOL    HW114723   0.593   1.536   7.094  0.2195  0.1965 -1.7337
 1030SOL    HW214724   0.465   1.466   7.067 -1.1915  0.2004  0.7576
 1031SOL     OW14725   0.525   0.005   5.202 -0.6611  0.3084 -0.3505
 1031SOL    HW114726   0.481   4.656   5.187 -0.7892  0.5470 -1.2923
 1031SOL    HW214727   0.494   0.033   5.288 -2.2270 -1.7291 -0.2369
 1032SOL     OW14728   2.796   2.526   2.808 -0.0021  1.0173  0.3021
 1032SOL    HW114729   2.831   2.611   2.781  1.8185 -0.2915 -1.4088
 1032SOL    HW214730   2.752   2.563   2.884 -1.5237 -0.4799  0.1341
 1033SOL     OW14731   4.079   3.084   5.217 -0.0134  0.6904  0.3842
 1033SOL    HW114732   4.069   3.068   5.124  2.2570 -1.8645  0.5831
 1033SOL    HW214733   4.154   3.142   5.224  0.6812 -0.5829  3.7632
 1034SOL     OW14734   2.976   0.647   6.855 -0.2548  0.0956 -0.4041
 1034SOL    HW114735   2.931   0.656   6.940 -0.4529  1.4123 -0.6519
 1034SOL    HW214736   2.949   0.557   6.835  0.8192 -0.0284 -1.2488
 1035SOL     OW14737   3.223   3.024  12.860 -0.5381 -0.1161  0.0648
 1035SOL    HW114738   3.177   3.108  12.855  0.0392  0.1071 -1.7661
 1035SOL    HW214739   3.293   3.057  12.917 -1.0883  0.6824  0.2827
 1036SOL     OW14740   2.367   1.845   0.600 -0.4103 -0.4950 -0.1446
 1036SOL    HW114741   2.273   1.843   0.580 -0.2843 -0.5949 -0.7300
 1036SOL    HW214742   2.401   1.756   0.607  1.2182  0.0820 -0.8365
 1037SOL     OW14743   2.841   1.056  14.840 -0.6311  0.5183 -0.2888
 1037SOL    HW114744   2.771   0.998  14.809  0.0539 -1.2404  1.4109
 1037SOL    HW214745   2.818   1.060  14.933  0.1619 -1.3079 -0.0221
 1038SOL     OW14746   0.916   3.324  12.854  0.1176  0.4902 -0.0085
 1038SOL    HW114747   0.927   3.397  12.793 -0.4011  0.5311 -0.0519
 1038SOL    HW214748   0.965   3.261  12.800  0.0008 -0.9974  1.6567
 1039SOL     OW14749   3.489   2.290   2.741  0.6752  0.2038  0.2379
 1039SOL    HW114750   3.419   2.267   2.679  0.6490  0.5054  0.1572
 1039SOL    HW214751   3.526   2.203   2.755  0.5323  0.1219  0.1151
 1040SOL     OW14752   3.339   4.278   8.463 -0.0402  0.1527 -0.0404
 1040SOL    HW114753   3.382   4.359   8.488 -1.2003 -0.1691  2.9859
 1040SOL    HW214754   3.361   4.263   8.371  1.5825 -0.9908  0.5341
 1041SOL     OW14755   2.994   2.856  11.363  0.0465 -0.0335  0.3886
 1041SOL    HW114756   2.959   2.819  11.444 -0.0562 -0.4508  0.1526
 1041SOL    HW214757   3.043   2.931  11.397  3.1751 -1.9395  0.1216
 1042SOL     OW14758   1.084   0.883  16.254 -0.4965 -0.3372 -0.4936
 1042SOL    HW114759   1.162   0.885  16.310 -0.7516  3.0799 -0.2965
 1042SOL    HW214760   1.096   0.963  16.203  1.2180 -0.0477  0.3416
 1043SOL     OW14761   3.065   3.347   2.680 -0.0386  0.0861 -0.4225
 1043SOL    HW114762   3.127   3.296   2.733 -0.5240  1.5437  1.5396
 1043SOL    HW214763   3.064   3.427   2.733 -0.9755  0.1670 -0.5756
 1044SOL     OW14764   3.271   3.188   7.549 -0.2471  0.2288  0.2040
 1044SOL    HW114765   3.185   3.231   7.554 -0.2384  0.3922 -1.0564
 1044SOL    HW214766   3.277   3.137   7.630  0.6892 -0.1114 -0.0859
 1045SOL     OW14767   3.056   2.890  10.067  0.2509  0.7595  0.1116
 1045SOL    HW114768   3.075   2.844  10.149 -0.9333  2.6034  1.4182
 1045SOL    HW214769   3.051   2.980  10.099  1.8473  0.2756  1.7208
 1046SOL     OW14770   4.456   1.545  12.248  1.0021  0.0081  0.3761
 1046SOL    HW114771   4.470   1.632  12.286 -1.1117  1.0813 -1.2445
 1046SOL    HW214772   4.524   1.490  12.285  0.1550 -0.0947  1.7944
 1047SOL     OW14773   2.649   2.845   4.408  0.8243  0.3680  0.2021
 1047SOL    HW114774   2.695   2.793   4.343 -0.3458 -1.1312  0.5885
 1047SOL    HW214775   2.625   2.912   4.344 -1.3429  3.3510  4.0762
 1048SOL     OW14776   4.395   0.840   8.935  0.5597  0.3497  0.2114
 1048SOL    HW114777   4.352   0.852   9.019 -1.4469  1.1404 -0.9331
 1048SOL    HW214778   4.359   0.756   8.908 -1.7300  1.7983 -1.2288
 1049SOL     OW14779   1.003   0.335   9.502  0.3593 -0.0810  0.4757
 1049SOL    HW114780   1.015   0.241   9.512 -0.7561 -0.2199  0.5079
 1049SOL    HW214781   0.993   0.342   9.407 -0.8706  0.2335  0.6287
 1050SOL     OW14782   0.784   3.917   4.554 -0.1779 -0.4541  0.1347
 1050SOL    HW114783   0.721   3.943   4.488 -0.3155  1.7018  1.1219
 1050SOL    HW214784   0.766   3.976   4.627  0.4500 -0.0972  0.0049
 1051SOL     OW14785   2.659   0.355   7.949  0.5183  0.0257  0.4294
 1051SOL    HW114786   2.570   0.344   7.981  1.0275  1.7993  2.5156
 1051SOL    HW214787   2.704   0.291   8.004  1.1391  0.5736  0.5697
 1052SOL     OW14788   4.118   0.345   9.512  0.0409  0.1355 -0.4417
 1052SOL    HW114789   4.201   0.348   9.560  0.2024  1.2826 -0.7806
 1052SOL    HW214790   4.058   0.299   9.570 -1.5069  0.4225 -1.8048
 1053SOL     OW14791   0.051   1.816   7.941  0.5094 -0.1391  0.3073
 1053SOL    HW114792   0.106   1.739   7.935  0.5520 -0.2225  1.6302
 1053SOL    HW214793   0.093   1.882   7.886 -1.1231  1.1878  0.6243
 1054SOL     OW14794   4.479   4.577   7.464  0.3303 -0.0672  0.5153
 1054SOL    HW114795   4.484   4.669   7.491 -0.8526  0.1958 -0.1931
 1054SOL    HW214796   4.506   4.537   7.547 -1.2891 -1.5358  0.3311
 1055SOL     OW14797   2.830   3.126   6.396  0.1773  0.5435 -0.0384
 1055SOL    HW114798   2.787   3.084   6.470 -1.3931  0.5822 -0.9404
 1055SOL    HW214799   2.829   3.058   6.329  1.3980 -0.8873  1.3802
 1056SOL     OW14800   0.219   0.428  11.646  0.0465 -0.2837 -0.1868
 1056SOL    HW114801   0.246   0.472  11.565 -1.3889 -0.0778 -0.5461
 1056SOL    HW214802   0.247   0.503  11.699 -0.3858 -1.6195  1.9402
 1057SOL     OW14803   0.709   1.740   8.568 -0.1565  0.2845  0.0291
 1057SOL    HW114804   0.798   1.773   8.558 -1.0931  1.9645 -2.5826
 1057SOL    HW214805   0.665   1.805   8.514 -0.1203 -0.7789 -1.2691
 1058SOL     OW14806   0.288   0.700   0.567  0.2161 -0.2273 -0.2728
 1058SOL    HW114807   0.243   0.784   0.558 -0.1983 -0.6490 -2.0432
 1058SOL    HW214808   0.211   0.643   0.575  0.6331 -1.1075 -2.5774
 1059SOL     OW14809   0.074   3.008   5.207 -0.4796  0.0978 -0.3194
 1059SOL    HW114810   0.009   3.070   5.238 -2.4662 -1.5902 -1.1297
 1059SOL    HW214811   0.137   3.014   5.279 -1.1490 -3.4491  0.5645
 1060SOL     OW14812   4.106   3.204   8.254  0.2379  0.2117 -0.2505
 1060SOL    HW114813   4.076   3.145   8.323  0.7274 -0.7162 -0.8381
 1060SOL    HW214814   4.183   3.153   8.230 -0.2721 -1.0900  0.9032
 1061SOL     OW14815   1.912   4.044   2.303  0.0453 -0.1901 -0.6285
 1061SOL    HW114816   1.940   4.136   2.297 -2.9948  0.7514 -0.5756
 1061SOL    HW214817   1.826   4.047   2.261  0.5124  2.5622 -1.3940
 1062SOL     OW14818   0.893   1.093  15.928 -0.8412  0.1730  0.7011
 1062SOL    HW114819   0.861   1.003  15.935  0.3058 -0.4068 -1.6252
 1062SOL    HW214820   0.985   1.086  15.901 -1.1828 -3.9887  0.7422
 1063SOL     OW14821   0.164   4.145   2.096 -0.3559  0.4054 -0.4959
 1063SOL    HW114822   0.111   4.081   2.144 -0.6834 -0.6727 -2.2874
 1063SOL    HW214823   0.109   4.218   2.069 -0.8670 -0.3448 -1.4657
 1064SOL     OW14824   4.322   3.824   4.762  0.0263  0.2523 -0.2399
 1064SOL    HW114825   4.280   3.749   4.804 -1.1145 -0.2007 -2.1545
 1064SOL    HW214826   4.407   3.817   4.805 -0.8842  0.8279  1.6255
 1065SOL     OW14827   3.258   2.403   9.992 -0.0525 -0.1456  0.6544
 1065SOL    HW114828   3.313   2.395  10.070 -0.3747  0.7387  0.9732
 1065SOL    HW214829   3.288   2.486   9.955 -0.8751 -0.5991 -1.0461
 1066SOL     OW14830   3.947   1.783   5.509  0.3199  0.2279 -0.1226
 1066SOL    HW114831   3.982   1.701   5.473 -0.7655  0.4498 -1.7033
 1066SOL    HW214832   3.888   1.815   5.440 -1.8396 -0.9812  1.1804
 1067SOL     OW14833   0.339   1.084   3.510  0.2003 -0.1601 -0.2739
 1067SOL    HW114834   0.262   1.027   3.511 -1.4444  2.0434  0.0877
 1067SOL    HW214835   0.295   1.167   3.532 -1.6485 -0.9943 -0.8235
 1068SOL     OW14836   0.062   0.476  14.195 -0.1664  0.1483  0.1587
 1068SOL    HW114837   4.728   0.539  14.174 -1.2324 -0.4049  2.0457
 1068SOL    HW214838   0.048   0.411  14.126  1.5342 -0.1310  0.0695
 1069SOL     OW14839   2.634   0.420   2.446  0.0521 -0.7932  0.3263
 1069SOL    HW114840   2.613   0.360   2.518  1.6445  0.1073  1.5424
 1069SOL    HW214841   2.568   0.396   2.381 -0.9918  1.9436  0.3739
 1070SOL     OW14842   4.054   4.331  10.087 -0.1625 -0.3909  0.0490
 1070SOL    HW114843   4.060   4.312   9.993 -0.6101  1.0129 -0.2612
 1070SOL    HW214844   3.970   4.289  10.099 -0.1588 -1.4129 -3.3705
 1071SOL     OW14845   4.003   0.751   0.259  0.4700 -0.3143 -0.4530
 1071SOL    HW114846   3.994   0.669   0.210 -2.1991 -1.0269  1.2191
 1071SOL    HW214847   3.935   0.800   0.213  0.8975  1.3809  0.7162
 1072SOL     OW14848   4.045   2.811   5.517  0.0112  0.0637  0.6316
 1072SOL    HW114849   4.109   2.742   5.535 -0.3647 -0.6650 -0.9187
 1072SOL    HW214850   4.007   2.820   5.605 -0.2413  0.4740  0.4798
 1073SOL     OW14851   0.018   3.185   6.014 -0.3658  0.2557  0.8768
 1073SOL    HW114852   4.710   3.260   6.056 -2.4710  0.2156 -1.2713
 1073SOL    HW214853   4.684   3.160   5.953 -0.8207  0.0789  1.4696
 1074SOL     OW14854   1.868   3.872   4.871 -0.6797 -0.5578 -0.1635
 1074SOL    HW114855   1.820   3.950   4.897 -0.6493 -1.0687  1.3999
 1074SOL    HW214856   1.946   3.883   4.925 -0.8996  2.1728 -0.3878
 1075SOL     OW14857   2.524   3.800   8.494  0.4820 -0.0707 -0.4164
 1075SOL    HW114858   2.519   3.746   8.415  0.7234 -0.4920 -0.1462
 1075SOL    HW214859   2.619   3.812   8.502  0.3927  2.1112 -2.7616
 1076SOL     OW14860   2.980   2.349   4.280  0.2960  0.3552 -0.1054
 1076SOL    HW114861   3.068   2.356   4.244  0.6512  2.2656  1.1378
 1076SOL    HW214862   2.982   2.418   4.346 -2.0330 -1.6448  2.0489
 1077SOL     OW14863   2.799   0.443  10.816  0.0817  0.5274 -0.2666
 1077SOL    HW114864   2.779   0.413  10.904  0.4931  0.1275 -0.3102
 1077SOL    HW214865   2.735   0.513  10.807  0.7660  1.0541 -1.0345
 1078SOL     OW14866   2.887   1.503   2.381  0.4040 -0.1891  0.0915
 1078SOL    HW114867   2.879   1.430   2.443 -1.7476  1.0331  1.2161
 1078SOL    HW214868   2.978   1.529   2.394  0.4373 -0.7244  0.9327
 1079SOL     OW14869   3.297   0.697   7.723  0.7076  0.5975 -0.3882
 1079SOL    HW114870   3.266   0.688   7.813 -0.7613 -3.3858 -1.2706
 1079SOL    HW214871   3.218   0.736   7.686  0.5800  0.5766 -0.1377
 1080SOL     OW14872   1.272   4.552   0.976  0.2696 -0.1148 -0.3813
 1080SOL    HW114873   1.364   4.576   0.967  0.5418 -0.9242  0.3540
 1080SOL    HW214874   1.238   4.540   0.887  0.8490  0.5118 -0.6925
 1081SOL     OW14875   3.817   1.713  10.165 -0.0695 -0.4372  0.2242
 1081SOL    HW114876   3.838   1.783  10.226  1.2257 -0.7839  0.1888
 1081SOL    HW214877   3.883   1.647  10.187  0.0731 -0.2696  0.2908
 1082SOL     OW14878   3.027   4.476   9.603 -0.5729 -0.6693 -0.1982
 1082SOL    HW114879   3.027   4.416   9.678  0.8665 -0.6961 -0.2116
 1082SOL    HW214880   3.105   4.528   9.622 -0.4605 -1.1643  0.6982
 1083SOL     OW14881   4.511   1.333   8.072  0.0383  0.4287 -0.0570
 1083SOL    HW114882   4.497   1.340   8.167  2.6772 -1.8863  0.5150
 1083SOL    HW214883   4.602   1.304   8.064  0.3582  1.6428 -0.9657
 1084SOL     OW14884   4.398   0.499   3.876  0.1856  0.0737 -0.6720
 1084SOL    HW114885   4.481   0.479   3.919 -0.5459  0.9424  1.1771
 1084SOL    HW214886   4.404   0.438   3.803  1.0359  1.6615 -1.9109
 1085SOL     OW14887   3.372   2.050   8.468 -0.2085 -0.1512  0.5995
 1085SOL    HW114888   3.433   2.078   8.399  0.2130 -2.2413  0.1344
 1085SOL    HW214889   3.430   2.051   8.544  1.1076  1.2329 -0.4177
 1086SOL     OW14890   2.496   2.114   0.494  0.2983  0.2669 -0.8367
 1086SOL    HW114891   2.436   2.051   0.533  1.6738  0.0924  0.9665
 1086SOL    HW214892   2.431   2.163   0.443  1.2996  2.3062 -0.1561
 1087SOL     OW14893   0.667   0.192   4.277 -0.0421 -0.1471 -0.6177
 1087SOL    HW114894   0.709   0.270   4.312  1.5270 -1.6610  0.8534
 1087SOL    HW214895   0.633   0.156   4.359  1.4364 -2.4373 -0.9961
 1088SOL     OW14896   2.633   0.778   6.595  0.6476 -0.5343 -0.6635
 1088SOL    HW114897   2.611   0.697   6.641  2.8551 -0.3627  0.7239
 1088SOL    HW214898   2.658   0.832   6.670 -0.9704 -0.7764  0.0608
 1089SOL     OW14899   2.254   4.130   4.937 -0.1942 -0.3638 -0.0390
 1089SOL    HW114900   2.336   4.178   4.946 -0.4357  0.0826 -0.2022
 1089SOL    HW214901   2.193   4.178   4.994 -1.0210  0.7000 -1.8509
 1090SOL     OW14902   1.091   0.782   7.367 -0.4159  0.0096 -0.8145
 1090SOL    HW114903   1.142   0.758   7.290  0.3916 -0.6805 -0.0577
 1090SOL    HW214904   1.109   0.876   7.374 -0.3428  0.0691 -1.7044
 1091SOL     OW14905   3.691   0.099  12.084 -0.2003 -0.2948 -0.4070
 1091SOL    HW114906   3.764   0.074  12.141  0.6889 -0.5699 -1.6489
 1091SOL    HW214907   3.724   0.182  12.047 -1.3855  0.6941  0.7740
 1092SOL     OW14908   2.625   3.555  13.130  0.6973 -0.7832 -0.1343
 1092SOL    HW114909   2.586   3.493  13.191 -1.0095  2.3342  1.9133
 1092SOL    HW214910   2.580   3.635  13.156  1.7975 -0.0681 -0.4627
 1093SOL     OW14911   0.710   3.744   5.614 -0.7163 -0.1673 -0.1320
 1093SOL    HW114912   0.648   3.814   5.633 -1.9479 -1.6457  1.2607
 1093SOL    HW214913   0.654   3.666   5.607 -0.7892 -0.0539 -0.8754
 1094SOL     OW14914   3.279   4.614   2.089  0.2341  0.4664  0.0983
 1094SOL    HW114915   3.350   4.549   2.084 -0.3535 -0.2808  1.5612
 1094SOL    HW214916   3.325   4.688   2.049 -0.3755  0.3203 -0.8846
 1095SOL     OW14917   3.350   3.347  15.423 -0.2035 -0.1890 -0.0676
 1095SOL    HW114918   3.286   3.402  15.379  1.1783  1.8645  0.5188
 1095SOL    HW214919   3.415   3.413  15.447 -1.9757  1.6592 -0.4197
 1096SOL     OW14920   1.595   1.593   2.592  0.1197 -0.1053 -0.1055
 1096SOL    HW114921   1.501   1.594   2.571  0.0355 -0.1629  0.2749
 1096SOL    HW214922   1.617   1.684   2.610  0.7787 -0.2079 -0.4032
 1097SOL     OW14923   4.187   3.573   2.642 -0.2236  0.2377 -0.3229
 1097SOL    HW114924   4.205   3.660   2.606 -0.3586 -0.0391 -1.0670
 1097SOL    HW214925   4.111   3.588   2.698 -0.1804  0.9204 -0.4428
 1098SOL     OW14926   3.436   3.530   9.142 -0.4164 -0.2394 -0.1079
 1098SOL    HW114927   3.343   3.534   9.164 -0.5822 -1.3905 -0.6324
 1098SOL    HW214928   3.442   3.435   9.137  0.5110 -0.3869  3.6384
 1099SOL     OW14929   3.333   2.725  12.553  0.2889 -0.5801  0.1680
 1099SOL    HW114930   3.343   2.817  12.575  0.6168 -0.5980  0.0869
 1099SOL    HW214931   3.341   2.690  12.642  2.0191  1.7618  0.9284
 1100SOL     OW14932   0.145   4.442   9.009  0.3401 -0.2310 -0.4773
 1100SOL    HW114933   0.103   4.509   9.062  2.2751  0.7842 -0.2430
 1100SOL    HW214934   0.067   4.386   9.003 -0.2753  0.7221 -1.4156
 1101SOL     OW14935   3.193   0.447  14.964 -0.4993 -0.0946  0.5190
 1101SOL    HW114936   3.230   0.491  14.887 -1.0818  0.2886  0.4529
 1101SOL    HW214937   3.103   0.427  14.938 -1.6144  0.6550  3.7292
 1102SOL     OW14938   3.820   4.539  10.205 -0.4641  0.6311  0.1989
 1102SOL    HW114939   3.823   4.603  10.133 -0.5807  2.9820  2.3133
 1102SOL    HW214940   3.762   4.580  10.269 -1.0361  0.2731 -0.0913
 1103SOL     OW14941   1.063   0.184  12.267 -0.1812 -0.4654  0.2008
 1103SOL    HW114942   1.138   0.173  12.210 -1.0718 -0.2524 -1.0150
 1103SOL    HW214943   0.991   0.163  12.207 -1.1376 -0.2692  1.2605
 1104SOL     OW14944   2.782   1.705   3.671 -0.1236  0.4876  0.5674
 1104SOL    HW114945   2.692   1.728   3.645 -0.5818  0.8352  2.4640
 1104SOL    HW214946   2.771   1.610   3.678  1.3078  0.4023  1.5007
 1105SOL     OW14947   0.573   0.986   1.499 -0.4685  0.2699 -0.7204
 1105SOL    HW114948   0.603   0.973   1.589 -0.7251  0.2066 -0.6444
 1105SOL    HW214949   0.648   0.962   1.445 -1.0476 -2.5398 -0.2773
 1106SOL     OW14950   0.960   0.036   4.905 -0.0395 -0.4383 -0.1594
 1106SOL    HW114951   0.890   0.008   4.964 -1.0885 -0.3714 -1.3760
 1106SOL    HW214952   1.020   4.697   4.892 -1.6728 -1.8905  0.6663
 1107SOL     OW14953   0.124   3.035  11.538  0.2245  0.2321  0.0542
 1107SOL    HW114954   0.035   3.069  11.554 -0.3385 -0.3017 -1.9889
 1107SOL    HW214955   0.106   2.943  11.520 -0.7030  0.3793  0.1990
 1108SOL     OW14956   4.093   3.382   5.841 -0.2128 -0.5605  0.4497
 1108SOL    HW114957   4.032   3.317   5.875 -1.5984  0.4194 -0.1645
 1108SOL    HW214958   4.032   3.455   5.841  0.0053 -0.3746 -0.3308
 1109SOL     OW14959   2.919   3.192   8.660 -0.3858 -0.1446  0.3608
 1109SOL    HW114960   2.856   3.223   8.595 -0.6924  0.2908  0.8618
 1109SOL    HW214961   2.919   3.260   8.728 -0.6379  0.7065 -0.5009
 1110SOL     OW14962   3.039   1.381   3.608  0.2914  0.1480  0.0763
 1110SOL    HW114963   2.966   1.399   3.668  0.0773 -0.6880  0.0651
 1110SOL    HW214964   3.049   1.471   3.578 -2.9441  0.8471  1.1195
 1111SOL     OW14965   3.237   4.433   9.828 -0.0540 -0.0124  0.0082
 1111SOL    HW114966   3.240   4.340   9.853  0.3336  0.5343  2.0675
 1111SOL    HW214967   3.285   4.444   9.746  0.7335  0.0524  0.4677
 1112SOL     OW14968   4.233   0.567   6.609 -0.0875 -0.4128 -0.2569
 1112SOL    HW114969   4.242   0.483   6.654  1.7722 -0.3390 -0.4788
 1112SOL    HW214970   4.317   0.606   6.632 -1.0853  0.4405  1.9712
 1113SOL     OW14971   0.047   4.249   6.574 -0.1615  0.5127  0.0774
 1113SOL    HW114972   4.710   4.265   6.513 -0.8305  3.3509  1.6199
 1113SOL    HW214973   0.033   4.313   6.644 -0.2440  0.6119 -0.0288
 1114SOL     OW14974   3.645   0.721   8.251  0.4352 -0.4751  0.1199
 1114SOL    HW114975   3.631   0.803   8.204 -1.6178 -2.2641 -2.4421
 1114SOL    HW214976   3.607   0.657   8.191 -2.3085  0.2700  1.1064
 1115SOL     OW14977   0.754   0.296   1.242  0.1368 -0.4135  0.2341
 1115SOL    HW114978   0.709   0.223   1.200 -2.5654  0.5861  1.4538
 1115SOL    HW214979   0.847   0.290   1.217 -0.0688 -0.9390 -0.4277
 1116SOL     OW14980   2.512   3.119   7.538  0.2082 -0.9095 -0.4373
 1116SOL    HW114981   2.416   3.124   7.545  0.2169 -1.6163  0.1817
 1116SOL    HW214982   2.518   3.029   7.507 -0.5282 -1.1301  0.0596
 1117SOL     OW14983   2.914   3.351   8.894  0.3783  0.0247  0.0429
 1117SOL    HW114984   2.873   3.405   8.961 -2.0354  0.7772 -2.0772
 1117SOL    HW214985   3.005   3.372   8.915  0.3838  0.1281 -0.0841
 1118SOL     OW14986   4.602   0.609   4.470 -0.3231 -0.1836  0.0904
 1118SOL    HW114987   4.591   0.686   4.413  2.8095  1.0082  1.1333
 1118SOL    HW214988   4.562   0.541   4.415  0.6572  0.0335 -0.9084
 1119SOL     OW14989   2.254   3.324  12.047 -0.1833  0.3726 -0.0343
 1119SOL    HW114990   2.328   3.360  12.095  0.6046 -0.2358 -0.7987
 1119SOL    HW214991   2.291   3.236  12.039  1.9752  1.3677 -0.7260
 1120SOL     OW14992   0.989   3.650   3.174  0.1015  0.6466 -0.2246
 1120SOL    HW114993   1.070   3.671   3.220 -0.0962  1.2284 -0.1434
 1120SOL    HW214994   0.941   3.597   3.237  1.7313 -2.1506 -1.3690
 1121SOL     OW14995   1.105   4.094   0.800  0.3732  0.5456 -0.4870
 1121SOL    HW114996   1.049   4.069   0.727  0.7722 -0.7306 -0.3575
 1121SOL    HW214997   1.081   4.035   0.872  1.7303  1.1322  0.4396
 1122SOL     OW14998   3.375   4.300  10.953 -0.2669  0.3329  0.4284
 1122SOL    HW114999   3.402   4.287  10.862  0.7486  0.4583  0.7148
 1122SOL    HW215000   3.306   4.235  10.963 -0.2756  0.5297  1.6333
 1123SOL     OW15001   1.747   3.496   3.784  0.0112  0.2405 -0.2644
 1123SOL    HW115002   1.670   3.525   3.834  0.8772 -0.4712  1.4809
 1123SOL    HW215003   1.713   3.521   3.698  0.8442 -1.5344 -1.1027
 1124SOL     OW15004   0.225   2.472   4.445 -0.4762 -0.1788 -0.2795
 1124SOL    HW115005   0.292   2.535   4.421 -0.9316  0.3277 -0.2163
 1124SOL    HW215006   0.152   2.517   4.404  0.7224  0.3329 -1.8439
 1125SOL     OW15007   2.645   4.010   7.856 -0.5854  0.0316  0.5353
 1125SOL    HW115008   2.622   4.090   7.904  2.0933  1.1305 -0.0142
 1125SOL    HW215009   2.663   4.055   7.773  1.1543  1.2573  1.5885
 1126SOL     OW15010   1.511   4.445   0.036  0.0888  0.1200 -0.0772
 1126SOL    HW115011   1.537   4.356   0.014 -1.3513 -0.3129 -0.0506
 1126SOL    HW215012   1.441   4.429   0.100  0.2210  0.5009  0.1654
 1127SOL     OW15013   4.220   4.076   0.306 -0.2749 -0.4098  0.4307
 1127SOL    HW115014   4.152   4.016   0.338 -0.4915 -0.3907  0.0005
 1127SOL    HW215015   4.265   4.016   0.246 -1.0380 -1.1682  0.6211
 1128SOL     OW15016   0.141   4.528  10.264  0.0682  0.1658 -0.3335
 1128SOL    HW115017   0.057   4.485  10.248  1.0411 -1.6583 -0.5554
 1128SOL    HW215018   0.123   4.601  10.323  1.5383  0.7397 -0.5883
 1129SOL     OW15019   2.716   1.915   4.016  0.7240  0.1938  0.3718
 1129SOL    HW115020   2.766   1.896   4.095  1.4771  1.1368  0.1216
 1129SOL    HW215021   2.763   1.849   3.965  0.6006 -0.0956  0.6319
 1130SOL     OW15022   4.392   0.972   8.699  0.0481  0.2449  0.0615
 1130SOL    HW115023   4.406   0.927   8.782 -1.9868 -1.6397 -0.6327
 1130SOL    HW215024   4.418   1.061   8.725 -1.8383  0.3635  1.5185
 1131SOL     OW15025   2.662   0.057   8.234 -0.3780  0.3528 -0.8535
 1131SOL    HW115026   2.755   0.054   8.209  0.1904  0.6945  1.2436
 1131SOL    HW215027   2.646   0.151   8.222  2.6835  0.9563 -0.3432
 1132SOL     OW15028   2.850   3.228  14.753 -0.2577 -0.2385 -0.6453
 1132SOL    HW115029   2.925   3.177  14.723  0.3953  0.4833 -0.2074
 1132SOL    HW215030   2.854   3.304  14.696  1.1907  0.1521  0.0030
 1133SOL     OW15031   3.082   1.700   0.013  0.0067 -0.1132 -0.5080
 1133SOL    HW115032   3.130   1.671  17.675  2.2304 -2.5276  1.7573
 1133SOL    HW215033   3.005   1.646  17.739  0.6713 -1.5105  1.3203
 1134SOL     OW15034   0.645   1.025   7.049 -0.2944  0.1837  0.3895
 1134SOL    HW115035   0.665   1.077   6.972  0.6450 -0.4739  0.1815
 1134SOL    HW215036   0.687   0.943   7.022 -1.9790 -0.2456 -0.8763
 1135SOL     OW15037   1.617   2.533   1.363  0.0158 -0.5754 -0.2215
 1135SOL    HW115038   1.644   2.442   1.351  2.1279  0.0681 -0.3473
 1135SOL    HW215039   1.526   2.530   1.334 -0.1134  2.3066 -0.0838
 1136SOL     OW15040   4.673   2.599   8.428 -0.5532  0.0324  0.0869
 1136SOL    HW115041   4.684   2.567   8.518 -0.2070  0.7642  0.3091
 1136SOL    HW215042   0.024   2.587   8.389 -1.0208 -1.3747 -0.5131
 1137SOL     OW15043   3.852   2.755  14.494 -0.4440  0.2994 -0.1106
 1137SOL    HW115044   3.764   2.777  14.462  0.1651  4.0465  0.7970
 1137SOL    HW215045   3.820   2.695  14.561  0.2797  0.3514  0.2856
 1138SOL     OW15046   4.204   1.036  15.376 -0.0672 -0.3989  0.0296
 1138SOL    HW115047   4.282   1.048  15.431  0.0619  0.5393 -0.3582
 1138SOL    HW215048   4.162   1.118  15.404  0.3410 -0.3456  0.4997
 1139SOL     OW15049   3.079   2.271   0.245  0.5117 -0.0720  0.2689
 1139SOL    HW115050   3.159   2.256   0.295  0.5356  1.3832  0.6653
 1139SOL    HW215051   3.088   2.191   0.192 -0.3814  0.6319 -0.9442
 1140SOL     OW15052   3.253   3.894   4.793  0.2343 -0.2435  0.0243
 1140SOL    HW115053   3.256   3.856   4.881 -0.1856 -1.2220 -0.3913
 1140SOL    HW215054   3.342   3.930   4.794  1.1823 -2.6369  0.6899
 1141SOL     OW15055   0.288   0.938   3.063  0.7085 -0.3228  0.4923
 1141SOL    HW115056   0.251   0.951   2.976  0.6016 -1.6580  0.3293
 1141SOL    HW215057   0.327   0.851   3.051  0.3574 -0.5452  0.9403
 1142SOL     OW15058   1.591   0.043   9.728  0.0156  0.4157 -0.0488
 1142SOL    HW115059   1.627   4.713   9.789  0.7989  1.0137  0.1264
 1142SOL    HW215060   1.650   0.034   9.654 -1.3066 -2.1823 -0.8015
 1143SOL     OW15061   3.446   0.016   5.303 -0.2264 -0.5803 -0.1706
 1143SOL    HW115062   3.483   4.666   5.323 -0.4206 -0.8027 -0.7718
 1143SOL    HW215063   3.490   0.040   5.221  0.6234 -1.5630  0.0030
 1144SOL     OW15064   1.513   3.439   8.715  0.0069 -0.1617 -0.0389
 1144SOL    HW115065   1.485   3.425   8.805  0.2105 -3.4219 -0.5021
 1144SOL    HW215066   1.537   3.531   8.727 -2.6501  0.4255  0.5867
 1145SOL     OW15067   0.655   4.415   8.720 -0.0858  0.1371  0.2093
 1145SOL    HW115068   0.615   4.340   8.677  0.3145  0.0710 -0.0526
 1145SOL    HW215069   0.708   4.377   8.790  0.4635 -1.1457 -0.9065
 1146SOL     OW15070   3.165   2.725   7.280  0.3451  0.1393  0.0850
 1146SOL    HW115071   3.163   2.776   7.361 -0.9919  0.4830 -0.1668
 1146SOL    HW215072   3.214   2.649   7.311  3.2308  2.2445  0.6538
 1147SOL     OW15073   3.518   0.101  14.315  0.5297 -0.3294  0.6561
 1147SOL    HW115074   3.604   0.139  14.336  1.7954 -1.1193 -3.1701
 1147SOL    HW215075   3.464   0.129  14.389  1.9735  0.8005  1.2842
 1148SOL     OW15076   1.365   4.257   8.787 -0.4314  0.2780  0.0735
 1148SOL    HW115077   1.458   4.280   8.785 -0.5090  0.5226 -0.5414
 1148SOL    HW215078   1.353   4.220   8.700  2.1403 -0.9138  0.2041
 1149SOL     OW15079   3.638   3.044  10.981 -0.3477  0.4964 -0.3104
 1149SOL    HW115080   3.568   3.083  10.929 -0.3903  0.7661 -0.0499
 1149SOL    HW215081   3.597   2.971  11.028  1.0233 -0.8293 -1.1836
 1150SOL     OW15082   2.239   1.794   8.518  0.2140  0.0232  0.3731
 1150SOL    HW115083   2.322   1.769   8.559  0.4491 -1.8595 -1.2785
 1150SOL    HW215084   2.218   1.712   8.474 -0.9904  0.4999  0.0842
 1151SOL     OW15085   0.078   0.931   3.512  0.3745 -0.3385 -0.6256
 1151SOL    HW115086   0.082   0.937   3.416 -1.2777 -0.4405 -0.7074
 1151SOL    HW215087   4.719   0.926   3.528  0.4330 -0.3092 -0.2858
 1152SOL     OW15088   4.444   3.319   8.709  0.0147  0.3207 -0.2571
 1152SOL    HW115089   4.374   3.384   8.719 -1.4830 -1.4178  0.5857
 1152SOL    HW215090   4.426   3.269   8.629 -1.0312  1.2282 -0.5953
 1153SOL     OW15091   2.938   1.174   8.676 -0.6277 -0.5327  0.3279
 1153SOL    HW115092   2.889   1.156   8.756  0.0268  0.5640  0.9690
 1153SOL    HW215093   2.969   1.264   8.684 -0.8057 -0.7688  3.3752
 1154SOL     OW15094   3.974   2.216  15.319  0.0615  0.0302 -0.1418
 1154SOL    HW115095   4.010   2.276  15.253 -0.2571  0.3913  0.0220
 1154SOL    HW215096   3.908   2.271  15.360  0.4017 -1.0425  1.8391
 1155SOL     OW15097   0.870   0.702   7.502  0.1075 -0.4216  0.2461
 1155SOL    HW115098   0.946   0.737   7.456 -0.5256  1.3251  0.5151
 1155SOL    HW215099   0.882   0.609   7.485 -1.0175 -1.3799  4.6723
 1156SOL     OW15100   1.205   2.512   9.670  0.7967  0.1477  0.5039
 1156SOL    HW115101   1.227   2.524   9.762  1.1908 -2.4545  0.7512
 1156SOL    HW215102   1.195   2.605   9.654 -1.7511 -0.5220 -1.7558
 1157SOL     OW15103   4.015   0.178   0.082 -0.1544 -0.5451  0.6201
 1157SOL    HW115104   4.065   0.156   0.161  0.4900  0.3625  0.4651
 1157SOL    HW215105   4.013   0.093   0.038 -1.4406  0.9934 -2.2416
 1158SOL     OW15106   2.974   4.702  16.332  0.0966  0.7328  0.9310
 1158SOL    HW115107   3.015   4.628  16.376  0.0174  1.6734  2.5677
 1158SOL    HW215108   3.005   0.026  16.400  3.3612 -0.3451  0.3586
 1159SOL     OW15109   4.690   2.639  13.868  0.2030 -0.2893 -0.3020
 1159SOL    HW115110   4.651   2.564  13.824 -1.6394 -0.0393  0.9027
 1159SOL    HW215111   4.621   2.686  13.915 -0.7559 -1.8230 -0.1729
 1160SOL     OW15112   2.222   3.425   4.313  0.7341 -0.0706  0.0197
 1160SOL    HW115113   2.261   3.361   4.253 -1.5604 -2.5652  1.1766
 1160SOL    HW215114   2.288   3.470   4.366  0.5921  0.6872 -0.4635
 1161SOL     OW15115   1.564   2.415   2.211  0.0385  0.4547  0.2411
 1161SOL    HW115116   1.543   2.497   2.256  0.1119  1.2570 -1.1812
 1161SOL    HW215117   1.512   2.419   2.131  0.3940 -1.3450 -0.0776
 1162SOL     OW15118   0.380   3.579   2.131 -0.1711  0.6817 -0.3857
 1162SOL    HW115119   0.301   3.613   2.172  0.9825 -0.7065  3.0216
 1162SOL    HW215120   0.347   3.494   2.103  0.5582  0.2132  0.1489
 1163SOL     OW15121   3.499   3.816  10.976 -0.4633 -0.0324 -0.2555
 1163SOL    HW115122   3.551   3.896  10.981 -2.4234  1.4901 -3.9646
 1163SOL    HW215123   3.479   3.805  11.069 -1.2201 -0.0104 -0.4104
 1164SOL     OW15124   4.019   2.300   8.666  0.0959  0.1975  0.5823
 1164SOL    HW115125   4.068   2.321   8.745 -0.2356 -2.6889  1.5381
 1164SOL    HW215126   4.091   2.293   8.603  1.6159  0.0119  2.3437
 1165SOL     OW15127   0.329   3.666  17.153 -0.3033  0.0619  0.0492
 1165SOL    HW115128   0.345   3.595  17.092  0.8539  1.8334 -1.7174
 1165SOL    HW215129   0.278   3.639  17.229  1.7825 -1.6533  0.8196
 1166SOL     OW15130   1.745   2.904   2.869 -0.0565 -0.2240 -0.1180
 1166SOL    HW115131   1.710   2.827   2.824 -1.6729 -0.5086  1.6362
 1166SOL    HW215132   1.728   2.970   2.802  0.3976  0.6278  0.5820
 1167SOL     OW15133   0.177   3.094   4.961  0.4218 -0.4828  0.5472
 1167SOL    HW115134   0.129   3.063   5.038 -0.3931  0.6741  0.5044
 1167SOL    HW215135   0.169   3.188   4.975 -0.9650 -0.4262 -0.5813
 1168SOL     OW15136   4.419   3.907   2.265  0.3692  0.1824  0.0513
 1168SOL    HW115137   4.333   3.921   2.226  1.2281  0.2243 -1.8263
 1168SOL    HW215138   4.418   3.953   2.349 -0.8488  1.8074 -0.8416
 1169SOL     OW15139   2.832   4.361  11.135  0.8326 -0.1048 -0.2149
 1169SOL    HW115140   2.854   4.453  11.118 -1.8382  0.2426 -1.9411
 1169SOL    HW215141   2.841   4.370  11.230 -0.8311 -0.3573 -0.0365
 1170SOL     OW15142   4.409   0.328  13.404 -0.1692  0.1152 -0.6066
 1170SOL    HW115143   4.488   0.346  13.353  0.0284  0.2646 -0.2426
 1170SOL    HW215144   4.428   0.368  13.489  0.6336  0.6803 -1.0496
 1171SOL     OW15145   3.851   0.198  15.356 -0.1412 -0.1547  0.4165
 1171SOL    HW115146   3.759   0.176  15.346 -0.4286  0.0712  2.5444
 1171SOL    HW215147   3.879   0.109  15.379  0.2850 -0.7458 -2.3158
 1172SOL     OW15148   4.636   0.132   7.327  0.2874 -0.0737 -0.9197
 1172SOL    HW115149   4.704   0.100   7.269 -0.2898 -0.8528 -1.1684
 1172SOL    HW215150   4.684   0.191   7.385 -1.0178  0.0931 -0.0107
 1173SOL     OW15151   1.835   0.741   6.258  0.6204 -0.1420 -0.5984
 1173SOL    HW115152   1.848   0.646   6.257 -1.6642 -0.4982  2.4103
 1173SOL    HW215153   1.780   0.744   6.337 -0.4324 -2.9911 -1.2100
 1174SOL     OW15154   2.610   0.688   4.446  0.6119  0.5647 -0.1116
 1174SOL    HW115155   2.645   0.617   4.393 -1.8316  0.8681 -2.1224
 1174SOL    HW215156   2.556   0.739   4.386  2.0254  0.3541 -1.5664
 1175SOL     OW15157   0.480   0.569   2.708  0.4460  0.2134  0.3870
 1175SOL    HW115158   0.460   0.620   2.630 -0.4244 -1.2249 -0.3374
 1175SOL    HW215159   0.392   0.560   2.747 -0.3732  1.7720 -1.0918
 1176SOL     OW15160   1.562   0.772   8.019  0.2619  0.1690  0.5675
 1176SOL    HW115161   1.517   0.852   7.991 -3.1354 -1.9029  0.1004
 1176SOL    HW215162   1.613   0.759   7.939 -2.3347  0.6166 -1.1526
 1177SOL     OW15163   0.786   1.583   8.300 -0.1540 -0.4968 -0.5675
 1177SOL    HW115164   0.871   1.598   8.342  1.0590 -0.5909 -2.9767
 1177SOL    HW215165   0.775   1.665   8.252  2.1999  1.5110  2.3441
 1178SOL     OW15166   4.328   2.438   4.230 -0.3573  0.5487  0.0380
 1178SOL    HW115167   4.266   2.502   4.194 -1.6270  0.1027  1.4691
 1178SOL    HW215168   4.387   2.442   4.154 -0.0609  1.0099  0.2916
 1179SOL     OW15169   0.981   4.380   0.714  0.2475 -0.1974 -0.3976
 1179SOL    HW115170   0.978   4.314   0.784 -0.2550  1.3260  1.0343
 1179SOL    HW215171   1.058   4.349   0.667  0.4144 -0.5530  0.0986
 1180SOL     OW15172   2.974   0.934   7.230  0.3876 -0.6756 -0.2107
 1180SOL    HW115173   3.023   0.871   7.177 -0.2358 -0.8285 -0.6059
 1180SOL    HW215174   2.913   0.959   7.160  0.2308 -0.6930 -0.0799
 1181SOL     OW15175   4.415   1.601   1.510  0.5611 -0.3246  0.3713
 1181SOL    HW115176   4.437   1.515   1.476  0.9220  0.6350 -1.7890
 1181SOL    HW215177   4.341   1.572   1.563  0.9225 -2.6047 -0.3739
 1182SOL     OW15178   1.650   4.730   5.109 -0.2208 -0.6974  0.1883
 1182SOL    HW115179   1.736   4.692   5.127 -1.0488 -2.0894  1.1724
 1182SOL    HW215180   1.591   4.707   5.181 -0.6479 -0.9805 -0.2516
 1183SOL     OW15181   3.408   0.995   7.606  0.5179  0.0212 -0.1922
 1183SOL    HW115182   3.399   0.957   7.518 -2.0034 -3.3838  1.5412
 1183SOL    HW215183   3.499   1.022   7.594  1.6114 -3.4622  0.2381
 1184SOL     OW15184   1.294   1.770   8.833 -0.3273 -0.6741  0.8377
 1184SOL    HW115185   1.335   1.689   8.864 -2.4703 -2.1217 -0.0711
 1184SOL    HW215186   1.206   1.763   8.870 -1.1128 -0.6915 -0.9861
 1185SOL     OW15187   3.371   3.967  10.651  0.4413  0.1908 -0.1840
 1185SOL    HW115188   3.354   3.891  10.707  0.1704  0.6047  0.2944
 1185SOL    HW215189   3.453   3.933  10.615  0.3488  1.7521 -1.8558
 1186SOL     OW15190   0.000   3.905   3.153 -0.3059  0.1099 -0.1207
 1186SOL    HW115191   4.718   3.910   3.247  1.0876 -0.1226  0.1505
 1186SOL    HW215192   4.702   3.816   3.146 -0.2444  0.0246  0.6860
 1187SOL     OW15193   0.081   1.078   4.387  0.1488 -0.1235  1.0695
 1187SOL    HW115194   0.032   1.079   4.469  0.1084 -0.2986  1.0491
 1187SOL    HW215195   0.122   1.164   4.388  3.0603 -1.4959  1.1179
 1188SOL     OW15196   0.122   1.074  16.786 -0.0073  0.0823 -0.1436
 1188SOL    HW115197   0.203   1.047  16.829  0.0108  0.4276  0.0360
 1188SOL    HW215198   0.162   1.135  16.724  0.6886  0.5681  0.7671
 1189SOL     OW15199   1.201   0.580   5.627  0.2080 -0.0059 -0.1382
 1189SOL    HW115200   1.108   0.599   5.637  0.4502  1.7742 -1.4448
 1189SOL    HW215201   1.239   0.659   5.664 -0.7107  0.8610 -1.0569
 1190SOL     OW15202   3.979   1.700   6.200 -0.3136  0.0225  0.2352
 1190SOL    HW115203   4.044   1.759   6.240 -0.6984 -0.4024  1.4862
 1190SOL    HW215204   3.967   1.743   6.115  0.6136 -1.9573 -0.9100
 1191SOL     OW15205   2.528   0.193   1.540  0.2573  0.2175 -0.1415
 1191SOL    HW115206   2.485   0.140   1.607  2.2310  0.8417  1.5985
 1191SOL    HW215207   2.478   0.273   1.554 -0.7631 -0.3440 -0.5746
 1192SOL     OW15208   0.186   4.290   1.191  0.2878 -0.5424 -0.0669
 1192SOL    HW115209   0.140   4.311   1.272 -0.7230 -0.8458 -0.5593
 1192SOL    HW215210   0.120   4.237   1.146 -0.8435 -0.2795  1.2772
 1193SOL     OW15211   0.255   3.045   6.935 -0.3507  0.5635  0.3811
 1193SOL    HW115212   0.270   2.965   6.985 -1.4135 -0.3562 -0.7654
 1193SOL    HW215213   0.337   3.047   6.885 -0.4659  2.6993  0.2754
 1194SOL     OW15214   0.180   0.141  13.133 -0.2465 -0.1943  0.0983
 1194SOL    HW115215   0.211   0.058  13.168  0.7479  0.3188  0.4449
 1194SOL    HW215216   0.223   0.135  13.048  0.4148 -1.5870  0.5376
 1195SOL     OW15217   2.192   2.109   8.859  0.2819  0.2437  0.4889
 1195SOL    HW115218   2.100   2.132   8.848 -0.2080 -2.5192 -1.3576
 1195SOL    HW215219   2.211   2.180   8.919  1.1568  0.2907  0.1503
 1196SOL     OW15220   3.224   4.303  11.718  0.2006 -0.7490  0.0833
 1196SOL    HW115221   3.251   4.348  11.798  3.6006  0.4858 -1.7274
 1196SOL    HW215222   3.235   4.370  11.651  0.4971  0.8283  1.7164
 1197SOL     OW15223   2.156   3.422   7.598 -0.0432  0.2203 -0.5872
 1197SOL    HW115224   2.193   3.486   7.658 -1.3580 -2.0122  2.5732
 1197SOL    HW215225   2.078   3.392   7.646  0.6191 -1.2202 -0.4001
 1198SOL     OW15226   0.949   0.434   1.770  0.4834  0.5087  0.2897
 1198SOL    HW115227   0.886   0.496   1.733  0.7948  1.3986  1.2532
 1198SOL    HW215228   0.900   0.352   1.768 -0.6694  1.2241 -0.7956
 1199SOL     OW15229   0.622   1.618  12.406 -0.6798 -0.1093  0.2783
 1199SOL    HW115230   0.622   1.714  12.412  1.9234 -0.1042  0.0521
 1199SOL    HW215231   0.646   1.599  12.497  1.7619 -0.4717 -0.4513
 1200SOL     OW15232   1.916   0.848   2.420 -0.2772 -0.0103  0.1594
 1200SOL    HW115233   1.851   0.801   2.473 -1.0675  1.1490  0.2046
 1200SOL    HW215234   1.896   0.938   2.442  0.2976  0.1351  0.0885
 1201SOL     OW15235   0.064   4.226   4.422  0.2692  0.4815  0.2327
 1201SOL    HW115236   4.724   4.285   4.418 -2.0934 -2.6227 -0.9992
 1201SOL    HW215237   0.016   4.145   4.436  2.3651 -0.7151  0.5064
 1202SOL     OW15238   2.487   4.200   4.131 -0.3131  0.2873 -0.3297
 1202SOL    HW115239   2.557   4.178   4.070  0.3551  0.7073  0.2790
 1202SOL    HW215240   2.444   4.114   4.128  1.7703 -0.7488 -0.3309
 1203SOL     OW15241   0.693   2.824   3.698 -0.1821 -0.2721 -0.5030
 1203SOL    HW115242   0.602   2.844   3.680 -1.2066 -2.1898  2.6083
 1203SOL    HW215243   0.695   2.730   3.718  2.5298  0.1167  1.1545
 1204SOL     OW15244   4.586   3.238   6.663  0.2181 -0.2651  0.4738
 1204SOL    HW115245   4.621   3.269   6.579 -1.6294 -1.4351 -0.7410
 1204SOL    HW215246   4.658   3.180   6.687  1.5195  1.8719  1.7001
 1205SOL     OW15247   0.389   4.318   8.909  0.0107 -0.1774  0.1828
 1205SOL    HW115248   0.430   4.401   8.933  0.3724  0.5652 -3.0093
 1205SOL    HW215249   0.295   4.336   8.918 -0.0192  0.4490 -1.4711
 1206SOL     OW15250   0.989   2.365   6.085 -0.4719  0.1991 -0.2020
 1206SOL    HW115251   0.997   2.282   6.038  2.8224 -0.3000  1.2319
 1206SOL    HW215252   0.935   2.409   6.019  2.1025  4.4925  0.5653
 1207SOL     OW15253   3.876   3.127   9.974 -0.0227 -0.0435  0.1728
 1207SOL    HW115254   3.968   3.114   9.994 -0.1259 -1.9822 -0.6619
 1207SOL    HW215255   3.853   3.063  10.041 -1.2733  0.6848  0.4371
 1208SOL     OW15256   0.047   3.359   8.516 -0.5598 -0.0341  0.5221
 1208SOL    HW115257   0.017   3.274   8.484 -2.4548  0.4133  1.1508
 1208SOL    HW215258   0.088   3.386   8.434 -0.4061 -1.0535  0.2530
 1209SOL     OW15259   2.340   0.236   1.816 -0.2125  0.7257 -0.2952
 1209SOL    HW115260   2.339   0.323   1.776 -0.5841  0.9277  0.1535
 1209SOL    HW215261   2.246   0.218   1.813  0.0282 -0.5715 -0.3723
 1210SOL     OW15262   0.404   0.722   3.568 -0.8293 -0.4333 -0.2728
 1210SOL    HW115263   0.334   0.779   3.602 -0.8407 -1.6621  1.7355
 1210SOL    HW215264   0.387   0.636   3.606  1.8808 -0.8492 -0.0406
 1211SOL     OW15265   1.153   4.001   5.592  0.2530 -0.0075 -0.8847
 1211SOL    HW115266   1.196   3.956   5.519  0.0835  1.2393 -1.7662
 1211SOL    HW215267   1.188   3.957   5.669 -1.0280  2.7327  1.2950
 1212SOL     OW15268   4.507   1.862   8.284 -0.3932  0.0168 -0.1758
 1212SOL    HW115269   4.448   1.937   8.293  0.2968  0.7642 -1.8112
 1212SOL    HW215270   4.586   1.908   8.255 -0.5496  0.4724  0.1232
 1213SOL     OW15271   1.053   4.165   7.923  0.4563  0.0837 -0.1350
 1213SOL    HW115272   1.053   4.233   7.990 -0.4240  0.4529 -0.5204
 1213SOL    HW215273   1.145   4.137   7.919  0.1629 -0.4986 -2.6216
 1214SOL     OW15274   1.663   2.690   3.260  0.5533 -0.2927  0.8776
 1214SOL    HW115275   1.704   2.610   3.227  1.4041  0.5375 -0.1036
 1214SOL    HW215276   1.603   2.644   3.319 -3.1168  0.1383 -2.4610
 1215SOL     OW15277   2.898   2.946  10.397  0.4008 -0.4180  0.0272
 1215SOL    HW115278   2.860   2.947  10.485  1.3605  0.3613  0.4302
 1215SOL    HW215279   2.829   2.905  10.344 -0.2422  1.9716 -0.9547
 1216SOL     OW15280   3.717   2.109  12.820 -0.3940 -0.5595 -0.6493
 1216SOL    HW115281   3.751   2.181  12.873  0.2037 -1.4984  0.2409
 1216SOL    HW215282   3.798   2.099  12.771  2.1092  1.5866  3.0768
 1217SOL     OW15283   3.256   2.479   7.388 -0.1655 -0.0697  0.0632
 1217SOL    HW115284   3.191   2.449   7.451 -2.1034 -0.6361 -2.2018
 1217SOL    HW215285   3.335   2.442   7.426 -0.6419 -3.1676 -1.9536
 1218SOL     OW15286   1.287   3.983   5.210 -0.0540  0.4368  0.3641
 1218SOL    HW115287   1.269   3.930   5.287 -0.9610 -0.9112 -0.7783
 1218SOL    HW215288   1.205   4.034   5.208 -0.1891  0.1458 -1.9087
 1219SOL     OW15289   0.393   4.443   8.423  0.4037 -0.1106 -0.5098
 1219SOL    HW115290   0.303   4.431   8.396  0.5349  1.0534 -1.4285
 1219SOL    HW215291   0.380   4.524   8.473  0.8795 -0.8069  0.7709
 1220SOL     OW15292   0.721   2.362   0.373 -0.4374 -0.7739  0.4691
 1220SOL    HW115293   0.654   2.335   0.310  0.9613 -0.8908 -0.9731
 1220SOL    HW215294   0.785   2.291   0.377  1.9640  1.2310 -2.0255
 1221SOL     OW15295   3.317   2.075   3.299 -0.1266 -0.2975  0.7693
 1221SOL    HW115296   3.311   2.158   3.251 -0.3753 -0.9136 -0.2881
 1221SOL    HW215297   3.386   2.025   3.254 -0.8871 -0.6597 -0.0202
 1222SOL     OW15298   2.280   3.337  11.427  0.6283 -0.4750 -0.4132
 1222SOL    HW115299   2.322   3.283  11.360  0.4494 -1.6438  0.4229
 1222SOL    HW215300   2.241   3.273  11.486  2.5510 -2.0689 -0.8616
 1223SOL     OW15301   3.084   0.468   3.498 -0.0981  0.6046 -0.5860
 1223SOL    HW115302   3.007   0.457   3.554  0.0381  0.5853 -0.3999
 1223SOL    HW215303   3.072   0.394   3.439  1.0033 -0.2528  0.2720
 1224SOL     OW15304   2.338   1.187   3.943 -0.7039 -0.2105  0.5767
 1224SOL    HW115305   2.410   1.159   3.999  1.6255  0.3859 -2.1402
 1224SOL    HW215306   2.272   1.139   3.994 -0.2538 -2.0045 -0.5258
 1225SOL     OW15307   4.391   2.312   9.789  0.1889  0.0574 -0.5881
 1225SOL    HW115308   4.433   2.228   9.775  0.3264  0.0502 -0.1427
 1225SOL    HW215309   4.399   2.314   9.885 -0.5886 -2.6642 -0.4732
 1226SOL     OW15310   0.304   1.613  15.227 -0.4311  0.1908  0.2026
 1226SOL    HW115311   0.397   1.610  15.204 -0.6858  0.0613 -0.8209
 1226SOL    HW215312   0.278   1.703  15.213 -2.2213 -0.3931 -0.2084
 1227SOL     OW15313   0.497   1.405   9.282  0.3358 -0.0719  0.1216
 1227SOL    HW115314   0.549   1.326   9.269 -0.1285 -0.6012  1.5184
 1227SOL    HW215315   0.563   1.468   9.311  0.9056 -0.3354 -0.5803
 1228SOL     OW15316   2.206   0.987  14.309 -0.1113  0.0472  0.1802
 1228SOL    HW115317   2.118   0.960  14.285 -0.1787 -1.2881  1.9144
 1228SOL    HW215318   2.250   0.902  14.301  0.3408  0.3035 -0.0944
 1229SOL     OW15319   0.649   3.428  12.891 -0.1859  0.4234  0.3754
 1229SOL    HW115320   0.721   3.377  12.852 -1.7738 -1.7524  0.3237
 1229SOL    HW215321   0.697   3.504  12.924  0.3185  0.7020 -0.9958
 1230SOL     OW15322   0.375   0.071  11.534  0.0179  0.7574 -0.1567
 1230SOL    HW115323   0.399   0.098  11.623  0.3034  0.6678 -0.2054
 1230SOL    HW215324   0.316   0.000  11.558  1.2041 -0.0658  0.3401
 1231SOL     OW15325   3.249   1.277   4.503 -0.5232  0.2898 -0.0850
 1231SOL    HW115326   3.330   1.325   4.487  0.5875 -1.4375  0.3517
 1231SOL    HW215327   3.242   1.229   4.421  1.1844  0.3174 -0.2503
 1232SOL     OW15328   3.610   1.481   4.268  0.4504 -0.4272  0.8241
 1232SOL    HW115329   3.700   1.503   4.290  0.5140 -0.2473  0.3764
 1232SOL    HW215330   3.617   1.386   4.274  3.7280 -0.3352 -1.5958
 1233SOL     OW15331   4.602   3.391   6.102  0.2749 -0.7167  0.3643
 1233SOL    HW115332   4.509   3.390   6.079  0.7222 -3.3605 -1.2869
 1233SOL    HW215333   4.599   3.443   6.182  3.0324  0.3241 -0.1906
 1234SOL     OW15334   2.721   1.009   7.100  0.1176  0.4040 -0.2993
 1234SOL    HW115335   2.629   0.981   7.097  0.2066  0.0576  0.1646
 1234SOL    HW215336   2.712   1.099   7.068  0.0142  0.7643  0.7360
 1235SOL     OW15337   2.088   0.450   7.786  0.3336 -0.3856 -0.5446
 1235SOL    HW115338   2.119   0.370   7.828  0.7512 -0.4663 -1.0129
 1235SOL    HW215339   2.045   0.495   7.859  0.1708  0.4502 -1.1556
 1236SOL     OW15340   1.280   1.882   3.015 -0.4711  0.1332  0.0060
 1236SOL    HW115341   1.303   1.926   2.933  0.3830 -0.0650  0.1402
 1236SOL    HW215342   1.225   1.810   2.983 -1.4840  0.7536  0.3577
 1237SOL     OW15343   1.601   1.890   4.363 -0.2011  0.3489  0.0137
 1237SOL    HW115344   1.571   1.943   4.437  0.8544  0.3831  0.4088
 1237SOL    HW215345   1.674   1.943   4.331 -0.7321  1.8991  1.3400
 1238SOL     OW15346   0.357   1.183   3.135  0.1476  0.0674  0.1642
 1238SOL    HW115347   0.372   1.130   3.214 -0.4255 -0.3028  0.0257
 1238SOL    HW215348   0.301   1.124   3.084  0.3605  2.1546 -2.4678
 1239SOL     OW15349   4.178   0.939   4.661  0.3259  0.3175  0.2418
 1239SOL    HW115350   4.176   1.031   4.684 -0.1656 -0.2439  2.4752
 1239SOL    HW215351   4.084   0.920   4.666  0.4050 -0.2589 -0.5386
 1240SOL     OW15352   3.659   0.608   4.023 -0.1725  0.0188  0.3303
 1240SOL    HW115353   3.720   0.659   3.971 -0.6952 -1.2389 -1.5263
 1240SOL    HW215354   3.589   0.591   3.960  0.7942  0.7332 -0.9163
 1241SOL     OW15355   1.621   3.333   6.917  0.2436  0.0821  0.2539
 1241SOL    HW115356   1.531   3.336   6.884  1.8359 -0.8126 -4.2165
 1241SOL    HW215357   1.652   3.243   6.913 -1.3492 -0.4381 -0.5370
 1242SOL     OW15358   1.761   2.832   2.390  0.7863  0.1226  0.9412
 1242SOL    HW115359   1.765   2.883   2.309  0.5172 -0.4551  0.5664
 1242SOL    HW215360   1.847   2.849   2.429  1.6740 -2.2206 -0.0416
 1243SOL     OW15361   2.693   1.082  12.067 -0.3764 -0.4931 -0.2422
 1243SOL    HW115362   2.705   1.048  12.156  0.9979 -0.8510 -0.5728
 1243SOL    HW215363   2.598   1.072  12.055 -0.8281  3.1170  0.5405
 1244SOL     OW15364   2.851   1.474   2.104 -0.2749  0.1106 -0.5011
 1244SOL    HW115365   2.941   1.492   2.076 -0.5922 -0.6460 -2.0175
 1244SOL    HW215366   2.857   1.492   2.198  0.4603 -0.8665 -0.3705
 1245SOL     OW15367   0.935   1.562   2.677  0.2763  0.1428  0.1336
 1245SOL    HW115368   0.990   1.485   2.662 -0.1884  0.0415 -1.0555
 1245SOL    HW215369   0.947   1.601   2.763  2.9281 -1.4334  0.4777
 1246SOL     OW15370   4.428   1.148  15.497 -0.1494  0.3117  0.7849
 1246SOL    HW115371   4.473   1.225  15.532  0.1962  0.1561  0.6848
 1246SOL    HW215372   4.493   1.080  15.513 -0.6737 -0.4106 -0.1141
 1247SOL     OW15373   2.435   2.422  17.146  0.1885 -0.3821 -0.2463
 1247SOL    HW115374   2.525   2.439  17.174  0.4314  1.6990 -2.2570
 1247SOL    HW215375   2.396   2.510  17.146 -0.5406 -0.7033 -1.1863
 1248SOL     OW15376   0.858   1.170  13.702 -0.3926  0.1045 -0.2014
 1248SOL    HW115377   0.924   1.218  13.653  0.8873 -0.5023  0.9242
 1248SOL    HW215378   0.777   1.205  13.665 -0.0042  1.0862 -0.1228
 1249SOL     OW15379   2.222   1.233   5.261  0.0108  0.3394 -0.6250
 1249SOL    HW115380   2.297   1.255   5.317 -0.6766 -0.5120  0.6232
 1249SOL    HW215381   2.155   1.284   5.306 -0.4385 -0.1345 -0.7627
 1250SOL     OW15382   1.156   0.021   9.068 -0.5551 -0.2189 -0.1504
 1250SOL    HW115383   1.157   4.701   9.146 -1.4369  0.3252  0.2518
 1250SOL    HW215384   1.217   4.707   9.014 -0.9096 -1.3457  0.4585
 1251SOL     OW15385   2.512   0.452   3.167 -0.0139  0.1232 -0.5875
 1251SOL    HW115386   2.506   0.364   3.130 -1.0320  0.8040 -2.0051
 1251SOL    HW215387   2.430   0.492   3.139  0.9312  3.0942  0.8123
 1252SOL     OW15388   0.504   2.622   2.983  0.4893 -0.2451  0.0521
 1252SOL    HW115389   0.434   2.585   2.929  1.7188  0.4354 -2.0012
 1252SOL    HW215390   0.499   2.577   3.067  0.1791  0.6162  0.4942
 1253SOL     OW15391   3.631   1.142   2.952  0.2538  0.0539 -0.2867
 1253SOL    HW115392   3.614   1.225   2.907 -0.2219 -0.4892 -1.0858
 1253SOL    HW215393   3.621   1.151   3.047 -0.5400 -2.5922 -0.1299
 1254SOL     OW15394   3.630   4.380   1.774 -0.1501  0.5065  0.7468
 1254SOL    HW115395   3.578   4.357   1.850 -0.2304 -0.0877  0.5152
 1254SOL    HW215396   3.683   4.452   1.809  0.1048 -0.7982  3.0617
 1255SOL     OW15397   3.320   0.307   4.619  0.0158 -0.0428 -0.2869
 1255SOL    HW115398   3.278   0.224   4.598 -0.1149  0.0094 -0.2329
 1255SOL    HW215399   3.259   0.304   4.693  0.7005 -0.8033  0.2596
 1256SOL     OW15400   0.372   1.485   3.164 -0.2028  0.0976  0.2394
 1256SOL    HW115401   0.386   1.527   3.079  0.4853  0.4470  0.5222
 1256SOL    HW215402   0.352   1.394   3.139 -0.9418  0.5225 -0.6988
 1257SOL     OW15403   2.264   2.926   4.655 -0.5655  0.2034  0.1587
 1257SOL    HW115404   2.296   2.946   4.566 -0.6739  1.6345  0.4454
 1257SOL    HW215405   2.181   2.886   4.630 -0.0563 -1.8440  1.7130
 1258SOL     OW15406   2.217   1.842   2.760  0.3885  0.6034 -0.0026
 1258SOL    HW115407   2.192   1.800   2.678  1.7995  0.8716 -0.5662
 1258SOL    HW215408   2.276   1.907   2.723 -1.6179  1.0927 -2.3104
 1259SOL     OW15409   3.008   0.020  11.260 -0.1323 -0.0331 -0.0077
 1259SOL    HW115410   3.025   0.113  11.247  1.9032 -0.3840  0.1122
 1259SOL    HW215411   2.999   0.007  11.354  0.2185  0.6011  0.1134
 1260SOL     OW15412   3.971   2.017   1.057  0.3708 -0.4321 -0.1659
 1260SOL    HW115413   3.897   1.980   1.009 -1.1087  0.1253  1.6953
 1260SOL    HW215414   4.030   2.023   0.982 -0.5876  0.5100 -0.8490
 1261SOL     OW15415   3.522   0.616   9.348  0.2759  0.1977  0.1921
 1261SOL    HW115416   3.605   0.575   9.327  1.5943  3.7066 -1.5236
 1261SOL    HW215417   3.493   0.560   9.420 -0.2839  0.5935  0.2776
 1262SOL     OW15418   3.495   2.537   2.601  0.0988  0.1888  0.1906
 1262SOL    HW115419   3.591   2.539   2.600  0.0802  2.1911  0.6356
 1262SOL    HW215420   3.482   2.462   2.658  2.7897 -0.1497  0.3608
 1263SOL     OW15421   0.277   4.159   6.191  0.9048  0.3555 -0.1076
 1263SOL    HW115422   0.339   4.168   6.118 -0.8778  0.4276 -1.6335
 1263SOL    HW215423   0.310   4.221   6.255 -0.1964  1.4987 -0.6379
 1264SOL     OW15424   3.907   3.551   3.078  0.1554 -0.0167  0.1499
 1264SOL    HW115425   3.879   3.621   3.137  0.1534 -0.9281  1.2359
 1264SOL    HW215426   3.898   3.475   3.136  0.8150  1.5261  2.2932
 1265SOL     OW15427   3.582   1.812   4.408 -0.1097  0.2360  0.0657
 1265SOL    HW115428   3.524   1.813   4.332 -2.0893 -1.7266  1.5326
 1265SOL    HW215429   3.530   1.779   4.482 -0.5550  0.5571 -0.0998
 1266SOL     OW15430   0.333   3.718   5.012  0.4031 -0.1363 -0.0532
 1266SOL    HW115431   0.389   3.666   4.955 -2.6669 -1.8356 -1.5594
 1266SOL    HW215432   0.338   3.807   4.977 -1.4320  0.7495  1.9019
 1267SOL     OW15433   3.840   0.029  10.001  0.0619  0.4776 -0.3725
 1267SOL    HW115434   3.882   0.115  10.004  1.0583  0.0668 -2.2029
 1267SOL    HW215435   3.877   4.735   9.917 -0.9147 -1.1298 -0.2260
 1268SOL     OW15436   0.123   0.844  10.390  0.0804 -1.2406 -0.3745
 1268SOL    HW115437   0.201   0.883  10.430 -0.8818 -0.9191  1.1832
 1268SOL    HW215438   0.113   0.769  10.448  0.3081 -0.9561  0.0388
 1269SOL     OW15439   4.127   1.988   3.278  0.2024  0.6474 -0.1616
 1269SOL    HW115440   4.046   1.938   3.283  0.3473  0.3401 -0.9154
 1269SOL    HW215441   4.101   2.067   3.230  2.2318  0.6360 -1.2945
 1270SOL     OW15442   2.129   2.748   4.494  0.2178 -0.2006  0.3064
 1270SOL    HW115443   2.119   2.736   4.399  0.1896  1.0100  0.1551
 1270SOL    HW215444   2.065   2.687   4.530 -1.0224  0.9916  0.1446
 1271SOL     OW15445   3.893   2.575   6.889 -0.2076  0.1168 -0.0943
 1271SOL    HW115446   3.941   2.511   6.835  0.3816 -1.1150  1.9053
 1271SOL    HW215447   3.832   2.617   6.828  0.0296  0.5857 -0.0108
 1272SOL     OW15448   3.415   2.885  16.001  0.1564  0.6619 -0.0108
 1272SOL    HW115449   3.400   2.860  16.092  1.4592 -1.9412 -0.5003
 1272SOL    HW215450   3.412   2.801  15.956  2.0971  0.1074  0.9114
 1273SOL     OW15451   0.965   2.183  16.819  0.0840 -0.2114  0.1156
 1273SOL    HW115452   1.003   2.132  16.747  0.4259 -0.1563  0.2564
 1273SOL    HW215453   1.034   2.249  16.828 -0.5359  0.3600  0.6858
 1274SOL     OW15454   3.304   1.269  16.568 -0.2342 -0.3527  0.0969
 1274SOL    HW115455   3.310   1.329  16.643  0.7347 -1.4559  0.9000
 1274SOL    HW215456   3.397   1.249  16.560  0.2363  1.3228  1.2932
 1275SOL     OW15457   2.913   3.459   8.549 -0.3002  0.1878  0.0421
 1275SOL    HW115458   2.878   3.509   8.622 -1.7335 -0.9233  0.0982
 1275SOL    HW215459   2.995   3.426   8.586 -1.1650 -0.7932  1.0629
 1276SOL     OW15460   3.761   2.902   1.199 -0.3497 -0.1064  0.6874
 1276SOL    HW115461   3.714   2.850   1.264 -2.5293  0.8008 -0.1577
 1276SOL    HW215462   3.777   2.984   1.246 -0.0005  1.3788 -2.0191
 1277SOL     OW15463   2.120   1.070   8.852 -0.3748  0.0244  0.1735
 1277SOL    HW115464   2.170   1.114   8.921 -1.0131 -2.3194  2.1004
 1277SOL    HW215465   2.094   1.146   8.799  0.2800  0.5933  0.6701
 1278SOL     OW15466   1.438   2.204   3.831 -0.7051  0.0262  0.2144
 1278SOL    HW115467   1.390   2.286   3.819  1.5515  1.5058  1.3751
 1278SOL    HW215468   1.420   2.160   3.747 -1.2157 -0.7449  0.7320
 1279SOL     OW15469   4.425   0.337   6.473 -0.1213  0.0447  0.0829
 1279SOL    HW115470   4.378   0.325   6.556 -1.2432  1.0416 -0.3975
 1279SOL    HW215471   4.501   0.379   6.513  0.3669 -0.4312 -0.3476
 1280SOL     OW15472   3.111   3.739  17.381  0.0919 -0.5076 -0.1995
 1280SOL    HW115473   3.183   3.678  17.364 -0.1198 -0.8456  0.1319
 1280SOL    HW215474   3.046   3.683  17.423 -1.4227  1.2278 -0.2596
 1281SOL     OW15475   4.555   3.178   3.969  0.2632  0.3276  0.2521
 1281SOL    HW115476   4.598   3.262   3.959  2.0189 -0.8912 -2.6388
 1281SOL    HW215477   4.565   3.141   4.057 -0.4907  0.6495  0.4731
 1282SOL     OW15478   0.961   1.648  11.025 -0.2803 -0.1619 -0.0651
 1282SOL    HW115479   0.902   1.699  11.081  2.7641  1.5364  1.5852
 1282SOL    HW215480   0.900   1.604  10.966  1.4209  0.4723 -2.2825
 1283SOL     OW15481   2.001   1.767   0.280 -0.6179  0.6156  0.4102
 1283SOL    HW115482   1.981   1.747   0.188  1.1736 -2.4421  0.6632
 1283SOL    HW215483   2.017   1.675   0.305  1.0638  0.4060 -1.4958
 1284SOL     OW15484   1.831   0.547  17.306 -0.0375  0.5716  0.1729
 1284SOL    HW115485   1.740   0.555  17.336 -0.4598  0.3592 -1.0140
 1284SOL    HW215486   1.819   0.563  17.212 -0.9674 -1.3163 -0.0512
 1285SOL     OW15487   1.185   2.920  10.900  1.0093  0.0561  0.1083
 1285SOL    HW115488   1.161   2.994  10.844 -1.8624 -0.7249  0.2789
 1285SOL    HW215489   1.261   2.881  10.858  1.0028  0.3340 -0.1662
 1286SOL     OW15490   1.536   1.631  10.150 -0.3536  0.0418 -0.1973
 1286SOL    HW115491   1.538   1.719  10.112 -2.9030  1.2951  2.5120
 1286SOL    HW215492   1.597   1.639  10.222 -0.9142  0.1951  0.2652
 1287SOL     OW15493   1.822   1.052   7.662  0.2845  0.2912 -0.5635
 1287SOL    HW115494   1.750   1.114   7.675  1.5404  1.2525  1.7093
 1287SOL    HW215495   1.817   1.015   7.573  0.6065 -0.2228 -0.3651
 1288SOL     OW15496   1.220   1.578   2.224  0.6081  0.2622  0.2710
 1288SOL    HW115497   1.127   1.569   2.205  0.7741 -0.8266 -0.0850
 1288SOL    HW215498   1.240   1.484   2.232  1.0390  0.3051 -0.2981
 1289SOL     OW15499   0.706   3.639   1.843  0.0305 -0.0551 -0.3378
 1289SOL    HW115500   0.624   3.684   1.864  0.3760  0.4119  0.0318
 1289SOL    HW215501   0.723   3.675   1.755  1.4725  0.1989  0.0391
 1290SOL     OW15502   0.320   2.508  11.753  0.4649 -0.5508 -0.2551
 1290SOL    HW115503   0.398   2.549  11.790 -1.2950 -1.4098  4.5406
 1290SOL    HW215504   0.247   2.560  11.787 -0.2996 -0.8184 -1.4790
 1291SOL     OW15505   1.971   4.734   8.427 -0.0361  0.1883 -0.2838
 1291SOL    HW115506   2.053   0.014   8.474 -0.4725 -1.9828  1.1633
 1291SOL    HW215507   1.983   0.070   8.364  0.3945 -1.9491 -2.5831
 1292SOL     OW15508   0.626   3.815   3.661  0.0117  0.0053 -0.1421
 1292SOL    HW115509   0.559   3.869   3.618  0.2056 -1.0086 -1.7379
 1292SOL    HW215510   0.701   3.872   3.674 -1.3259  1.6551  0.2839
 1293SOL     OW15511   4.415   0.378   6.940 -0.2379 -1.3264  0.1872
 1293SOL    HW115512   4.418   0.364   7.034  1.2266  0.7752  0.4591
 1293SOL    HW215513   4.389   0.470   6.938 -0.5907 -1.3997  1.7604
 1294SOL     OW15514   3.139   2.965   2.252 -1.1132 -0.3007  0.7016
 1294SOL    HW115515   3.230   2.952   2.280 -0.6326  0.5671 -0.4703
 1294SOL    HW215516   3.124   2.870   2.246  0.3432 -0.3791 -1.7596
 1295SOL     OW15517   2.345   0.514   3.630 -0.3845 -0.5638 -0.3851
 1295SOL    HW115518   2.286   0.479   3.696  1.6218 -1.0078  1.2010
 1295SOL    HW215519   2.422   0.478   3.675 -0.3981 -0.5212 -0.3268
 1296SOL     OW15520   1.731   3.941   5.185  0.4601  0.4349 -0.0218
 1296SOL    HW115521   1.708   4.010   5.248  0.0955 -0.0445  0.3673
 1296SOL    HW215522   1.652   3.890   5.168 -1.4818  3.3305  0.3565
 1297SOL     OW15523   0.181   1.487   2.137 -0.1336  0.4463  0.2687
 1297SOL    HW115524   0.187   1.397   2.168  0.2231  0.5537  0.5060
 1297SOL    HW215525   0.249   1.476   2.070 -0.7121 -2.8036  0.2476
 1298SOL     OW15526   1.726   4.462  11.206  0.4482  0.0175 -0.2572
 1298SOL    HW115527   1.784   4.462  11.282 -0.1241  2.7194  0.1869
 1298SOL    HW215528   1.635   4.467  11.235  1.1559  1.9772  1.6219
 1299SOL     OW15529   0.097   4.049   9.544 -0.2244  0.4070 -0.0876
 1299SOL    HW115530   0.078   4.057   9.450  1.5928  2.2781 -0.2985
 1299SOL    HW215531   0.149   4.128   9.555  1.9818 -0.7403 -2.1437
 1300SOL     OW15532   4.298   1.420   4.309  0.1162 -0.5285 -0.0251
 1300SOL    HW115533   4.348   1.485   4.259  0.0013  0.5329  1.2177
 1300SOL    HW215534   4.227   1.410   4.246 -0.4820 -1.0217  0.7394
 1301SOL     OW15535   2.381   1.848   5.563 -0.1619  0.8616 -0.5661
 1301SOL    HW115536   2.465   1.886   5.536  0.2690  0.4761  0.2224
 1301SOL    HW215537   2.416   1.791   5.632 -0.4886  0.3490 -0.8230
 1302SOL     OW15538   1.653   1.883   5.227 -0.0049  0.6602  0.1926
 1302SOL    HW115539   1.643   1.862   5.134  1.5291  0.2348  0.1216
 1302SOL    HW215540   1.719   1.950   5.206 -0.0143  0.0224 -1.8900
 1303SOL     OW15541   1.623   1.175  15.026 -0.0818  0.1232 -0.0559
 1303SOL    HW115542   1.703   1.222  15.050  0.5070 -0.7890 -0.2538
 1303SOL    HW215543   1.645   1.152  14.935 -1.2415 -1.2713  0.0238
 1304SOL     OW15544   3.426   0.291   5.376  0.1423  0.5103 -0.4790
 1304SOL    HW115545   3.449   0.279   5.468  0.0779  0.1702 -0.5082
 1304SOL    HW215546   3.410   0.199   5.353  2.7562 -0.2323  0.6917
 1305SOL     OW15547   0.388   3.704   9.204  0.1111 -0.4148  0.0654
 1305SOL    HW115548   0.432   3.787   9.223  0.2078 -1.0562  2.6251
 1305SOL    HW215549   0.313   3.705   9.264 -0.9676  0.5327 -1.3064
 1306SOL     OW15550   0.655   4.272  15.817  0.1671 -0.5687 -0.1357
 1306SOL    HW115551   0.604   4.268  15.898  0.6264 -1.2632  0.1132
 1306SOL    HW215552   0.724   4.213  15.847  2.4998  1.2852 -1.8155
 1307SOL     OW15553   1.709   3.124   2.731 -0.4780  0.0922  0.0381
 1307SOL    HW115554   1.690   3.213   2.700  0.5705  0.3438  0.0987
 1307SOL    HW215555   1.762   3.090   2.659  2.0913  2.5153  0.7691
 1308SOL     OW15556   2.527   0.649   7.366 -0.0831  0.6007 -0.5211
 1308SOL    HW115557   2.599   0.711   7.357  1.8197 -1.4305  0.8092
 1308SOL    HW215558   2.530   0.628   7.459 -0.4616 -1.3508 -0.9524
 1309SOL     OW15559   3.505   4.519   4.241 -0.0593  0.0220 -0.8479
 1309SOL    HW115560   3.424   4.533   4.192  0.0656  1.1679 -0.7133
 1309SOL    HW215561   3.469   4.508   4.328  0.8442 -0.3800 -0.5225
 1310SOL     OW15562   4.189   3.976   7.776  0.1925  0.2778  0.1138
 1310SOL    HW115563   4.134   3.992   7.853  0.7038  0.1915  0.5007
 1310SOL    HW215564   4.128   3.976   7.702 -0.3026  1.4400  0.5106
 1311SOL     OW15565   1.959   1.221   9.999 -0.1738  0.6237  0.1330
 1311SOL    HW115566   2.044   1.240  10.038 -0.1552 -1.9525  1.4041
 1311SOL    HW215567   1.969   1.264   9.914  1.1238 -1.6961 -0.8888
 1312SOL     OW15568   0.820   1.037   7.614 -0.3227 -0.4736 -0.0035
 1312SOL    HW115569   0.742   1.092   7.612  0.3514  0.4296 -1.2881
 1312SOL    HW215570   0.805   0.955   7.565  0.4815 -1.6830  1.7855
 1313SOL     OW15571   4.586   0.037   3.881  0.2646  0.3497  0.2983
 1313SOL    HW115572   4.593   4.726   3.798  0.5081 -1.6719  1.4447
 1313SOL    HW215573   4.603   0.128   3.860  0.8385 -0.0067 -0.7703
 1314SOL     OW15574   2.919   3.506   5.026 -0.2465 -0.1247 -0.2978
 1314SOL    HW115575   2.849   3.568   5.047  0.7529  0.2752  1.8225
 1314SOL    HW215576   2.865   3.429   5.007 -1.0396  0.5565 -0.7995
 1315SOL     OW15577   3.281   3.506   2.043  0.0048  0.0142 -0.8118
 1315SOL    HW115578   3.240   3.441   2.101  1.5432 -0.9277 -0.7657
 1315SOL    HW215579   3.202   3.534   1.998  1.1917  1.6612 -1.8777
 1316SOL     OW15580   1.167   4.705   2.436  0.8525 -0.1048  0.6162
 1316SOL    HW115581   1.118   4.673   2.361  0.6762  1.0910  0.2222
 1316SOL    HW215582   1.172   0.064   2.422  0.1775 -0.4264 -1.7643
 1317SOL     OW15583   1.727   1.872  15.272 -0.0704 -0.0996  0.5059
 1317SOL    HW115584   1.733   1.777  15.259 -0.8175 -0.4831  2.8461
 1317SOL    HW215585   1.803   1.891  15.328 -3.1716  1.2199  4.3364
 1318SOL     OW15586   0.009   3.443  15.488 -0.2927  0.2239 -0.3844
 1318SOL    HW115587   0.019   3.479  15.576 -0.5035  0.8028 -0.6011
 1318SOL    HW215588   4.707   3.522  15.450 -2.2256 -0.3337  0.3849
 1319SOL     OW15589   0.306   0.903   2.546 -0.4703  0.0462  0.4267
 1319SOL    HW115590   0.354   0.930   2.468 -0.9164  0.2681  0.2321
 1319SOL    HW215591   0.375   0.914   2.611  0.6268 -0.4867 -0.6595
 1320SOL     OW15592   2.310   1.634  16.198  0.3071  0.2871  0.1911
 1320SOL    HW115593   2.367   1.647  16.274  1.0543 -0.1275 -0.2944
 1320SOL    HW215594   2.362   1.680  16.131 -0.6293  0.8371 -0.1530
 1321SOL     OW15595   2.132   0.713   7.138  0.1737 -0.2460  0.1354
 1321SOL    HW115596   2.153   0.699   7.046 -1.6389  0.9243 -0.4659
 1321SOL    HW215597   2.118   0.621   7.162 -0.0579 -0.7041 -1.7977
 1322SOL     OW15598   0.649   1.216   9.141  0.0687  0.2525 -0.0617
 1322SOL    HW115599   0.719   1.188   9.081 -0.5900 -1.8747  0.1716
 1322SOL    HW215600   0.626   1.128   9.170 -1.7229  0.5133 -0.7072
 1323SOL     OW15601   0.875   3.616  15.162 -0.0353  0.1723 -0.3183
 1323SOL    HW115602   0.913   3.571  15.086  3.4569  1.1944  0.8209
 1323SOL    HW215603   0.923   3.580  15.237  2.0770 -0.3883 -1.9140
 1324SOL     OW15604   1.098   0.136   5.494 -0.0119 -0.3854 -0.4923
 1324SOL    HW115605   1.042   0.066   5.460 -1.2008 -0.3744  1.4443
 1324SOL    HW215606   1.155   0.152   5.419  0.2368 -1.5882 -0.5590
 1325SOL     OW15607   3.828   3.073   4.645  0.7053  0.1178  0.4023
 1325SOL    HW115608   3.844   2.982   4.672  0.5371 -0.3548 -1.0958
 1325SOL    HW215609   3.740   3.065   4.607  1.0601  0.6469 -0.5253
 1326SOL     OW15610   2.322   1.390   9.390  0.4665 -0.1295  0.5692
 1326SOL    HW115611   2.377   1.330   9.341 -2.7738 -1.7220 -1.0862
 1326SOL    HW215612   2.287   1.445   9.320  1.1325  2.5968  2.3848
 1327SOL     OW15613   3.050   2.870  17.454  0.2233  0.2850  0.3638
 1327SOL    HW115614   3.055   2.866  17.359  0.3449 -0.7746  0.4115
 1327SOL    HW215615   3.010   2.955  17.469 -2.7591 -1.1509  0.4718
 1328SOL     OW15616   1.031   0.386  13.409 -0.0915  0.5183  1.0816
 1328SOL    HW115617   0.939   0.381  13.434 -0.0143 -0.2573  1.1947
 1328SOL    HW215618   1.045   0.474  13.372  1.3731  0.5587  1.7215
 1329SOL     OW15619   2.370   1.177  13.368 -0.1052 -0.2510 -0.4647
 1329SOL    HW115620   2.415   1.106  13.413  0.6633 -0.2631 -1.2465
 1329SOL    HW215621   2.340   1.237  13.437 -1.5198 -0.5286 -0.8476
 1330SOL     OW15622   1.596   1.175  10.940 -0.6092 -0.7399 -0.9065
 1330SOL    HW115623   1.559   1.210  11.021  0.4900  1.6150 -1.4473
 1330SOL    HW215624   1.563   1.086  10.955  1.2854 -0.8563  2.7748
 1331SOL     OW15625   1.103   0.817   7.902 -0.1580  0.3054  0.1230
 1331SOL    HW115626   1.015   0.785   7.884 -0.1354  0.2163  0.1744
 1331SOL    HW215627   1.120   0.821   7.996  0.8899  0.0170 -0.0569
 1332SOL     OW15628   3.875   2.842   3.503  0.0757  0.1288  0.8807
 1332SOL    HW115629   3.954   2.816   3.552  0.7467  0.2782 -0.1272
 1332SOL    HW215630   3.810   2.836   3.573 -0.5137  1.1165  0.4068
 1333SOL     OW15631   1.088   0.717  10.257 -0.1642 -0.3861  0.2271
 1333SOL    HW115632   1.126   0.739  10.172 -1.0444 -0.2843 -0.1383
 1333SOL    HW215633   1.006   0.680  10.224 -1.0131  1.9663 -0.3132
 1334SOL     OW15634   2.081   1.048   7.330  0.3095 -0.2260 -0.2256
 1334SOL    HW115635   1.985   1.041   7.333  0.4024 -0.7370  1.6409
 1334SOL    HW215636   2.099   1.106   7.256 -0.9938 -0.8746 -1.0702
 1335SOL     OW15637   4.316   2.343   6.928 -0.0313 -0.0459 -0.0120
 1335SOL    HW115638   4.332   2.263   6.979 -3.5544 -1.0599 -0.5387
 1335SOL    HW215639   4.391   2.400   6.949 -1.4435  1.9787 -0.4552
 1336SOL     OW15640   2.603   2.265   5.681 -0.0695  0.4043 -0.0522
 1336SOL    HW115641   2.698   2.254   5.691  0.0777  0.6542 -1.2492
 1336SOL    HW215642   2.599   2.255   5.586  0.6166 -3.2839  0.3103
 1337SOL     OW15643   2.549   1.706  14.397 -0.6817 -0.0848  0.0305
 1337SOL    HW115644   2.508   1.684  14.314  1.7339 -2.0601 -0.6283
 1337SOL    HW215645   2.609   1.633  14.412 -2.0666 -0.9458  1.4342
 1338SOL     OW15646   2.021   4.599  16.528  0.0462  0.3095 -0.4248
 1338SOL    HW115647   2.032   4.658  16.454 -1.9673 -2.9936 -3.3309
 1338SOL    HW215648   1.977   4.662  16.586  1.2859  0.6687  0.1238
 1339SOL     OW15649   1.344   2.700   2.760 -0.2170 -0.0566  0.2767
 1339SOL    HW115650   1.420   2.728   2.710  1.0291 -1.4605  1.3821
 1339SOL    HW215651   1.384   2.679   2.845  0.6416  0.0566 -0.0999
 1340SOL     OW15652   1.391   2.184   3.549  0.0886 -0.4452 -0.0795
 1340SOL    HW115653   1.321   2.203   3.487 -0.0669  1.0522  0.5500
 1340SOL    HW215654   1.403   2.091   3.530 -0.6953 -0.3336 -1.1149
 1341SOL     OW15655   4.372   0.221   5.205 -0.2569  0.1729  0.2501
 1341SOL    HW115656   4.394   0.217   5.298 -1.1084 -0.0041  0.4422
 1341SOL    HW215657   4.278   0.236   5.209 -0.2302  0.1422  1.0209
 1342SOL     OW15658   0.084   1.689   6.798  0.4778 -0.4375 -0.6758
 1342SOL    HW115659   0.142   1.651   6.864 -2.3901 -1.2230  1.3984
 1342SOL    HW215660   0.001   1.666   6.840  1.6945 -0.4143  1.7940
 1343SOL     OW15661   4.073   0.786   2.051  0.4242  0.0952 -0.3166
 1343SOL    HW115662   4.154   0.836   2.041  1.5922 -2.0185 -1.4367
 1343SOL    HW215663   4.065   0.754   1.962 -1.2104 -2.2034  0.6637
 1344SOL     OW15664   0.147   1.298   3.281  0.1847 -0.4022 -0.3293
 1344SOL    HW115665   0.054   1.291   3.261 -0.1496 -0.7536  1.3235
 1344SOL    HW215666   0.182   1.235   3.218  1.9535  0.5962 -0.3263
 1345SOL     OW15667   1.526   1.069   7.036 -0.5084  0.0906  0.3032
 1345SOL    HW115668   1.589   1.131   7.074 -2.3574  1.9093  0.3671
 1345SOL    HW215669   1.560   1.045   6.950 -0.7412 -1.7739  0.7198
 1346SOL     OW15670   2.792   2.497   4.036 -0.1977 -0.5387 -0.0686
 1346SOL    HW115671   2.752   2.411   4.051 -1.5985 -0.1348 -1.4718
 1346SOL    HW215672   2.827   2.484   3.947 -3.0098  0.1441 -1.2794
 1347SOL     OW15673   2.641   1.050  17.456 -0.3072  0.0311 -0.2745
 1347SOL    HW115674   2.590   1.034  17.377  0.6363  1.1385 -1.0980
 1347SOL    HW215675   2.709   0.991  17.422 -1.8496  0.1555 -3.5367
 1348SOL     OW15676   0.448   2.663   6.391  0.0298 -0.2054 -0.5537
 1348SOL    HW115677   0.511   2.615   6.337  1.7957  1.0707  0.3692
 1348SOL    HW215678   0.449   2.741   6.335  0.8605  3.0383  3.9948
 1349SOL     OW15679   3.574   3.293   2.427 -0.3948  0.0326  0.7308
 1349SOL    HW115680   3.551   3.366   2.485  1.5716  3.2125 -2.5280
 1349SOL    HW215681   3.548   3.335   2.345 -0.4566 -2.8486 -0.6874
 1350SOL     OW15682   2.503   3.269  11.005  0.5048 -0.5744 -0.3268
 1350SOL    HW115683   2.430   3.249  10.946  1.0265 -0.7313 -0.9245
 1350SOL    HW215684   2.477   3.220  11.083 -2.2144  1.2303 -0.1050
 1351SOL     OW15685   4.596   0.766   8.053 -0.1026  0.3236  0.4143
 1351SOL    HW115686   4.670   0.748   8.112  0.5124 -1.1351 -0.8252
 1351SOL    HW215687   4.536   0.698   8.083 -2.3222  1.5152 -1.3789
 1352SOL     OW15688   2.537   3.513   3.765  0.0194  0.4696  0.6128
 1352SOL    HW115689   2.460   3.457   3.767  2.0381 -2.3051  0.6365
 1352SOL    HW215690   2.555   3.523   3.859  2.6495  0.4551  0.1048
 1353SOL     OW15691   4.451   2.633   4.995  0.4251 -0.3881 -0.7438
 1353SOL    HW115692   4.401   2.554   4.975 -1.3509  0.0717  1.8604
 1353SOL    HW215693   4.376   2.692   5.011  0.8311  0.7707 -3.1791
 1354SOL     OW15694   0.569   2.157   7.905 -0.2062  0.1439 -0.5263
 1354SOL    HW115695   0.651   2.146   7.857  0.2835  0.3048  0.2784
 1354SOL    HW215696   0.517   2.195   7.835  0.5542  1.1225 -0.5545
 1355SOL     OW15697   3.976   1.958   1.822 -0.0080 -0.3766  0.3224
 1355SOL    HW115698   4.045   1.906   1.864  1.2618  0.1792 -1.0533
 1355SOL    HW215699   3.906   1.906   1.861 -0.7039  1.1604  1.1237
 1356SOL     OW15700   4.391   1.523  11.956 -0.1114  0.1990  0.4571
 1356SOL    HW115701   4.446   1.474  11.896  0.9946  1.9175  0.0687
 1356SOL    HW215702   4.441   1.518  12.038  1.0795  0.9574 -0.2293
 1357SOL     OW15703   2.432   0.240   3.955 -0.7443  0.7510  0.2101
 1357SOL    HW115704   2.436   0.145   3.968  1.6763  0.5793 -1.7461
 1357SOL    HW215705   2.397   0.274   4.037 -4.1753 -0.4695 -0.7247
 1358SOL     OW15706   3.844   0.960   1.527  0.2543 -0.0774  0.1421
 1358SOL    HW115707   3.847   0.960   1.431  0.8319  1.6614  0.1543
 1358SOL    HW215708   3.757   0.996   1.544  0.6078 -0.0699  1.9111
 1359SOL     OW15709   3.887   0.990  16.463 -0.4113 -0.8164 -0.5012
 1359SOL    HW115710   3.965   0.937  16.479 -1.5632 -1.8873  1.6162
 1359SOL    HW215711   3.913   1.075  16.430 -2.6306  0.7928  1.8196
 1360SOL     OW15712   4.539   2.428   5.399 -0.4478  0.3126  0.0807
 1360SOL    HW115713   4.591   2.440   5.479 -3.2307  0.0629  1.9157
 1360SOL    HW215714   4.571   2.493   5.335  1.2108  0.2582  0.8505
 1361SOL     OW15715   2.095   1.673   9.002 -0.0568  0.3398 -0.5892
 1361SOL    HW115716   2.089   1.728   8.923 -1.8601  1.6688  0.4561
 1361SOL    HW215717   2.006   1.642   9.016 -0.6715  2.5404  0.4557
 1362SOL     OW15718   1.124   0.487   2.273 -0.1770  0.1271  0.0655
 1362SOL    HW115719   1.146   0.467   2.182 -0.8423  0.1030 -0.0927
 1362SOL    HW215720   1.194   0.550   2.291  0.8182 -0.7576 -0.7428
 1363SOL     OW15721   2.475   0.048   7.148  0.1643 -0.1125  0.3147
 1363SOL    HW115722   2.431   0.041   7.233  0.1580 -0.0750  0.3146
 1363SOL    HW215723   2.518   0.132   7.163 -1.5061  0.3478  2.5565
 1364SOL     OW15724   4.480   1.025   1.860  0.1269 -0.0896  0.2585
 1364SOL    HW115725   4.509   1.105   1.904 -2.7891  0.8899  0.4055
 1364SOL    HW215726   4.452   1.056   1.774  0.1358 -2.2410 -0.5252
 1365SOL     OW15727   2.798   3.971   9.295 -0.3929  0.3432  0.2325
 1365SOL    HW115728   2.808   4.061   9.325 -0.3504  0.5771 -0.4888
 1365SOL    HW215729   2.738   3.938   9.362  1.9372  1.7914  3.0117
 1366SOL     OW15730   0.228   4.358   4.627  0.1337 -0.0326 -0.3342
 1366SOL    HW115731   0.189   4.314   4.552  1.3060  0.0432 -0.9951
 1366SOL    HW215732   0.194   4.444   4.604  0.7897  0.2903 -0.0896
 1367SOL     OW15733   0.456   0.291   2.625 -0.0454  0.4424  1.1154
 1367SOL    HW115734   0.363   0.305   2.610 -0.6637 -0.1536  4.3534
 1367SOL    HW215735   0.483   0.363   2.683  1.5020 -0.2513  1.2455
 1368SOL     OW15736   4.058   0.282   2.603 -0.4002 -0.9009  0.4806
 1368SOL    HW115737   4.092   0.337   2.532 -0.3615 -0.7861  0.5886
 1368SOL    HW215738   4.128   0.280   2.669  0.1967 -1.2556 -0.1648
 1369SOL     OW15739   3.343   2.687  12.840 -0.2484  0.0490 -0.4325
 1369SOL    HW115740   3.307   2.714  12.924  1.9171  0.8912  0.2264
 1369SOL    HW215741   3.435   2.713  12.850 -0.3331  0.1829 -0.0199
 1370SOL     OW15742   1.826   3.903   6.420  0.0268  0.3884 -0.3612
 1370SOL    HW115743   1.844   3.857   6.338  2.7939 -0.4501  0.7140
 1370SOL    HW215744   1.732   3.918   6.414 -0.0863  0.4764  1.6636
 1371SOL     OW15745   3.483   3.077   5.376  0.8472 -0.6830  0.0207
 1371SOL    HW115746   3.540   3.151   5.394 -1.1133  0.8332 -0.0254
 1371SOL    HW215747   3.541   3.007   5.345  0.8315 -0.9656  0.6108
 1372SOL     OW15748   2.763   0.308   2.154  0.3049 -0.0384  0.1837
 1372SOL    HW115749   2.783   0.383   2.210 -2.7840 -1.8824  3.7649
 1372SOL    HW215750   2.823   0.240   2.187 -2.0325 -1.0178  2.4762
 1373SOL     OW15751   1.161   0.016   1.306 -0.2185 -0.0527 -0.1585
 1373SOL    HW115752   1.246   0.059   1.315  1.2250 -2.5853 -1.7221
 1373SOL    HW215753   1.172   4.656   1.306 -0.7557 -0.1219  0.5938
 1374SOL     OW15754   1.125   2.058   4.443  0.8073 -0.2547 -0.2941
 1374SOL    HW115755   1.102   2.120   4.513  1.4722 -1.8902  1.3745
 1374SOL    HW215756   1.039   2.045   4.404  0.9725  0.4973 -0.9127
 1375SOL     OW15757   3.275   2.985   3.249  0.0245 -0.4741  0.4627
 1375SOL    HW115758   3.342   2.964   3.313  1.0802 -1.2103 -0.8711
 1375SOL    HW215759   3.298   2.926   3.177  0.1156  0.5731 -0.3704
 1376SOL     OW15760   1.572   4.484   9.118 -0.5893 -0.3462  0.2136
 1376SOL    HW115761   1.580   4.409   9.059 -1.5168  1.5480 -2.3565
 1376SOL    HW215762   1.493   4.468   9.168 -0.6124 -0.5495  0.1097
 1377SOL     OW15763   2.016   0.085   5.091 -0.0414  0.1444  0.0791
 1377SOL    HW115764   2.076   0.089   5.017 -0.9734 -0.9449 -0.7269
 1377SOL    HW215765   2.031   0.170   5.133 -0.8544 -0.0555  0.7819
 1378SOL     OW15766   4.611   1.257   3.256 -0.0015  0.0662  0.2511
 1378SOL    HW115767   4.587   1.225   3.343 -0.3262  1.9757  0.8607
 1378SOL    HW215768   4.564   1.339   3.241  0.1509  0.2007  0.5103
 1379SOL     OW15769   0.354   4.097   5.153 -0.1268  0.8987 -0.3418
 1379SOL    HW115770   0.375   4.048   5.233  0.7082  0.5834 -0.7532
 1379SOL    HW215771   0.261   4.075   5.149 -0.1514  1.1072 -0.8327
 1380SOL     OW15772   0.638   4.383  17.629  0.2056  0.1099 -0.9924
 1380SOL    HW115773   0.672   4.314  17.573  0.0126 -0.4939 -0.3633
 1380SOL    HW215774   0.627   4.453  17.564 -0.3682 -0.3631 -1.3980
 1381SOL     OW15775   0.171   0.660   2.652  0.0110 -0.1606  0.1310
 1381SOL    HW115776   0.197   0.729   2.591 -1.3422 -0.5629 -0.9027
 1381SOL    HW215777   0.137   0.713   2.725 -1.5264  1.0240 -1.4601
 1382SOL     OW15778   1.845   3.464   6.710 -0.4000  0.4071 -0.2772
 1382SOL    HW115779   1.936   3.452   6.738  0.6611 -1.0437 -4.2783
 1382SOL    HW215780   1.828   3.378   6.670 -2.1917 -0.1771  1.7886
 1383SOL     OW15781   3.433   2.269  14.693  0.6604  0.3166 -0.0457
 1383SOL    HW115782   3.395   2.251  14.780 -2.5990  0.6438 -1.4143
 1383SOL    HW215783   3.396   2.352  14.664  1.7677  1.2949  1.2977
 1384SOL     OW15784   0.870   4.404  11.518 -0.2681 -0.3666  0.1807
 1384SOL    HW115785   0.846   4.315  11.545 -1.9944  0.7456  2.2445
 1384SOL    HW215786   0.963   4.383  11.515  0.3105  2.1230  0.7274
 1385SOL     OW15787   1.765   1.046  12.383 -0.4993  0.1573  0.2365
 1385SOL    HW115788   1.694   0.986  12.360 -2.6745  2.8256 -0.0402
 1385SOL    HW215789   1.774   1.099  12.304  0.8006  0.1309  0.3675
 1386SOL     OW15790   0.481   3.750  11.998 -0.1268  0.1267  0.2087
 1386SOL    HW115791   0.483   3.697  11.919  1.6157  0.7072 -0.1276
 1386SOL    HW215792   0.572   3.758  12.028 -0.3799 -1.7826  1.4408
 1387SOL     OW15793   1.780   1.316   7.815  0.5787 -0.6332  0.7464
 1387SOL    HW115794   1.698   1.268   7.803  1.3782 -1.5052 -1.3660
 1387SOL    HW215795   1.768   1.372   7.891  1.8730  0.9162 -0.1944
 1388SOL     OW15796   1.925   1.986  10.162  0.2475 -0.4247 -0.2773
 1388SOL    HW115797   1.850   1.971  10.219  0.5071 -1.0072 -0.0961
 1388SOL    HW215798   1.986   1.924  10.201 -1.2915 -0.1542  2.5158
 1389SOL     OW15799   4.164   1.112   2.427  0.3467 -1.0107  0.0022
 1389SOL    HW115800   4.069   1.121   2.415  0.7350  1.5278 -1.2107
 1389SOL    HW215801   4.172   1.089   2.520 -0.1587  0.5598  0.4425
 1390SOL     OW15802   1.231   1.320   2.352  0.0970 -0.1116  0.0720
 1390SOL    HW115803   1.180   1.275   2.420 -1.0204  1.4197  0.2354
 1390SOL    HW215804   1.262   1.242   2.306 -1.6142 -0.0088 -1.2666
 1391SOL     OW15805   2.356   1.038  15.022 -0.4942 -0.1095  0.0405
 1391SOL    HW115806   2.300   1.047  15.099  0.2285 -0.9219  0.6681
 1391SOL    HW215807   2.353   0.942  15.019 -0.4232 -0.1680  2.2778
 1392SOL     OW15808   3.810   1.419   2.884 -0.3733 -0.5484 -0.3412
 1392SOL    HW115809   3.865   1.376   2.819  0.6058  1.1047 -0.5998
 1392SOL    HW215810   3.877   1.477   2.920 -0.8478 -1.0483  1.3440
 1393SOL     OW15811   4.251   1.111   2.147 -0.8401 -0.2286 -0.3313
 1393SOL    HW115812   4.230   1.127   2.239  0.0315  1.0598 -0.3445
 1393SOL    HW215813   4.165   1.128   2.108  0.2694  0.7522 -2.3600
 1394SOL     OW15814   4.708   3.481  13.722 -0.1298  0.0325  0.1657
 1394SOL    HW115815   4.683   3.563  13.764 -0.2928 -1.1353  2.3836
 1394SOL    HW215816   4.628   3.470  13.671 -0.1227  2.4298 -0.3537
 1395SOL     OW15817   2.604   3.473   1.885 -0.1997  0.5187 -0.3844
 1395SOL    HW115818   2.510   3.464   1.869 -0.1274 -2.8074  0.9477
 1395SOL    HW215819   2.627   3.546   1.828  1.8849  0.2995  0.1864
 1396SOL     OW15820   2.637   4.232   0.568  0.1631  0.8246  0.3868
 1396SOL    HW115821   2.702   4.301   0.558  1.3654 -0.3579 -0.0485
 1396SOL    HW215822   2.597   4.255   0.652  2.3857  1.0106  1.4232
 1397SOL     OW15823   4.399   3.465   7.545 -0.1565  0.2702  0.3736
 1397SOL    HW115824   4.344   3.518   7.488 -0.3677 -1.7978 -1.3500
 1397SOL    HW215825   4.454   3.423   7.478 -0.0363  1.0395 -0.0159
 1398SOL     OW15826   0.871   0.039   1.881 -0.1878  0.0554 -0.2708
 1398SOL    HW115827   0.851   4.699   1.938 -1.0165 -0.3498 -1.0853
 1398SOL    HW215828   0.783   0.070   1.861 -0.1051  0.9110  0.7108
 1399SOL     OW15829   0.296   3.254   7.114 -0.0572 -0.5463  0.2117
 1399SOL    HW115830   0.293   3.345   7.084 -0.3548 -0.2262  1.2128
 1399SOL    HW215831   0.293   3.204   7.033  1.6892 -0.3624  0.0447
 1400SOL     OW15832   1.926   1.935   5.974  0.5555 -0.2704  0.0717
 1400SOL    HW115833   1.839   1.958   6.006  1.6535  0.5678  2.4380
 1400SOL    HW215834   1.969   2.019   5.960 -1.2901  0.2572 -2.4649
 1401SOL     OW15835   4.685   4.383   5.948 -0.4291  0.5975 -0.9147
 1401SOL    HW115836   4.675   4.397   6.042  2.3246  1.7564 -0.8088
 1401SOL    HW215837   0.041   4.356   5.950 -0.4507  0.9315  3.3383
 1402SOL     OW15838   0.402   1.571   9.063  0.1478  0.1352 -0.1523
 1402SOL    HW115839   0.445   1.485   9.069 -0.7572 -0.1794  1.8512
 1402SOL    HW215840   0.478   1.629   9.063  0.1147  0.1481 -3.4977
 1403SOL     OW15841   4.680   4.620  15.920  0.3183  0.1914 -0.3829
 1403SOL    HW115842   4.593   4.614  15.882 -1.3714 -0.7045  3.5592
 1403SOL    HW215843   4.716   4.535  15.897  1.5284  1.3593 -2.7470
 1404SOL     OW15844   1.062   2.223   2.531 -0.7043  0.3488  0.3563
 1404SOL    HW115845   1.144   2.272   2.524 -1.2477  1.3480  1.0676
 1404SOL    HW215846   0.994   2.283   2.562 -0.6576  0.1453  0.8445
 1405SOL     OW15847   2.305   4.263   8.363 -0.0929  0.0665  0.0718
 1405SOL    HW115848   2.332   4.183   8.319  2.0594  1.6544 -1.4794
 1405SOL    HW215849   2.226   4.291   8.316  1.3211 -0.3626 -2.5779
 1406SOL     OW15850   2.555   0.363   3.750 -0.3780  0.1040 -0.1407
 1406SOL    HW115851   2.629   0.304   3.733  0.7270  0.9875  1.6933
 1406SOL    HW215852   2.528   0.348   3.840  0.8577  0.0506  0.2265
 1407SOL     OW15853   3.528   0.795  13.871  0.0315  0.4679  0.3869
 1407SOL    HW115854   3.446   0.781  13.917 -0.2460  2.4229  0.4734
 1407SOL    HW215855   3.500   0.828  13.786 -1.9232 -0.3746  0.7009
 1408SOL     OW15856   3.457   1.454   4.508 -0.8442  0.4605  0.2951
 1408SOL    HW115857   3.485   1.518   4.573  1.3536 -0.3990  0.2059
 1408SOL    HW215858   3.490   1.477   4.422  1.1981 -0.6922  0.7734
 1409SOL     OW15859   4.032   0.966   9.220  0.2125 -0.3685  0.2781
 1409SOL    HW115860   4.015   1.028   9.291 -0.4772  0.1830 -0.3708
 1409SOL    HW215861   3.970   0.993   9.153 -0.3305 -0.6416  0.6726
 1410SOL     OW15862   1.759   3.629   9.308  0.0526 -0.3740  0.1911
 1410SOL    HW115863   1.732   3.559   9.248 -0.7882 -0.2108  0.3912
 1410SOL    HW215864   1.804   3.573   9.371  0.0786  0.4568  0.9103
 1411SOL     OW15865   2.138   0.886   9.030  0.0656 -0.6555 -0.1878
 1411SOL    HW115866   2.128   0.943   9.106 -1.8492 -3.0492  1.3480
 1411SOL    HW215867   2.138   0.953   8.962  1.3788  0.0487  0.4973
 1412SOL     OW15868   1.843   3.628   8.744  0.2304  0.4420 -0.0749
 1412SOL    HW115869   1.788   3.672   8.678 -0.3192  1.2338  0.9081
 1412SOL    HW215870   1.926   3.676   8.737  0.8817 -0.6324  0.3549
 1413SOL     OW15871   1.063   0.844   4.457 -0.0879 -0.3211 -0.0245
 1413SOL    HW115872   1.150   0.884   4.446 -1.0182  1.8239  0.3932
 1413SOL    HW215873   1.005   0.881   4.391  1.6996 -1.3322 -2.1612
 1414SOL     OW15874   1.336   1.073  10.917 -0.5457 -0.2013 -0.0993
 1414SOL    HW115875   1.287   1.141  10.964  1.2305  1.2726 -0.4202
 1414SOL    HW215876   1.339   1.103  10.826 -1.0953  0.4792  0.1094
 1415SOL     OW15877   1.384   4.273   3.410 -0.1703 -0.2371  0.2104
 1415SOL    HW115878   1.413   4.318   3.489 -0.5188 -3.0932  1.9584
 1415SOL    HW215879   1.448   4.303   3.346 -0.7545  0.6120  0.0171
 1416SOL     OW15880   3.096   4.419  10.947 -0.2881 -0.4444 -0.0760
 1416SOL    HW115881   3.172   4.446  10.998 -0.7960  2.4542 -0.8800
 1416SOL    HW215882   3.030   4.467  10.997 -1.0043 -2.7787  1.2455
 1417SOL     OW15883   0.634   3.522   2.816 -0.1560 -0.6719  0.4726
 1417SOL    HW115884   0.648   3.462   2.743 -3.8330 -0.7601 -0.1484
 1417SOL    HW215885   0.676   3.600   2.780  0.7254 -2.0271 -1.4208
 1418SOL     OW15886   0.980   1.499  10.686  0.0454  0.3320 -0.7195
 1418SOL    HW115887   0.954   1.413  10.719  0.6957 -0.3595 -2.0004
 1418SOL    HW215888   0.893   1.533  10.665 -1.0485 -2.9759 -1.5555
 1419SOL     OW15889   2.574   2.206   6.380 -0.4552  0.4389 -0.7334
 1419SOL    HW115890   2.650   2.264   6.379 -0.5677  0.6286  1.8733
 1419SOL    HW215891   2.580   2.159   6.463  1.1120 -2.1945 -2.3303
 1420SOL     OW15892   2.141   2.731   7.867  0.1234  0.3008 -0.2418
 1420SOL    HW115893   2.180   2.816   7.888  2.7502 -0.9031 -0.2675
 1420SOL    HW215894   2.210   2.681   7.824  0.6475  1.3648 -0.6454
 1421SOL     OW15895   3.649   2.195   4.027 -0.0812 -0.1426  0.2155
 1421SOL    HW115896   3.664   2.184   4.121  1.9393 -1.0265 -0.1979
 1421SOL    HW215897   3.607   2.111   4.009 -0.4258  0.0116  0.3171
 1422SOL     OW15898   0.784   2.719   8.024 -0.5928 -0.7789  0.2562
 1422SOL    HW115899   0.760   2.660   8.095 -1.0180 -1.2997 -0.3167
 1422SOL    HW215900   0.774   2.805   8.065 -1.0957  0.5634 -2.6627
 1423SOL     OW15901   2.498   1.263  15.046  0.2807  0.6583  0.0680
 1423SOL    HW115902   2.443   1.185  15.042  0.0223  0.7769  1.2972
 1423SOL    HW215903   2.483   1.302  14.960 -2.1993 -2.1520 -0.7577
 1424SOL     OW15904   0.887   0.724   8.073  0.1598  0.5216  0.2164
 1424SOL    HW115905   0.973   0.695   8.105  0.4047  0.0750 -0.8389
 1424SOL    HW215906   0.840   0.652   8.113  0.7649  0.4638  0.8329
 1425SOL     OW15907   2.935   3.710   4.029  0.3565 -0.2390 -0.1898
 1425SOL    HW115908   3.022   3.694   4.065 -0.7391 -1.6954  1.8894
 1425SOL    HW215909   2.943   3.796   3.989 -1.0207  0.1579  0.3729
 1426SOL     OW15910   4.640   2.178   2.105 -0.3872 -0.3187 -0.0116
 1426SOL    HW115911   4.731   2.150   2.111  0.2436  1.3818 -1.6699
 1426SOL    HW215912   4.620   2.183   2.199  0.7625 -2.6423  0.3665
 1427SOL     OW15913   4.436   2.867   6.182  0.4845 -0.1378 -0.4482
 1427SOL    HW115914   4.437   2.962   6.185 -1.6832 -0.0137 -3.8077
 1427SOL    HW215915   4.343   2.866   6.203  0.5343 -4.2045 -0.4527
 1428SOL     OW15916   0.381   2.656   7.563  0.0009 -0.0153 -0.2658
 1428SOL    HW115917   0.376   2.584   7.500 -1.2104 -2.7619  2.9556
 1428SOL    HW215918   0.472   2.683   7.557 -0.1907  0.9564  1.1399
 1429SOL     OW15919   3.005   1.254  15.086 -0.6084 -0.3105 -0.0924
 1429SOL    HW115920   2.916   1.250  15.120 -0.5941 -0.9705 -0.1305
 1429SOL    HW215921   3.044   1.303  15.158 -0.5129  0.2804 -0.5412
 1430SOL     OW15922   0.919   2.128   2.289  0.2097 -0.1636 -0.0809
 1430SOL    HW115923   0.966   2.139   2.372  1.1413  1.9159 -0.8892
 1430SOL    HW215924   0.948   2.211   2.251  0.1422  0.5012  1.3016
 1431SOL     OW15925   4.276   1.571   8.132  0.4637  0.6212 -0.1957
 1431SOL    HW115926   4.184   1.563   8.108  1.2750 -1.7476 -2.5286
 1431SOL    HW215927   4.290   1.518   8.211 -0.2358  0.1208 -0.4094
 1432SOL     OW15928   0.979   3.244  17.160 -0.3380  0.6668  0.1391
 1432SOL    HW115929   1.035   3.298  17.103 -1.7312  2.6699  0.6535
 1432SOL    HW215930   0.907   3.299  17.190  0.9419  1.8679  1.0766
 1433SOL     OW15931   2.770   0.527   5.561 -0.1197  0.0097  0.0260
 1433SOL    HW115932   2.749   0.599   5.502  1.2879  1.8996  1.8510
 1433SOL    HW215933   2.711   0.543   5.635  1.1681 -0.1269  1.0757
 1434SOL     OW15934   2.989   0.691   9.205 -0.1750 -0.1472  0.3908
 1434SOL    HW115935   2.902   0.650   9.204 -0.7798  1.1804 -2.1933
 1434SOL    HW215936   3.021   0.684   9.114  2.3004  1.6022  1.1414
 1435SOL     OW15937   1.346   1.584  10.486 -0.4605  0.1996  0.1353
 1435SOL    HW115938   1.344   1.524  10.411 -0.9993  0.8555 -0.3784
 1435SOL    HW215939   1.434   1.621  10.479 -0.6035  0.7227  1.1904
 1436SOL     OW15940   3.728   0.566   1.929 -0.2772 -0.3691 -0.0929
 1436SOL    HW115941   3.673   0.599   2.000  1.2145  0.8721  0.4845
 1436SOL    HW215942   3.661   0.514   1.884 -0.6348 -1.0020  1.1603
 1437SOL     OW15943   1.923   4.302  13.330  0.0188 -0.3648  0.1221
 1437SOL    HW115944   1.954   4.348  13.252 -1.9628 -1.6579 -1.4421
 1437SOL    HW215945   1.866   4.361  13.379 -1.9757 -2.5609  0.4391
 1438SOL     OW15946   3.082   0.481  10.966  0.4685 -0.2184  0.3499
 1438SOL    HW115947   3.001   0.499  10.919  0.6219 -2.4452 -0.7558
 1438SOL    HW215948   3.150   0.516  10.909  1.7885 -0.7646  1.6005
 1439SOL     OW15949   2.968   0.310   9.299  0.3407  0.3077 -0.0081
 1439SOL    HW115950   3.007   0.375   9.357 -0.4564 -0.2966  1.2182
 1439SOL    HW215951   2.886   0.295   9.346  2.0551 -1.8602  2.2990
 1440SOL     OW15952   1.745   3.337   4.248  0.1067 -0.3839 -0.1677
 1440SOL    HW115953   1.752   3.429   4.273 -0.7803 -0.2731 -0.3554
 1440SOL    HW215954   1.830   3.321   4.206  0.0254  1.7833 -1.1323
 1441SOL     OW15955   3.133   3.892   4.397 -0.0081  0.0924  0.4439
 1441SOL    HW115956   3.061   3.936   4.351 -0.0680 -0.1791  0.2783
 1441SOL    HW215957   3.113   3.916   4.487  4.2575  0.9184  1.1648
 1442SOL     OW15958   1.972   3.133   4.706 -0.1986 -0.5115 -0.0517
 1442SOL    HW115959   1.996   3.211   4.655 -1.4335  1.4826  2.4533
 1442SOL    HW215960   2.057   3.112   4.745 -0.8102  0.8129  1.9982
 1443SOL     OW15961   3.319   0.978   3.198 -0.4272  0.1334 -0.1869
 1443SOL    HW115962   3.282   0.909   3.144 -0.4153 -0.4857  0.6026
 1443SOL    HW215963   3.300   1.058   3.149 -1.2604  0.8562  1.2985
 1444SOL     OW15964   0.697   4.121   2.361  0.0574  0.4431  0.0458
 1444SOL    HW115965   0.612   4.160   2.341 -0.1988  0.0139  0.2886
 1444SOL    HW215966   0.752   4.198   2.346 -0.3963  0.6396 -0.6143
 1445SOL     OW15967   3.788   3.407  10.024  0.9055 -0.6767 -0.2447
 1445SOL    HW115968   3.746   3.409  10.110 -0.1401 -3.4879 -0.6743
 1445SOL    HW215969   3.795   3.312  10.011 -1.6352 -0.7006 -1.5470
 1446SOL     OW15970   0.780   3.478  13.455  0.3958 -0.1939  0.2513
 1446SOL    HW115971   0.769   3.507  13.546  1.7025 -2.3428  1.1058
 1446SOL    HW215972   0.836   3.549  13.426 -0.5052  0.3771 -0.0802
 1447SOL     OW15973   3.528   2.640   1.835  0.0036  0.3483 -0.1238
 1447SOL    HW115974   3.528   2.657   1.929 -0.0438 -0.9104  0.0989
 1447SOL    HW215975   3.449   2.587   1.830 -0.4265  0.8514  1.4402
 1448SOL     OW15976   0.180   0.037  15.237  0.1459 -0.1620 -0.1569
 1448SOL    HW115977   0.105   4.716  15.216  0.7474 -1.4425  1.1929
 1448SOL    HW215978   0.241   4.718  15.287  1.4230 -0.3690 -1.9290
 1449SOL     OW15979   1.099   3.048   3.003 -0.0321  0.0917 -0.1561
 1449SOL    HW115980   1.056   3.130   3.028 -2.5439 -1.8122  1.8201
 1449SOL    HW215981   1.141   3.066   2.919 -0.6927  1.0812 -0.2682
 1450SOL     OW15982   2.617   4.561   1.148  0.0564  0.1728  0.0342
 1450SOL    HW115983   2.569   4.539   1.068  0.8448 -2.1417  0.2067
 1450SOL    HW215984   2.577   4.646   1.164  1.4492  0.2015  3.2707
 1451SOL     OW15985   2.110   2.669   8.309 -0.0212 -0.1232 -1.0906
 1451SOL    HW115986   2.183   2.639   8.255  1.4809 -1.9717  2.0226
 1451SOL    HW215987   2.043   2.618   8.264  0.2865 -0.5003 -1.1219
 1452SOL     OW15988   0.143   2.234   9.037 -0.1678 -0.1619  0.4256
 1452SOL    HW115989   0.065   2.279   9.070  0.7679  1.0630  0.9559
 1452SOL    HW215990   0.189   2.210   9.117  0.9900  0.3878 -0.0807
 1453SOL     OW15991   4.346   0.777   7.653 -0.0460 -0.2147  0.2370
 1453SOL    HW115992   4.361   0.870   7.668 -0.5736 -0.2664  1.1174
 1453SOL    HW215993   4.431   0.740   7.676 -0.8646 -0.7222  2.4697
 1454SOL     OW15994   2.731   2.672   6.229 -0.3719 -0.5772 -0.0520
 1454SOL    HW115995   2.735   2.690   6.135 -0.5396  1.0258  0.2484
 1454SOL    HW215996   2.751   2.760   6.262  0.6847 -0.1788 -1.7541
 1455SOL     OW15997   1.431   2.077   3.232 -0.4084  0.3272 -0.0347
 1455SOL    HW115998   1.396   2.008   3.175 -1.5130  0.3904  0.5653
 1455SOL    HW215999   1.514   2.040   3.263 -0.9195 -0.6431  0.1846
 1456SOL     OW16000   1.314   2.645   5.058  0.1830 -0.1432 -0.0220
 1456SOL    HW116001   1.348   2.660   5.146  0.1851 -3.3787  0.5335
 1456SOL    HW216002   1.260   2.568   5.075  1.2289 -0.5903  1.2769
 1457SOL     OW16003   4.244   1.709  12.124 -0.2862  0.3554  0.1246
 1457SOL    HW116004   4.218   1.691  12.034  1.5183 -0.1551 -0.3080
 1457SOL    HW216005   4.315   1.646  12.137 -0.0975  0.0271 -2.4815
 1458SOL     OW16006   2.736   2.063   8.389  0.0797  0.6963 -0.0064
 1458SOL    HW116007   2.682   2.127   8.436 -1.8974  1.5421 -3.3953
 1458SOL    HW216008   2.707   2.071   8.298 -1.9083  0.4427  0.6108
 1459SOL     OW16009   1.647   3.907   7.473  0.3214 -0.2756 -0.2482
 1459SOL    HW116010   1.576   3.850   7.502 -1.6682  2.1520 -0.4024
 1459SOL    HW216011   1.613   3.919   7.385  0.9915  1.5162 -0.2637
 1460SOL     OW16012   3.901   2.054   1.326  0.4753 -0.2907 -0.2818
 1460SOL    HW116013   3.978   2.090   1.371 -1.9593  2.5506  1.6617
 1460SOL    HW216014   3.927   2.033   1.236 -0.3721  1.2789 -0.9054
 1461SOL     OW16015   0.552   1.123   3.779  0.2536 -0.3094  0.0292
 1461SOL    HW116016   0.486   1.074   3.828 -1.0021  1.0394 -0.2873
 1461SOL    HW216017   0.551   1.085   3.691  0.2424  1.2549 -0.6590
 1462SOL     OW16018   2.918   2.265  16.795  0.6438 -0.3627  0.6533
 1462SOL    HW116019   2.992   2.303  16.748  1.8017 -1.5550  1.5434
 1462SOL    HW216020   2.864   2.211  16.736  1.0599 -1.0327  0.8906
 1463SOL     OW16021   0.298   3.083   2.657 -0.6478 -0.3864  0.4264
 1463SOL    HW116022   0.314   3.168   2.697 -2.0660 -0.5708  1.3726
 1463SOL    HW216023   0.238   3.039   2.717 -1.7476 -0.2550 -0.5626
 1464SOL     OW16024   3.510   3.968   7.423 -0.1688 -0.2621  0.4558
 1464SOL    HW116025   3.592   3.921   7.438 -0.4973 -0.6626  0.9674
 1464SOL    HW216026   3.451   3.894   7.436 -0.5728 -0.0757 -0.3416
 1465SOL     OW16027   4.347   3.578   3.207  0.3579  0.1472  0.4890
 1465SOL    HW116028   4.331   3.484   3.211 -1.0183  0.4833  3.1745
 1465SOL    HW216029   4.282   3.621   3.151 -1.3257 -1.7418  0.9977
 1466SOL     OW16030   0.456   2.248   8.559  0.4351  0.2991 -0.8037
 1466SOL    HW116031   0.390   2.290   8.504 -0.3577 -1.3295 -1.0728
 1466SOL    HW216032   0.419   2.161   8.573 -0.9530  0.6665 -2.2358
 1467SOL     OW16033   2.390   2.545   6.308 -0.2440 -0.6911  0.2084
 1467SOL    HW116034   2.401   2.608   6.378  0.0977  0.7353 -1.1358
 1467SOL    HW216035   2.469   2.543   6.254  1.1159  3.3402  2.1320
 1468SOL     OW16036   2.291   2.144   4.476 -0.7973  0.0499 -0.3466
 1468SOL    HW116037   2.319   2.138   4.385  0.5293 -1.7824  0.1931
 1468SOL    HW216038   2.245   2.229   4.474 -1.3471 -0.2218  0.6070
 1469SOL     OW16039   4.674   0.863   2.287 -0.1018  0.3652  0.4210
 1469SOL    HW116040   4.685   0.958   2.280  2.5072 -0.0289 -0.7636
 1469SOL    HW216041   0.001   0.851   2.359 -0.1331  1.8799  0.7037
 1470SOL     OW16042   1.269   3.707  12.140  0.2823  0.3132  0.5714
 1470SOL    HW116043   1.322   3.672  12.068  0.3496  2.5334 -0.4540
 1470SOL    HW216044   1.336   3.721  12.207  0.9957  1.5974 -0.4057
 1471SOL     OW16045   1.358   0.485   6.080 -0.3382 -0.0324 -0.1311
 1471SOL    HW116046   1.262   0.479   6.081 -0.3241  0.0448  1.5961
 1471SOL    HW216047   1.353   0.573   6.044 -0.8813 -0.1524 -0.3537
 1472SOL     OW16048   0.738   1.135   6.829  0.0843 -0.0027  0.3288
 1472SOL    HW116049   0.695   1.081   6.762 -0.6385 -0.6470  1.3230
 1472SOL    HW216050   0.707   1.222   6.806  2.0063  0.3784 -0.8270
 1473SOL     OW16051   4.709   0.994   8.220  0.0470  0.2015  0.0451
 1473SOL    HW116052   4.716   0.899   8.205 -2.1796  0.0415  0.0322
 1473SOL    HW216053   4.634   0.988   8.280  0.0060 -1.4916 -0.1583
 1474SOL     OW16054   2.304   3.340   3.193 -0.5808  0.4617 -0.2357
 1474SOL    HW116055   2.316   3.329   3.287 -1.3361  2.0453  0.0522
 1474SOL    HW216056   2.214   3.311   3.178 -0.2362 -0.9164  0.3780
 1475SOL     OW16057   1.205   0.089   9.802 -0.8233 -0.6832  0.6007
 1475SOL    HW116058   1.215   0.034   9.724 -1.0861  0.2649 -0.1049
 1475SOL    HW216059   1.195   0.031   9.877 -0.1546  0.2808  1.4526
 1476SOL     OW16060   3.720   1.544   9.205  0.2526 -0.3250 -0.0695
 1476SOL    HW116061   3.723   1.452   9.232 -1.7329 -0.2428  0.3711
 1476SOL    HW216062   3.666   1.586   9.272  1.6254  1.0814  0.1532
 1477SOL     OW16063   2.975   2.533   4.615 -0.4460 -0.0300  0.0221
 1477SOL    HW116064   3.000   2.570   4.531 -1.8836  0.1903 -0.3059
 1477SOL    HW216065   2.898   2.589   4.629  0.4691  0.8647  1.4180
 1478SOL     OW16066   0.836   3.546  16.554 -0.0193  0.0201 -0.0759
 1478SOL    HW116067   0.883   3.583  16.628  0.9858  0.0247 -0.7161
 1478SOL    HW216068   0.748   3.544  16.592  0.1597 -0.7380  0.2915
 1479SOL     OW16069   2.287   3.650   6.470  0.4304  0.4637 -0.0019
 1479SOL    HW116070   2.269   3.567   6.515 -1.1015 -0.8845 -3.0918
 1479SOL    HW216071   2.209   3.701   6.493 -0.0727  0.1248 -0.9576
 1480SOL     OW16072   2.825   3.505   9.304  0.0163  0.2707  0.1112
 1480SOL    HW116073   2.842   3.527   9.396  1.1192  1.3877 -0.3523
 1480SOL    HW216074   2.878   3.426   9.298 -0.4409 -0.1707  1.9033
 1481SOL     OW16075   3.753   4.677   9.673  0.1671  0.7739 -0.8535
 1481SOL    HW116076   3.713   4.590   9.664  0.4939  0.4776  0.5296
 1481SOL    HW216077   3.737   4.720   9.589  0.9528 -0.9080 -1.8572
 1482SOL     OW16078   0.293   1.253   5.587  0.5539 -0.1028  0.6462
 1482SOL    HW116079   0.228   1.270   5.655 -1.9512  1.8538 -2.1915
 1482SOL    HW216080   0.262   1.165   5.565  0.4485 -0.1179  0.8545
 1483SOL     OW16081   3.882   0.458   5.158  0.2410 -0.0236  0.0726
 1483SOL    HW116082   3.835   0.378   5.181 -0.2037  0.5230  1.0985
 1483SOL    HW216083   3.805   0.515   5.158  0.0617 -0.2709 -0.5650
 1484SOL     OW16084   1.966   3.201   4.155 -0.4660  0.0361  0.3806
 1484SOL    HW116085   1.907   3.149   4.101 -2.2079  1.7539  0.6054
 1484SOL    HW216086   1.983   3.134   4.221  0.9189 -0.0189 -0.0329
 1485SOL     OW16087   3.874   1.257   3.418 -0.7511 -0.2127  0.2182
 1485SOL    HW116088   3.853   1.177   3.370  0.0267 -1.5824  2.1575
 1485SOL    HW216089   3.891   1.224   3.507 -1.7163  0.5757  0.6931
 1486SOL     OW16090   0.040   1.872   5.018 -0.1044 -0.2983 -0.1635
 1486SOL    HW116091   0.110   1.823   4.975  2.2802  0.9376  2.2461
 1486SOL    HW216092   4.712   1.873   4.947 -0.5678  0.5956  0.2606
 1487SOL     OW16093   4.437   4.474   6.652 -0.2231 -0.3071  0.1410
 1487SOL    HW116094   4.433   4.478   6.748  0.7276  0.6969  0.1365
 1487SOL    HW216095   4.368   4.538   6.637  1.4996  1.4802 -0.0806
 1488SOL     OW16096   4.279   1.537  15.432 -0.1177 -0.0342 -0.5666
 1488SOL    HW116097   4.289   1.577  15.346  0.9352 -0.5166 -0.6746
 1488SOL    HW216098   4.260   1.447  15.406  0.8562 -0.3065 -0.3396
 1489SOL     OW16099   2.763   3.563   4.403  0.0974  0.0728 -0.2543
 1489SOL    HW116100   2.851   3.533   4.380  0.1222 -0.7624  0.9281
 1489SOL    HW216101   2.783   3.643   4.452 -2.0587  1.4323 -1.5882
 1490SOL     OW16102   0.165   3.450  13.420 -0.1847  0.4604  0.1186
 1490SOL    HW116103   0.176   3.374  13.363  0.0590  0.3796  0.2716
 1490SOL    HW216104   0.216   3.517  13.374  1.6490  0.3355  1.9508
 1491SOL     OW16105   0.612   1.435   7.907  0.6751  0.1433  0.3046
 1491SOL    HW116106   0.611   1.414   8.001 -1.1598  0.5680  0.3715
 1491SOL    HW216107   0.705   1.426   7.888  0.2776 -3.6760  0.1317
 1492SOL     OW16108   1.368   1.107   7.524  0.3379 -0.1314  0.1935
 1492SOL    HW116109   1.300   1.114   7.457  0.6757  0.6036 -0.0772
 1492SOL    HW216110   1.339   1.028   7.570 -0.3277  0.6758  1.1664
 1493SOL     OW16111   0.321   3.972   3.678  1.1158  0.1690  0.6000
 1493SOL    HW116112   0.237   4.000   3.640  1.3350  0.4079  0.2846
 1493SOL    HW216113   0.292   3.902   3.736 -0.2678 -0.1937 -0.5197
 1494SOL     OW16114   0.773   2.348   9.126 -0.0660 -0.2406  0.4446
 1494SOL    HW116115   0.740   2.295   9.053 -0.9657  2.3355 -1.0193
 1494SOL    HW216116   0.764   2.293   9.204 -2.2582 -0.0099  0.3474
 1495SOL     OW16117   3.057   2.212   3.274 -0.4391 -0.0020  0.7120
 1495SOL    HW116118   3.057   2.117   3.266  0.5483  0.0647 -0.1431
 1495SOL    HW216119   3.120   2.239   3.207 -0.5544 -0.1994  0.5254
 1496SOL     OW16120   2.300   2.858   1.580  0.0745  0.0725  0.2314
 1496SOL    HW116121   2.297   2.854   1.676  0.0502  2.2796  0.3193
 1496SOL    HW216122   2.305   2.952   1.562  0.5305  0.1958  1.0118
 1497SOL     OW16123   3.501   3.861  16.240  0.6545  0.4191  0.1703
 1497SOL    HW116124   3.528   3.851  16.149  0.3728 -1.7413  0.3178
 1497SOL    HW216125   3.426   3.919  16.231 -1.1286 -1.8500  0.2303
 1498SOL     OW16126   0.206   0.788   4.544  0.0859 -0.4144  0.3623
 1498SOL    HW116127   0.243   0.852   4.483 -1.3790  1.1332  1.0963
 1498SOL    HW216128   0.150   0.843   4.600  1.0430 -0.5768  1.4775
 1499SOL     OW16129   4.154   1.030   3.705  0.1812  0.1074 -0.2922
 1499SOL    HW116130   4.203   1.098   3.659 -3.2592  2.4283 -0.5193
 1499SOL    HW216131   4.082   1.085   3.738 -0.4779 -1.1178  0.3039
 1500SOL     OW16132   4.249   0.949   4.386  0.1861 -0.3123  0.2829
 1500SOL    HW116133   4.267   0.914   4.474  1.1681 -0.9625 -0.1657
 1500SOL    HW216134   4.154   0.962   4.390  0.2517  0.3956 -0.4981
 1501SOL     OW16135   3.695   1.340   5.257 -0.0813  0.1263  0.7223
 1501SOL    HW116136   3.631   1.350   5.186 -1.0406  2.0781  1.8746
 1501SOL    HW216137   3.682   1.247   5.276  1.5933 -0.0281  1.0652
 1502SOL     OW16138   2.647   3.991   2.633 -0.0699  0.3381 -0.5276
 1502SOL    HW116139   2.671   4.039   2.554  1.4807 -1.2714 -1.0334
 1502SOL    HW216140   2.582   4.044   2.679 -0.8973 -1.4879  0.3879
 1503SOL     OW16141   4.154   0.415  11.700  0.1485  0.2258 -0.3613
 1503SOL    HW116142   4.200   0.333  11.718  2.3077  1.3851 -0.6918
 1503SOL    HW216143   4.166   0.425  11.606 -2.5524  0.9358 -0.6346
 1504SOL     OW16144   3.877   2.414   5.663  0.5816 -0.3697  0.0621
 1504SOL    HW116145   3.887   2.445   5.572 -0.6007 -1.6894 -0.5126
 1504SOL    HW216146   3.884   2.319   5.661 -2.1089 -0.5724  1.3196
 1505SOL     OW16147   4.085   0.882   7.682  0.2868  0.4882 -0.2222
 1505SOL    HW116148   4.164   0.828   7.681  0.3889  0.6620 -1.8700
 1505SOL    HW216149   4.106   0.958   7.628 -1.5561  0.8373 -0.4616
 1506SOL     OW16150   2.935   1.744   8.651 -0.1067  0.4891  0.1668
 1506SOL    HW116151   2.992   1.805   8.604  1.7530  0.7137  2.7330
 1506SOL    HW216152   2.987   1.725   8.729 -0.0450 -2.4802 -0.5814
 1507SOL     OW16153   2.288   0.856   2.856 -1.0566  0.2663  0.3370
 1507SOL    HW116154   2.353   0.844   2.925 -1.0033 -0.2493  0.1945
 1507SOL    HW216155   2.316   0.792   2.791 -0.0967  2.9311 -1.8629
 1508SOL     OW16156   2.616   3.163   1.119 -0.0555  0.1102 -0.5613
 1508SOL    HW116157   2.537   3.133   1.165  0.0034  0.8214  0.0025
 1508SOL    HW216158   2.583   3.253   1.110  0.4745  0.2785 -0.8228
 1509SOL     OW16159   1.277   1.164  17.042 -0.3123  0.2289  0.2164
 1509SOL    HW116160   1.215   1.187  16.973  1.4876 -0.1694 -1.5499
 1509SOL    HW216161   1.251   1.216  17.118 -1.1800  1.4299 -0.9078
 1510SOL     OW16162   1.525   2.648   2.356  0.1785 -0.0126 -0.3079
 1510SOL    HW116163   1.456   2.709   2.332 -0.2554 -0.9410 -1.4469
 1510SOL    HW216164   1.606   2.699   2.347 -1.2509  2.4499  0.8960
 1511SOL     OW16165   4.660   4.666   4.890  0.2492  0.4422  0.1391
 1511SOL    HW116166   4.636   4.642   4.979  0.9567  0.3658  0.3096
 1511SOL    HW216167   4.637   0.024   4.892  0.7049  0.5561  0.1749
 1512SOL     OW16168   4.053   4.418   7.526  0.5948 -0.4742 -0.3163
 1512SOL    HW116169   3.963   4.405   7.555  0.2869 -0.6624 -1.3673
 1512SOL    HW216170   4.101   4.392   7.605 -2.6396 -1.4720  1.3531
 1513SOL     OW16171   2.954   4.669  11.555 -0.1489 -0.2719 -0.1384
 1513SOL    HW116172   2.966   4.602  11.623  0.1852  0.1879  0.2509
 1513SOL    HW216173   2.908   0.005  11.598 -0.0528  1.5784 -3.0780
 1514SOL     OW16174   1.796   0.458   1.526 -0.0740 -0.4158  0.0434
 1514SOL    HW116175   1.844   0.537   1.552  0.5244 -1.5449  2.3552
 1514SOL    HW216176   1.848   0.390   1.569  1.5006 -1.1125 -3.0397
 1515SOL     OW16177   0.797   1.088  13.964  0.1419 -0.0111  0.0048
 1515SOL    HW116178   0.835   1.131  13.888  1.4630 -2.2818 -0.6405
 1515SOL    HW216179   0.720   1.045  13.925 -1.9919  2.4398  1.5251
 1516SOL     OW16180   1.761   2.061   3.145 -0.5008 -0.1356  0.0625
 1516SOL    HW116181   1.827   2.129   3.156  0.8334 -1.3223 -0.6007
 1516SOL    HW216182   1.802   1.996   3.202 -1.4928 -0.9534 -0.1691
 1517SOL     OW16183   1.552   4.475   4.728 -0.0612  0.5491  0.3852
 1517SOL    HW116184   1.503   4.517   4.657 -4.3804  0.1408  3.1912
 1517SOL    HW216185   1.497   4.483   4.805  0.0689 -1.2396  0.6481
 1518SOL     OW16186   0.294   2.673   8.467  0.2344 -0.3577 -0.0587
 1518SOL    HW116187   0.369   2.706   8.516  0.9298 -3.8460  1.1676
 1518SOL    HW216188   0.222   2.719   8.511 -1.0601 -0.6044 -1.9006
 1519SOL     OW16189   4.589   0.149  16.686 -0.2131  0.2263 -0.6602
 1519SOL    HW116190   4.634   0.067  16.706  1.3073  2.1758  3.7821
 1519SOL    HW216191   4.655   0.210  16.718  0.3774 -0.0211 -1.3864
 1520SOL     OW16192   0.762   2.379   3.945 -0.1912  0.4232  0.1312
 1520SOL    HW116193   0.727   2.304   3.896 -0.3547  1.4073 -1.2468
 1520SOL    HW216194   0.719   2.456   3.909 -0.4857 -0.0029 -0.4156
 1521SOL     OW16195   4.084   3.181  10.994 -0.2730 -0.5189 -0.1896
 1521SOL    HW116196   4.103   3.261  11.043  3.1434 -1.8534  0.6814
 1521SOL    HW216197   4.101   3.211  10.905  0.2624  0.7963  0.3664
 1522SOL     OW16198   3.559   0.001  10.261  0.9057  0.5017  0.2277
 1522SOL    HW116199   3.600   4.727  10.347  0.2104  1.0376  0.6133
 1522SOL    HW216200   3.543   0.095  10.257 -1.5628  0.1066  1.0571
 1523SOL     OW16201   2.062   3.195   3.192 -0.2270  0.1331 -0.4836
 1523SOL    HW116202   2.051   3.160   3.281 -1.1543 -0.3815 -0.8025
 1523SOL    HW216203   2.011   3.130   3.143  0.1035 -1.6653  1.5610
 1524SOL     OW16204   4.687   3.780   1.835 -0.6644 -0.0815  0.1065
 1524SOL    HW116205   4.628   3.816   1.769  0.8964  2.6163  0.1985
 1524SOL    HW216206   4.626   3.764   1.907 -0.5048  1.9707  0.6871
 1525SOL     OW16207   0.231   0.753   5.334  0.7655 -0.0639  0.2292
 1525SOL    HW116208   0.235   0.798   5.419 -1.3243  0.4097  0.0716
 1525SOL    HW216209   0.136   0.743   5.332  0.7868 -0.2455  0.1611
 1526SOL     OW16210   0.661   4.486   7.560 -0.4277  0.0302  0.0472
 1526SOL    HW116211   0.699   4.473   7.473  0.2703 -1.8804  0.6440
 1526SOL    HW216212   0.732   4.464   7.619 -0.5285 -0.7220 -0.1135
 1527SOL     OW16213   3.562   3.020   3.171 -0.0006  1.1265  0.3146
 1527SOL    HW116214   3.525   2.944   3.126 -3.3653  1.5441  2.3802
 1527SOL    HW216215   3.562   2.998   3.264  1.7918  1.1572  0.3253
 1528SOL     OW16216   2.919   3.455   6.434  0.3199 -0.3104  0.4429
 1528SOL    HW116217   2.845   3.501   6.394  1.1521 -0.3929 -1.1916
 1528SOL    HW216218   2.952   3.513   6.503 -0.6655  1.3896 -0.5211
 1529SOL     OW16219   0.061   2.117   6.344  0.2562  0.6261 -0.1873
 1529SOL    HW116220   0.032   2.206   6.323  0.5326  0.4719 -1.1799
 1529SOL    HW216221   0.000   2.095   6.415  0.4507 -0.0843 -0.2468
 1530SOL     OW16222   0.860   0.704   1.347  0.1377 -0.3970 -0.1897
 1530SOL    HW116223   0.797   0.763   1.306  1.0261  0.4562 -0.3291
 1530SOL    HW216224   0.804   0.631   1.373  0.2177 -0.4065 -0.0416
 1531SOL     OW16225   4.110   4.699  17.666 -0.1643 -0.0354 -0.3243
 1531SOL    HW116226   4.094   4.611  17.701  1.6878 -0.0372  0.5140
 1531SOL    HW216227   4.200   4.716  17.695  0.4779 -1.7416 -1.2860
 1532SOL     OW16228   0.608   2.089   8.179 -0.5755  0.2441 -0.2846
 1532SOL    HW116229   0.592   1.995   8.165 -0.1118  0.1311 -0.0658
 1532SOL    HW216230   0.575   2.127   8.098 -0.6055 -0.4616 -0.6025
 1533SOL     OW16231   1.033   0.898   3.091 -0.5025 -0.3813  0.1212
 1533SOL    HW116232   1.125   0.891   3.115 -0.9651 -1.1015  1.6911
 1533SOL    HW216233   0.989   0.861   3.168  2.4207 -1.1548  1.4288
 1534SOL     OW16234   3.743   1.457   8.858 -0.8275 -0.2803  0.2533
 1534SOL    HW116235   3.765   1.535   8.909 -0.7038 -0.3561  0.3156
 1534SOL    HW216236   3.668   1.425   8.908 -2.2080 -1.3898 -2.5014
 1535SOL     OW16237   4.580   3.229   2.679  0.2592  0.2336  0.0799
 1535SOL    HW116238   4.507   3.288   2.695 -0.3529 -0.3070 -0.7141
 1535SOL    HW216239   4.656   3.287   2.687  0.0952  0.2844  1.2822
 1536SOL     OW16240   2.738   2.481   5.382  0.6463 -0.2389  0.2733
 1536SOL    HW116241   2.713   2.389   5.383 -1.1060  0.2469  0.7388
 1536SOL    HW216242   2.727   2.499   5.476  0.4443 -1.5491  0.4968
 1537SOL     OW16243   2.459   1.938   3.584 -0.3474  0.1449 -0.2091
 1537SOL    HW116244   2.486   1.853   3.548 -1.4689 -1.1303  1.9369
 1537SOL    HW216245   2.396   1.924   3.655 -0.3549  1.0623 -0.0361
 1538SOL     OW16246   1.534   0.821   9.570  0.6314 -0.0461 -0.0308
 1538SOL    HW116247   1.448   0.863   9.573  0.9224  0.8537 -3.8650
 1538SOL    HW216248   1.590   0.896   9.592  1.4505 -0.7849  0.3850
 1539SOL     OW16249   1.092   4.190   3.370  0.4291 -0.6634 -0.2183
 1539SOL    HW116250   1.048   4.263   3.328  2.1823  0.6762  0.2550
 1539SOL    HW216251   1.183   4.220   3.360  0.6879 -1.9687 -1.7681
 1540SOL     OW16252   3.750   1.283   6.984 -0.4446  0.2996  0.5224
 1540SOL    HW116253   3.720   1.367   7.018 -0.7782  0.9367 -1.3136
 1540SOL    HW216254   3.841   1.278   7.016 -0.6918 -2.5702  0.7623
 1541SOL     OW16255   2.240   3.501   5.576  0.0548 -0.1405 -0.5987
 1541SOL    HW116256   2.295   3.423   5.579 -0.7302 -0.7193 -1.5664
 1541SOL    HW216257   2.228   3.529   5.667  0.5885 -0.4541 -0.4312
 1542SOL     OW16258   2.461   2.462  12.764 -0.0063 -0.5472  0.2934
 1542SOL    HW116259   2.459   2.402  12.838 -0.8955 -0.3565  0.4262
 1542SOL    HW216260   2.430   2.416  12.686 -0.4086 -0.4226  0.3794
 1543SOL     OW16261   1.540   2.421  12.532 -0.8812 -0.4509  0.3559
 1543SOL    HW116262   1.610   2.359  12.554 -0.9936 -0.2371  1.2872
 1543SOL    HW216263   1.564   2.482  12.601 -0.1130  0.1409 -0.4235
 1544SOL     OW16264   3.618   2.537   4.291 -0.1303  0.4978 -0.6273
 1544SOL    HW116265   3.648   2.592   4.220  1.8220 -0.6552 -0.6987
 1544SOL    HW216266   3.653   2.583   4.367  1.2883 -0.5173 -0.6702
 1545SOL     OW16267   0.147   0.876   6.589  0.6127  0.1159  0.2973
 1545SOL    HW116268   0.192   0.956   6.564 -0.0619  1.0235  2.0225
 1545SOL    HW216269   0.076   0.920   6.635 -1.0792 -1.9648 -0.2880
 1546SOL     OW16270   0.424   2.090   5.230  0.2359  0.2640  0.0027
 1546SOL    HW116271   0.385   2.130   5.308 -1.0246 -0.5382 -0.2100
 1546SOL    HW216272   0.475   2.025   5.278  1.0098  1.2563  0.5434
 1547SOL     OW16273   0.359   0.499   4.627 -0.5031  0.5572  0.0184
 1547SOL    HW116274   0.420   0.471   4.559  0.3514  1.7857  0.2699
 1547SOL    HW216275   0.299   0.425   4.638  0.9016 -0.8578 -1.7720
 1548SOL     OW16276   4.367   4.100   6.648 -0.2431  0.0654  0.0952
 1548SOL    HW116277   4.305   4.153   6.697  0.2641 -0.1414  0.9620
 1548SOL    HW216278   4.435   4.095   6.715 -1.9807  0.0777  1.8562
 1549SOL     OW16279   3.020   4.277   8.401  0.1503 -0.1349  0.7186
 1549SOL    HW116280   3.045   4.365   8.375 -2.1560  0.8607  1.9072
 1549SOL    HW216281   3.107   4.240   8.419  0.6888  1.8838  2.2066
 1550SOL     OW16282   3.530   2.091  10.689  0.7346 -0.2430  0.1646
 1550SOL    HW116283   3.519   2.091  10.594 -1.3615  0.8111  0.4020
 1550SOL    HW216284   3.577   2.010  10.709 -0.4708 -1.2898 -1.1542
 1551SOL     OW16285   3.769   0.942  16.711 -0.0860  0.0950 -0.6114
 1551SOL    HW116286   3.730   0.858  16.689 -3.6234  2.0478 -1.7952
 1551SOL    HW216287   3.811   0.965  16.629  0.6025 -0.5337 -0.4314
 1552SOL     OW16288   2.800   0.282   5.417 -0.1047  0.3889 -0.4527
 1552SOL    HW116289   2.891   0.285   5.385  0.2576 -0.8892  0.4613
 1552SOL    HW216290   2.798   0.372   5.450 -1.1592 -0.3686  1.5321
 1553SOL     OW16291   3.717   0.141   5.612  0.9752 -0.4369  0.1546
 1553SOL    HW116292   3.688   0.231   5.594 -1.2057 -1.2530 -0.3614
 1553SOL    HW216293   3.804   0.154   5.651  1.0238  0.9110 -0.3871
 1554SOL     OW16294   0.253   2.082   8.188  0.0482  0.3245 -0.3272
 1554SOL    HW116295   0.159   2.063   8.178 -0.2092  0.7357  1.3268
 1554SOL    HW216296   0.289   2.002   8.149  2.7194  0.1442  2.5606
 1555SOL     OW16297   0.111   3.977  15.894 -0.1527  0.2358 -0.1644
 1555SOL    HW116298   0.188   4.011  15.940 -0.7314 -0.0378  0.9895
 1555SOL    HW216299   0.155   3.967  15.809  0.5363 -0.3008  0.2570
 1556SOL     OW16300   2.230   0.419   7.255 -0.1335 -0.2423 -0.4363
 1556SOL    HW116301   2.307   0.471   7.231  0.3282 -0.3465  0.8036
 1556SOL    HW216302   2.209   0.372   7.175 -1.4737 -0.1373 -0.1339
 1557SOL     OW16303   1.217   3.546   5.935 -0.2019 -0.1831 -0.4397
 1557SOL    HW116304   1.159   3.565   5.862 -2.2216  2.6602  1.8973
 1557SOL    HW216305   1.293   3.596   5.905 -1.3190  1.4895 -0.4974
 1558SOL     OW16306   4.243   1.889   5.452 -0.1608 -0.1308  0.3443
 1558SOL    HW116307   4.208   1.977   5.434 -0.3514  0.2015  2.3747
 1558SOL    HW216308   4.194   1.842   5.384  1.4869  1.9914 -2.2866
 1559SOL     OW16309   2.636   1.012   4.597  0.0452  0.4262 -0.0733
 1559SOL    HW116310   2.649   1.087   4.539  2.1404  0.6758  0.7375
 1559SOL    HW216311   2.721   0.971   4.583  0.8318  1.5907  1.3308
 1560SOL     OW16312   2.900   1.429   0.283 -0.4682  0.0911  0.0352
 1560SOL    HW116313   2.964   1.493   0.314 -1.7170  1.1432  0.4312
 1560SOL    HW216314   2.865   1.485   0.213  3.1249  1.6262 -0.5179
 1561SOL     OW16315   3.116   4.645   5.024  0.1737 -0.1316 -0.2066
 1561SOL    HW116316   3.163   4.705   5.082  1.1739  1.0128 -2.2254
 1561SOL    HW216317   3.110   4.573   5.087 -0.2126 -1.0189 -1.2602
 1562SOL     OW16318   3.571   0.251  15.233  0.1921 -0.1222  0.9843
 1562SOL    HW116319   3.638   0.265  15.166 -0.2128  0.4779  0.7155
 1562SOL    HW216320   3.505   0.199  15.188  0.9528  0.6689 -1.0391
 1563SOL     OW16321   2.360   3.624   9.722 -0.2287 -0.0600 -0.0129
 1563SOL    HW116322   2.386   3.569   9.648  0.6168  0.7812 -0.3437
 1563SOL    HW216323   2.391   3.569   9.795  1.2200 -1.6346 -1.8024
 1564SOL     OW16324   0.699   2.307   4.212 -0.2653 -0.0001  0.7750
 1564SOL    HW116325   0.619   2.357   4.231  1.0030  3.2277 -2.2615
 1564SOL    HW216326   0.724   2.342   4.126 -1.6666 -0.1592  0.2961
 1565SOL     OW16327   1.905   4.476  15.332  0.1772  0.0161  0.1519
 1565SOL    HW116328   1.881   4.418  15.260  0.5431  2.4652 -1.9364
 1565SOL    HW216329   1.948   4.412  15.389 -1.9618 -1.6054 -0.0537
 1566SOL     OW16330   3.439   1.918   1.852 -0.3944  0.5768  0.0708
 1566SOL    HW116331   3.433   2.003   1.808 -2.6871  0.8597  0.9074
 1566SOL    HW216332   3.501   1.939   1.921 -2.1724  1.7852  1.2995
 1567SOL     OW16333   4.472   1.851   3.322  0.1348 -0.0905  0.1450
 1567SOL    HW116334   4.565   1.832   3.333  0.1946  0.7901  1.1055
 1567SOL    HW216335   4.457   1.930   3.374  0.3558  0.2680 -0.3412
 1568SOL     OW16336   1.714   4.712   4.184 -0.4975  0.2448  0.4116
 1568SOL    HW116337   1.673   4.657   4.250 -1.5480 -0.3350 -0.7380
 1568SOL    HW216338   1.669   0.061   4.189 -1.5186 -0.1189 -2.3690
 1569SOL     OW16339   2.634   3.144   3.818 -0.2144  0.0075 -0.2832
 1569SOL    HW116340   2.580   3.066   3.826  1.6583 -1.2174  0.2322
 1569SOL    HW216341   2.648   3.177   3.907 -1.8591 -0.3975  0.1195
 1570SOL     OW16342   3.824   0.246   6.392 -0.1304 -0.0354  0.1594
 1570SOL    HW116343   3.803   0.273   6.303  1.8384 -0.0966 -0.3300
 1570SOL    HW216344   3.918   0.229   6.380 -0.1447 -0.3937  0.5385
 1571SOL     OW16345   4.611   2.709   8.728 -0.2617 -0.2801  0.7707
 1571SOL    HW116346   4.566   2.781   8.771  1.6571  1.1968  0.3142
 1571SOL    HW216347   4.538   2.675   8.677 -1.5801  0.9203  1.8737
 1572SOL     OW16348   3.073   2.475   1.593  0.0554 -0.2614  0.0645
 1572SOL    HW116349   3.044   2.564   1.613 -0.2875 -0.2098 -0.6888
 1572SOL    HW216350   3.048   2.471   1.501  0.1418  1.3229 -0.0175
 1573SOL     OW16351   3.191   3.985   5.061  0.1026 -0.2540  0.0367
 1573SOL    HW116352   3.131   3.972   4.988  1.5536 -0.2148 -1.1483
 1573SOL    HW216353   3.182   3.901   5.107 -1.7138 -0.8093 -1.3183
 1574SOL     OW16354   2.562   0.519   7.601 -0.8623  0.2752  0.3141
 1574SOL    HW116355   2.512   0.465   7.662 -0.1147 -0.2692  0.4368
 1574SOL    HW216356   2.628   0.546   7.665 -1.2402  2.3806 -0.1781
 1575SOL     OW16357   1.109   3.822   4.842 -0.3231  0.0576  0.0399
 1575SOL    HW116358   1.054   3.755   4.801 -1.0419  0.4061  0.4366
 1575SOL    HW216359   1.043   3.882   4.877  0.0868  1.3707 -1.4466
 1576SOL     OW16360   2.611   2.734   1.074  0.0125 -0.1511 -0.4178
 1576SOL    HW116361   2.521   2.759   1.053 -1.3546 -3.2869  1.6327
 1576SOL    HW216362   2.655   2.769   0.997 -0.5794  0.0257 -0.6716
 1577SOL     OW16363   2.688   3.963   4.772  0.2026 -0.4149  0.0439
 1577SOL    HW116364   2.650   4.007   4.848 -0.3998  0.0816 -0.5494
 1577SOL    HW216365   2.778   3.947   4.802  0.0791 -0.9152  0.1366
 1578SOL     OW16366   1.425   2.327   6.724  0.6099 -0.1661  0.5692
 1578SOL    HW116367   1.451   2.239   6.752 -0.8307 -0.8997 -0.4412
 1578SOL    HW216368   1.374   2.311   6.645  1.2116  1.9738 -0.2503
 1579SOL     OW16369   2.318   3.163   9.245 -0.1738  0.7226 -0.1997
 1579SOL    HW116370   2.274   3.224   9.185 -2.0237 -2.3532 -1.9998
 1579SOL    HW216371   2.264   3.174   9.323  1.3747  0.1129  0.9531
 1580SOL     OW16372   3.290   1.442   4.040 -0.1449  0.0484  0.3354
 1580SOL    HW116373   3.352   1.375   4.070  0.2953  0.2221 -0.1981
 1580SOL    HW216374   3.291   1.410   3.950  1.8725  1.0884 -0.0068
 1581SOL     OW16375   0.924   1.515  15.640 -0.8788  0.3170 -0.1101
 1581SOL    HW116376   0.851   1.577  15.638  0.6097  2.0498 -0.5322
 1581SOL    HW216377   0.979   1.547  15.569  0.9312 -0.0600  1.1357
 1582SOL     OW16378   0.693   1.585   5.683 -0.6671  0.3774  0.6444
 1582SOL    HW116379   0.695   1.650   5.612 -0.6820  2.8252  2.8644
 1582SOL    HW216380   0.766   1.526   5.667 -0.2941  0.8446  0.6054
 1583SOL     OW16381   0.384   3.552   1.639  0.2257 -0.1623 -0.5825
 1583SOL    HW116382   0.288   3.546   1.640  0.1272  2.0344  4.9908
 1583SOL    HW216383   0.395   3.646   1.652 -0.6579 -0.2179  0.5623
 1584SOL     OW16384   0.372   1.453  12.602 -0.4570  0.1624 -0.6753
 1584SOL    HW116385   0.444   1.515  12.590 -1.9396  2.0913  0.3258
 1584SOL    HW216386   0.387   1.368  12.559 -1.5721 -0.3883  0.0281
 1585SOL     OW16387   0.558   2.630  11.878 -0.1475  0.2726  0.1699
 1585SOL    HW116388   0.598   2.658  11.960  0.2776 -2.1937  0.8117
 1585SOL    HW216389   0.636   2.590  11.838  0.0987  0.2737  0.6578
 1586SOL     OW16390   4.197   0.541  13.250 -0.2893 -0.2316  0.4456
 1586SOL    HW116391   4.202   0.476  13.180 -2.2081 -2.9069  2.7772
 1586SOL    HW216392   4.279   0.521  13.294  0.3628 -1.6559 -1.4083
 1587SOL     OW16393   4.458   0.650  11.245  0.5268  0.0447 -0.4493
 1587SOL    HW116394   4.383   0.683  11.295  1.0184  0.9425 -0.3075
 1587SOL    HW216395   4.500   0.577  11.292  0.8741 -0.8606 -2.1829
 1588SOL     OW16396   4.213   2.833   6.339  0.3279  0.6043  0.3830
 1588SOL    HW116397   4.244   2.772   6.406 -0.0333 -1.8186 -1.6690
 1588SOL    HW216398   4.244   2.913   6.381 -0.6769  0.8843  0.5892
 1589SOL     OW16399   3.863   2.610   8.372 -0.2772  0.1769 -0.2630
 1589SOL    HW116400   3.904   2.527   8.346  1.1474  1.2126 -1.2954
 1589SOL    HW216401   3.856   2.597   8.466 -0.7148 -1.6809 -0.5487
 1590SOL     OW16402   4.235   3.936   6.446  0.6683  0.1352 -0.2797
 1590SOL    HW116403   4.273   3.980   6.522 -2.0097  1.3272  0.4059
 1590SOL    HW216404   4.145   3.931   6.479  0.0745 -0.6316 -1.9958
 1591SOL     OW16405   4.009   0.950   5.516 -0.4417 -0.8077  0.0437
 1591SOL    HW116406   3.965   0.914   5.439  0.8557 -0.0946 -1.0228
 1591SOL    HW216407   4.086   0.895   5.532 -1.1648 -2.6162 -2.5964
 1592SOL     OW16408   3.559   0.053   8.656 -0.1351 -0.3082 -1.0557
 1592SOL    HW116409   3.500   0.062   8.582  1.2362  0.7816 -2.0129
 1592SOL    HW216410   3.490   0.076   8.718  1.7391  2.2640  0.0511
 1593SOL     OW16411   1.011   1.789  16.488 -0.3199  0.1700  0.3482
 1593SOL    HW116412   0.988   1.756  16.401 -0.4935 -0.9325  0.8086
 1593SOL    HW216413   1.071   1.719  16.515 -0.8044 -1.2566 -2.3016
 1594SOL     OW16414   3.894   1.699  11.771 -0.1672 -0.1886 -0.7108
 1594SOL    HW116415   3.949   1.776  11.759  0.6264 -0.9623 -2.0805
 1594SOL    HW216416   3.929   1.645  11.700 -1.5706  0.0849 -1.6198
 1595SOL     OW16417   3.503   1.153   8.856  0.0031  0.3373 -0.1214
 1595SOL    HW116418   3.504   1.207   8.778  2.7970 -0.5604 -0.6913
 1595SOL    HW216419   3.458   1.075   8.824 -2.9525  1.5233  1.1337
 1596SOL     OW16420   0.301   2.580   9.970 -0.2618  0.0928 -0.6418
 1596SOL    HW116421   0.341   2.607  10.053  2.3508  1.2188 -2.2684
 1596SOL    HW216422   0.299   2.486   9.989  0.2989  0.3078  0.5507
 1597SOL     OW16423   4.668   2.313  16.414 -0.0268 -0.9073 -0.1831
 1597SOL    HW116424   4.656   2.407  16.409 -1.1882 -1.1380 -1.3899
 1597SOL    HW216425   4.653   2.289  16.506 -0.8414  0.0766 -0.0608
 1598SOL     OW16426   0.042   1.214   5.724 -0.5469  0.3307 -0.4137
 1598SOL    HW116427   4.726   1.133   5.729 -1.8081  1.2198  0.9539
 1598SOL    HW216428   4.720   1.260   5.662 -4.3451 -2.7437  0.8102
 1599SOL     OW16429   4.661   3.481   7.157 -0.1200  0.0879  0.6056
 1599SOL    HW116430   4.652   3.420   7.084  1.0084 -0.5718  1.0111
 1599SOL    HW216431   4.723   3.552   7.137  1.9446 -1.9096 -0.2105
 1600SOL     OW16432   2.726   1.939  12.232  1.3121 -0.5548  0.1683
 1600SOL    HW116433   2.767   1.873  12.288 -0.5971 -1.0834  0.9077
 1600SOL    HW216434   2.721   1.902  12.144  1.3505 -0.3565  0.0834
 1601SOL     OW16435   2.142   2.014   8.410  0.0248  0.0232 -0.0657
 1601SOL    HW116436   2.178   1.940   8.459 -0.3814  1.4885  2.4725
 1601SOL    HW216437   2.178   2.095   8.446  1.1924 -1.0811  1.2768
 1602SOL     OW16438   2.105   0.978  16.776  0.8466  0.3713 -0.2185
 1602SOL    HW116439   2.163   0.958  16.703  0.2203  1.3502 -0.9783
 1602SOL    HW216440   2.138   0.920  16.845  1.3558 -1.2282 -1.7932
 1603SOL     OW16441   1.026   4.089  10.447  0.1844  0.2517 -0.9582
 1603SOL    HW116442   1.092   4.158  10.444  0.1014  0.3232 -1.1104
 1603SOL    HW216443   0.965   4.125  10.510  0.0164 -0.1973 -0.8622
 1604SOL     OW16444   3.505   2.870   8.177 -0.8321  0.5209  0.3266
 1604SOL    HW116445   3.524   2.940   8.115 -0.3641  0.6598  0.6342
 1604SOL    HW216446   3.595   2.857   8.207 -0.2829 -0.7372 -1.8190
 1605SOL     OW16447   2.057   1.824   4.018  0.0181 -0.3752 -0.2802
 1605SOL    HW116448   1.988   1.836   4.082 -1.0761  0.8230 -1.6771
 1605SOL    HW216449   2.041   1.730   4.006 -2.4565  0.0887 -0.4724
 1606SOL     OW16450   1.165   0.477   1.616 -0.0243 -0.4610  0.1630
 1606SOL    HW116451   1.244   0.498   1.665  1.1897 -0.6647 -1.7183
 1606SOL    HW216452   1.095   0.477   1.682  0.8761 -0.0491  1.1134
 1607SOL     OW16453   0.032   2.349   8.522 -0.0340 -0.8362 -0.2240
 1607SOL    HW116454   0.067   2.359   8.611 -3.0441  2.4464  0.6182
 1607SOL    HW216455   0.112   2.364   8.473  0.7479 -2.8163  0.4426
 1608SOL     OW16456   4.686   0.301   2.478  0.1641  0.1238  0.1023
 1608SOL    HW116457   4.654   0.257   2.399 -0.1400  1.2620 -0.4130
 1608SOL    HW216458   4.625   0.274   2.546 -0.1179  1.6909  0.4781
 1609SOL     OW16459   0.906   1.783  10.192  0.1317  0.0139  0.0308
 1609SOL    HW116460   0.920   1.698  10.149  0.0791  0.4453 -0.8250
 1609SOL    HW216461   0.900   1.758  10.285 -1.5573 -0.1965 -0.1399
 1610SOL     OW16462   2.299   1.953   5.286 -0.0446  0.2568  0.8026
 1610SOL    HW116463   2.364   1.884   5.277  0.5084  0.7413  1.0644
 1610SOL    HW216464   2.225   1.916   5.239  0.5685 -1.3060  1.0809
 1611SOL     OW16465   0.831   0.269   8.209 -0.1943 -0.8981 -0.1984
 1611SOL    HW116466   0.883   0.265   8.129  0.2958 -0.0977  0.0767
 1611SOL    HW216467   0.743   0.266   8.173 -1.1421 -1.0942  2.1575
 1612SOL     OW16468   0.391   3.966   6.341 -0.0147  0.4172 -0.4067
 1612SOL    HW116469   0.437   3.894   6.299  1.0619  1.4382 -1.0028
 1612SOL    HW216470   0.347   4.005   6.266  0.6355  1.2790 -0.3557
 1613SOL     OW16471   0.999   0.084   4.177  0.2427  0.4063 -0.3855
 1613SOL    HW116472   1.033   0.041   4.098  0.2481 -3.7782  1.9092
 1613SOL    HW216473   0.941   0.015   4.209  2.2069 -0.5848  0.9883
 1614SOL     OW16474   0.666   0.268   7.396 -0.0857  0.2729 -0.5083
 1614SOL    HW116475   0.618   0.198   7.442 -0.9424  2.0676  1.3360
 1614SOL    HW216476   0.593   0.297   7.340 -0.9892 -1.9508 -0.4759
 1615SOL     OW16477   3.658   3.171   7.461  0.3936  0.6518  0.1543
 1615SOL    HW116478   3.613   3.255   7.464 -0.0191  0.5397 -2.6532
 1615SOL    HW216479   3.704   3.181   7.377 -2.1724 -1.3987 -1.5132
 1616SOL     OW16480   3.605   4.261   7.471 -0.5025 -0.2306 -0.4058
 1616SOL    HW116481   3.597   4.167   7.454  0.0666  0.4949 -4.7402
 1616SOL    HW216482   3.701   4.270   7.467 -0.4243 -1.0175 -0.1672
 1617SOL     OW16483   1.239   2.274   6.520 -0.1340 -0.4022 -0.0712
 1617SOL    HW116484   1.155   2.280   6.565 -1.0586  1.4204 -2.0387
 1617SOL    HW216485   1.221   2.311   6.434 -1.3041  2.2508  1.3230
 1618SOL     OW16486   4.496   0.025   8.796 -0.2191 -0.0611 -0.5785
 1618SOL    HW116487   4.499   0.096   8.732 -0.3069  0.7218  0.2955
 1618SOL    HW216488   4.551   0.066   8.862  1.9110 -2.5377 -0.8300
 1619SOL     OW16489   1.266   3.351   3.511 -0.8151 -0.2696  0.3544
 1619SOL    HW116490   1.310   3.389   3.587 -0.6932 -1.3517  0.8159
 1619SOL    HW216491   1.249   3.432   3.462 -1.5534 -0.7852 -0.2361
 1620SOL     OW16492   2.897   2.822   4.840  0.1279  0.5692 -0.0985
 1620SOL    HW116493   2.858   2.874   4.910 -1.2937  0.2599 -0.6749
 1620SOL    HW216494   2.851   2.856   4.763  0.2768 -0.8533 -0.8170
 1621SOL     OW16495   3.477   1.137   4.862  0.1156 -0.3492  0.3453
 1621SOL    HW116496   3.400   1.080   4.867 -1.4289  1.8492  1.6345
 1621SOL    HW216497   3.447   1.226   4.845  4.9412  1.2678  0.2828
 1622SOL     OW16498   0.960   0.917  13.663  0.2020 -0.0832 -0.0098
 1622SOL    HW116499   0.900   0.986  13.691  0.1006 -0.7275  1.3809
 1622SOL    HW216500   1.041   0.958  13.692 -0.1381 -1.6030  3.1058
 1623SOL     OW16501   1.511   1.325  12.401 -0.2422  0.0105  0.2005
 1623SOL    HW116502   1.446   1.262  12.370 -0.6434  0.1091  0.8445
 1623SOL    HW216503   1.530   1.297  12.491 -0.9816  0.3478  0.4638
 1624SOL     OW16504   4.401   4.445   9.377  0.0475 -0.4509 -0.1892
 1624SOL    HW116505   4.319   4.493   9.388 -0.9569 -1.5705 -2.9065
 1624SOL    HW216506   4.414   4.465   9.285 -4.1059 -0.4459 -0.7735
 1625SOL     OW16507   1.237   2.087   4.834 -0.3780 -0.5436  0.4420
 1625SOL    HW116508   1.256   2.022   4.766 -2.7665 -0.6699 -0.1213
 1625SOL    HW216509   1.281   2.043   4.906  0.0203  0.4654  0.8174
 1626SOL     OW16510   1.138   1.417  16.313 -0.2257 -0.4163  0.2014
 1626SOL    HW116511   1.070   1.422  16.246  1.3028 -1.4756 -1.4132
 1626SOL    HW216512   1.101   1.345  16.362  0.4112 -0.0284  1.2589
 1627SOL     OW16513   2.694   2.488   1.759  0.4038  0.2092  0.1574
 1627SOL    HW116514   2.751   2.554   1.799  0.6192  0.7268 -0.9919
 1627SOL    HW216515   2.728   2.505   1.671 -2.7643 -0.9760 -1.3089
 1628SOL     OW16516   2.046   4.398   1.353  0.0312  0.1039  0.4631
 1628SOL    HW116517   2.137   4.405   1.382 -0.2463 -0.6885  1.5159
 1628SOL    HW216518   2.025   4.482   1.312 -1.3183 -0.2839  0.3582
 1629SOL     OW16519   0.190   3.235   4.478  0.1755  0.1811 -0.3646
 1629SOL    HW116520   0.134   3.236   4.401  0.3599 -0.5403 -0.5052
 1629SOL    HW216521   0.125   3.210   4.544 -1.7888 -0.2381 -2.4667
 1630SOL     OW16522   1.725   0.545   0.018 -0.4443 -0.2674  0.2477
 1630SOL    HW116523   1.713   0.496   0.099  0.5052 -0.0030  0.5524
 1630SOL    HW216524   1.749   0.474  17.699 -0.4585 -0.1306  0.0767
 1631SOL     OW16525   3.147   4.313   6.287 -0.5048 -0.1663  0.3958
 1631SOL    HW116526   3.066   4.263   6.294 -1.3630  1.1135 -0.2445
 1631SOL    HW216527   3.163   4.304   6.193  0.7028 -0.2720  0.6050
 1632SOL     OW16528   1.136   0.070   7.313 -0.0537  0.0398 -0.3937
 1632SOL    HW116529   1.185   0.099   7.390 -0.8868 -2.1393  0.9673
 1632SOL    HW216530   1.202   0.066   7.244  0.0285 -0.5836 -0.2809
 1633SOL     OW16531   2.368   1.254  11.899 -0.1593  0.4862 -0.1845
 1633SOL    HW116532   2.391   1.180  11.956 -2.5982  1.3361  1.8890
 1633SOL    HW216533   2.336   1.207  11.822  0.0663  1.5508 -0.9304
 1634SOL     OW16534   0.734   4.495   2.491 -0.2528  0.4262 -0.0849
 1634SOL    HW116535   0.812   4.446   2.467 -1.7295 -1.7782 -0.3111
 1634SOL    HW216536   0.731   4.563   2.423  0.8874 -0.9022 -1.4457
 1635SOL     OW16537   0.046   2.716   3.526 -0.1004  0.2321  0.3481
 1635SOL    HW116538   0.018   2.743   3.614 -1.0968  0.6139 -0.0920
 1635SOL    HW216539   0.100   2.787   3.494 -0.8425  1.1143  1.0532
 1636SOL     OW16540   4.516   3.332  12.825 -0.6739  0.6559  0.4134
 1636SOL    HW116541   4.470   3.293  12.900  0.9022  0.0440  1.0583
 1636SOL    HW216542   4.599   3.284  12.828 -1.5642 -0.8661  1.4408
 1637SOL     OW16543   0.228   0.200  11.187  0.2369 -0.4218 -0.2370
 1637SOL    HW116544   0.170   0.224  11.259 -0.8754 -0.0995 -1.2414
 1637SOL    HW216545   0.313   0.209  11.229  0.4854 -1.6642 -0.4842
 1638SOL     OW16546   4.583   3.412   5.318 -0.2827  0.0741 -0.5848
 1638SOL    HW116547   4.590   3.463   5.398  3.4956 -1.0249 -0.2292
 1638SOL    HW216548   4.488   3.423   5.308 -0.3166  0.1373 -0.1593
 1639SOL     OW16549   1.325   0.637   8.070 -0.0987  0.0395  0.0628
 1639SOL    HW116550   1.406   0.683   8.095 -0.7094  0.8213  0.5972
 1639SOL    HW216551   1.368   0.597   7.993 -1.5414 -1.3394 -0.0181
 1640SOL     OW16552   2.014   0.349   7.542 -0.3153 -0.0933  0.2247
 1640SOL    HW116553   1.921   0.332   7.556  0.0291 -1.6889  0.6111
 1640SOL    HW216554   2.038   0.383   7.628 -2.4777 -1.4250  1.3611
 1641SOL     OW16555   4.640   3.456   4.757 -0.4641 -0.6895  0.4705
 1641SOL    HW116556   4.574   3.401   4.799 -0.1806 -0.8448  0.7178
 1641SOL    HW216557   4.695   3.384   4.724  0.7962  0.1921  0.6419
 1642SOL     OW16558   4.395   3.141   6.198 -0.2408 -0.0894 -0.1589
 1642SOL    HW116559   4.302   3.163   6.191 -0.7295 -2.0147  0.3893
 1642SOL    HW216560   4.438   3.217   6.159  1.1969 -1.0995 -0.5474
 1643SOL     OW16561   3.023   2.142   2.643  0.3523  0.4593  0.1588
 1643SOL    HW116562   2.941   2.189   2.661  1.5369  1.9682  1.5881
 1643SOL    HW216563   2.984   2.059   2.617  1.0917  0.1067  0.1900
 1644SOL     OW16564   3.953   4.519   8.605 -0.0582  0.7154 -0.2388
 1644SOL    HW116565   3.926   4.605   8.636  1.2047  0.9683  0.1874
 1644SOL    HW216566   4.031   4.534   8.552  0.8238 -0.1792  0.8046
 1645SOL     OW16567   4.485   2.103  10.935 -0.5090  0.5300 -0.3919
 1645SOL    HW116568   4.491   2.071  11.025 -2.3195 -1.7538 -1.0539
 1645SOL    HW216569   4.464   2.023  10.885 -0.0140 -0.8941  1.6842
 1646SOL     OW16570   3.162   2.679   5.241  0.3652  0.3725  0.1421
 1646SOL    HW116571   3.147   2.625   5.318  0.9218  1.0055  0.6907
 1646SOL    HW216572   3.250   2.716   5.250 -0.0843  1.1203  1.4689
 1647SOL     OW16573   3.513   3.046   8.538 -0.3211  0.1425 -0.2922
 1647SOL    HW116574   3.569   3.111   8.579 -0.8023  0.7007 -0.5143
 1647SOL    HW216575   3.574   2.972   8.530  0.3391  0.7928 -1.2623
 1648SOL     OW16576   4.636   4.450  10.158 -0.2561  0.2722 -0.4515
 1648SOL    HW116577   4.653   4.469  10.065  0.0646  0.5046 -0.3430
 1648SOL    HW216578   4.621   4.356  10.149  0.1692  0.3302 -1.7943
 1649SOL     OW16579   3.746   2.213   7.041  0.8618  0.6122 -0.5251
 1649SOL    HW116580   3.746   2.148   6.970 -0.2331  2.6390 -2.3839
 1649SOL    HW216581   3.834   2.246   7.023  0.1993  1.8521 -1.4392
 1650SOL     OW16582   2.379   0.705  12.648  0.1129  0.7619 -0.0033
 1650SOL    HW116583   2.432   0.626  12.660 -0.4954  0.6956  2.1990
 1650SOL    HW216584   2.327   0.689  12.569 -0.4831  2.6880 -0.0040
 1651SOL     OW16585   2.981   3.130  11.047  0.1391  0.2428 -0.5773
 1651SOL    HW116586   2.926   3.056  11.071  1.1486 -0.2065  0.3634
 1651SOL    HW216587   2.980   3.122  10.952 -1.0100  3.1536 -0.8131
 1652SOL     OW16588   4.641   3.806   4.021  0.4782 -0.4503 -0.5050
 1652SOL    HW116589   4.593   3.747   4.079 -1.5111  1.1797 -0.4726
 1652SOL    HW216590   4.674   3.866   4.087 -0.1373 -0.7918  0.1112
 1653SOL     OW16591   3.697   2.229  11.849  0.7733  0.6937  0.0622
 1653SOL    HW116592   3.607   2.212  11.819  0.8186  0.0545  0.2754
 1653SOL    HW216593   3.737   2.142  11.848 -1.2972 -0.2978  1.5726
 1654SOL     OW16594   1.118   4.107  16.635  0.0148 -0.1144  0.4963
 1654SOL    HW116595   1.074   4.114  16.720 -0.4743  1.0292  0.1581
 1654SOL    HW216596   1.131   4.013  16.622  3.6897  0.6424 -1.3450
 1655SOL     OW16597   1.068   2.428   7.194 -0.7756 -0.2953  0.4686
 1655SOL    HW116598   1.135   2.493   7.175 -1.4805  0.2375 -0.1864
 1655SOL    HW216599   1.121   2.348   7.197  3.8358  2.7455 -1.8168
 1656SOL     OW16600   4.080   0.976   6.761  0.2613 -0.3559 -0.3412
 1656SOL    HW116601   4.154   0.998   6.704 -0.1144 -2.4520 -1.6563
 1656SOL    HW216602   4.021   0.928   6.703 -0.9062  2.6365 -1.6097
 1657SOL     OW16603   2.322   2.323   3.169  0.4508  0.3712  0.1091
 1657SOL    HW116604   2.339   2.333   3.263  1.8898 -0.5026 -0.0604
 1657SOL    HW216605   2.412   2.303   3.144  0.5282 -0.5654  1.0959
 1658SOL     OW16606   1.277   2.522  12.501 -0.3493  0.2925 -0.1650
 1658SOL    HW116607   1.287   2.594  12.563  0.7283  0.0486 -0.0535
 1658SOL    HW216608   1.367   2.492  12.511 -0.3268  0.8759  1.4409
 1659SOL     OW16609   2.691   1.362   7.808 -0.2958 -0.3509 -0.3212
 1659SOL    HW116610   2.641   1.427   7.858 -1.5895  0.0717 -2.1786
 1659SOL    HW216611   2.662   1.376   7.718 -0.0978 -1.6316 -0.5786
 1660SOL     OW16612   0.348   1.238   8.666 -0.0736  0.2962 -0.0121
 1660SOL    HW116613   0.308   1.316   8.701 -0.4239  0.7954 -1.5089
 1660SOL    HW216614   0.277   1.174   8.671  2.5231 -2.6021  0.4835
 1661SOL     OW16615   2.095   1.555  12.092  0.3633  0.0741  0.6908
 1661SOL    HW116616   2.180   1.541  12.049  0.6341 -0.3495  1.3624
 1661SOL    HW216617   2.115   1.555  12.186  0.5434  1.1278  0.6527
 1662SOL     OW16618   4.025   0.827   8.727  0.4599 -0.3623 -0.4391
 1662SOL    HW116619   4.071   0.882   8.663 -0.4958  0.2605 -0.5997
 1662SOL    HW216620   4.099   0.821   8.787 -2.0208 -1.2726  2.5633
 1663SOL     OW16621   1.878   3.268   7.316 -0.0242 -0.2224 -0.2202
 1663SOL    HW116622   1.928   3.187   7.328 -0.1385 -0.6150 -2.4041
 1663SOL    HW216623   1.835   3.280   7.401 -1.2067  0.4156 -0.9085
 1664SOL     OW16624   4.511   2.738  11.814  0.1244 -0.1875 -0.3327
 1664SOL    HW116625   4.444   2.790  11.859  1.3431 -0.7362  2.1325
 1664SOL    HW216626   4.476   2.721  11.727  1.4365  1.6043 -1.1984
 1665SOL     OW16627   2.422   3.016   6.060 -0.0722 -0.1880  0.2973
 1665SOL    HW116628   2.401   3.006   6.153 -2.5323  0.1079 -0.2076
 1665SOL    HW216629   2.454   2.927   6.047  2.3869  0.3350  2.7497
 1666SOL     OW16630   0.218   0.411   9.089  0.0772 -0.3647 -0.6390
 1666SOL    HW116631   0.256   0.486   9.135  1.3379 -0.8007 -0.9533
 1666SOL    HW216632   0.194   0.357   9.165 -1.4451 -2.7544 -2.8279
 1667SOL     OW16633   4.659   1.944  16.545  0.2228 -0.8236  0.0572
 1667SOL    HW116634   4.665   1.904  16.458  1.2841  0.0164 -0.2594
 1667SOL    HW216635   4.640   1.870  16.602 -0.8117  0.2718  1.1392
 1668SOL     OW16636   2.451   4.508   7.091 -0.0204  0.4019 -0.2640
 1668SOL    HW116637   2.509   4.499   7.015  0.6586 -1.5016  0.4800
 1668SOL    HW216638   2.472   4.598   7.115 -1.6459  0.9991 -1.0756
 1669SOL     OW16639   2.045   4.106  10.181  0.4126  0.3017 -0.0379
 1669SOL    HW116640   2.108   4.042  10.148  0.2143  0.7792 -1.3660
 1669SOL    HW216641   1.977   4.044  10.206 -0.1467  1.1635  0.5773
 1670SOL     OW16642   2.410   1.982   7.754  0.7949 -0.0119 -0.0151
 1670SOL    HW116643   2.448   2.035   7.824 -0.0062  1.5372 -0.7583
 1670SOL    HW216644   2.337   1.933   7.794  1.2582  0.4891  1.4387
 1671SOL     OW16645   2.466   1.788   4.576  0.5738  0.2137 -0.1958
 1671SOL    HW116646   2.487   1.810   4.485  2.0915 -1.4538 -0.2633
 1671SOL    HW216647   2.397   1.853   4.586 -0.1904 -0.5587 -0.4103
 1672SOL     OW16648   2.692   2.387   8.165  0.3919 -0.2180  0.1256
 1672SOL    HW116649   2.620   2.329   8.189  0.5086 -0.1173  0.7174
 1672SOL    HW216650   2.761   2.354   8.223  1.6780 -2.0084 -2.3998
 1673SOL     OW16651   0.178   4.130  10.478 -0.2870  0.2956  0.1106
 1673SOL    HW116652   0.245   4.132  10.410 -0.4725 -1.4303 -0.1208
 1673SOL    HW216653   0.200   4.050  10.527 -2.2888  0.1670  0.8120
 1674SOL     OW16654   3.647   2.926   7.568 -0.6885 -0.1297  0.3613
 1674SOL    HW116655   3.726   2.882   7.538 -0.3258  0.6736  0.1323
 1674SOL    HW216656   3.628   2.993   7.502 -2.3912 -0.2022  0.7638
 1675SOL     OW16657   2.845   3.614   8.761 -0.1410  0.1680  0.2220
 1675SOL    HW116658   2.872   3.572   8.842  0.5100 -0.3361 -0.2664
 1675SOL    HW216659   2.882   3.700   8.781 -1.7289  1.3479 -1.8846
 1676SOL     OW16660   2.632   2.079   1.545  0.5269 -0.6094  0.5879
 1676SOL    HW116661   2.666   2.130   1.619 -0.6706  0.8597  0.1226
 1676SOL    HW216662   2.543   2.109   1.525  2.1235  2.8782 -1.2581
 1677SOL     OW16663   1.740   0.289   3.197 -0.0730 -0.4616 -0.2755
 1677SOL    HW116664   1.806   0.342   3.242 -1.3875  0.7119  0.2908
 1677SOL    HW216665   1.654   0.324   3.219 -0.3244 -1.1186 -0.2194
 1678SOL     OW16666   3.741   3.799   7.500  0.2784  0.0774 -0.1770
 1678SOL    HW116667   3.832   3.821   7.519  0.6098 -1.5243  0.0436
 1678SOL    HW216668   3.716   3.742   7.573  1.2612 -1.4585 -1.0607
 1679SOL     OW16669   1.699   3.871   6.794 -0.3561  0.0764  0.3701
 1679SOL    HW116670   1.626   3.906   6.743  0.5666  1.3203 -0.0965
 1679SOL    HW216671   1.743   3.810   6.736 -2.6861  1.0227 -2.3604
 1680SOL     OW16672   0.897   1.069   2.921 -0.2489  0.9879  0.9969
 1680SOL    HW116673   0.825   1.055   2.982 -0.9886 -2.0704 -0.5808
 1680SOL    HW216674   0.967   1.024   2.969 -2.0605 -0.8832  1.8517
 1681SOL     OW16675   1.585   1.322  12.133 -0.3741  0.3294 -0.6557
 1681SOL    HW116676   1.555   1.330  12.223  0.6956 -1.0829 -0.1757
 1681SOL    HW216677   1.675   1.293  12.147 -1.6117 -3.0216  0.4060
 1682SOL     OW16678   3.145   2.878  14.318 -0.4884  0.0385  0.1047
 1682SOL    HW116679   3.145   2.820  14.394  1.5264  1.5297  1.2595
 1682SOL    HW216680   3.069   2.934  14.332  0.2627  1.5969 -2.1508
 1683SOL     OW16681   4.486   2.243  14.106 -0.5356  0.3222 -0.0216
 1683SOL    HW116682   4.565   2.228  14.054 -1.0165  0.9122 -0.9259
 1683SOL    HW216683   4.533   2.286  14.177  0.3681 -1.5631  0.5145
 1684SOL     OW16684   4.621   0.818   2.912  0.4004  0.1917  0.0969
 1684SOL    HW116685   4.546   0.761   2.928  2.0443 -2.9142 -3.2753
 1684SOL    HW216686   4.603   0.889   2.974 -2.0438 -0.8778  0.5922
 1685SOL     OW16687   2.707   1.269   4.507 -0.7304  0.5304  0.1652
 1685SOL    HW116688   2.785   1.316   4.477 -0.1980 -0.7539 -0.4904
 1685SOL    HW216689   2.675   1.326   4.576  0.7998  0.0091  1.3097
 1686SOL     OW16690   0.124   4.255   7.724  0.4297 -0.4728 -0.2343
 1686SOL    HW116691   0.128   4.209   7.808 -0.3325  2.4072  1.3838
 1686SOL    HW216692   0.174   4.192   7.672 -2.0233 -2.0676 -0.6108
 1687SOL     OW16693   0.538   0.028   5.760 -0.6443  0.1221  0.1663
 1687SOL    HW116694   0.614   0.047   5.814 -2.4952 -1.1323  3.2179
 1687SOL    HW216695   0.497   4.692   5.809 -1.6235 -0.3222 -1.2761
 1688SOL     OW16696   2.154   3.791   9.837  0.6754  0.3470  0.2386
 1688SOL    HW116697   2.084   3.803   9.773  0.6636  0.4128  0.2641
 1688SOL    HW216698   2.218   3.737   9.791  1.5643  0.2870  1.5377
 1689SOL     OW16699   0.721   2.593   0.654  0.3444 -0.0025  0.8460
 1689SOL    HW116700   0.783   2.663   0.670  0.7826 -1.0339  3.5666
 1689SOL    HW216701   0.737   2.545   0.735 -2.1253 -1.0976  0.6916
 1690SOL     OW16702   2.613   3.749   3.687  0.2446 -0.2903 -0.0500
 1690SOL    HW116703   2.570   3.665   3.696 -0.3891  0.0907  0.4715
 1690SOL    HW216704   2.590   3.790   3.770  2.9112  2.0249 -0.4344
 1691SOL     OW16705   4.074   0.286   6.506  0.2200 -0.5748  0.4846
 1691SOL    HW116706   4.145   0.282   6.571  0.2389  0.4080  0.5204
 1691SOL    HW216707   4.009   0.235   6.555  0.8102  0.4643  2.3720
 1692SOL     OW16708   1.664   1.076   8.894  0.2439 -0.3705  0.1619
 1692SOL    HW116709   1.745   1.111   8.855  0.6611 -0.2081  1.1812
 1692SOL    HW216710   1.701   1.004   8.944 -0.3995 -0.8502 -0.0574
 1693SOL     OW16711   1.889   0.444  16.826 -0.1322  0.3478 -0.5589
 1693SOL    HW116712   1.889   0.353  16.855 -0.7552  0.2033 -0.9994
 1693SOL    HW216713   1.889   0.436  16.730  1.5058  1.5892 -0.6649
 1694SOL     OW16714   3.088   0.532  10.367  0.1991  0.1862  0.1853
 1694SOL    HW116715   2.997   0.539  10.339  0.4962  2.5643 -0.2040
 1694SOL    HW216716   3.076   0.488  10.451 -0.8563  2.2580  1.1137
 1695SOL     OW16717   1.177   2.859   3.765 -0.0799 -0.4093  0.1789
 1695SOL    HW116718   1.233   2.923   3.809  0.1112  0.3317 -1.1340
 1695SOL    HW216719   1.165   2.909   3.685  2.7785 -1.4314 -0.8653
 1696SOL     OW16720   3.573   4.345   3.219  0.3507 -0.0469  0.3303
 1696SOL    HW116721   3.629   4.422   3.233  0.4159 -0.3509  1.6818
 1696SOL    HW216722   3.597   4.302   3.301 -1.1121 -0.4761  0.5398
 1697SOL     OW16723   1.556   3.773   7.011 -0.4519  0.1027  0.2658
 1697SOL    HW116724   1.494   3.766   6.939  0.6956 -0.3975 -0.6750
 1697SOL    HW216725   1.636   3.769   6.959 -0.3211 -0.7998  0.5299
 1698SOL     OW16726   4.499   2.880   5.343 -0.3238 -0.3986  0.1302
 1698SOL    HW116727   4.524   2.969   5.321 -0.8101  0.3971  2.7609
 1698SOL    HW216728   4.502   2.869   5.439 -0.5232 -0.6393  0.1093
 1699SOL     OW16729   3.281   2.179   4.261  0.3753 -0.2786 -0.2074
 1699SOL    HW116730   3.353   2.160   4.201 -1.4575 -0.1579 -2.4955
 1699SOL    HW216731   3.295   2.272   4.277 -0.5376  0.2461 -2.4383
 1700SOL     OW16732   0.678   4.390   2.097 -1.0860  0.1713  0.2074
 1700SOL    HW116733   0.587   4.401   2.125 -0.9056  2.8079 -0.2607
 1700SOL    HW216734   0.683   4.308   2.047  3.6162 -0.3168  1.5167
 1701SOL     OW16735   4.073   2.114   5.354 -0.8087 -0.2360  0.1115
 1701SOL    HW116736   4.155   2.158   5.332 -0.4258 -0.7782  0.4389
 1701SOL    HW216737   4.047   2.060   5.280  0.5176 -1.2397  0.3613
 1702SOL     OW16738   4.498   1.780  12.356 -0.6171 -0.1669  0.4860
 1702SOL    HW116739   4.533   1.869  12.354  0.0587 -0.4563 -0.9159
 1702SOL    HW216740   4.405   1.794  12.372 -0.8886 -2.8241  1.1863
 1703SOL     OW16741   3.751   1.018  17.619 -0.0650  0.2584 -0.0229
 1703SOL    HW116742   3.744   0.925  17.637  2.3781 -0.0335 -0.6141
 1703SOL    HW216743   3.682   1.063  17.667 -2.1649 -0.3048 -2.5099
 1704SOL     OW16744   3.098   0.368   7.578 -0.5259 -0.1420  0.2066
 1704SOL    HW116745   3.098   0.369   7.674  0.8797  0.3633  0.2009
 1704SOL    HW216746   3.053   0.452   7.568 -0.7928 -0.7480 -3.4134
 1705SOL     OW16747   2.092   1.536   6.468  0.5090 -0.2621 -0.3789
 1705SOL    HW116748   2.029   1.488   6.413  0.5216 -0.7945  0.0755
 1705SOL    HW216749   2.167   1.517   6.410  0.5563 -1.2486  0.0000
 1706SOL     OW16750   0.486   0.761   4.238  0.4674  0.1799  0.1933
 1706SOL    HW116751   0.427   0.701   4.193  0.4144  1.0663 -0.9404
 1706SOL    HW216752   0.424   0.814   4.287 -0.8220 -0.9449 -0.2397
 1707SOL     OW16753   3.632   3.698   4.671  0.2321 -0.1319 -0.0442
 1707SOL    HW116754   3.707   3.642   4.692  2.1338  1.7667 -1.8317
 1707SOL    HW216755   3.679   3.781   4.668  0.8344 -0.4666  0.1007
 1708SOL     OW16756   3.977   0.494  17.470 -0.1432  0.4580  0.1781
 1708SOL    HW116757   3.892   0.507  17.428  1.3471  2.8466 -2.0990
 1708SOL    HW216758   3.971   0.405  17.504 -1.1807  0.6657  0.5292
 1709SOL     OW16759   3.398   2.388   4.405  0.4827 -0.0278  0.3942
 1709SOL    HW116760   3.378   2.418   4.494 -0.1565  0.2758  0.1477
 1709SOL    HW216761   3.490   2.413   4.408  0.3828  0.4917 -1.0228
 1710SOL     OW16762   0.727   4.456  12.325 -0.5826 -0.1949 -0.1663
 1710SOL    HW116763   0.735   4.547  12.297 -0.3810 -0.7351 -1.9348
 1710SOL    HW216764   0.642   4.422  12.296 -1.3488  2.7426 -1.3282
 1711SOL     OW16765   0.385   4.501  12.319  0.4964 -0.1577 -0.4709
 1711SOL    HW116766   0.370   4.522  12.411  1.1148  1.0912 -0.6583
 1711SOL    HW216767   0.329   4.425  12.305  1.8544 -0.7522 -2.6188
 1712SOL     OW16768   3.482   0.093  11.178  0.2020  0.1225 -0.3035
 1712SOL    HW116769   3.487   0.182  11.213  1.1711  0.2650 -0.8114
 1712SOL    HW216770   3.572   0.082  11.147  0.6118 -1.2051  1.3250
 1713SOL     OW16771   1.527   0.504   7.894  0.6064  0.4881 -0.3073
 1713SOL    HW116772   1.523   0.526   7.801  0.4769  0.2173 -0.3647
 1713SOL    HW216773   1.610   0.548   7.909  0.3813  0.2714  1.5585
 1714SOL     OW16774   0.197   2.874   7.879 -0.2359  0.1675  0.2556
 1714SOL    HW116775   0.139   2.869   7.802 -0.9085 -4.4395  1.0394
 1714SOL    HW216776   0.186   2.785   7.914  1.3883  0.0855  0.5448
 1715SOL     OW16777   3.917   1.466   5.944  0.2026 -0.2552 -0.2801
 1715SOL    HW116778   3.966   1.525   5.886 -1.4959  2.7567  1.3712
 1715SOL    HW216779   3.900   1.397   5.880  0.8023 -1.3839  0.7995
 1716SOL     OW16780   0.715   0.056   2.694 -0.2084  0.0252 -0.4728
 1716SOL    HW116781   0.808   0.036   2.682  0.0276  1.4370 -1.0274
 1716SOL    HW216782   0.693   0.102   2.612  1.9894  0.9621 -0.5454
 1717SOL     OW16783   1.642   1.405  14.309  0.5763 -0.5345  0.4052
 1717SOL    HW116784   1.555   1.380  14.342  0.2771  1.0458  0.8066
 1717SOL    HW216785   1.620   1.483  14.258 -0.2831 -0.4581  0.8899
 1718SOL     OW16786   0.790   4.390   9.621 -0.2466  0.7589 -0.1894
 1718SOL    HW116787   0.760   4.380   9.712 -1.9368  4.9674 -0.3029
 1718SOL    HW216788   0.815   4.303   9.591 -2.8925 -0.6560  1.7721
 1719SOL     OW16789   3.749   0.922  15.618  0.1361  0.2858  0.0136
 1719SOL    HW116790   3.701   0.886  15.692  2.5249 -1.9670  0.4462
 1719SOL    HW216791   3.724   0.858  15.551  0.4556  2.4208 -2.1471
 1720SOL     OW16792   2.701   4.180   7.603 -0.2038 -0.1896  0.1322
 1720SOL    HW116793   2.796   4.172   7.594 -0.1321  0.2744  0.4352
 1720SOL    HW216794   2.666   4.119   7.538  1.7763 -1.9895  0.7849
 1721SOL     OW16795   3.501   4.420   2.974  0.1641 -0.1901 -0.0942
 1721SOL    HW116796   3.526   4.410   3.066 -0.4334  1.1100  0.2060
 1721SOL    HW216797   3.534   4.344   2.927  0.0377  1.7954 -3.4524
 1722SOL     OW16798   4.633   2.961  11.323 -0.3751  0.0909 -0.2099
 1722SOL    HW116799   4.631   3.041  11.269 -1.7842 -0.2460 -0.6448
 1722SOL    HW216800   4.634   3.006  11.408  1.7928  0.8566 -0.6474
 1723SOL     OW16801   0.450   3.179  15.983 -0.3099  0.2386 -0.2652
 1723SOL    HW116802   0.410   3.182  15.895  0.0367  0.1491 -0.4238
 1723SOL    HW216803   0.404   3.105  16.022  0.5710 -0.1786 -0.0414
 1724SOL     OW16804   1.344   4.246   4.330  0.2029 -0.3016 -0.1424
 1724SOL    HW116805   1.288   4.323   4.335  0.6449 -0.1462  2.8075
 1724SOL    HW216806   1.296   4.175   4.287  0.5633 -0.0599 -0.9395
 1725SOL     OW16807   3.537   1.392   2.825 -0.4406 -0.0043 -0.6529
 1725SOL    HW116808   3.472   1.452   2.863 -1.7306 -1.9560  0.2381
 1725SOL    HW216809   3.618   1.440   2.809 -0.1121 -0.6577 -0.9606
 1726SOL     OW16810   2.165   4.568  17.569  0.1899  0.2206 -0.1728
 1726SOL    HW116811   2.123   4.627  17.632 -0.3691  1.4761 -1.7127
 1726SOL    HW216812   2.254   4.571  17.603 -0.3044  0.8889  1.0656
 1727SOL     OW16813   2.703   0.051  17.259 -0.1984  0.1441  0.0998
 1727SOL    HW116814   2.712   0.110  17.185  0.4263 -0.3271 -0.1962
 1727SOL    HW216815   2.793   0.056  17.289 -0.4988  2.8165  0.5397
 1728SOL     OW16816   0.010   3.641   2.497  0.5093 -0.6360  0.2732
 1728SOL    HW116817   4.679   3.665   2.561 -0.4602  0.3807 -1.1081
 1728SOL    HW216818   4.724   3.548   2.483  0.4689 -0.4194 -1.0875
 1729SOL     OW16819   1.565   4.552   5.844 -0.5820 -0.0108 -0.4723
 1729SOL    HW116820   1.597   4.466   5.869  1.5217  0.3388 -2.0071
 1729SOL    HW216821   1.567   4.597   5.929 -0.8979  0.2842 -0.6195
 1730SOL     OW16822   0.694   2.181   9.339  0.4819  0.5132 -0.5951
 1730SOL    HW116823   0.760   2.146   9.398 -0.4600 -1.4078 -0.6781
 1730SOL    HW216824   0.665   2.261   9.382 -1.6543 -0.0599 -0.9475
 1731SOL     OW16825   4.203   1.764   1.926  0.4952  0.0347 -0.4244
 1731SOL    HW116826   4.216   1.676   1.889  0.7908  0.0333 -0.3191
 1731SOL    HW216827   4.270   1.821   1.888  0.1286  1.8360  1.6384
 1732SOL     OW16828   0.858   2.396   9.861  0.1929  0.2841 -0.2896
 1732SOL    HW116829   0.902   2.368   9.942 -1.6005 -1.6546  0.0134
 1732SOL    HW216830   0.876   2.490   9.870  0.1475  0.4419 -1.8890
 1733SOL     OW16831   4.223   3.548   0.143 -0.1709  0.1776  0.2470
 1733SOL    HW116832   4.313   3.547   0.176  0.3739 -0.4750 -1.2493
 1733SOL    HW216833   4.228   3.462   0.101  1.2220  0.3013  0.1756
 1734SOL     OW16834   0.187   2.468   3.954  0.8008  0.1811 -0.4874
 1734SOL    HW116835   0.203   2.435   3.866 -0.1239  1.8874 -1.3142
 1734SOL    HW216836   0.202   2.559   3.927  0.5702 -0.6559 -3.4317
 1735SOL     OW16837   3.233   1.323   2.628 -0.4695 -0.1118 -0.6346
 1735SOL    HW116838   3.162   1.310   2.691  0.6101  0.2959  0.6567
 1735SOL    HW216839   3.283   1.386   2.680  0.1528 -0.0613 -1.3025
 1736SOL     OW16840   2.798   2.228  12.195 -0.7994 -0.0101 -1.0228
 1736SOL    HW116841   2.776   2.264  12.281 -0.4881  0.4466 -1.1281
 1736SOL    HW216842   2.787   2.134  12.208  0.6896  0.0943  0.9428
 1737SOL     OW16843   0.757   0.294  10.403 -0.4582 -0.3845  0.2327
 1737SOL    HW116844   0.698   0.220  10.414 -0.4651 -0.1993  1.4217
 1737SOL    HW216845   0.690   0.357  10.378  1.2456  0.7610 -1.4841
 1738SOL     OW16846   2.975   1.252   2.482  0.5778 -0.0620 -0.1706
 1738SOL    HW116847   3.040   1.291   2.541 -0.1343  1.9867 -0.7760
 1738SOL    HW216848   3.021   1.179   2.441  2.8273  1.0721  0.3345
 1739SOL     OW16849   4.043   3.725   5.723 -0.7389  0.0663 -0.6210
 1739SOL    HW116850   4.010   3.804   5.680 -1.0208  0.4170  0.2309
 1739SOL    HW216851   3.960   3.707   5.766  0.0015  0.8984  1.1653
 1740SOL     OW16852   3.803   0.195   7.117  0.2207  0.2488  0.2631
 1740SOL    HW116853   3.761   0.229   7.038  1.8069  2.1759  0.2227
 1740SOL    HW216854   3.896   0.205   7.093  0.2773  0.7760  0.6985
 1741SOL     OW16855   4.345   2.380  17.057 -0.3832  0.0321  0.7275
 1741SOL    HW116856   4.291   2.394  17.135  2.2273  0.6989  2.4091
 1741SOL    HW216857   4.404   2.310  17.082 -0.5728 -0.2091  0.4945
 1742SOL     OW16858   2.364   1.481  11.563  0.4180 -0.2927  0.0032
 1742SOL    HW116859   2.305   1.550  11.532 -0.5108 -1.3079 -0.4778
 1742SOL    HW216860   2.305   1.406  11.556  0.7770 -0.6259  0.5090
 1743SOL     OW16861   2.395   3.337   6.967  0.0497 -0.0081 -0.0580
 1743SOL    HW116862   2.378   3.269   7.032  1.6449  0.1300  0.4846
 1743SOL    HW216863   2.421   3.411   7.021  1.6305 -1.5102  1.2324
 1744SOL     OW16864   0.982   1.302   9.935  0.0497 -0.3763 -0.3409
 1744SOL    HW116865   0.896   1.341   9.951  0.7708  0.5777  1.1802
 1744SOL    HW216866   1.011   1.294  10.026 -0.3434  0.2030 -0.1641
 1745SOL     OW16867   3.443   1.933  15.901  0.0106 -0.1186 -0.0688
 1745SOL    HW116868   3.444   1.963  15.810 -2.3111 -0.1742 -0.1105
 1745SOL    HW216869   3.374   1.987  15.940  0.1127  1.6134 -2.2863
 1746SOL     OW16870   1.272   0.932   7.706 -0.2265  0.1890 -0.2876
 1746SOL    HW116871   1.306   0.847   7.676 -0.7945 -0.4338  0.7862
 1746SOL    HW216872   1.210   0.900   7.772  0.3525 -1.2959 -0.4667
 1747SOL     OW16873   0.686   3.962   8.072 -0.5625 -0.0880 -0.6907
 1747SOL    HW116874   0.685   3.875   8.111 -0.3556  0.7306  1.1286
 1747SOL    HW216875   0.599   3.954   8.032 -1.4071 -1.0923  1.3435
 1748SOL     OW16876   0.766   2.877   4.739 -0.1568 -0.6996 -0.6745
 1748SOL    HW116877   0.820   2.803   4.713  0.4293 -0.3857 -0.3550
 1748SOL    HW216878   0.713   2.836   4.807  3.2270 -2.9183  0.5582
 1749SOL     OW16879   3.075   0.869   2.755 -0.2498 -0.3604 -0.1998
 1749SOL    HW116880   3.054   0.839   2.667 -0.8288  0.5483 -0.3722
 1749SOL    HW216881   3.126   0.946   2.731 -0.2098  0.4480  2.3853
 1750SOL     OW16882   3.739   2.198   2.022  0.0651  0.0350 -0.3432
 1750SOL    HW116883   3.753   2.290   1.999  1.2362 -0.5730 -2.0934
 1750SOL    HW216884   3.810   2.186   2.085 -2.3920  1.4054  2.6384
 1751SOL     OW16885   2.663   0.679   3.137  0.1109 -0.3469  0.0444
 1751SOL    HW116886   2.620   0.595   3.151  0.1302 -0.7807 -2.5965
 1751SOL    HW216887   2.692   0.703   3.225  1.8118  2.9145 -1.4152
 1752SOL     OW16888   3.669   4.030   3.758  0.3775  1.0207  0.5923
 1752SOL    HW116889   3.722   4.059   3.832  2.5569  0.1082 -0.6148
 1752SOL    HW216890   3.581   4.031   3.796  0.4027  0.2280  0.6741
 1753SOL     OW16891   3.289   0.183   6.719  0.4945  0.1261 -0.3563
 1753SOL    HW116892   3.334   0.172   6.636 -0.7834 -2.7038 -0.7005
 1753SOL    HW216893   3.196   0.176   6.695  0.2366  2.4676 -0.0173
 1754SOL     OW16894   3.167   0.060   3.496  0.1720  0.4621  0.1869
 1754SOL    HW116895   3.116   0.016   3.428  0.1707 -1.1704  1.2301
 1754SOL    HW216896   3.255   0.028   3.476  0.8108  1.1479  1.9050
 1755SOL     OW16897   3.070   2.799   0.403  0.3843 -0.4647 -0.2276
 1755SOL    HW116898   3.072   2.843   0.318 -3.1852  0.5537  0.2356
 1755SOL    HW216899   3.115   2.858   0.464 -1.3552 -0.2163  0.8100
 1756SOL     OW16900   1.708   2.660   5.691  0.0256  0.0843 -0.2282
 1756SOL    HW116901   1.725   2.751   5.714 -1.9129  0.7384 -1.4608
 1756SOL    HW216902   1.688   2.621   5.776 -1.9265  0.8957 -0.3159
 1757SOL     OW16903   4.177   3.664   9.120  0.0082 -0.4846 -0.0200
 1757SOL    HW116904   4.256   3.625   9.159 -0.5582 -0.5960  1.0289
 1757SOL    HW216905   4.142   3.711   9.196  0.2449  1.3291 -1.0439
 1758SOL     OW16906   1.310   0.183   5.342  0.2111 -0.5119  0.2482
 1758SOL    HW116907   1.265   0.142   5.268  1.5159 -2.0510  0.3212
 1758SOL    HW216908   1.379   0.119   5.358 -1.3787 -2.1616  0.4439
 1759SOL     OW16909   4.096   3.331  10.782  0.3392 -0.1635  0.3148
 1759SOL    HW116910   4.069   3.335  10.690 -0.5886  0.8909  0.6327
 1759SOL    HW216911   4.071   3.415  10.820 -1.6707 -1.3336  1.5745
 1760SOL     OW16912   3.231   1.537   1.810  0.4453  0.4208  0.5700
 1760SOL    HW116913   3.284   1.600   1.761 -2.7592  0.9343 -2.2237
 1760SOL    HW216914   3.216   1.464   1.750  0.3913  0.2497  0.7912
 1761SOL     OW16915   2.193   3.304  12.678 -0.2674  0.2335  0.0981
 1761SOL    HW116916   2.223   3.220  12.714 -0.5441  0.0648 -0.0700
 1761SOL    HW216917   2.277   3.337  12.646 -1.3666  0.8730 -2.0952
 1762SOL     OW16918   1.373   4.700   2.912  0.0605 -0.1262  0.0675
 1762SOL    HW116919   1.361   0.057   2.934  1.0253 -0.2192  1.0095
 1762SOL    HW216920   1.281   4.679   2.892 -0.5923 -1.2405  4.1985
 1763SOL     OW16921   3.425   2.224  17.495 -0.1049 -0.2656  0.1786
 1763SOL    HW116922   3.387   2.162  17.558  0.3392  0.1564  0.8584
 1763SOL    HW216923   3.451   2.300  17.548 -1.3852  1.3152 -1.4427
 1764SOL     OW16924   2.043   3.370   1.886  0.7049 -0.3314 -0.2609
 1764SOL    HW116925   2.088   3.392   1.804  2.1940 -0.0238  0.6419
 1764SOL    HW216926   1.976   3.439   1.889  1.5083  0.3599  1.7042
 1765SOL     OW16927   2.283   1.205   8.417  0.5304  0.0581  0.3063
 1765SOL    HW116928   2.195   1.236   8.395 -0.0886 -0.8923  1.4464
 1765SOL    HW216929   2.318   1.175   8.332  0.2980 -1.5891  0.7851
 1766SOL     OW16930   2.196   3.731   6.786 -0.5250  0.0955  0.0065
 1766SOL    HW116931   2.113   3.728   6.833 -0.1265  1.1438  0.7885
 1766SOL    HW216932   2.160   3.762   6.703 -0.6056 -0.0626 -0.0163
 1767SOL     OW16933   3.694   0.475  17.605 -0.0924 -0.3560 -0.3911
 1767SOL    HW116934   3.776   0.427  17.596 -0.5380 -0.8086 -1.9794
 1767SOL    HW216935   3.694   0.514  17.693 -0.7339  0.7681 -0.8880
 1768SOL     OW16936   2.374   2.334  12.140  0.1201  0.2927  0.8480
 1768SOL    HW116937   2.399   2.349  12.049 -0.2129 -1.6137  0.4348
 1768SOL    HW216938   2.419   2.253  12.164  2.3331  1.8466  1.9253
 1769SOL     OW16939   4.559   2.946   8.904 -0.2978 -0.0687 -0.1263
 1769SOL    HW116940   4.556   3.038   8.879  1.0334 -0.2934 -1.1244
 1769SOL    HW216941   4.480   2.933   8.956 -1.0065  0.4045 -1.0887
 1770SOL     OW16942   0.462   1.029   6.120 -0.2528 -0.2364  0.5307
 1770SOL    HW116943   0.381   0.990   6.087 -0.4537 -0.1435  0.9101
 1770SOL    HW216944   0.505   1.058   6.039 -0.2622 -2.2492 -0.2128
 1771SOL     OW16945   1.720   0.223  11.913 -0.3090  0.3248  0.5701
 1771SOL    HW116946   1.708   0.299  11.855 -0.9477  0.4642  0.8923
 1771SOL    HW216947   1.812   0.227  11.941 -0.1324  0.5768 -0.0347
 1772SOL     OW16948   3.575   0.411   5.610 -0.6334 -0.0837 -1.0270
 1772SOL    HW116949   3.581   0.400   5.515  1.0323 -1.3821 -0.7820
 1772SOL    HW216950   3.619   0.495   5.621 -0.3444 -0.6602  2.4772
 1773SOL     OW16951   2.466   1.114   7.496  0.4459 -0.6767 -0.2349
 1773SOL    HW116952   2.446   1.160   7.577 -0.0215  0.3509 -0.9345
 1773SOL    HW216953   2.407   1.038   7.499 -2.4608  1.6056  0.2902
 1774SOL     OW16954   1.582   3.219   1.845 -0.6438  0.4260 -0.6341
 1774SOL    HW116955   1.651   3.242   1.908 -1.0766  0.5515 -0.2082
 1774SOL    HW216956   1.527   3.163   1.900  0.3613 -0.2866 -0.3499
 1775SOL     OW16957   2.030   3.520  11.495 -0.4160  0.4588  0.0361
 1775SOL    HW116958   2.032   3.589  11.561  0.0355  0.8706 -0.4101
 1775SOL    HW216959   2.084   3.454  11.539  0.6206  1.0996 -0.2638
 1776SOL     OW16960   0.088   1.623   4.108 -0.3444 -0.0257 -0.1685
 1776SOL    HW116961   0.087   1.639   4.014  1.3327  2.9905  0.3391
 1776SOL    HW216962   0.001   1.583   4.116 -0.1787 -0.7346 -1.7686
 1777SOL     OW16963   2.934   3.537  16.463 -0.1459  0.0821 -0.3383
 1777SOL    HW116964   3.030   3.533  16.458 -0.1226  0.2858 -0.0658
 1777SOL    HW216965   2.918   3.628  16.438  1.4098  0.7055  0.8743
 1778SOL     OW16966   1.145   0.236   2.402  0.6386  0.1966  0.4577
 1778SOL    HW116967   1.104   0.259   2.485  0.4253  1.7671 -0.0856
 1778SOL    HW216968   1.140   0.322   2.360 -2.6011  0.2683  0.9903
 1779SOL     OW16969   0.050   4.361   6.840 -0.1776  1.3503  0.0861
 1779SOL    HW116970   0.121   4.300   6.860 -2.2381 -0.5870  1.5419
 1779SOL    HW216971   4.707   4.314   6.869  0.9095 -0.3596  0.2342
 1780SOL     OW16972   2.558   3.586   7.306  0.5366  0.5484 -0.2602
 1780SOL    HW116973   2.618   3.527   7.351  0.0135  1.1352  1.2257
 1780SOL    HW216974   2.480   3.561   7.356  0.5738  1.8480  0.4475
 1781SOL     OW16975   1.229   2.962   5.666 -0.2638  0.8296 -0.8457
 1781SOL    HW116976   1.178   2.999   5.738  0.4428 -0.8841  0.5312
 1781SOL    HW216977   1.165   2.908   5.619  0.8892 -1.1243 -0.1710
 1782SOL     OW16978   1.362   1.249   4.185  0.4154 -0.0788  0.4940
 1782SOL    HW116979   1.312   1.226   4.264 -0.7684 -2.9335 -1.0949
 1782SOL    HW216980   1.427   1.304   4.228  0.7758 -2.2503  2.7627
 1783SOL     OW16981   2.446   2.976   8.419 -0.3906  0.2170 -1.0460
 1783SOL    HW116982   2.540   2.979   8.399 -0.3873 -1.0470 -1.2323
 1783SOL    HW216983   2.416   2.928   8.342 -0.6826 -0.7570 -0.3316
 1784SOL     OW16984   0.722   3.661   8.807 -0.0727  0.4702  0.2016
 1784SOL    HW116985   0.816   3.657   8.795 -0.1303 -1.5759  0.5313
 1784SOL    HW216986   0.722   3.650   8.902  2.5841  0.5851  0.2079
 1785SOL     OW16987   1.351   2.573   1.266 -0.7064  0.7040  0.4736
 1785SOL    HW116988   1.372   2.543   1.177  2.1585  1.9720  0.7207
 1785SOL    HW216989   1.256   2.563   1.271 -0.7096 -0.9707 -2.6088
 1786SOL     OW16990   0.674   3.646  14.694 -0.5407 -0.2647  1.2234
 1786SOL    HW116991   0.676   3.551  14.690 -1.0723 -0.2202 -0.0654
 1786SOL    HW216992   0.580   3.659  14.709 -0.1582  1.2668  2.3887
 1787SOL     OW16993   1.598   1.963   2.007  0.4135  0.1866  0.0637
 1787SOL    HW116994   1.630   2.052   2.020 -0.0764  0.1891  1.2996
 1787SOL    HW216995   1.582   1.946   2.100 -0.8634  2.8390  0.3112
 1788SOL     OW16996   4.125   0.931   5.059 -0.1135  0.1135  0.0843
 1788SOL    HW116997   4.118   1.007   5.002  1.5704  1.3931  1.5836
 1788SOL    HW216998   4.184   0.968   5.125 -0.4432 -0.4334  0.6901
 1789SOL     OW16999   1.221   3.802  13.907  0.0736 -0.3859 -0.2515
 1789SOL    HW117000   1.301   3.851  13.886 -0.8412 -0.0707 -2.9191
 1789SOL    HW217001   1.172   3.876  13.943  0.1075  0.1593 -1.3190
 1790SOL     OW17002   3.220   2.126   6.407 -0.3149 -0.3753  0.0471
 1790SOL    HW117003   3.132   2.096   6.384 -1.9086  4.0008  0.3286
 1790SOL    HW217004   3.193   2.214   6.434  1.9612  0.4830 -0.4388
 1791SOL     OW17005   1.725   3.444   5.558 -0.2649  0.0814 -0.0392
 1791SOL    HW117006   1.705   3.387   5.633 -0.4570  0.4253  0.1672
 1791SOL    HW217007   1.730   3.375   5.491  0.4278 -0.6763  0.7901
 1792SOL     OW17008   2.967   3.895   9.115 -0.3237  0.9816 -0.0368
 1792SOL    HW117009   2.947   3.965   9.054  1.5627  1.9631  0.4440
 1792SOL    HW217010   2.905   3.921   9.183 -0.3721 -0.2797  0.4054
 1793SOL     OW17011   1.703   3.571   2.651  0.3275 -0.1911 -0.1771
 1793SOL    HW117012   1.650   3.558   2.729  0.7170 -2.0901 -0.2134
 1793SOL    HW217013   1.788   3.573   2.695  0.3760 -0.7402 -0.2413
 1794SOL     OW17014   4.120   0.332   5.518 -0.2016  0.0503 -0.4862
 1794SOL    HW117015   4.134   0.422   5.546 -1.6596 -0.0554  0.5773
 1794SOL    HW217016   4.045   0.298   5.568  1.5982 -0.7584  1.6406
 1795SOL     OW17017   1.393   0.753   1.961 -0.7496  0.0588  0.0308
 1795SOL    HW117018   1.430   0.769   2.047 -1.7727  0.2364  0.4428
 1795SOL    HW217019   1.414   0.835   1.916 -0.1797 -0.0521  0.0953
 1796SOL     OW17020   0.599   0.190   1.832 -0.1667  0.3723  0.3846
 1796SOL    HW117021   0.563   0.265   1.783  1.0347  0.1559 -0.8292
 1796SOL    HW217022   0.576   0.106   1.790 -0.9316 -0.2366  2.0354
 1797SOL     OW17023   2.069   4.608   4.678  0.0949  0.1867  0.1306
 1797SOL    HW117024   2.146   4.568   4.719 -0.3972  0.4984  1.3563
 1797SOL    HW217025   2.002   4.544   4.704  0.4564  0.6989  2.3500
 1798SOL     OW17026   2.081   2.757   2.278 -0.2172 -1.0631 -0.4796
 1798SOL    HW117027   2.133   2.838   2.285  1.6038 -2.0540 -2.4523
 1798SOL    HW217028   2.076   2.737   2.185 -0.9529 -2.0609 -0.2221
 1799SOL     OW17029   1.413   0.829   6.827 -0.3454  0.0663  0.0856
 1799SOL    HW117030   1.479   0.760   6.821 -0.0052  0.1824  2.7009
 1799SOL    HW217031   1.457   0.912   6.806  0.1364 -0.4218 -0.8363
 1800SOL     OW17032   1.780   1.094   4.546  0.1263 -0.3621 -0.3564
 1800SOL    HW117033   1.748   1.032   4.611  1.4586  0.1453  0.7964
 1800SOL    HW217034   1.701   1.099   4.492  0.0832 -1.3757 -0.3815
 1801SOL     OW17035   4.399   0.098   7.917 -0.1560  0.1753 -0.4131
 1801SOL    HW117036   4.457   0.023   7.905 -0.7187 -0.1582 -1.0443
 1801SOL    HW217037   4.367   0.076   8.005 -1.2085 -2.2697 -1.4216
 1802SOL     OW17038   1.318   1.523   2.513  0.0150 -0.3464  1.0917
 1802SOL    HW117039   1.269   1.489   2.587 -0.4840 -1.3656  0.2919
 1802SOL    HW217040   1.296   1.457   2.447  0.4681  0.5869 -0.0130
 1803SOL     OW17041   3.337   0.942   1.262 -0.4540 -0.5597 -0.5350
 1803SOL    HW117042   3.270   0.884   1.226  2.5099 -4.7105  0.6048
 1803SOL    HW217043   3.277   1.000   1.309  2.1677  0.1341  1.9056
 1804SOL     OW17044   4.245   1.730   3.613  0.1735  0.2074  0.4333
 1804SOL    HW117045   4.227   1.823   3.601  1.7062  0.8492  3.1399
 1804SOL    HW217046   4.160   1.699   3.580 -0.8617  1.0031  2.3529
 1805SOL     OW17047   0.168   3.853   5.653  0.3637 -0.0396  0.5604
 1805SOL    HW117048   0.159   3.787   5.723 -0.8852 -0.1627  0.2873
 1805SOL    HW217049   0.141   3.795   5.582  0.0619 -0.5409  1.0804
 1806SOL     OW17050   3.407   0.608   2.936 -0.6486  0.2285  0.1094
 1806SOL    HW117051   3.351   0.658   2.996 -1.6967  1.3628 -1.8205
 1806SOL    HW217052   3.351   0.534   2.916  0.7489 -1.2355  1.5493
 1807SOL     OW17053   0.377   1.460  17.207 -0.3059  0.5774 -0.2880
 1807SOL    HW117054   0.386   1.426  17.296 -0.9009 -0.2197 -0.5269
 1807SOL    HW217055   0.410   1.550  17.206 -0.2958  0.5618 -1.4990
 1808SOL     OW17056   1.297   1.628  11.088  0.7025 -0.2668 -0.6647
 1808SOL    HW117057   1.249   1.572  11.028  1.5854  0.3063 -1.9199
 1808SOL    HW217058   1.267   1.714  11.058 -0.5050 -1.3863 -2.6535
 1809SOL     OW17059   0.575   0.584   2.385  0.2471 -0.1121 -0.1680
 1809SOL    HW117060   0.605   0.514   2.326  0.0266  0.8487 -1.4190
 1809SOL    HW217061   0.630   0.564   2.461 -0.1709 -0.1731  0.1215
 1810SOL     OW17062   2.713   3.264   8.475  0.1498  0.6090  0.2431
 1810SOL    HW117063   2.628   3.286   8.514 -0.2725 -1.9267  0.7380
 1810SOL    HW217064   2.745   3.354   8.474 -0.4782  0.8169 -1.2920
 1811SOL     OW17065   0.591   3.144   2.776  0.3339 -0.5845 -0.7305
 1811SOL    HW117066   0.645   3.082   2.826 -0.1692  0.0544  0.5964
 1811SOL    HW217067   0.500   3.117   2.787  0.6141 -0.3721  2.0081
 1812SOL     OW17068   3.664   1.325   2.278 -0.3030  0.1118  0.7428
 1812SOL    HW117069   3.574   1.331   2.309 -0.9835  0.8634 -1.3835
 1812SOL    HW217070   3.666   1.243   2.230 -0.9652  1.1046 -0.9681
 1813SOL     OW17071   3.785   4.526   3.294  0.4265 -0.6148  0.0142
 1813SOL    HW117072   3.786   4.550   3.201 -3.1587 -1.1729 -0.1762
 1813SOL    HW217073   3.777   4.613   3.333  0.4780  0.1134 -1.6116
 1814SOL     OW17074   3.262   0.986   2.117 -0.5315 -0.0331 -0.0407
 1814SOL    HW117075   3.181   0.942   2.142 -2.1443  2.6240 -0.5287
 1814SOL    HW217076   3.292   0.933   2.043  0.2344 -1.5476  1.3612
 1815SOL     OW17077   2.916   1.783   3.888 -0.0232 -0.3432  0.3385
 1815SOL    HW117078   2.886   1.721   3.822 -1.9760 -1.0155  1.8492
 1815SOL    HW217079   2.998   1.741   3.913 -0.6521 -0.2750  2.4907
 1816SOL     OW17080   1.007   2.761   2.686  0.7839 -0.0012 -0.4104
 1816SOL    HW117081   1.081   2.746   2.628  0.3951 -1.6637 -0.4591
 1816SOL    HW217082   0.935   2.726   2.634 -0.1311  0.3213  0.6251
 1817SOL     OW17083   4.505   3.997   4.981 -0.3572 -0.1320 -0.3361
 1817SOL    HW117084   4.594   4.017   4.952 -1.5714  2.6373 -2.1777
 1817SOL    HW217085   4.456   4.048   4.916 -1.4713 -1.8648 -0.8610
 1818SOL     OW17086   1.253   3.419   1.146 -0.1769  0.2581  0.3386
 1818SOL    HW117087   1.175   3.366   1.129  2.7973 -4.5285  1.6493
 1818SOL    HW217088   1.245   3.456   1.234  2.3810 -1.7620  1.4284
 1819SOL     OW17089   2.058   3.329   4.556 -0.5678 -0.0298 -0.2949
 1819SOL    HW117090   2.125   3.342   4.488  0.9473  0.5188  1.2938
 1819SOL    HW217091   1.994   3.393   4.527 -1.6725 -0.3005  1.5791
 1820SOL     OW17092   1.128   2.248   4.148  0.1790  0.7248  0.3694
 1820SOL    HW117093   1.106   2.157   4.128 -1.0028  1.1532 -0.3136
 1820SOL    HW217094   1.215   2.253   4.109  0.5342  2.4321  1.3698
 1821SOL     OW17095   3.391   2.032   7.620  0.3027 -0.1882  0.1264
 1821SOL    HW117096   3.352   2.077   7.545 -1.2214 -2.3209 -0.3574
 1821SOL    HW217097   3.313   1.990   7.657 -1.1894  0.3225 -2.4517
 1822SOL     OW17098   0.301   3.868   9.633  0.0405 -0.1515  0.0916
 1822SOL    HW117099   0.236   3.939   9.627  0.9194  0.6757  0.3518
 1822SOL    HW217100   0.252   3.786   9.643  1.1907 -0.9616 -0.9890
 1823SOL     OW17101   0.813   0.822   6.148 -0.0679  0.1151  0.0219
 1823SOL    HW117102   0.882   0.764   6.114  1.0502 -0.2299  2.8821
 1823SOL    HW217103   0.754   0.814   6.073  1.4569 -0.9583 -1.0726
 1824SOL     OW17104   3.360   1.772   3.125 -0.1972  0.2022 -0.2971
 1824SOL    HW117105   3.446   1.759   3.164  0.3158 -0.8881 -1.8161
 1824SOL    HW217106   3.376   1.862   3.096  0.4822  0.5011  0.9855
 1825SOL     OW17107   0.478   0.072   5.493 -0.1332  0.2104 -0.1016
 1825SOL    HW117108   0.437   4.722   5.480  2.2808 -1.0733  0.7272
 1825SOL    HW217109   0.520   0.057   5.578  2.0720  0.9736 -1.0272
 1826SOL     OW17110   3.874   4.189   7.412 -0.1804  0.3024  0.5048
 1826SOL    HW117111   3.962   4.227   7.406  0.8377 -1.7472  2.5400
 1826SOL    HW217112   3.858   4.179   7.318  1.1422 -0.1179  0.3222
 1827SOL     OW17113   0.763   1.670   3.063 -0.0748 -0.5491 -0.2590
 1827SOL    HW117114   0.803   1.720   2.992  0.2344  1.1397  1.1186
 1827SOL    HW217115   0.780   1.731   3.135  1.6519 -1.1953 -0.1189
 1828SOL     OW17116   0.775   0.154  14.791  0.1169 -0.6107 -0.2545
 1828SOL    HW117117   0.717   0.084  14.762 -0.7204  0.1567 -0.4289
 1828SOL    HW217118   0.705   0.219  14.800  1.6484  1.5453 -3.6695
 1829SOL     OW17119   3.062   0.957   9.244  0.0049  0.6804 -0.6621
 1829SOL    HW117120   2.985   1.012   9.259  0.0458  0.4000  0.5451
 1829SOL    HW217121   3.018   0.875   9.221  1.6308 -0.2509 -0.5152
 1830SOL     OW17122   1.434   1.066  15.840 -0.1483  0.5531 -0.1679
 1830SOL    HW117123   1.461   1.157  15.851 -0.4491  0.6578 -0.2793
 1830SOL    HW217124   1.389   1.077  15.756  0.9885 -1.5942 -1.0624
 1831SOL     OW17125   2.428   3.679  15.721 -0.0291  0.2104 -0.3772
 1831SOL    HW117126   2.418   3.616  15.792 -1.6501  1.0484  0.1479
 1831SOL    HW217127   2.373   3.648  15.650 -1.8629  3.1117 -0.2540
 1832SOL     OW17128   2.768   3.544   6.123 -0.0071  0.7002 -0.0904
 1832SOL    HW117129   2.798   3.514   6.037 -1.1683  1.5756 -0.8222
 1832SOL    HW217130   2.741   3.464   6.168  0.2449  0.7601  0.1677
 1833SOL     OW17131   3.534   3.585  17.265  0.1688  0.1262  0.2377
 1833SOL    HW117132   3.542   3.490  17.278 -1.4082 -0.0917 -0.3136
 1833SOL    HW217133   3.438   3.590  17.266  0.0249 -2.7790  0.8247
 1834SOL     OW17134   3.200   3.625  11.439  0.4172 -0.1522  0.3744
 1834SOL    HW117135   3.216   3.710  11.481 -0.7316  1.0257 -1.5808
 1834SOL    HW217136   3.140   3.597  11.508 -1.5609 -2.3519 -2.2494
 1835SOL     OW17137   3.202   1.312  16.306 -0.1733 -0.1413  0.5681
 1835SOL    HW117138   3.112   1.323  16.337 -0.2051 -0.0360  0.4410
 1835SOL    HW217139   3.244   1.295  16.390  0.0027  1.5584  0.8189
 1836SOL     OW17140   1.198   0.286   7.995 -0.2733  0.1122  0.1936
 1836SOL    HW117141   1.204   0.302   8.089  0.3760  1.1083 -0.0197
 1836SOL    HW217142   1.107   0.261   7.977 -0.2541 -1.3118  2.1059
 1837SOL     OW17143   0.348   0.553  12.364  0.2508  0.1716  0.0236
 1837SOL    HW117144   0.428   0.507  12.386 -1.6208 -1.8076  2.6424
 1837SOL    HW217145   0.379   0.642  12.383 -0.5688  0.2481  1.0249
 1838SOL     OW17146   0.383   4.535   9.979  0.0035 -0.0157  0.0242
 1838SOL    HW117147   0.313   4.573   9.926  1.7208  0.9774 -1.5294
 1838SOL    HW217148   0.448   4.604   9.964  0.0041  0.0582  0.3574
 1839SOL     OW17149   2.933   1.353   7.933 -0.4874  0.1444 -0.1392
 1839SOL    HW117150   2.958   1.277   7.882 -0.9694 -1.9389  2.7286
 1839SOL    HW217151   2.841   1.364   7.908  0.0374  0.0022 -2.0721
 1840SOL     OW17152   4.542   3.229   8.938  0.3645  0.3284 -0.2268
 1840SOL    HW117153   4.528   3.258   8.848  0.4607  1.7068  0.1948
 1840SOL    HW217154   4.465   3.263   8.984  3.2839  0.1850  4.7603
 1841SOL     OW17155   1.175   1.006   9.788  0.0676 -0.2613 -0.3597
 1841SOL    HW117156   1.197   1.088   9.832 -0.8581  0.5092 -1.3141
 1841SOL    HW217157   1.082   0.996   9.809 -0.0229 -0.9442 -1.0754
 1842SOL     OW17158   2.026   0.734  14.079  0.0840  0.1598 -0.5384
 1842SOL    HW117159   2.091   0.799  14.050  0.6568 -0.1582  0.0439
 1842SOL    HW217160   2.024   0.676  14.003 -1.2577  0.6712 -0.8937
 1843SOL     OW17161   3.995   1.702   7.747  0.0385 -0.1823  0.5444
 1843SOL    HW117162   4.008   1.690   7.841 -1.6651  1.1398  0.9622
 1843SOL    HW217163   4.087   1.680   7.735 -0.3330  0.0937 -2.9634
 1844SOL     OW17164   2.357   0.066   5.837 -0.2393 -0.0473  0.2408
 1844SOL    HW117165   2.419   0.002   5.802 -1.5402 -2.6081  2.5783
 1844SOL    HW217166   2.312   0.010   5.900  1.2531 -1.5133  0.0006
 1845SOL     OW17167   4.541   0.691   0.509  0.4883 -0.2177  0.0516
 1845SOL    HW117168   4.473   0.624   0.513  0.4098 -0.1398  0.0018
 1845SOL    HW217169   4.497   0.762   0.555 -0.5903  0.3275 -1.8788
 1846SOL     OW17170   1.616   3.643   8.890  0.4725 -0.4557  0.0885
 1846SOL    HW117171   1.671   3.721   8.893 -0.7872  0.4556 -0.1171
 1846SOL    HW217172   1.687   3.585   8.866  1.1168  0.2402  0.3037
 1847SOL     OW17173   2.307   0.136  11.710 -0.2038  0.0636  0.5092
 1847SOL    HW117174   2.247   0.098  11.774  0.3605  2.3095  2.3636
 1847SOL    HW217175   2.260   0.117  11.628  1.6537 -0.3674 -0.4542
 1848SOL     OW17176   1.816   0.107   6.092 -0.3440  0.1168 -0.0289
 1848SOL    HW117177   1.883   0.153   6.041 -0.3845 -0.5733 -0.6963
 1848SOL    HW217178   1.842   0.116   6.184 -0.4636  2.3246 -0.2246
 1849SOL     OW17179   3.597   0.360   7.635 -0.3245  0.1308  0.0849
 1849SOL    HW117180   3.606   0.283   7.691 -3.3768 -0.4965 -0.2854
 1849SOL    HW217181   3.650   0.329   7.562  1.3661  2.3593  0.3823
 1850SOL     OW17182   2.766   2.332   8.506  0.6657  0.1877  0.1186
 1850SOL    HW117183   2.831   2.312   8.573  2.0921 -1.3157 -1.6754
 1850SOL    HW217184   2.819   2.314   8.428  1.9913  0.9373  0.8555
 1851SOL     OW17185   1.107   3.918  14.404 -0.8450  0.9014  0.1596
 1851SOL    HW117186   1.140   3.877  14.324  2.3539  3.2668  0.3132
 1851SOL    HW217187   1.049   3.849  14.438 -1.5711  1.0300 -0.8086
 1852SOL     OW17188   2.917   0.276   8.100  0.3147  0.7531  0.0799
 1852SOL    HW117189   2.983   0.288   8.031  2.1148  1.1545  1.8636
 1852SOL    HW217190   2.898   0.364   8.130 -4.7256 -0.1062 -0.6965
 1853SOL     OW17191   4.331   2.112   2.768  0.0915  0.2739  0.6557
 1853SOL    HW117192   4.387   2.185   2.740  0.0581 -0.1690 -0.5667
 1853SOL    HW217193   4.284   2.089   2.689 -0.4522  3.2732  0.0788
 1854SOL     OW17194   3.754   4.210   0.038  0.2483 -0.0573  0.0675
 1854SOL    HW117195   3.725   4.121   0.020  2.8405 -0.4644 -2.1191
 1854SOL    HW217196   3.831   4.215  17.721 -1.2502  1.2854 -1.8543
 1855SOL     OW17197   4.597   3.217  17.347 -0.3953  0.1734  0.0899
 1855SOL    HW117198   4.645   3.300  17.337 -2.8167  1.5807  0.1645
 1855SOL    HW217199   4.657   3.151  17.312 -0.0264 -0.0071  1.0589
 1856SOL     OW17200   3.436   3.762   2.069  0.3525 -0.0710  0.4962
 1856SOL    HW117201   3.503   3.746   2.003 -1.2849 -4.0238 -0.1690
 1856SOL    HW217202   3.388   3.680   2.061  1.4692 -0.6916  0.1466
 1857SOL     OW17203   2.531   1.169  12.796 -0.2359 -0.3701  0.2850
 1857SOL    HW117204   2.605   1.215  12.836  0.2436 -0.3902 -0.5775
 1857SOL    HW217205   2.485   1.238  12.748 -2.1378 -0.6399  1.7167
 1858SOL     OW17206   0.466   3.210   4.447  0.1766  0.0850  0.3450
 1858SOL    HW117207   0.371   3.225   4.449  0.0261 -0.6016 -1.4803
 1858SOL    HW217208   0.471   3.160   4.528 -1.9589 -0.7972 -0.0526
 1859SOL     OW17209   1.402   4.347  16.613 -0.3014 -0.0026  0.2471
 1859SOL    HW117210   1.384   4.360  16.705  1.1847 -0.0036  0.5488
 1859SOL    HW217211   1.476   4.406  16.597 -1.1723  1.3747  1.3702
 1860SOL     OW17212   2.832   4.594  12.198  0.0095  0.6206  0.1817
 1860SOL    HW117213   2.749   4.617  12.156  0.0946  0.0518 -0.3125
 1860SOL    HW217214   2.798   4.529  12.260  1.7355  0.5287  1.0269
 1861SOL     OW17215   1.687   2.162   3.887  0.2040 -0.6871 -0.2244
 1861SOL    HW117216   1.680   2.077   3.844 -1.5476  0.1850 -1.6936
 1861SOL    HW217217   1.602   2.199   3.863  0.8317  1.5582  1.0205
 1862SOL     OW17218   3.018   3.537   5.422  0.8243 -0.1129 -0.2120
 1862SOL    HW117219   2.923   3.551   5.419  0.6928 -0.9875 -0.0818
 1862SOL    HW217220   3.012   3.465   5.485  1.0491 -0.2639 -0.3640
 1863SOL     OW17221   4.709   1.911   2.943  0.0371  0.0015  0.2322
 1863SOL    HW117222   0.020   1.937   2.863 -0.1452 -3.1825 -0.9213
 1863SOL    HW217223   0.041   1.910   3.011 -0.7900 -0.6952  1.0359
 1864SOL     OW17224   1.001   3.104  11.038  0.3102 -0.2105  0.5318
 1864SOL    HW117225   0.951   3.088  11.118 -2.5094 -1.5799 -1.5234
 1864SOL    HW217226   1.073   3.041  11.030  0.1751 -0.3565  0.4685
 1865SOL     OW17227   0.828   2.888   6.694  0.0262 -0.4321 -0.0691
 1865SOL    HW117228   0.895   2.919   6.634 -0.5471  0.7086 -0.1149
 1865SOL    HW217229   0.802   2.969   6.738 -0.5193  0.2634 -1.6941
 1866SOL     OW17230   2.695   4.429   8.603  0.2339 -0.0077 -0.4767
 1866SOL    HW117231   2.660   4.378   8.530 -1.5779  3.2061 -1.8338
 1866SOL    HW217232   2.645   4.389   8.675 -0.8545 -0.2428 -1.3694
 1867SOL     OW17233   1.645   3.424   6.103 -0.4573 -0.0437  0.1327
 1867SOL    HW117234   1.632   3.399   6.195 -1.1403 -0.5838 -0.1088
 1867SOL    HW217235   1.570   3.483   6.090 -1.2392 -1.4127 -1.6691
 1868SOL     OW17236   4.298   4.102   4.805  0.3034  0.1213 -0.6905
 1868SOL    HW117237   4.299   4.011   4.775 -1.1727  0.3088 -1.3340
 1868SOL    HW217238   4.272   4.143   4.722  0.1025  0.4362 -0.4692
 1869SOL     OW17239   3.244   1.288   7.988 -0.1457 -0.1128 -0.3427
 1869SOL    HW117240   3.287   1.268   7.904 -1.5899  1.3013 -1.4022
 1869SOL    HW217241   3.303   1.355   8.023  0.2434  0.0522 -1.2931
 1870SOL     OW17242   2.913   0.013   8.178  0.5100 -0.2547 -0.3566
 1870SOL    HW117243   2.914   0.095   8.130  1.9079  0.3147  0.6479
 1870SOL    HW217244   2.975   0.044   8.244  0.1196 -0.5130  0.1363
 1871SOL     OW17245   2.303   2.656   3.751 -0.0899  0.0023  0.0401
 1871SOL    HW117246   2.307   2.613   3.666  2.7490  0.4096 -0.0485
 1871SOL    HW217247   2.226   2.619   3.794  1.2621 -1.4364  1.2261
 1872SOL     OW17248   4.353   1.053   7.717 -0.4590  0.3882 -0.0568
 1872SOL    HW117249   4.292   1.109   7.764 -0.9585 -0.8441  0.7640
 1872SOL    HW217250   4.429   1.053   7.775 -1.1571 -0.6549  0.8586
 1873SOL     OW17251   4.266   0.470   8.628 -0.3441  0.0652  0.1418
 1873SOL    HW117252   4.359   0.493   8.620 -0.3665  0.4253  0.9641
 1873SOL    HW217253   4.255   0.382   8.592 -4.0486  1.1565 -1.3658
 1874SOL     OW17254   0.884   3.422   8.397  0.5274 -0.2040 -0.3669
 1874SOL    HW117255   0.831   3.500   8.413  3.9246  2.0451 -0.0872
 1874SOL    HW217256   0.819   3.354   8.415  0.6236 -0.1480  0.1924
 1875SOL     OW17257   3.342   1.417   3.338 -0.3430  0.1407  0.0514
 1875SOL    HW117258   3.410   1.428   3.405 -0.2113 -0.1801 -0.0333
 1875SOL    HW217259   3.293   1.340   3.366 -0.3892  0.5985  1.2624
 1876SOL     OW17260   4.206   1.741  12.404  0.5085 -0.0714  0.1732
 1876SOL    HW117261   4.219   1.647  12.421  1.1017  0.5083  2.9079
 1876SOL    HW217262   4.190   1.746  12.310  0.9133 -0.7111  0.0642
 1877SOL     OW17263   1.878   3.951   2.735 -0.3610  0.0719 -1.2351
 1877SOL    HW117264   1.939   4.012   2.776 -0.5198 -1.5368  1.3911
 1877SOL    HW217265   1.857   3.898   2.812  0.3781  1.0450 -0.3558
 1878SOL     OW17266   1.252   4.251   1.062 -0.1577  0.2084  0.6522
 1878SOL    HW117267   1.293   4.331   1.030  0.3839 -1.6183 -3.2750
 1878SOL    HW217268   1.164   4.257   1.024  0.6879  0.6135 -1.2286
 1879SOL     OW17269   2.473   4.661   0.161  0.0503  0.6610  0.2085
 1879SOL    HW117270   2.444   4.613   0.084  0.0596  0.5375  0.2811
 1879SOL    HW217271   2.543   4.718   0.130  0.2694 -0.6805 -1.7534
 1880SOL     OW17272   4.247   0.634   8.848 -0.4019  0.7449 -0.0013
 1880SOL    HW117273   4.177   0.577   8.880  1.7923 -2.2030 -0.4863
 1880SOL    HW217274   4.262   0.591   8.764 -0.5004 -0.3546  0.5371
 1881SOL     OW17275   1.282   1.869   8.056 -0.3296 -0.6311 -0.1418
 1881SOL    HW117276   1.213   1.898   8.115  0.3533  0.8539 -0.0654
 1881SOL    HW217277   1.295   1.779   8.087  0.4225 -0.7496 -0.8026
 1882SOL     OW17278   2.339   0.211  15.581 -0.2465  0.4991  0.4152
 1882SOL    HW117279   2.269   0.171  15.529 -0.4477  0.5968  0.6102
 1882SOL    HW217280   2.292   0.291  15.605  0.7133  0.5630  2.0439
 1883SOL     OW17281   3.397   3.016   7.344 -0.5343 -0.5340  0.5570
 1883SOL    HW117282   3.429   3.088   7.289 -0.4753 -0.1079  1.1563
 1883SOL    HW217283   3.342   3.059   7.409  1.3540  4.7297 -1.2894
 1884SOL     OW17284   1.500   0.267  12.105 -0.1441  0.1741  0.4587
 1884SOL    HW117285   1.558   0.233  12.037 -0.5764 -0.1264  0.2408
 1884SOL    HW217286   1.554   0.279  12.183  0.1321 -0.2315  0.3325
 1885SOL     OW17287   3.247   0.189   2.079 -0.3141 -0.2163 -0.1180
 1885SOL    HW117288   3.309   0.186   2.151 -1.0033 -1.5733  0.4108
 1885SOL    HW217289   3.208   0.276   2.088  0.1721  0.1255 -1.3006
 1886SOL     OW17290   1.102   0.183   4.685  0.0391 -0.6862  0.1008
 1886SOL    HW117291   1.096   0.184   4.589  1.1933  1.0402  0.0324
 1886SOL    HW217292   1.038   0.118   4.713 -0.6247 -0.1692 -0.2276
 1887SOL     OW17293   2.547   4.697   3.834 -0.6738  0.2659  0.4759
 1887SOL    HW117294   2.478   4.634   3.857 -1.0998  0.5830  0.0587
 1887SOL    HW217295   2.622   4.653   3.875 -0.8882 -0.2268  0.3458
 1888SOL     OW17296   1.996   1.340  10.782  0.0810  0.4360  0.2058
 1888SOL    HW117297   2.024   1.278  10.715  0.2085  2.1302 -1.3275
 1888SOL    HW217298   1.910   1.357  10.742 -0.0093 -1.0250 -0.2227
 1889SOL     OW17299   2.462   0.482   9.022 -0.4073  0.5257  0.4892
 1889SOL    HW117300   2.384   0.462   9.074 -0.4720  1.1103  0.6114
 1889SOL    HW217301   2.439   0.557   8.968 -0.7405 -2.0166 -2.9252
 1890SOL     OW17302   1.500   3.025  11.958  0.0673 -0.1407 -0.0326
 1890SOL    HW117303   1.523   2.946  12.007  1.8335 -0.3241 -1.1452
 1890SOL    HW217304   1.410   3.003  11.934  0.2846 -0.1177 -0.8583
 1891SOL     OW17305   4.466   3.772   5.346 -0.3388  0.0333 -0.2295
 1891SOL    HW117306   4.513   3.718   5.410  0.5493  0.3401 -0.6133
 1891SOL    HW217307   4.395   3.804   5.401 -2.3824 -0.4145 -2.6146
 1892SOL     OW17308   2.984   1.828  13.166  0.1486  0.4317  0.1218
 1892SOL    HW117309   2.946   1.751  13.124  0.5445  0.0055  0.5484
 1892SOL    HW217310   3.047   1.779  13.219  0.6220  0.2230 -0.6426
 1893SOL     OW17311   0.731   0.178   2.068 -0.6668  0.6651  0.0094
 1893SOL    HW117312   0.820   0.169   2.034 -0.3243  0.0582  1.0502
 1893SOL    HW217313   0.683   0.192   1.987 -3.0039 -1.9219  0.9692
 1894SOL     OW17314   2.904   2.267   5.680 -0.0290 -0.1114 -0.1382
 1894SOL    HW117315   2.935   2.179   5.701 -2.8824 -1.1348 -0.2716
 1894SOL    HW217316   2.937   2.309   5.760  1.9719 -1.3964 -0.2870
 1895SOL     OW17317   2.282   4.124   3.436 -0.3952  0.2797  0.4096
 1895SOL    HW117318   2.188   4.132   3.420 -0.3427 -0.9271 -0.5466
 1895SOL    HW217319   2.292   4.167   3.521 -1.7014  1.7473 -0.1904
 1896SOL     OW17320   1.188   2.221   3.370  0.2146  0.5057 -0.5123
 1896SOL    HW117321   1.171   2.196   3.279 -2.6111 -1.0413  0.4341
 1896SOL    HW217322   1.163   2.312   3.350  0.5728  0.4983 -1.0100
 1897SOL     OW17323   3.347   2.692   4.303 -0.2047  0.2264  0.3303
 1897SOL    HW117324   3.347   2.731   4.215 -1.4527  0.7325  0.5492
 1897SOL    HW217325   3.432   2.650   4.309  1.2659  2.9194 -1.4401
 1898SOL     OW17326   4.648   4.024   5.383 -0.6387  0.3343  0.4871
 1898SOL    HW117327   4.610   3.945   5.345  1.5298 -1.1064  1.3542
 1898SOL    HW217328   4.581   4.053   5.445 -1.9989  1.8177 -1.6675
 1899SOL     OW17329   1.976   4.037  17.190 -0.3622 -0.0112 -0.4247
 1899SOL    HW117330   2.027   4.063  17.113 -1.1939  2.2200 -0.2067
 1899SOL    HW217331   2.040   4.062  17.256 -0.9656 -2.4454  1.0905
 1900SOL     OW17332   3.110   0.716   1.476 -0.2815 -0.0096  0.3073
 1900SOL    HW117333   3.047   0.742   1.408 -0.4123 -0.1595  0.3708
 1900SOL    HW217334   3.141   0.646   1.418  0.7916 -0.4948  1.4716
 1901SOL     OW17335   3.215   0.151   1.723 -0.3514  0.4503  0.1192
 1901SOL    HW117336   3.163   0.181   1.648  1.3026 -0.7410 -1.4921
 1901SOL    HW217337   3.230   0.237   1.764 -0.3203  0.8130 -0.6502
 1902SOL     OW17338   4.379   4.315  16.274 -0.3991 -0.1456  0.2420
 1902SOL    HW117339   4.378   4.383  16.207 -1.3078  0.4740  0.8733
 1902SOL    HW217340   4.289   4.286  16.261  0.0605 -1.1621 -0.7021
 1903SOL     OW17341   3.198   1.309   7.493 -0.1119  0.1122  0.1324
 1903SOL    HW117342   3.153   1.382   7.451 -1.7106 -0.5175  0.7325
 1903SOL    HW217343   3.277   1.318   7.441 -1.1730  2.3131 -1.0953
 1904SOL     OW17344   1.067   1.691   8.978  0.8050  0.3985 -0.4408
 1904SOL    HW117345   0.972   1.690   8.989  0.9020 -1.6511  0.1775
 1904SOL    HW217346   1.102   1.705   9.066  1.3708 -0.3923 -0.5469
 1905SOL     OW17347   0.578   2.835   5.544 -0.2761 -0.3005  0.4549
 1905SOL    HW117348   0.609   2.772   5.479 -1.0200 -0.8128  0.5959
 1905SOL    HW217349   0.536   2.899   5.486  1.1316 -1.5163 -1.8903
 1906SOL     OW17350   1.985   1.013   1.808 -0.3293 -0.2322 -0.4743
 1906SOL    HW117351   2.044   1.075   1.851 -1.9681  0.2591  1.0871
 1906SOL    HW217352   2.040   0.935   1.794  1.7305  0.8317  1.5923
 1907SOL     OW17353   0.144   3.686  14.173 -0.1105 -0.0799  0.4167
 1907SOL    HW117354   0.155   3.755  14.238  1.4647 -1.2257  1.3493
 1907SOL    HW217355   0.048   3.690  14.168 -0.1789 -0.9687  0.9072
 1908SOL     OW17356   2.697   1.267   4.175 -0.7469  0.2126  0.3507
 1908SOL    HW117357   2.647   1.295   4.251  2.0635 -0.3078  2.4287
 1908SOL    HW217358   2.779   1.244   4.220 -0.0163 -0.4507 -1.2860
 1909SOL     OW17359   3.644   1.679   1.743 -0.0364  0.3385  0.1006
 1909SOL    HW117360   3.610   1.697   1.831 -0.2236  1.7717 -0.2602
 1909SOL    HW217361   3.706   1.749   1.725  0.8214 -0.0307  1.7012
 1910SOL     OW17362   0.613   2.166  11.216 -0.0937  0.4579  0.0769
 1910SOL    HW117363   0.708   2.155  11.220 -0.1179  0.6279  1.1575
 1910SOL    HW217364   0.594   2.248  11.261 -2.2640 -1.9602  3.5229
 1911SOL     OW17365   4.592   4.521   8.702  0.0545  0.4387 -0.3896
 1911SOL    HW117366   4.569   4.610   8.729  1.4873  1.1535 -1.5545
 1911SOL    HW217367   4.601   4.533   8.607  1.0833 -2.5266 -0.6577
 1912SOL     OW17368   2.747   0.651   3.794 -0.2906  0.8121  0.0486
 1912SOL    HW117369   2.684   0.652   3.866 -0.5480  0.3547 -0.1673
 1912SOL    HW217370   2.706   0.704   3.725  1.1141  1.9880  0.1015
 1913SOL     OW17371   2.340   3.827   6.995 -0.0420  0.3940 -0.4707
 1913SOL    HW117372   2.294   3.911   7.000 -1.4033 -0.2730 -1.9792
 1913SOL    HW217373   2.285   3.792   6.925 -0.1613 -2.0821  0.8636
 1914SOL     OW17374   3.926   0.363  11.551 -0.2865 -0.3518  0.0942
 1914SOL    HW117375   3.832   0.352  11.559 -0.4640 -1.4461 -3.6503
 1914SOL    HW217376   3.954   0.363  11.642 -1.2757  0.8787  0.3994
 1915SOL     OW17377   3.394   0.175   9.686 -0.2290 -0.0732 -0.6388
 1915SOL    HW117378   3.437   0.096   9.717  0.0603 -0.8744 -3.0210
 1915SOL    HW217379   3.361   0.215   9.766  0.7195  0.9609 -0.7692
 1916SOL     OW17380   0.070   2.513   0.043 -0.3285 -0.0511 -0.5541
 1916SOL    HW117381   4.724   2.492  17.737 -0.0504  2.0810 -1.9811
 1916SOL    HW217382   0.118   2.551  17.709  0.0599 -1.8612 -1.2367
 1917SOL     OW17383   1.617   3.143  13.047  0.1856  0.3673 -0.1822
 1917SOL    HW117384   1.651   3.054  13.033  2.1170  0.9749  0.7872
 1917SOL    HW217385   1.525   3.135  13.073  0.3097 -1.8476 -0.3994
 1918SOL     OW17386   3.499   4.051   1.274 -0.1076 -0.4645 -0.7546
 1918SOL    HW117387   3.527   4.141   1.289  1.2961 -1.0913  0.3924
 1918SOL    HW217388   3.453   4.069   1.192  0.7884  0.7425 -0.9855
 1919SOL     OW17389   1.678   2.517   9.268 -0.3307  0.3551 -0.9366
 1919SOL    HW117390   1.616   2.486   9.202 -0.7250  0.0662 -0.4307
 1919SOL    HW217391   1.758   2.516   9.216 -0.2345 -3.2643 -0.7664
 1920SOL     OW17392   1.546   1.412   5.302 -0.0747 -0.3603  0.6795
 1920SOL    HW117393   1.521   1.480   5.365 -2.0850 -0.5745  0.1034
 1920SOL    HW217394   1.601   1.471   5.252 -1.4770  0.8521  0.5740
 1921SOL     OW17395   2.324   1.036  12.315  0.1047  0.2747  1.0488
 1921SOL    HW117396   2.384   1.076  12.378  2.3219 -1.2542 -0.0942
 1921SOL    HW217397   2.258   1.012  12.380 -1.1591 -0.3398 -0.4639
 1922SOL     OW17398   2.788   0.095   4.567 -0.0472 -0.5798 -0.0385
 1922SOL    HW117399   2.714   0.081   4.509  0.8059 -2.0739 -0.7398
 1922SOL    HW217400   2.771   0.047   4.648  3.9011  0.1175  1.2518
 1923SOL     OW17401   1.267   1.757   1.646  0.2881 -0.0522  0.8490
 1923SOL    HW117402   1.301   1.823   1.707 -0.0509  0.8980 -0.0039
 1923SOL    HW217403   1.282   1.676   1.695 -0.1868 -1.0644 -0.6918
 1924SOL     OW17404   4.484   3.087   9.995  0.3610  0.4208 -0.1032
 1924SOL    HW117405   4.408   3.062   9.942  0.0802 -0.8535  0.8986
 1924SOL    HW217406   4.457   3.160  10.051 -3.9100 -0.7838 -0.6451
 1925SOL     OW17407   3.820   4.302  12.425 -0.3939 -0.1871  0.6960
 1925SOL    HW117408   3.898   4.249  12.413 -1.2265 -1.3622  0.5155
 1925SOL    HW217409   3.758   4.242  12.384 -0.6522  1.6310 -1.5893
 1926SOL     OW17410   1.196   3.624  10.340 -0.8874  0.0224  0.5169
 1926SOL    HW117411   1.153   3.580  10.413 -2.5186  0.5365 -0.1313
 1926SOL    HW217412   1.161   3.712  10.352  1.0869  0.9657 -0.5998
 1927SOL     OW17413   2.187   0.261  11.293 -0.6632 -0.8667  0.0626
 1927SOL    HW117414   2.184   0.350  11.327  0.3678 -1.2594  1.1528
 1927SOL    HW217415   2.174   0.205  11.369 -2.4055  1.0559  1.1788
 1928SOL     OW17416   0.320   4.043  12.582 -0.4646  0.8587 -0.6179
 1928SOL    HW117417   0.258   4.010  12.646  1.5978 -1.7676  0.0177
 1928SOL    HW217418   0.358   3.969  12.535 -0.9495  0.5495 -0.5130
 1929SOL     OW17419   0.273   0.543   8.097  0.2656 -0.3181 -0.0953
 1929SOL    HW117420   0.292   0.467   8.043 -0.0182 -1.1948  1.0141
 1929SOL    HW217421   0.351   0.597   8.085  0.4181 -0.5607 -0.2005
 1930SOL     OW17422   0.888   0.334   9.963  0.3514 -0.3203 -0.1502
 1930SOL    HW117423   0.813   0.335   9.904  0.4491 -1.5107 -0.3043
 1930SOL    HW217424   0.876   0.258  10.020 -1.3383 -0.3788 -0.6098
 1931SOL     OW17425   3.309   3.376  10.841  0.6147 -0.1579 -0.3985
 1931SOL    HW117426   3.261   3.397  10.921  3.0862 -1.6380  1.4703
 1931SOL    HW217427   3.387   3.429  10.859  0.5580  0.0340 -0.7248
 1932SOL     OW17428   3.119   4.086   7.350  0.3677 -0.3394 -0.3786
 1932SOL    HW117429   3.104   4.102   7.257  0.4595 -0.1963 -0.3698
 1932SOL    HW217430   3.030   4.069   7.381  0.4290 -1.6960 -0.9766
 1933SOL     OW17431   1.827   0.987   3.172 -0.1202  0.2953  0.5437
 1933SOL    HW117432   1.800   1.077   3.190 -1.3265  0.1162 -0.3962
 1933SOL    HW217433   1.869   0.996   3.086 -0.0833 -0.4395  0.4830
 1934SOL     OW17434   2.540   2.670   4.009 -0.5345  0.0470  0.7507
 1934SOL    HW117435   2.515   2.619   3.932  1.7787 -1.6008  1.0789
 1934SOL    HW217436   2.625   2.633   4.032 -0.6045 -0.7804 -0.3225
 1935SOL     OW17437   1.445   2.451   6.388 -0.0048  0.4378  0.0993
 1935SOL    HW117438   1.362   2.415   6.357  0.7146 -2.9390  2.1317
 1935SOL    HW217439   1.418   2.490   6.471  1.7675  0.4542  0.6739
 1936SOL     OW17440   4.013   0.912  17.631  0.1632 -0.2944  0.0837
 1936SOL    HW117441   3.918   0.912  17.641  0.2587  2.0326  1.0794
 1936SOL    HW217442   4.034   0.819  17.635 -0.8347 -0.4993  0.5391
 1937SOL     OW17443   4.373   3.206   5.040  0.3841  0.4166  0.5055
 1937SOL    HW117444   4.281   3.207   5.013  1.1566 -1.7078 -2.1846
 1937SOL    HW217445   4.354   3.188   5.132 -0.5972  1.6966  0.5523
 1938SOL     OW17446   3.713   0.983   4.881 -0.6338  0.5086 -0.4096
 1938SOL    HW117447   3.634   1.034   4.862 -0.1427  2.1893  2.0592
 1938SOL    HW217448   3.765   1.046   4.932  0.8871 -2.5290  1.8064
 1939SOL     OW17449   0.155   0.055   7.864  0.2364  0.0612 -0.3746
 1939SOL    HW117450   0.129   0.048   7.956  1.0925 -1.7346 -0.2643
 1939SOL    HW217451   0.209   4.711   7.855  0.7644  0.3298  0.4182
 1940SOL     OW17452   4.430   1.871   9.296  0.1829  0.7813 -0.4138
 1940SOL    HW117453   4.356   1.834   9.248  1.0925 -2.4751  0.7249
 1940SOL    HW217454   4.468   1.921   9.223 -0.0165  0.9817 -0.3824
 1941SOL     OW17455   0.172   3.962   1.800  0.1690  0.0366 -0.0023
 1941SOL    HW117456   0.096   3.907   1.822  0.1058  0.3558  0.5767
 1941SOL    HW217457   0.152   4.044   1.844 -0.0247 -0.3158  0.5700
 1942SOL     OW17458   0.670   4.588   7.903 -0.2609  0.4965 -0.1624
 1942SOL    HW117459   0.656   4.605   7.809 -4.0075  0.8934  0.4601
 1942SOL    HW217460   0.613   4.654   7.942  0.2303 -0.5518  2.2891
 1943SOL     OW17461   2.112   0.132  14.983  0.2350 -0.0668  0.1543
 1943SOL    HW117462   2.032   0.080  14.991 -0.2788  0.8816  1.0672
 1943SOL    HW217463   2.100   0.168  14.895  2.9784 -0.9452 -0.5776
 1944SOL     OW17464   4.092   3.021   3.536 -0.2018  0.5217 -0.2690
 1944SOL    HW117465   4.100   2.938   3.583 -1.2228 -1.3310 -3.3522
 1944SOL    HW217466   4.147   3.007   3.459  1.1083 -1.3860  1.0222
 1945SOL     OW17467   1.590   3.467   7.398  0.5775 -0.4057 -0.3191
 1945SOL    HW117468   1.668   3.510   7.362  1.2239 -1.2121  0.1245
 1945SOL    HW217469   1.563   3.543   7.451 -0.0274 -0.6163 -0.3225
 1946SOL     OW17470   1.348   1.861  14.087  0.0796  0.0920  0.1338
 1946SOL    HW117471   1.353   1.941  14.139 -1.5457 -0.8379  1.7522
 1946SOL    HW217472   1.434   1.860  14.046 -0.4608 -1.1143 -0.9655
 1947SOL     OW17473   2.550   1.650  11.694  0.4337 -0.9053 -0.4631
 1947SOL    HW117474   2.501   1.578  11.654 -1.0206  0.7153 -1.5861
 1947SOL    HW217475   2.561   1.625  11.786 -1.6458  0.2102  0.0981
 1948SOL     OW17476   3.594   1.048   4.553  0.1917 -0.7103  1.0688
 1948SOL    HW117477   3.635   1.122   4.598 -1.2290  1.7106 -1.6149
 1948SOL    HW217478   3.621   0.964   4.590 -0.5157 -0.8574  1.2531
 1949SOL     OW17479   3.327   0.244   7.220  0.6410 -0.1114  0.1481
 1949SOL    HW117480   3.331   0.154   7.253  1.6849  0.0904  0.5706
 1949SOL    HW217481   3.388   0.287   7.279  0.4265 -0.8999  0.9476
 1950SOL     OW17482   2.405   1.275  15.408 -0.4967  0.5191 -0.1664
 1950SOL    HW117483   2.483   1.255  15.356 -1.2747  0.0636 -1.1508
 1950SOL    HW217484   2.449   1.310  15.486 -3.5331  2.5819  0.6385
 1951SOL     OW17485   0.669   1.434   8.983  0.2064 -0.5441 -0.4735
 1951SOL    HW117486   0.624   1.361   8.939 -1.3788 -0.2238  0.6255
 1951SOL    HW217487   0.686   1.387   9.064  0.8368  1.0678  0.3293
 1952SOL     OW17488   1.332   3.292   7.755 -0.1231 -0.6218 -0.7837
 1952SOL    HW117489   1.250   3.245   7.769 -0.0260 -0.1580  1.2305
 1952SOL    HW217490   1.324   3.365   7.815  1.3793  1.2773 -2.8926
 1953SOL     OW17491   1.319   3.953   7.785 -0.7960 -0.0170 -0.1437
 1953SOL    HW117492   1.406   3.914   7.790 -2.3525 -3.3738  1.3134
 1953SOL    HW217493   1.327   4.011   7.860 -2.0248 -0.4383  0.3115
 1954SOL     OW17494   2.511   2.470  16.200 -0.0219 -0.5662 -0.1463
 1954SOL    HW117495   2.529   2.389  16.152  2.2834  0.0094 -0.2686
 1954SOL    HW217496   2.579   2.462  16.266 -1.1444  1.3556  1.2589
 1955SOL     OW17497   4.363   3.938  16.873 -0.0737 -0.0850 -0.6231
 1955SOL    HW117498   4.419   3.949  16.796 -0.9306 -1.9010 -1.4913
 1955SOL    HW217499   4.419   3.965  16.946 -1.6263  1.5608 -0.0396
 1956SOL     OW17500   4.227   2.518   9.737 -0.2749 -0.0752 -0.8915
 1956SOL    HW117501   4.279   2.596   9.719  0.2373  0.1454  1.6024
 1956SOL    HW217502   4.290   2.446   9.731 -1.1526 -0.9323  0.2347
 1957SOL     OW17503   4.454   4.716  16.907  1.1876  0.3062  0.3493
 1957SOL    HW117504   4.479   0.073  16.894  0.7569  0.1438 -1.6962
 1957SOL    HW217505   4.446   4.716  17.002 -0.2353  0.6914  0.2246
 1958SOL     OW17506   2.140   3.427  16.758  0.4499 -0.1471  0.0150
 1958SOL    HW117507   2.160   3.520  16.746 -1.0872  0.0337 -1.1619
 1958SOL    HW217508   2.132   3.422  16.854 -0.8826  0.7096 -0.0491
 1959SOL     OW17509   2.057   3.990   8.277  0.0974  0.7202 -0.1247
 1959SOL    HW117510   2.119   4.046   8.323  2.4582 -0.2149 -2.1588
 1959SOL    HW217511   1.970   4.014   8.309  1.2567  2.9756  1.3696
 1960SOL     OW17512   2.495   3.295   6.710 -0.0206  0.6676  0.4621
 1960SOL    HW117513   2.440   3.288   6.788 -0.8363  0.4499 -0.1256
 1960SOL    HW217514   2.431   3.305   6.639 -1.4700  0.1584  1.7044
 1961SOL     OW17515   2.618   1.634  12.448  0.5417  0.1713  0.0503
 1961SOL    HW117516   2.661   1.587  12.519  0.9950 -0.0919 -0.3987
 1961SOL    HW217517   2.659   1.607  12.366  1.4744  1.8539 -0.0356
 1962SOL     OW17518   3.005   0.186  15.938 -0.2728 -0.6634 -0.8443
 1962SOL    HW117519   3.018   0.261  15.995  2.4805  0.1146 -2.4807
 1962SOL    HW217520   3.016   0.232  15.855  0.5097  3.1953  1.3795
 1963SOL     OW17521   0.067   4.637  12.888 -0.4273  0.1733  0.1607
 1963SOL    HW117522   0.126   4.704  12.853 -0.0525  0.7048  1.7902
 1963SOL    HW217523   0.063   4.668  12.979 -2.6475  1.8620 -0.5097
 1964SOL     OW17524   1.538   4.724   8.407  0.5089  0.3943  0.3023
 1964SOL    HW117525   1.522   0.079   8.379 -0.8921 -0.7295 -2.4857
 1964SOL    HW217526   1.541   4.725   8.503  2.5512 -0.6147  0.2550
 1965SOL     OW17527   3.546   4.380   9.347 -0.1597 -0.3786 -0.7645
 1965SOL    HW117528   3.586   4.339   9.270  0.1128 -0.4917 -0.5645
 1965SOL    HW217529   3.510   4.458   9.305 -1.5719 -0.5998  0.0361
 1966SOL     OW17530   3.954   4.080  10.734  0.5208 -0.0978 -0.1655
 1966SOL    HW117531   4.022   4.019  10.762 -0.5004 -0.1214  2.2927
 1966SOL    HW217532   4.004   4.152  10.696 -1.5926  1.8498  0.7659
 1967SOL     OW17533   0.305   4.246  13.582 -0.6512  0.1261  0.2384
 1967SOL    HW117534   0.276   4.307  13.651 -2.6151  0.5608 -0.9504
 1967SOL    HW217535   0.223   4.206  13.551 -0.5119 -1.3536  1.7553
 1968SOL     OW17536   0.001   2.602   6.084 -0.7356 -0.1018 -0.2030
 1968SOL    HW117537   0.004   2.509   6.062 -1.7502 -0.0183 -0.7112
 1968SOL    HW217538   0.020   2.608   6.177 -1.0184 -0.6443 -0.1115
 1969SOL     OW17539   1.155   3.140  16.402 -0.2427  0.5670 -0.2833
 1969SOL    HW117540   1.203   3.067  16.363 -0.6208  0.2106 -0.0878
 1969SOL    HW217541   1.063   3.112  16.406  0.5547 -2.0584 -0.7161
 1970SOL     OW17542   0.836   0.345   4.736  0.0804 -0.1137  0.9175
 1970SOL    HW117543   0.892   0.368   4.661 -1.1972 -1.3030 -0.3940
 1970SOL    HW217544   0.751   0.372   4.700  0.0655  0.7118  1.5917
 1971SOL     OW17545   2.801   1.172   7.452 -0.0656  0.3806 -0.2275
 1971SOL    HW117546   2.843   1.244   7.497  1.5807 -0.0078 -1.1567
 1971SOL    HW217547   2.747   1.128   7.518  1.2795 -1.7091 -0.4956
 1972SOL     OW17548   4.468   4.669   5.581  0.5533  0.3651  0.2659
 1972SOL    HW117549   4.399   4.633   5.638 -0.5710  1.0738 -0.6385
 1972SOL    HW217550   4.532   4.694   5.648  1.9790 -1.0844 -0.5592
 1973SOL     OW17551   1.294   1.176   2.808  0.6656  0.3643  0.2888
 1973SOL    HW117552   1.238   1.106   2.774  1.7717 -0.6158  0.4777
 1973SOL    HW217553   1.382   1.154   2.779  0.8587  0.1953  0.9961
 1974SOL     OW17554   0.961   0.452  16.397  0.0568  0.4926 -0.1751
 1974SOL    HW117555   1.019   0.415  16.464 -0.7746  0.1332  0.3428
 1974SOL    HW217556   0.946   0.378  16.339  1.2268  1.2538 -1.4590
 1975SOL     OW17557   0.455   1.702   4.767 -0.2008  0.3433 -0.4008
 1975SOL    HW117558   0.454   1.606   4.764  0.1396  0.2615  2.0887
 1975SOL    HW217559   0.371   1.718   4.809  0.6245 -0.8668  1.6969
 1976SOL     OW17560   2.956   3.375   3.798  0.4626 -0.0919 -0.6341
 1976SOL    HW117561   2.948   3.408   3.708  0.4210  2.3627  0.2699
 1976SOL    HW217562   2.871   3.398   3.835 -1.5795 -1.9861 -4.1198
 1977SOL     OW17563   3.400   4.430   7.001 -0.1106  0.0819  0.3270
 1977SOL    HW117564   3.322   4.473   7.037 -0.1151  0.2880  0.0680
 1977SOL    HW217565   3.402   4.464   6.911 -2.3660 -1.2525 -0.2212
 1978SOL     OW17566   1.284   2.054   5.634 -0.2092 -0.5132  0.1947
 1978SOL    HW117567   1.196   2.020   5.651 -0.6724 -0.4993 -2.1423
 1978SOL    HW217568   1.316   1.991   5.569  1.4008  0.1166  0.3656
 1979SOL     OW17569   2.568   0.395   3.473  0.8011 -0.1711 -0.5592
 1979SOL    HW117570   2.563   0.350   3.557  0.6151  1.0233  0.0603
 1979SOL    HW217571   2.553   0.488   3.491 -1.8693 -0.7425  0.2594
 1980SOL     OW17572   2.124   4.390  16.914  0.4448  0.4001 -0.2732
 1980SOL    HW117573   2.075   4.447  16.973  0.1585 -0.0742 -0.0488
 1980SOL    HW217574   2.205   4.439  16.899  0.6790  0.4791  1.1982
 1981SOL     OW17575   0.200   4.458  14.388  0.2540 -0.3229  0.4064
 1981SOL    HW117576   0.150   4.521  14.440  0.9007 -0.4127  1.1474
 1981SOL    HW217577   0.219   4.514  14.313 -0.0619 -0.1560  0.4519
 1982SOL     OW17578   2.957   1.585   1.721 -0.3391  0.2939 -0.0659
 1982SOL    HW117579   3.051   1.590   1.738 -0.3795 -0.9813  0.5240
 1982SOL    HW217580   2.913   1.624   1.797 -0.4723  0.1882 -0.0879
 1983SOL     OW17581   1.423   0.745  10.571 -0.5267  0.3527 -0.2928
 1983SOL    HW117582   1.417   0.733  10.666  0.5812  0.1268 -0.2493
 1983SOL    HW217583   1.515   0.739  10.544 -0.8152 -0.6166 -1.0562
 1984SOL     OW17584   0.980   3.643   9.826  0.2466  0.1235  0.1491
 1984SOL    HW117585   0.918   3.573   9.808  2.2691 -2.0100  1.4026
 1984SOL    HW217586   1.015   3.618   9.912  0.1875 -0.0509  0.1235
 1985SOL     OW17587   1.848   3.716   8.345  0.2621 -0.3999  0.2884
 1985SOL    HW117588   1.816   3.805   8.328 -0.8630 -0.5357  1.7593
 1985SOL    HW217589   1.890   3.689   8.263 -0.0114 -0.0467  0.0272
 1986SOL     OW17590   4.594   0.327   7.979  0.1972 -0.4668  0.6478
 1986SOL    HW117591   4.680   0.292   8.002  1.8549  2.2622 -1.4233
 1986SOL    HW217592   4.553   0.249   7.942  1.2496 -1.7689  2.2369
 1987SOL     OW17593   3.968   4.648   5.617 -0.2438  0.2256 -0.2201
 1987SOL    HW117594   3.960   0.006   5.638 -2.7910 -0.2859  1.1655
 1987SOL    HW217595   3.911   4.631   5.542 -0.6851  0.7950 -0.0196
 1988SOL     OW17596   0.029   3.512  15.732  0.1266  0.4386  0.6401
 1988SOL    HW117597   0.012   3.584  15.792 -0.3958  0.3905  0.5533
 1988SOL    HW217598   0.059   3.451  15.800  0.8514 -2.9047 -2.6640
 1989SOL     OW17599   3.311   0.470  15.644 -0.3939  0.2229 -0.3727
 1989SOL    HW117600   3.232   0.420  15.663 -1.0703 -0.1341 -4.1279
 1989SOL    HW217601   3.367   0.413  15.591  1.3761  3.4082 -1.9227
 1990SOL     OW17602   1.055   4.107  14.577 -0.1773  0.7954 -0.2126
 1990SOL    HW117603   1.046   4.047  14.504 -0.5169  0.0582  0.4407
 1990SOL    HW217604   1.047   4.051  14.654 -0.0858  0.0813 -0.7312
 1991SOL     OW17605   2.970   2.941   0.720  0.3037  0.3227 -0.5204
 1991SOL    HW117606   2.967   2.984   0.805  1.1903 -1.0164  0.1977
 1991SOL    HW217607   2.958   2.847   0.736 -2.3224  1.0211  1.5051
 1992SOL     OW17608   4.078   4.456   3.106  0.1088 -0.2627  0.5106
 1992SOL    HW117609   4.065   4.550   3.097 -0.2589 -0.2368  1.3310
 1992SOL    HW217610   4.171   4.442   3.090 -0.1034 -2.3463  1.1605
 1993SOL     OW17611   1.563   0.640  11.852 -0.0933 -0.1962 -0.2808
 1993SOL    HW117612   1.590   0.630  11.944 -0.4006  0.1290 -0.1565
 1993SOL    HW217613   1.505   0.566  11.835 -1.1617  0.0516  2.2256
 1994SOL     OW17614   2.979   3.903   6.481 -0.3309  0.4431 -0.5769
 1994SOL    HW117615   2.911   3.848   6.520 -1.3028  1.1683 -1.2608
 1994SOL    HW217616   3.002   3.848   6.406 -0.7138  0.0246 -0.3901
 1995SOL     OW17617   3.993   3.665   1.264  0.0376 -0.1682  0.1270
 1995SOL    HW117618   4.032   3.582   1.289  0.9059 -0.0861 -0.9474
 1995SOL    HW217619   3.919   3.674   1.325 -0.6600 -1.2996 -0.5726
 1996SOL     OW17620   0.463   3.839   3.345 -0.3847  0.0886  0.4112
 1996SOL    HW117621   0.529   3.801   3.287 -2.1374  0.4509 -1.8338
 1996SOL    HW217622   0.383   3.797   3.314 -1.1787  2.7385 -1.1604
 1997SOL     OW17623   3.283   0.653   0.220  0.1712  0.2019 -0.0094
 1997SOL    HW117624   3.241   0.643   0.305 -0.3683 -1.2858 -0.4569
 1997SOL    HW217625   3.289   0.749   0.218  1.9200  0.0873 -0.3674
 1998SOL     OW17626   0.820   3.629  12.977 -0.4491  0.5587 -0.5659
 1998SOL    HW117627   0.803   3.713  13.021  0.5596 -0.1457  1.1788
 1998SOL    HW217628   0.863   3.665  12.899  0.7415 -1.4086 -0.8164
 1999SOL     OW17629   3.326   0.426   5.140 -0.2738 -0.6627  0.1611
 1999SOL    HW117630   3.420   0.446   5.135  0.0431 -2.3271 -0.5580
 1999SOL    HW217631   3.333   0.381   5.225  0.1629  0.3056  0.6332
 2000SOL     OW17632   4.375   2.110  10.533  0.0084  0.0877  0.6961
 2000SOL    HW117633   4.450   2.067  10.576  0.4714  1.0995  0.8896
 2000SOL    HW217634   4.406   2.199  10.521 -0.6352  0.4390  1.6885
 2001SOL     OW17635   3.363   0.263   7.537 -0.0596 -0.1453 -0.2437
 2001SOL    HW117636   3.291   0.324   7.551  0.3441  0.5506 -1.1770
 2001SOL    HW217637   3.441   0.316   7.553 -0.1884  0.0968 -0.4165
 2002SOL     OW17638   0.589   0.929   8.320  0.6922 -0.5091  0.3193
 2002SOL    HW117639   0.646   0.925   8.397  1.7109  0.3967 -0.3884
 2002SOL    HW217640   0.643   0.975   8.255  0.2195 -0.0972  0.2174
 2003SOL     OW17641   3.127   0.027   8.656 -0.0746  0.6909  0.1293
 2003SOL    HW117642   3.187   0.102   8.651 -0.6253  1.0975 -0.3195
 2003SOL    HW217643   3.116   0.016   8.751  0.2747 -1.1430 -0.0448
 2004SOL     OW17644   0.492   2.022   8.990 -0.3633  0.3760 -0.7436
 2004SOL    HW117645   0.412   2.074   9.003 -2.8135 -3.7688  0.6095
 2004SOL    HW217646   0.470   1.953   8.929 -0.2870 -0.9394  0.7106
 2005SOL     OW17647   1.404   1.015   7.937 -0.4387 -0.3459 -0.3347
 2005SOL    HW117648   1.439   1.089   7.888  0.8570  0.3676  1.6527
 2005SOL    HW217649   1.340   0.981   7.875 -1.7198  0.8477  0.3310
 2006SOL     OW17650   3.947   3.272   7.993  0.2762  0.1896 -0.0716
 2006SOL    HW117651   3.992   3.283   8.077  0.4871  1.7875 -0.3937
 2006SOL    HW217652   3.859   3.290   8.024 -0.5020 -3.5622 -0.1183
 2007SOL     OW17653   0.537   0.389  11.480  0.1127  0.5836  0.7877
 2007SOL    HW117654   0.513   0.322  11.415  0.8965  0.9438  0.1306
 2007SOL    HW217655   0.467   0.451  11.459  0.6205  0.3435 -1.6605
 2008SOL     OW17656   4.304   0.267  11.503 -0.1088 -0.5244  0.2343
 2008SOL    HW117657   4.248   0.190  11.498 -1.6800  0.4067  3.0848
 2008SOL    HW217658   4.323   0.281  11.410  0.3149 -3.6066 -0.1431
 2009SOL     OW17659   4.524   1.296   8.422  0.7289  0.3357  0.0591
 2009SOL    HW117660   4.619   1.294   8.431  0.9518 -0.8029 -2.5487
 2009SOL    HW217661   4.495   1.205   8.434  0.9135  0.1164 -1.1439
 2010SOL     OW17662   3.921   0.173  13.349  0.1772 -0.0553  0.1154
 2010SOL    HW117663   4.001   0.184  13.298 -0.0129  1.0406  0.0489
 2010SOL    HW217664   3.933   0.248  13.408  4.4034 -0.8689  0.2766
 2011SOL     OW17665   3.422   0.419  17.520 -0.1069 -0.0871 -0.9561
 2011SOL    HW117666   3.518   0.427  17.521 -0.0435 -0.9305  0.0881
 2011SOL    HW217667   3.396   0.502  17.560  0.5841 -0.0501 -0.5696
 2012SOL     OW17668   3.533   0.564  10.965 -0.5640  0.2384  0.6145
 2012SOL    HW117669   3.508   0.652  10.938  1.2815 -0.3527 -3.0667
 2012SOL    HW217670   3.620   0.583  11.001  0.0995 -4.3645  1.4946
 2013SOL     OW17671   3.627   2.270  14.529 -0.9436  0.7631  0.2194
 2013SOL    HW117672   3.549   2.261  14.583  0.1325 -0.3150  1.5816
 2013SOL    HW217673   3.587   2.264  14.442  0.1608 -0.8204 -0.1936
 2014SOL     OW17674   2.538   1.263   2.545  0.2142  0.4749 -0.5631
 2014SOL    HW117675   2.601   1.290   2.612 -0.7512 -0.2639  0.6413
 2014SOL    HW217676   2.477   1.338   2.549 -1.5336 -1.0903  1.8762
 2015SOL     OW17677   1.376   0.202   9.105  0.2559  0.8199  0.7585
 2015SOL    HW117678   1.290   0.233   9.133  0.2354 -0.7904  2.4137
 2015SOL    HW217679   1.388   0.128   9.165  0.1512 -1.9411 -2.6137
 2016SOL     OW17680   1.747   0.151  10.078  0.3894  0.4638 -0.2995
 2016SOL    HW117681   1.739   0.237  10.037  0.9193  0.6320 -0.0488
 2016SOL    HW217682   1.662   0.118  10.050  1.8506 -2.1844 -1.6317
 2017SOL     OW17683   0.372   3.552  15.341  0.2414  0.3618  0.3863
 2017SOL    HW117684   0.312   3.516  15.275  0.2993  0.1844  0.4302
 2017SOL    HW217685   0.458   3.549  15.300 -0.4515  2.0156 -1.1794
 2018SOL     OW17686   3.747   1.285   4.643 -0.0723  0.4094 -0.5712
 2018SOL    HW117687   3.732   1.362   4.589  3.8357  0.8922 -0.9651
 2018SOL    HW217688   3.787   1.312   4.726 -1.9971 -0.0886  0.5314
 2019SOL     OW17689   0.884   3.732  13.418 -0.6649  0.2894 -0.1324
 2019SOL    HW117690   0.868   3.817  13.459  0.9287 -0.1001  1.2741
 2019SOL    HW217691   0.964   3.744  13.366 -1.6749  1.0477 -1.4989
 2020SOL     OW17692   0.526   0.713   5.110 -0.4113 -0.5322  0.0616
 2020SOL    HW117693   0.602   0.663   5.081 -0.0530 -0.1478  0.3341
 2020SOL    HW217694   0.534   0.799   5.071 -0.9041 -0.6083 -0.2084
 2021SOL     OW17695   2.903   4.613   5.769 -0.4636 -0.2446 -0.6492
 2021SOL    HW117696   2.894   4.532   5.819  0.4628 -1.0919 -1.8712
 2021SOL    HW217697   2.810   4.634   5.765 -0.3185  0.5510  0.2498
 2022SOL     OW17698   4.291   0.390  12.231 -0.1535  0.2885  0.0014
 2022SOL    HW117699   4.209   0.359  12.270  0.6323 -0.0704  1.3826
 2022SOL    HW217700   4.295   0.483  12.256 -0.8614  0.2048  0.4425
 2023SOL     OW17701   0.703   4.275   8.973  0.1263 -0.5603 -0.0969
 2023SOL    HW117702   0.642   4.222   8.921 -0.4410  0.0000 -0.0007
 2023SOL    HW217703   0.781   4.228   8.943  1.0497  1.2601 -0.5146
 2024SOL     OW17704   3.939   4.293  11.140  0.3039  0.1324 -0.1338
 2024SOL    HW117705   3.971   4.345  11.213  3.0169  0.2852 -1.4076
 2024SOL    HW217706   3.944   4.204  11.174 -2.3461  0.5379  1.2481
 2025SOL     OW17707   3.076   2.685   7.844 -0.1243  0.1386  0.2837
 2025SOL    HW117708   3.161   2.686   7.889  0.7952  1.0597 -1.4841
 2025SOL    HW217709   3.060   2.779   7.839  1.1245  0.4664  2.4234
 2026SOL     OW17710   1.974   0.470   1.989  0.5536 -0.0603  0.2782
 2026SOL    HW117711   2.035   0.519   2.044  0.9099 -0.5309  0.3028
 2026SOL    HW217712   1.914   0.537   1.956  0.1845  0.8166  2.6995
 2027SOL     OW17713   0.474   0.679   6.117  0.3521 -0.6190  0.1692
 2027SOL    HW117714   0.432   0.604   6.074  1.6391 -1.2925  0.0884
 2027SOL    HW217715   0.552   0.698   6.066 -0.3532  0.0947 -0.6469
 2028SOL     OW17716   1.054   0.694   4.739  0.4974  0.4150  0.0823
 2028SOL    HW117717   1.039   0.778   4.694 -2.7223  0.3979  1.1666
 2028SOL    HW217718   1.140   0.714   4.776  1.1717 -1.3955 -0.5016
 2029SOL     OW17719   1.681   3.017  14.737  0.2789  0.2541 -0.4335
 2029SOL    HW117720   1.605   2.962  14.719  0.1329  0.4800 -0.4933
 2029SOL    HW217721   1.730   3.011  14.655 -0.4900 -2.3671 -0.7018
 2030SOL     OW17722   2.004   3.347   2.150 -0.7269 -0.3178  0.0852
 2030SOL    HW117723   2.065   3.406   2.195  0.2823  1.2459 -3.3010
 2030SOL    HW217724   2.036   3.359   2.061  0.2148  3.0981  0.8962
 2031SOL     OW17725   4.429   3.304   9.648  0.0895 -0.3011  0.1117
 2031SOL    HW117726   4.393   3.303   9.560 -0.1484 -0.1943  0.2083
 2031SOL    HW217727   4.354   3.273   9.699 -0.8451  0.7257 -0.6358
 2032SOL     OW17728   1.278   3.413  17.714 -0.4091  0.1388 -0.0924
 2032SOL    HW117729   1.322   3.328  17.721 -1.7175 -0.6501 -1.4317
 2032SOL    HW217730   1.193   3.399   0.016 -1.0641  1.6250 -0.9479
 2033SOL     OW17731   3.763   3.924   4.658 -0.2808  0.0769 -0.0665
 2033SOL    HW117732   3.791   3.965   4.576 -0.9689  0.5184 -0.0839
 2033SOL    HW217733   3.829   3.954   4.720 -1.5336 -2.1036  2.3045
 2034SOL     OW17734   3.145   1.236   5.932 -0.3877  0.4554  0.5209
 2034SOL    HW117735   3.222   1.240   5.989 -0.5601  0.6500  0.7432
 2034SOL    HW217736   3.180   1.263   5.848 -0.9693 -0.8631 -0.1375
 2035SOL     OW17737   0.501   0.158   8.995  0.2412 -0.5300  0.1551
 2035SOL    HW117738   0.481   0.250   9.014  1.4097 -0.6316  1.8688
 2035SOL    HW217739   0.570   0.179   8.932  0.5742  0.0570  0.7169
 2036SOL     OW17740   1.620   2.618   6.247 -0.6735 -0.5205  0.1343
 2036SOL    HW117741   1.705   2.604   6.287  0.5972 -1.1242 -2.8047
 2036SOL    HW217742   1.580   2.534   6.272 -0.5282 -0.2020  1.4230
 2037SOL     OW17743   2.385   2.646   7.772 -0.0424 -0.3074 -0.1970
 2037SOL    HW117744   2.436   2.668   7.850  0.5582 -3.2549  0.2192
 2037SOL    HW217745   2.423   2.562   7.750  0.7820 -0.3693  1.4972
 2038SOL     OW17746   4.523   2.846   8.329 -0.4033  0.2371  0.5760
 2038SOL    HW117747   4.558   2.780   8.389 -0.9159 -0.0918  0.5145
 2038SOL    HW217748   4.541   2.807   8.244 -0.6132  0.0365  0.6220
 2039SOL     OW17749   1.496   3.030   4.975  0.2695 -0.2152  0.2960
 2039SOL    HW117750   1.584   3.061   4.951 -0.1212  1.8464  1.4396
 2039SOL    HW217751   1.519   2.938   4.968  1.0276 -0.1455  1.7156
 2040SOL     OW17752   3.418   4.648   3.893 -0.0852 -0.6083 -0.3933
 2040SOL    HW117753   3.351   4.645   3.961  0.4214  1.1305  0.1755
 2040SOL    HW217754   3.416   4.561   3.853 -0.3425 -0.0692 -1.5638
 2041SOL     OW17755   3.061   4.315  17.501  0.2045  0.5732 -0.3873
 2041SOL    HW117756   3.098   4.228  17.512 -2.0759 -0.2036  1.1303
 2041SOL    HW217757   3.040   4.316  17.408 -1.9789 -0.1549  0.0987
 2042SOL     OW17758   0.819   0.403   8.686 -0.4415  0.1365  0.6741
 2042SOL    HW117759   0.741   0.454   8.706  0.1523  0.7805  1.3269
 2042SOL    HW217760   0.883   0.474   8.685 -3.1851  2.5595 -3.6088
 2043SOL     OW17761   4.666   3.470   9.178  0.3065 -0.6298  0.2726
 2043SOL    HW117762   4.651   3.501   9.088 -0.6892 -0.4812  0.4860
 2043SOL    HW217763   4.717   3.541   9.216 -1.0273  0.2280  0.4488
 2044SOL     OW17764   2.474   3.764  13.245  0.2361  0.4257  0.4114
 2044SOL    HW117765   2.552   3.819  13.249 -0.1605  0.8745  1.7417
 2044SOL    HW217766   2.411   3.810  13.300 -1.8356 -0.6810 -1.0492
 2045SOL     OW17767   2.372   3.689   9.023  0.5151 -0.0539  0.1351
 2045SOL    HW117768   2.465   3.699   9.002  0.3415  2.3841  0.4152
 2045SOL    HW217769   2.374   3.722   9.113  0.7104  0.2861  0.0077
 2046SOL     OW17770   4.402   1.936   6.097 -0.0283 -0.3831  0.0526
 2046SOL    HW117771   4.408   1.842   6.083  1.4991  0.1498 -2.9123
 2046SOL    HW217772   4.440   1.949   6.184  1.3693  0.2194 -0.6524
 2047SOL     OW17773   3.812   4.029   4.032 -0.1467 -0.1447  0.1181
 2047SOL    HW117774   3.845   3.939   4.036 -0.5536 -0.3558 -1.2898
 2047SOL    HW217775   3.831   4.065   4.118 -1.2497 -0.1813  0.3790
 2048SOL     OW17776   1.308   2.856   4.235  0.5347  0.0492  0.1273
 2048SOL    HW117777   1.240   2.909   4.275  0.9057 -0.9799  2.1225
 2048SOL    HW217778   1.249   2.789   4.201  1.9987 -0.2513 -1.8620
 2049SOL     OW17779   2.977   1.038  14.604  0.5400 -0.4599 -0.9204
 2049SOL    HW117780   2.895   1.043  14.654  1.3688 -0.4232  0.4217
 2049SOL    HW217781   3.041   1.027  14.674  0.1070  0.7405 -0.3219
 2050SOL     OW17782   0.556   0.697   9.308 -0.3692 -0.3455  0.2222
 2050SOL    HW117783   0.629   0.648   9.269  0.2033  0.8956 -0.2789
 2050SOL    HW217784   0.529   0.638   9.378  0.5551 -1.2783 -0.2155
 2051SOL     OW17785   1.671   1.706   1.908 -0.1050  0.4864  0.6493
 2051SOL    HW117786   1.764   1.708   1.883 -0.4924  0.6207 -0.7350
 2051SOL    HW217787   1.655   1.795   1.941  0.6359  0.5431  0.8640
 2052SOL     OW17788   1.988   4.094   1.828  0.7198  0.1056  0.0745
 2052SOL    HW117789   2.012   4.032   1.897 -2.8696 -0.8662  0.4511
 2052SOL    HW217790   1.957   4.174   1.870  3.0788  1.1308 -0.1375
 2053SOL     OW17791   2.115   1.309   2.286  0.2537 -0.1167  0.1317
 2053SOL    HW117792   2.175   1.370   2.243  2.2559 -2.4195 -0.3700
 2053SOL    HW217793   2.179   1.244   2.315 -0.4587 -0.4284  0.9764
 2054SOL     OW17794   0.642   1.229  12.730 -0.2457 -0.6070  0.1264
 2054SOL    HW117795   0.620   1.286  12.656 -1.3701 -1.8091 -0.4841
 2054SOL    HW217796   0.639   1.150  12.675 -0.4556 -0.3049 -0.2968
 2055SOL     OW17797   3.646   2.855   5.248  0.1929 -0.2621  0.4900
 2055SOL    HW117798   3.621   2.870   5.156  0.2313 -1.7567  0.2360
 2055SOL    HW217799   3.737   2.825   5.240  0.2218 -0.4950  1.8101
 2056SOL     OW17800   1.840   3.663   5.739 -0.3575 -0.6805 -0.3442
 2056SOL    HW117801   1.834   3.714   5.658  1.9722 -1.4458 -0.9938
 2056SOL    HW217802   1.776   3.593   5.723 -1.2168  0.2142 -0.8455
 2057SOL     OW17803   3.505   4.158   5.723 -0.3284 -0.4018  0.0293
 2057SOL    HW117804   3.453   4.237   5.708 -0.4226 -0.6450 -0.9997
 2057SOL    HW217805   3.459   4.095   5.667 -0.0913 -0.3012 -0.2779
 2058SOL     OW17806   4.113   0.878   1.160  0.0348  0.8022 -0.3354
 2058SOL    HW117807   4.080   0.808   1.216  2.0378  0.2869  0.2115
 2058SOL    HW217808   4.126   0.822   1.084  1.5035 -0.6310  0.9762
 2059SOL     OW17809   3.869   3.987   2.171 -0.1403  0.0115  0.9525
 2059SOL    HW117810   3.852   4.040   2.093  1.0593  0.1847  0.8095
 2059SOL    HW217811   3.779   3.975   2.204 -0.0770  0.8562  1.4494
 2060SOL     OW17812   1.796   2.764  14.740  0.2147  0.1009 -0.0889
 2060SOL    HW117813   1.775   2.857  14.735  0.4487  0.1927  0.7148
 2060SOL    HW217814   1.871   2.747  14.798 -0.7532 -1.2552  0.7540
 2061SOL     OW17815   3.063   3.240  11.293 -0.5091  0.4280 -0.3402
 2061SOL    HW117816   3.026   3.180  11.229  1.6957  2.6910 -3.7523
 2061SOL    HW217817   3.102   3.182  11.359 -3.6782 -1.9843 -0.6125
 2062SOL     OW17818   2.342   3.475   2.850  0.3544  0.1113  0.0099
 2062SOL    HW117819   2.381   3.551   2.806  0.1631 -1.5153 -2.9192
 2062SOL    HW217820   2.419   3.439   2.895  0.5806  2.0079  1.1650
 2063SOL     OW17821   3.555   4.572   2.755  0.0266  0.8105 -0.6713
 2063SOL    HW117822   3.523   4.532   2.837 -0.7727 -1.1054 -1.9279
 2063SOL    HW217823   3.482   4.629   2.728 -1.4488 -1.1101 -0.7492
 2064SOL     OW17824   0.766   1.515   8.736 -0.3227  0.1585 -0.3018
 2064SOL    HW117825   0.704   1.575   8.694  0.8575 -0.5115 -3.0236
 2064SOL    HW217826   0.725   1.503   8.822  1.6376 -0.0159  0.6087
 2065SOL     OW17827   3.805   4.637   3.046  0.1213 -0.2800  0.0499
 2065SOL    HW117828   3.779   4.613   2.957  1.2351 -0.1994 -0.2946
 2065SOL    HW217829   3.777   4.728   3.055 -0.3391 -0.3582 -0.6380
 2066SOL     OW17830   4.152   2.111   2.520  0.6560 -0.5516 -0.1282
 2066SOL    HW117831   4.099   2.032   2.530  0.9138 -0.9124 -1.5743
 2066SOL    HW217832   4.106   2.190   2.547  0.2894 -0.9726  0.4770
 2067SOL     OW17833   4.030   4.022   5.623  0.0925 -0.0920 -0.8629
 2067SOL    HW117834   4.070   4.000   5.539 -1.9774  0.5674 -2.0399
 2067SOL    HW217835   4.102   4.028   5.685 -0.1685  1.0935 -0.6698
 2068SOL     OW17836   4.121   1.972   4.290  0.7462  0.3763  0.2576
 2068SOL    HW117837   4.028   1.973   4.314  0.7957 -2.0202  0.5270
 2068SOL    HW217838   4.158   2.054   4.323  0.7760  0.8621 -0.9775
 2069SOL     OW17839   4.042   2.769   6.616 -0.1346  0.2194  0.4575
 2069SOL    HW117840   4.053   2.819   6.697 -1.3903 -2.2903  2.1932
 2069SOL    HW217841   3.984   2.828   6.568  0.9309 -0.6397 -1.8407
 2070SOL     OW17842   2.493   3.855   0.932  0.1909  0.0197  0.5801
 2070SOL    HW117843   2.576   3.902   0.931  0.5197 -0.6112 -1.4412
 2070SOL    HW217844   2.449   3.896   0.858  0.2502  1.3636  1.2889
 2071SOL     OW17845   2.013   3.896   2.022  0.0270  0.3536  0.3807
 2071SOL    HW117846   2.062   3.815   2.010 -0.4854  0.1080 -0.0912
 2071SOL    HW217847   2.066   3.954   2.077  0.6339  0.1640 -0.0105
 2072SOL     OW17848   1.053   3.353   9.122 -0.1365  0.2881 -0.2035
 2072SOL    HW117849   1.088   3.433   9.082 -2.5909  0.4686 -1.9747
 2072SOL    HW217850   1.015   3.308   9.047  0.0617 -0.8027  0.3578
 2073SOL     OW17851   3.337   1.748  17.311  0.2451  0.1362 -0.6459
 2073SOL    HW117852   3.402   1.685  17.281  1.5790  1.2734 -0.1970
 2073SOL    HW217853   3.396   1.812  17.353  1.0462 -0.9191 -0.1534
 2074SOL     OW17854   0.370   1.635   1.946 -0.3631 -0.7991 -0.1030
 2074SOL    HW117855   0.452   1.592   1.921  0.0759  0.6690 -1.1989
 2074SOL    HW217856   0.329   1.605   1.864  2.9144 -0.0980 -2.0009
 2075SOL     OW17857   4.480   1.956   9.033 -0.0014 -0.3947  0.0964
 2075SOL    HW117858   4.558   1.902   9.016  0.2945 -0.0630  0.3783
 2075SOL    HW217859   4.447   1.982   8.948  1.8280  1.0927 -0.1679
 2076SOL     OW17860   1.397   1.390   5.718  0.0592 -0.4374 -0.0160
 2076SOL    HW117861   1.328   1.332   5.685 -0.7837  0.3085  0.4313
 2076SOL    HW217862   1.412   1.446   5.642  0.8454  1.5570  1.6103
 2077SOL     OW17863   1.259   1.268   9.868 -0.4313 -0.0747  0.1562
 2077SOL    HW117864   1.178   1.299   9.907 -0.2059  0.8848 -0.1445
 2077SOL    HW217865   1.312   1.347   9.867 -0.1419 -0.2605  0.9208
 2078SOL     OW17866   0.640   1.563  12.680 -0.4170 -0.2695  0.1474
 2078SOL    HW117867   0.728   1.543  12.712 -0.2291  0.5969  0.1865
 2078SOL    HW217868   0.596   1.593  12.760  1.2538  0.4265  0.8040
 2079SOL     OW17869   1.426   0.415  11.836 -0.3776 -0.0743 -0.2815
 2079SOL    HW117870   1.427   0.392  11.929  0.2061 -0.6495 -0.4321
 2079SOL    HW217871   1.361   0.352  11.805  0.1904 -0.7924 -0.0068
 2080SOL     OW17872   1.535   3.529   6.357  0.0370  0.1784 -0.2449
 2080SOL    HW117873   1.440   3.532   6.351 -0.0550 -0.4245  0.9948
 2080SOL    HW217874   1.550   3.436   6.374 -0.4360 -0.3907 -2.9141
 2081SOL     OW17875   1.717   4.061   7.878  0.0578  0.4527  0.1235
 2081SOL    HW117876   1.782   3.991   7.886  0.0480  0.6588  1.9040
 2081SOL    HW217877   1.765   4.141   7.856 -0.8357  1.1537  0.7373
 2082SOL     OW17878   1.522   0.507   2.481  0.1076 -0.0339  0.0835
 2082SOL    HW117879   1.551   0.464   2.400  0.6784  1.3617 -0.4577
 2082SOL    HW217880   1.566   0.456   2.549  1.0495  3.8621  2.3825
 2083SOL     OW17881   1.455   2.046   5.925  0.1663  0.1466 -0.7266
 2083SOL    HW117882   1.447   1.953   5.947 -0.5325  0.3335 -0.1990
 2083SOL    HW217883   1.431   2.044   5.832 -0.2432  0.3798 -0.6249
 2084SOL     OW17884   4.118   2.832  13.482 -0.0465 -0.1430 -0.2523
 2084SOL    HW117885   4.211   2.820  13.458 -0.2046 -1.0397 -0.4381
 2084SOL    HW217886   4.101   2.752  13.531  3.9955 -0.1462  1.1680
 2085SOL     OW17887   4.228   3.581   3.969  0.1597  0.0696  0.4014
 2085SOL    HW117888   4.176   3.661   3.958 -0.0024 -0.1967 -0.7654
 2085SOL    HW217889   4.187   3.539   4.045  1.4040 -0.0842  0.9905
 2086SOL     OW17890   1.663   1.428  15.577 -0.3563  0.3981  0.8230
 2086SOL    HW117891   1.712   1.477  15.511  0.9683 -1.2508  0.5862
 2086SOL    HW217892   1.709   1.346  15.591 -1.3905 -0.4002 -0.4680
 2087SOL     OW17893   4.281   2.430   4.911  0.1781 -0.7032  0.2415
 2087SOL    HW117894   4.269   2.345   4.869  0.7282  0.5165 -2.4060
 2087SOL    HW217895   4.213   2.417   4.977 -0.8587 -0.9172 -0.8501
 2088SOL     OW17896   3.817   1.404   4.877 -0.0623 -0.0338 -0.7163
 2088SOL    HW117897   3.829   1.498   4.872 -1.0309  0.0685 -1.0589
 2088SOL    HW217898   3.844   1.386   4.967 -1.2494 -0.2878 -0.4222
 2089SOL     OW17899   4.474   0.684   6.674  0.8700 -0.4393 -0.1074
 2089SOL    HW117900   4.529   0.747   6.628  2.2675 -1.5903 -0.0246
 2089SOL    HW217901   4.523   0.603   6.687  3.0204  0.6818 -1.2601
 2090SOL     OW17902   1.753   0.056  11.644 -0.1949  0.6459 -0.1636
 2090SOL    HW117903   1.691   0.091  11.707  1.6873 -0.3137  2.2557
 2090SOL    HW217904   1.832   0.060  11.699 -2.6943 -1.6690  3.5960
 2091SOL     OW17905   3.655   0.355   9.571  0.7973  0.1980  0.6612
 2091SOL    HW117906   3.579   0.383   9.622  0.4913 -2.8345  1.8800
 2091SOL    HW217907   3.725   0.373   9.634  1.0583  0.7653  0.2019
 2092SOL     OW17908   1.859   0.555  10.137  0.2654 -0.1726  0.4998
 2092SOL    HW117909   1.803   0.606  10.078 -1.6906 -2.0843  0.7134
 2092SOL    HW217910   1.866   0.475  10.084  0.4869 -0.6834  1.2917
 2093SOL     OW17911   3.689   2.384  16.067 -0.6510  0.6640  0.2214
 2093SOL    HW117912   3.730   2.298  16.078 -1.1349  0.5781  1.3743
 2093SOL    HW217913   3.685   2.383  15.971  0.8816 -0.4725  0.1697
 2094SOL     OW17914   2.394   4.590   5.637  0.5024 -0.2791  0.5020
 2094SOL    HW117915   2.301   4.581   5.657  0.1853  0.0126 -0.8275
 2094SOL    HW217916   2.395   4.544   5.554  0.0081 -0.4547  0.5908
 2095SOL     OW17917   1.957   0.345   4.170  0.0656  0.1009  0.0870
 2095SOL    HW117918   2.020   0.306   4.231 -0.3788 -0.6795  0.0399
 2095SOL    HW217919   1.999   0.317   4.089 -2.4445  0.7000 -1.4088
 2096SOL     OW17920   0.623   3.049   0.142  0.1000  0.0041 -0.2460
 2096SOL    HW117921   0.662   3.091   0.219 -3.0006 -1.3102  2.0530
 2096SOL    HW217922   0.646   3.106   0.069  0.0955  0.3804  0.0471
 2097SOL     OW17923   3.331   2.645   5.967 -0.0078  0.1111 -0.2361
 2097SOL    HW117924   3.427   2.644   5.965  0.0104  1.0073 -0.1304
 2097SOL    HW217925   3.309   2.714   6.029  0.5307  0.7619 -0.7606
 2098SOL     OW17926   1.963   2.098  16.487  0.3602  0.0530  0.0450
 2098SOL    HW117927   2.041   2.076  16.539  1.1050  0.9594 -0.6886
 2098SOL    HW217928   1.958   2.013  16.443  1.5569  0.5742 -1.1090
 2099SOL     OW17929   0.752   2.370   8.672  0.3821  0.2047 -0.0030
 2099SOL    HW117930   0.741   2.326   8.756  0.1297  1.4832  0.6384
 2099SOL    HW217931   0.737   2.464   8.683 -0.3328  0.1046 -0.0993
 2100SOL     OW17932   3.420   2.154   2.241 -0.5034 -0.1494 -0.2283
 2100SOL    HW117933   3.450   2.238   2.276  1.8419 -1.0128 -0.1330
 2100SOL    HW217934   3.387   2.178   2.155 -0.8632 -0.6163 -0.2199
 2101SOL     OW17935   2.813   1.557   4.245  0.0121  0.4141 -0.0406
 2101SOL    HW117936   2.848   1.646   4.233  0.9542  0.3054  1.9050
 2101SOL    HW217937   2.790   1.561   4.338 -1.0156 -0.1079 -0.2764
 2102SOL     OW17938   1.119   4.108   4.524 -0.2985 -0.0510  0.5937
 2102SOL    HW117939   1.106   4.186   4.470 -0.0272 -0.2487  0.2374
 2102SOL    HW217940   1.048   4.125   4.585 -1.8244 -1.2054 -0.8455
 2103SOL     OW17941   3.053   3.566   6.669 -0.4073 -0.0208  0.1452
 2103SOL    HW117942   3.044   3.655   6.703  0.0488 -0.5541  1.6777
 2103SOL    HW217943   3.045   3.528   6.757 -1.1506  0.6209  0.3539
 2104SOL     OW17944   4.534   4.717   2.582  0.3007  0.4197  0.3181
 2104SOL    HW117945   4.595   0.020   2.519 -0.7189 -1.0911 -1.5848
 2104SOL    HW217946   4.471   0.053   2.593  0.5115  0.4706  1.1807
 2105SOL     OW17947   3.817   1.959  15.858  0.3756 -0.3799  0.0584
 2105SOL    HW117948   3.800   2.026  15.791  2.2057  0.1113  0.0893
 2105SOL    HW217949   3.791   2.004  15.938  2.4024 -1.1970  1.1680
 2106SOL     OW17950   2.637   0.112   7.741 -0.3733 -0.3982 -0.1295
 2106SOL    HW117951   2.718   0.110   7.792 -0.7276 -2.3174  0.3720
 2106SOL    HW217952   2.596   0.045   7.795  0.0386 -0.0777  0.5815
 2107SOL     OW17953   1.782   0.738   1.172 -0.8349 -0.4892 -0.1489
 2107SOL    HW117954   1.813   0.762   1.085 -1.2523 -0.0841 -0.1811
 2107SOL    HW217955   1.695   0.775   1.185 -1.4341 -2.6537  1.9913
 2108SOL     OW17956   0.131   0.556   7.413  0.4816 -0.0517  0.1502
 2108SOL    HW117957   0.164   0.505   7.340 -1.4457 -1.3712  0.2166
 2108SOL    HW217958   0.041   0.525   7.422 -1.2023  4.9831  1.0472
 2109SOL     OW17959   1.681   1.239  10.048  0.2772  0.8284  0.2018
 2109SOL    HW117960   1.777   1.237  10.050  0.2836  0.8316 -0.0762
 2109SOL    HW217961   1.668   1.242   9.953  0.9341  0.0670  0.0835
 2110SOL     OW17962   0.922   4.567   8.653 -0.3356 -0.1462 -0.1156
 2110SOL    HW117963   0.953   4.489   8.698 -1.8023 -0.8792 -0.3681
 2110SOL    HW217964   0.848   4.584   8.711  0.9630 -2.6557  2.2298
 2111SOL     OW17965   2.151   2.357   8.406 -0.6336 -0.5457  0.0958
 2111SOL    HW117966   2.072   2.323   8.364  0.1168 -0.0934 -1.6896
 2111SOL    HW217967   2.145   2.315   8.492 -3.2418  1.9289  1.1272
 2112SOL     OW17968   0.540   3.901  10.302 -0.5102  0.7596 -0.0504
 2112SOL    HW117969   0.497   3.982  10.331 -2.2213 -0.2409  0.2235
 2112SOL    HW217970   0.465   3.844  10.284 -0.1618  1.1986 -2.8907
 2113SOL     OW17971   0.358   0.226   8.448 -0.1322  0.7697 -0.1149
 2113SOL    HW117972   0.390   0.137   8.459  1.3431  1.3570  0.2347
 2113SOL    HW217973   0.272   0.210   8.488 -0.7399 -0.5545 -1.9465
 2114SOL     OW17974   1.718   2.406   4.553  0.8621  0.3425  0.4041
 2114SOL    HW117975   1.667   2.455   4.617  1.4390  0.5640  0.7028
 2114SOL    HW217976   1.736   2.324   4.598 -1.3387 -0.0441  0.5581
 2115SOL     OW17977   0.350   1.887  11.820 -0.1567 -0.0549  0.1745
 2115SOL    HW117978   0.305   1.803  11.828 -0.0117 -0.1717 -0.2280
 2115SOL    HW217979   0.406   1.881  11.898  0.8385  0.4182 -0.5104
 2116SOL     OW17980   1.623   0.522   3.597 -0.0372 -0.4862 -0.2301
 2116SOL    HW117981   1.570   0.596   3.569  0.9392  0.4774  0.4457
 2116SOL    HW217982   1.574   0.453   3.553 -1.2458 -0.8920  1.7232
 2117SOL     OW17983   1.654   2.437   2.545  0.6367  0.4791 -0.2030
 2117SOL    HW117984   1.719   2.480   2.490  1.6260 -2.6981 -1.5299
 2117SOL    HW217985   1.603   2.390   2.479 -2.3303  0.9618  1.7291
 2118SOL     OW17986   3.334   3.102   1.358 -0.5202  0.2045  0.0174
 2118SOL    HW117987   3.252   3.052   1.364 -0.0719 -0.7004 -1.3068
 2118SOL    HW217988   3.325   3.148   1.274  0.0010 -1.7774 -1.1329
 2119SOL     OW17989   3.564   1.472   5.651 -0.0866  0.0666  0.2503
 2119SOL    HW117990   3.568   1.478   5.746  0.5477  2.0744  0.1140
 2119SOL    HW217991   3.592   1.563   5.641 -0.3621  0.3151  1.7910
 2120SOL     OW17992   3.672   1.696  14.131  0.3842 -0.9067 -0.0012
 2120SOL    HW117993   3.643   1.717  14.220 -0.9741 -1.0120 -0.4196
 2120SOL    HW217994   3.765   1.717  14.143  0.3546 -0.6732 -0.1801
 2121SOL     OW17995   3.035   2.889   5.818 -0.9765  0.1306 -0.1083
 2121SOL    HW117996   2.978   2.860   5.747 -2.0590  1.7095  0.1105
 2121SOL    HW217997   3.115   2.847   5.786 -0.7467  1.2450 -0.9908
 2122SOL     OW17998   3.735   1.937  11.951  0.2661  0.4376 -0.1922
 2122SOL    HW117999   3.645   1.917  11.928 -0.2605  1.6982  0.7502
 2122SOL    HW218000   3.778   1.855  11.928 -2.4095 -0.1745 -3.0195
 2123SOL     OW18001   0.819   2.483  11.166  0.9782  0.3682 -0.2776
 2123SOL    HW118002   0.763   2.475  11.243  1.9705 -1.2128  0.2926
 2123SOL    HW218003   0.757   2.470  11.094 -1.5060 -1.0378  2.1192
 2124SOL     OW18004   4.557   2.643   0.547  0.4853  0.1507  0.4808
 2124SOL    HW118005   4.606   2.573   0.503  2.1387  1.1028  0.8269
 2124SOL    HW218006   4.533   2.694   0.471 -1.1140  0.0765  0.9281
 2125SOL     OW18007   1.988   3.018   5.337 -0.1376  0.4902  0.3215
 2125SOL    HW118008   1.956   2.962   5.266 -1.1741  0.7772  0.5608
 2125SOL    HW218009   1.934   2.990   5.411 -1.3112 -0.5578 -0.9360
 2126SOL     OW18010   2.724   2.980   8.394 -0.2183 -0.1537 -0.2550
 2126SOL    HW118011   2.744   2.924   8.469  0.5269  1.1990  0.5755
 2126SOL    HW218012   2.741   3.066   8.434  1.1986 -0.5107 -0.0917
 2127SOL     OW18013   1.860   4.532  12.863 -0.0667 -0.0377  0.2119
 2127SOL    HW118014   1.816   4.448  12.872  1.1147 -0.7347 -0.5658
 2127SOL    HW218015   1.789   4.576  12.816 -0.5646  0.3071  1.2872
 2128SOL     OW18016   2.373   0.915   4.535  0.3010 -0.6225  0.1577
 2128SOL    HW118017   2.339   0.982   4.476  0.1161 -0.2512  0.6866
 2128SOL    HW218018   2.459   0.951   4.553  0.3008 -0.4901 -0.1178
 2129SOL     OW18019   0.286   0.772   7.497  0.3178  0.3323  0.1824
 2129SOL    HW118020   0.237   0.708   7.445 -1.4402  1.0098  1.0284
 2129SOL    HW218021   0.228   0.848   7.500 -1.3091 -1.0070  3.0002
 2130SOL     OW18022   1.057   0.435   0.916 -0.2894  0.3657 -0.0195
 2130SOL    HW118023   1.045   0.462   1.007  0.2456  0.2384  0.0904
 2130SOL    HW218024   1.096   0.349   0.931  0.7955  0.9785  0.6391
 2131SOL     OW18025   4.686   4.285  10.487  0.3926  0.4283 -0.2924
 2131SOL    HW118026   0.040   4.252  10.476  0.1194 -0.3030 -0.2995
 2131SOL    HW218027   4.673   4.314  10.396  1.4627 -1.3277 -1.0097
 2132SOL     OW18028   1.321   0.350   6.475  0.6953  0.1504  0.0041
 2132SOL    HW118029   1.290   0.409   6.405  1.4514 -0.2273 -0.6467
 2132SOL    HW218030   1.358   0.410   6.540  0.8125 -0.8654  0.8727
 2133SOL     OW18031   2.991   4.236   3.147  0.9717 -0.2703  0.7034
 2133SOL    HW118032   2.919   4.199   3.198  0.9619 -2.4096 -0.8807
 2133SOL    HW218033   3.048   4.160   3.154  1.3834  0.1767  2.3602
 2134SOL     OW18034   0.614   0.473  16.317  0.0184  0.4027 -0.0822
 2134SOL    HW118035   0.617   0.398  16.378 -1.6555  1.7240  1.6399
 2134SOL    HW218036   0.520   0.488  16.305  0.2698  2.9878  1.2594
 2135SOL     OW18037   3.032   0.444  10.618  1.3102  0.0758  0.3032
 2135SOL    HW118038   3.055   0.364  10.665 -0.0848 -1.2901 -1.3174
 2135SOL    HW218039   2.946   0.457  10.659  0.6447 -1.6659 -0.5190
 2136SOL     OW18040   1.524   2.936   8.870  0.0917  1.1266 -0.9083
 2136SOL    HW118041   1.578   2.960   8.945  0.9404 -0.8266 -0.8802
 2136SOL    HW218042   1.587   2.898   8.808 -1.2512 -0.5926 -1.2297
 2137SOL     OW18043   2.424   1.191   7.774  0.3762 -0.4707  0.0264
 2137SOL    HW118044   2.339   1.180   7.731  1.9292 -2.9827 -2.4041
 2137SOL    HW218045   2.426   1.287   7.780 -0.7672 -0.4354 -0.0371
 2138SOL     OW18046   0.957   1.105   1.449  0.1460  0.0187 -0.1254
 2138SOL    HW118047   1.033   1.130   1.397 -0.3931 -0.8578 -1.3250
 2138SOL    HW218048   0.906   1.185   1.438 -1.1707 -0.4888  2.1491
 2139SOL     OW18049   4.360   4.514  16.079  0.5666  0.6132  0.1285
 2139SOL    HW118050   4.394   4.582  16.137  0.6297  0.2167  0.5651
 2139SOL    HW218051   4.289   4.570  16.048 -0.0007  0.4620  1.1238
 2140SOL     OW18052   3.923   1.507  14.311 -0.2915  0.2700 -0.1112
 2140SOL    HW118053   3.830   1.523  14.326 -0.4048 -2.2825  1.8610
 2140SOL    HW218054   3.962   1.560  14.380 -0.4595 -0.2338  0.3658
 2141SOL     OW18055   2.074   1.846   3.135  0.3419  0.6417  0.2183
 2141SOL    HW118056   2.113   1.932   3.149  1.3880 -0.1778  2.3886
 2141SOL    HW218057   2.152   1.801   3.167 -0.6533 -1.3566 -0.1847
 2142SOL     OW18058   2.588   1.549   6.421 -0.1936  0.4148 -0.1849
 2142SOL    HW118059   2.681   1.568   6.410 -0.6267  2.6477  0.1074
 2142SOL    HW218060   2.591   1.464   6.376 -0.3922  1.8795 -2.9581
 2143SOL     OW18061   1.706   1.582   5.163 -0.6187 -0.8236  0.0319
 2143SOL    HW118062   1.778   1.641   5.185  0.7086 -3.0664  1.6003
 2143SOL    HW218063   1.655   1.644   5.110  0.0237 -0.9504 -0.7401
 2144SOL     OW18064   3.529   2.308   7.851  0.3476 -0.0031  0.0566
 2144SOL    HW118065   3.593   2.251   7.808 -1.4807 -1.2158 -1.0647
 2144SOL    HW218066   3.485   2.350   7.778  0.2745  0.5574  0.4227
 2145SOL     OW18067   4.060   1.214   4.666 -0.4516 -0.2102  0.4192
 2145SOL    HW118068   3.975   1.233   4.627 -0.1270 -1.6216 -0.9607
 2145SOL    HW218069   4.105   1.296   4.645  1.4586 -1.3378  0.0840
 2146SOL     OW18070   3.670   2.512   5.823 -0.4086 -0.0382  0.4944
 2146SOL    HW118071   3.757   2.486   5.796 -1.4453 -0.7783 -2.1617
 2146SOL    HW218072   3.659   2.441   5.886  3.0691 -1.1869 -0.2201
 2147SOL     OW18073   3.485   3.448   8.815 -0.2117  0.5009  0.4642
 2147SOL    HW118074   3.443   3.511   8.874  1.1708  1.1628  0.7421
 2147SOL    HW218075   3.471   3.362   8.855  0.7660 -0.2591 -0.8151
 2148SOL     OW18076   2.977   0.723   5.176  0.5893  0.0280 -0.4299
 2148SOL    HW118077   2.899   0.772   5.149  0.9511  0.7455 -0.1519
 2148SOL    HW218078   2.956   0.638   5.214 -1.3665  1.9762  2.8405
 2149SOL     OW18079   2.881   4.734  16.080  0.3964 -0.2723 -0.4981
 2149SOL    HW118080   2.920   0.076  16.040  0.5347  0.5565  1.2222
 2149SOL    HW218081   2.907   0.003  16.172 -1.8243 -2.2284  0.2421
 2150SOL     OW18082   3.838   2.709   3.266  0.2864 -0.1148 -0.8224
 2150SOL    HW118083   3.819   2.776   3.201 -1.6855  0.6062  0.4714
 2150SOL    HW218084   3.853   2.757   3.348  3.2404 -0.5036 -1.1481
 2151SOL     OW18085   2.286   2.264  10.972 -0.0445  0.0868  0.2568
 2151SOL    HW118086   2.331   2.304  11.047 -1.0320  0.5545  0.5891
 2151SOL    HW218087   2.361   2.206  10.954  0.5590  1.1355 -0.6061
 2152SOL     OW18088   3.798   4.687  15.479 -0.0666  0.3643  0.0333
 2152SOL    HW118089   3.833   4.628  15.545  2.8743  1.5699 -0.4498
 2152SOL    HW218090   3.810   4.635  15.399 -1.6969 -0.9058  0.6073
 2153SOL     OW18091   4.212   4.695   8.795 -0.2506  0.1300  0.5053
 2153SOL    HW118092   4.226   4.600   8.791 -0.5781  0.1508 -1.1977
 2153SOL    HW218093   4.303   4.717   8.810 -0.5239  2.4726 -1.2045
 2154SOL     OW18094   4.672   3.497   3.322  0.1741 -0.2078 -0.1200
 2154SOL    HW118095   4.716   3.555   3.386 -1.6292 -2.1463  2.8732
 2154SOL    HW218096   4.603   3.456   3.374  0.1963 -0.5614 -0.3725
 2155SOL     OW18097   1.391   1.889   3.546 -0.3858 -0.1817  0.1773
 2155SOL    HW118098   1.457   1.898   3.477 -1.1982 -2.3944 -0.8969
 2155SOL    HW218099   1.335   1.818   3.515 -0.7384  0.5261 -0.8010
 2156SOL     OW18100   3.362   3.922   2.397  0.1748  0.5385  0.6779
 2156SOL    HW118101   3.366   3.826   2.397 -0.7005  0.5265 -2.7761
 2156SOL    HW218102   3.291   3.957   2.344  0.8099  2.3865  1.0597
 2157SOL     OW18103   3.183   3.556   1.258 -0.2724 -0.2838  0.4964
 2157SOL    HW118104   3.137   3.634   1.288  1.9806  1.7076 -1.2767
 2157SOL    HW218105   3.194   3.570   1.164 -0.3724 -0.4874  0.4539
 2158SOL     OW18106   2.635   2.645   8.243  0.0099  0.5498 -0.0937
 2158SOL    HW118107   2.628   2.556   8.208 -0.4210  1.2799 -1.8656
 2158SOL    HW218108   2.715   2.672   8.198  1.1764 -0.7420  1.1777
 2159SOL     OW18109   1.034   4.274   8.200  0.1442  0.1164  0.0663
 2159SOL    HW118110   0.986   4.212   8.255  2.3887 -3.5249 -2.0706
 2159SOL    HW218111   0.979   4.353   8.197 -1.5659 -1.0795  0.3630
 2160SOL     OW18112   0.450   2.415  17.177 -0.2947 -0.2921 -0.4459
 2160SOL    HW118113   0.462   2.340  17.120  1.3502 -1.4284  1.4073
 2160SOL    HW218114   0.516   2.405  17.246 -0.6079 -0.6432 -0.1989
 2161SOL     OW18115   3.258   1.682  15.424 -0.5822 -0.0014 -0.5583
 2161SOL    HW118116   3.347   1.653  15.407 -0.1622 -0.4145  2.3199
 2161SOL    HW218117   3.248   1.774  15.396 -1.2368 -0.4878 -1.9281
 2162SOL     OW18118   4.176   3.492   7.748 -0.3962  0.0851 -0.1127
 2162SOL    HW118119   4.244   3.526   7.690 -1.5979  1.1222 -0.9178
 2162SOL    HW218120   4.098   3.509   7.695  0.0449 -2.3595 -1.5160
 2163SOL     OW18121   2.657   1.686  16.607 -0.3588  0.4190 -0.1189
 2163SOL    HW118122   2.745   1.702  16.574 -0.0720  0.6533  0.7740
 2163SOL    HW218123   2.675   1.629  16.682  0.3680  1.3120  0.3733
 2164SOL     OW18124   4.566   2.929   0.317 -0.2068  0.0200 -0.1803
 2164SOL    HW118125   4.659   2.923   0.339 -0.1547 -2.2961 -0.9934
 2164SOL    HW218126   4.557   2.842   0.277 -0.8235  0.6283 -1.3542
 2165SOL     OW18127   2.102   2.779   3.122 -0.3019 -0.3527  0.3207
 2165SOL    HW118128   2.184   2.789   3.169 -0.1260 -1.6048  0.2805
 2165SOL    HW218129   2.089   2.684   3.132 -2.3834 -0.0310  0.8552
 2166SOL     OW18130   2.271   0.389   8.219  0.0941  0.5932 -0.1378
 2166SOL    HW118131   2.249   0.371   8.128 -0.8612 -0.7879  0.3634
 2166SOL    HW218132   2.257   0.301   8.254  0.5811 -0.1718 -1.8885
 2167SOL     OW18133   4.314   0.511   3.249 -0.1199 -0.7542  0.1204
 2167SOL    HW118134   4.320   0.430   3.200  0.3246  0.9693 -2.6493
 2167SOL    HW218135   4.222   0.534   3.237  0.2187 -0.1898 -1.4537
 2168SOL     OW18136   2.688   1.011   8.195  0.0061  0.2024 -0.4278
 2168SOL    HW118137   2.636   1.034   8.118 -3.2834 -0.1203  1.6730
 2168SOL    HW218138   2.622   1.004   8.264 -0.3770  3.5999 -0.4374
 2169SOL     OW18139   1.145   2.498   1.908  0.0296  0.2284 -0.5831
 2169SOL    HW118140   1.130   2.451   1.825  0.6869  0.5987 -0.9114
 2169SOL    HW218141   1.060   2.493   1.951  0.4528 -0.0483  0.2078
 2170SOL     OW18142   3.020   2.861   9.520 -0.4592  0.0585  0.1926
 2170SOL    HW118143   3.007   2.805   9.597 -1.0333 -0.1067 -0.0231
 2170SOL    HW218144   2.931   2.871   9.486 -0.8562  0.9599  1.5207
 2171SOL     OW18145   2.435   2.144  17.308 -0.5850  0.4821  0.1356
 2171SOL    HW118146   2.473   2.215  17.258  0.9390 -1.3031 -1.2494
 2171SOL    HW218147   2.496   2.071  17.293 -2.5444 -0.7384 -1.7753
 2172SOL     OW18148   0.860   2.158   8.232  0.1034 -0.4549 -0.2550
 2172SOL    HW118149   0.774   2.117   8.220  0.7910 -2.0360  0.1325
 2172SOL    HW218150   0.855   2.240   8.183 -2.4984  1.1677  2.7385
 2173SOL     OW18151   2.523   0.256   2.662 -0.0330 -0.2555  0.1923
 2173SOL    HW118152   2.482   0.329   2.708  0.4382 -0.0432  0.2730
 2173SOL    HW218153   2.447   0.213   2.621  0.1863  1.0792 -1.6307
 2174SOL     OW18154   1.339   1.184  10.663 -0.3010  0.4469  0.3271
 2174SOL    HW118155   1.400   1.167  10.591  0.7316 -3.0427  1.9979
 2174SOL    HW218156   1.360   1.277  10.673 -1.2029  0.7336 -0.5181
 2175SOL     OW18157   3.349   1.973   4.997 -0.3105  0.1256 -0.2098
 2175SOL    HW118158   3.329   2.065   5.012 -2.3499 -0.2030 -0.8824
 2175SOL    HW218159   3.321   1.959   4.906 -0.5928  1.7860 -0.3895
 2176SOL     OW18160   4.106   1.298  15.348  0.3341  0.3967  0.2022
 2176SOL    HW118161   4.028   1.335  15.389 -0.3441 -0.8042  0.0054
 2176SOL    HW218162   4.073   1.289  15.259  1.0520  1.5759 -0.1776
 2177SOL     OW18163   0.319   4.111   9.101  0.0518 -0.1828 -0.1965
 2177SOL    HW118164   0.228   4.092   9.075 -0.4279 -0.6679  1.8318
 2177SOL    HW218165   0.363   4.175   9.044 -1.6617  0.3097 -0.9736
 2178SOL     OW18166   1.764   1.510  10.552  0.2401 -0.1048  0.5529
 2178SOL    HW118167   1.744   1.434  10.607 -0.1677  0.5274  1.2756
 2178SOL    HW218168   1.750   1.474  10.465  1.6430 -0.5772  0.5171
 2179SOL     OW18169   3.519   2.124   8.261  0.3288 -0.5171  0.2740
 2179SOL    HW118170   3.604   2.157   8.290  0.6982 -1.1982 -0.0415
 2179SOL    HW218171   3.481   2.190   8.202  0.2641  1.6063  2.7006
 2180SOL     OW18172   0.007   3.330   5.113  0.2478 -0.1609  0.5702
 2180SOL    HW118173   4.706   3.360   5.196 -2.6942 -0.3764 -0.6322
 2180SOL    HW218174   0.074   3.397   5.103 -0.6851  0.8284  0.9541
 2181SOL     OW18175   1.225   3.211   7.484 -0.3810 -0.1974  0.1979
 2181SOL    HW118176   1.248   3.292   7.530  1.8804 -1.2549  0.9427
 2181SOL    HW218177   1.248   3.141   7.545 -0.3347  0.6586  1.1695
 2182SOL     OW18178   4.565   2.470  12.667 -0.3327  0.3246 -0.6023
 2182SOL    HW118179   4.589   2.377  12.661  0.3485  0.3356  2.1712
 2182SOL    HW218180   4.629   2.512  12.609  2.0787 -0.3351  1.5659
 2183SOL     OW18181   3.705   2.753   5.926  0.4665  0.0434 -0.6024
 2183SOL    HW118182   3.657   2.792   5.853  1.8348  1.0462 -0.9487
 2183SOL    HW218183   3.702   2.660   5.900  1.5471  0.3877 -1.9428
 2184SOL     OW18184   3.459   0.590   7.058  0.3148 -0.4265  0.0553
 2184SOL    HW118185   3.371   0.617   7.033  1.1692  0.9674 -1.4833
 2184SOL    HW218186   3.451   0.499   7.032 -1.1790 -0.1776 -0.3590
 2185SOL     OW18187   1.525   4.585  12.933  0.0537  0.3502  0.4532
 2185SOL    HW118188   1.535   4.538  12.850  0.7778  0.9560  0.1947
 2185SOL    HW218189   1.522   4.669  12.887  1.4078  1.4170  2.3372
 2186SOL     OW18190   1.683   4.085   6.999 -0.2975  0.4004 -0.3403
 2186SOL    HW118191   1.694   4.026   6.926  1.4087  0.9618 -0.5355
 2186SOL    HW218192   1.772   4.083   7.036 -0.3902 -0.1423 -0.1491
 2187SOL     OW18193   3.816   4.190   6.838 -0.0428  0.7781 -0.1819
 2187SOL    HW118194   3.773   4.262   6.793 -2.2678 -0.0093  0.7059
 2187SOL    HW218195   3.737   4.138   6.854 -0.5783  1.8901  0.8095
 2188SOL     OW18196   2.198   2.616   5.416  0.6640 -0.1686  0.1805
 2188SOL    HW118197   2.181   2.527   5.448 -0.1665 -0.8422 -2.1596
 2188SOL    HW218198   2.195   2.669   5.496 -0.9467  1.3762 -0.9267
 2189SOL     OW18199   4.683   0.825  16.263 -0.3049  0.0997  0.5113
 2189SOL    HW118200   4.658   0.757  16.200 -0.4922  1.0597 -0.4505
 2189SOL    HW218201   0.036   0.796  16.287 -1.4235 -1.6977  2.5048
 2190SOL     OW18202   3.719   2.751   3.713 -0.2010  0.3692 -0.0485
 2190SOL    HW118203   3.771   2.748   3.793 -0.7044 -1.6023  0.1929
 2190SOL    HW218204   3.636   2.775   3.755 -0.9074 -1.1268 -0.6020
 2191SOL     OW18205   0.878   3.530   3.854  0.3074 -0.1587 -0.4242
 2191SOL    HW118206   0.891   3.480   3.773 -0.7651  0.5467 -1.0276
 2191SOL    HW218207   0.911   3.613   3.818  0.7666 -0.9686 -1.8936
 2192SOL     OW18208   0.658   0.773   5.918  0.3534 -0.2043  0.2159
 2192SOL    HW118209   0.685   0.725   5.840 -2.5900  0.1290 -0.9855
 2192SOL    HW218210   0.617   0.852   5.882 -0.4236 -0.8527 -0.2865
 2193SOL     OW18211   3.172   1.585   6.665  0.1922 -0.1242  0.3975
 2193SOL    HW118212   3.131   1.509   6.706 -0.5296  0.4798  0.7834
 2193SOL    HW218213   3.263   1.559   6.676  0.2758  0.0094  0.0139
 2194SOL     OW18214   3.820   2.419  10.129  0.1966 -0.4686  0.6124
 2194SOL    HW118215   3.896   2.475  10.147 -0.1783  0.2512 -0.0435
 2194SOL    HW218216   3.812   2.382  10.217 -3.7792  1.3547  1.0048
 2195SOL     OW18217   4.086   1.664  17.415  0.9045 -0.0071  0.5225
 2195SOL    HW118218   4.084   1.640  17.322  0.0655 -0.0851  0.5560
 2195SOL    HW218219   4.170   1.708  17.422  1.0156 -0.4721  2.0630
 2196SOL     OW18220   4.175   2.656   4.162  0.1936  0.1150  0.3235
 2196SOL    HW118221   4.177   2.730   4.100  1.5014  0.3360  0.6358
 2196SOL    HW218222   4.087   2.661   4.199 -0.0137  0.3637 -0.1903
 2197SOL     OW18223   3.517   2.804   2.283  0.1798  0.7941  0.1021
 2197SOL    HW118224   3.497   2.895   2.303  0.3666  1.0083 -0.6888
 2197SOL    HW218225   3.446   2.755   2.324  0.5541 -1.0894 -1.4334
 2198SOL     OW18226   4.721   4.591  15.352 -0.1859  0.5732 -0.2095
 2198SOL    HW118227   0.009   4.502  15.325  0.2991  0.5776  0.1787
 2198SOL    HW218228   4.639   4.582  15.401  0.8137 -1.5160  1.0625
 2199SOL     OW18229   3.453   3.228   9.284  0.4663 -0.2684 -0.2871
 2199SOL    HW118230   3.458   3.154   9.345  1.0087 -1.1266 -1.3760
 2199SOL    HW218231   3.513   3.296   9.313  1.4796 -0.0046 -3.0674
 2200SOL     OW18232   0.960   1.185  16.351  0.6425  0.2597  0.5946
 2200SOL    HW118233   0.881   1.141  16.382  0.9556  0.3943  1.5836
 2200SOL    HW218234   1.031   1.121  16.358  0.3005 -0.2291 -0.3530
 2201SOL     OW18235   0.115   1.557  13.696  0.0337 -0.5659 -0.6800
 2201SOL    HW118236   0.074   1.607  13.767  1.2286 -0.2298 -0.2287
 2201SOL    HW218237   0.038   1.511  13.662 -2.0975  1.6785  1.0900
 2202SOL     OW18238   3.962   3.968   6.282 -0.0449  0.3139  0.1796
 2202SOL    HW118239   3.990   4.014   6.203 -2.7673  1.4115 -0.1445
 2202SOL    HW218240   4.016   4.002   6.353  0.9153  0.8627 -0.8149
 2203SOL     OW18241   3.295   0.593   4.236  0.2979 -0.0388  0.0729
 2203SOL    HW118242   3.288   0.641   4.154 -2.0330 -0.4651 -0.0010
 2203SOL    HW218243   3.311   0.509   4.192 -0.1771 -0.4279  0.6363
 2204SOL     OW18244   3.833   4.432   7.712  0.1973  1.2153 -0.2091
 2204SOL    HW118245   3.813   4.350   7.757  1.5463  0.5190 -0.8881
 2204SOL    HW218246   3.878   4.479   7.783  2.6006 -0.7741 -0.4145
 2205SOL     OW18247   1.289   0.770   6.067  0.0717 -0.0539 -0.1351
 2205SOL    HW118248   1.337   0.849   6.039  2.4301 -0.9976  1.2245
 2205SOL    HW218249   1.296   0.785   6.162 -0.3199 -0.4294 -0.0498
 2206SOL     OW18250   2.417   0.956   3.352 -0.2366 -0.6776  0.2873
 2206SOL    HW118251   2.375   0.875   3.380 -0.3429 -0.0504  1.9187
 2206SOL    HW218252   2.508   0.951   3.382  0.8473  1.8876 -2.6405
 2207SOL     OW18253   0.304   1.475   5.389  0.2366 -0.1691  0.3819
 2207SOL    HW118254   0.261   1.447   5.470  0.4075  0.3629  0.6563
 2207SOL    HW218255   0.268   1.560   5.366 -0.5570 -0.5357  0.2695
 2208SOL     OW18256   2.258   3.869  16.220 -0.0387  0.4895 -0.1599
 2208SOL    HW118257   2.320   3.941  16.213  0.0373  0.2320 -2.0117
 2208SOL    HW218258   2.187   3.910  16.270 -1.4800 -0.8958 -1.0493
 2209SOL     OW18259   2.949   1.723   0.819 -0.2117  0.2811 -0.2605
 2209SOL    HW118260   3.009   1.748   0.889 -0.7483  3.8364 -1.0688
 2209SOL    HW218261   3.009   1.677   0.761  0.4660  1.0217 -0.1446
 2210SOL     OW18262   2.169   1.611   7.754 -0.4793 -0.2506 -0.2187
 2210SOL    HW118263   2.105   1.577   7.816  0.4378  3.3168  2.7031
 2210SOL    HW218264   2.181   1.702   7.782  2.2567 -0.5530 -0.4511
 2211SOL     OW18265   2.225   1.090   3.139  0.1246 -0.6460  0.2667
 2211SOL    HW118266   2.143   1.062   3.098 -0.2235 -1.4469  1.4968
 2211SOL    HW218267   2.291   1.071   3.073  1.2632  1.4482  0.7870
 2212SOL     OW18268   2.794   0.504  14.458 -0.5013 -0.1440  0.1071
 2212SOL    HW118269   2.759   0.495  14.547 -1.0168  2.3521  0.1371
 2212SOL    HW218270   2.737   0.570  14.421  0.8613  0.2706 -1.2506
 2213SOL     OW18271   4.394   3.396   3.792 -0.1596  0.1303  0.6893
 2213SOL    HW118272   4.446   3.376   3.870  1.2533 -0.6015 -0.4274
 2213SOL    HW218273   4.325   3.455   3.821 -0.2989 -0.4654  1.5490
 2214SOL     OW18274   1.455   1.454   4.912 -0.1861  0.6963 -0.5319
 2214SOL    HW118275   1.529   1.497   4.869  1.0769 -1.1114 -0.1440
 2214SOL    HW218276   1.421   1.398   4.842  1.4378 -0.6532 -0.2256
 2215SOL     OW18277   3.387   4.412   5.676  0.0980  0.8972  0.6196
 2215SOL    HW118278   3.318   4.376   5.621  1.4404  0.3625 -0.6995
 2215SOL    HW218279   3.346   4.497   5.695  0.8167  1.0634  1.4470
 2216SOL     OW18280   3.174   2.345  16.386  0.2002  0.2412  0.3974
 2216SOL    HW118281   3.267   2.342  16.364 -0.0324 -0.0819 -0.5249
 2216SOL    HW218282   3.147   2.436  16.381  0.5773  0.4647  2.4096
 2217SOL     OW18283   2.000   0.119  11.760 -0.3007  0.0840 -0.4800
 2217SOL    HW118284   1.998   0.179  11.835 -1.5658 -0.1330 -0.3501
 2217SOL    HW218285   2.051   0.047  11.797 -0.6666 -0.1667 -0.4719
 2218SOL     OW18286   4.066   4.567   3.365 -0.0102 -0.6243 -0.1816
 2218SOL    HW118287   4.061   4.475   3.338  1.0781 -0.8446  0.3835
 2218SOL    HW218288   3.975   4.592   3.383  0.4016 -0.2505  1.3741
 2219SOL     OW18289   2.151   1.207   1.899  0.2829 -0.5111  0.0691
 2219SOL    HW118290   2.207   1.161   1.961 -0.0319  0.5526  1.1669
 2219SOL    HW218291   2.210   1.220   1.825 -0.9620  0.6507 -0.7177
 2220SOL     OW18292   4.185   0.984   5.930  0.1159  0.2729 -0.0636
 2220SOL    HW118293   4.182   0.889   5.945 -0.2726  0.3925  0.6154
 2220SOL    HW218294   4.101   1.000   5.887  1.0149  0.6050 -1.7122
 2221SOL     OW18295   3.117   0.066   9.331  0.1129 -0.3063  0.1502
 2221SOL    HW118296   3.052   0.007   9.369  0.5188 -0.8519 -0.0198
 2221SOL    HW218297   3.058   0.137   9.306 -0.6579 -0.6796  0.9270
 2222SOL     OW18298   3.032   2.398   8.637  0.4999 -0.0384 -0.0262
 2222SOL    HW118299   3.057   2.452   8.562  0.1184  0.7894  0.4368
 2222SOL    HW218300   3.076   2.319   8.605 -0.1321 -0.1745 -0.5448
 2223SOL     OW18301   2.118   4.205   4.086  0.2509  0.4821  0.9374
 2223SOL    HW118302   2.087   4.147   4.155 -2.9577  1.5504  0.4492
 2223SOL    HW218303   2.034   4.252   4.076  0.0704 -0.1020 -0.3756
 2224SOL     OW18304   3.506   1.134  17.656 -0.2123 -0.2565  0.3541
 2224SOL    HW118305   3.440   1.203  17.664 -0.4201 -0.4848  0.6472
 2224SOL    HW218306   3.459   1.072  17.600 -1.6748  0.7912  0.4126
 2225SOL     OW18307   1.067   4.324  15.245  0.2605 -0.2589  0.0038
 2225SOL    HW118308   1.010   4.255  15.279 -0.0964  1.2027  2.3631
 2225SOL    HW218309   1.029   4.404  15.281  1.3316 -0.1844  0.9601
 2226SOL     OW18310   1.255   0.643   6.469  0.5616  0.0640  0.0536
 2226SOL    HW118311   1.311   0.710   6.429  0.4769  0.3553  0.4179
 2226SOL    HW218312   1.296   0.620   6.553  0.5142 -1.7706 -0.4199
 2227SOL     OW18313   0.335   3.599   9.857  0.4503 -0.3895 -0.2313
 2227SOL    HW118314   0.349   3.689   9.826  0.6699 -0.8907 -1.6001
 2227SOL    HW218315   0.416   3.592   9.908  0.0410  3.2521  0.9671
 2228SOL     OW18316   0.076   2.238   5.274  0.2917 -0.2921  0.3637
 2228SOL    HW118317   0.100   2.232   5.182  0.4905  0.3491  0.3721
 2228SOL    HW218318   0.031   2.322   5.267  0.9143  0.1130  1.2020
 2229SOL     OW18319   2.305   4.499   7.633 -0.2622 -0.5313  0.1268
 2229SOL    HW118320   2.283   4.487   7.540 -0.5847 -0.6839  0.2211
 2229SOL    HW218321   2.315   4.594   7.634 -2.8244 -0.2233 -1.2254
 2230SOL     OW18322   2.506   3.583   3.273 -0.2755  0.2858  0.5561
 2230SOL    HW118323   2.527   3.526   3.347  0.2413 -1.7336 -1.1767
 2230SOL    HW218324   2.561   3.658   3.299 -0.9047 -0.0647  2.8736
 2231SOL     OW18325   2.388   4.314   8.827  0.0804 -0.0464 -0.0080
 2231SOL    HW118326   2.357   4.309   8.918  1.3174  2.5437  0.5357
 2231SOL    HW218327   2.463   4.255   8.833 -0.3721 -0.8147 -1.8875
 2232SOL     OW18328   1.059   2.985   6.272 -0.4294 -0.5601  0.3438
 2232SOL    HW118329   1.014   3.058   6.230 -1.0905 -0.9537  0.3627
 2232SOL    HW218330   1.138   3.033   6.297  0.8424 -2.1928 -0.5293
 2233SOL     OW18331   2.772   2.954   5.053 -0.1242  0.2326 -0.0498
 2233SOL    HW118332   2.682   2.944   5.085  0.8515  1.2713  3.1207
 2233SOL    HW218333   2.825   2.923   5.127  0.6105 -0.5876 -0.9175
 2234SOL     OW18334   0.249   0.880   5.581 -0.0289  0.9240  0.0740
 2234SOL    HW118335   0.322   0.833   5.620 -0.3241  0.8198  0.5029
 2234SOL    HW218336   0.197   0.880   5.662  0.6189 -0.3910  0.4796
 2235SOL     OW18337   2.422   2.653  14.996 -0.6000  0.4242 -0.2924
 2235SOL    HW118338   2.438   2.728  15.054  2.8701 -0.0721 -0.6294
 2235SOL    HW218339   2.349   2.686  14.944 -2.3198 -1.9531  0.5985
 2236SOL     OW18340   4.036   2.836  11.823 -0.4231  0.2459  0.1895
 2236SOL    HW118341   4.058   2.804  11.911  0.8290  0.4945 -0.0286
 2236SOL    HW218342   4.068   2.926  11.828  2.3110 -0.7578  0.7054
 2237SOL     OW18343   0.529   3.342  16.225  0.1404 -0.1639 -0.2654
 2237SOL    HW118344   0.539   3.419  16.168  0.6415  0.5542  0.8042
 2237SOL    HW218345   0.602   3.282  16.214  1.3530  1.1798  0.5418
 2238SOL     OW18346   4.190   4.318   3.858 -0.2764  0.0480 -0.1972
 2238SOL    HW118347   4.228   4.296   3.943  0.1368  4.3695  0.7485
 2238SOL    HW218348   4.152   4.404   3.877 -1.4573 -0.2083 -1.3774
 2239SOL     OW18349   0.959   2.669   8.784 -0.2797  0.1230 -0.1777
 2239SOL    HW118350   0.883   2.614   8.768  0.6975 -0.7699 -1.7190
 2239SOL    HW218351   0.983   2.633   8.870  2.1905  2.5298  0.1596
 2240SOL     OW18352   0.834   1.842  10.714  0.4726 -0.0309 -0.0338
 2240SOL    HW118353   0.917   1.865  10.755  0.9318  0.4264 -1.2020
 2240SOL    HW218354   0.777   1.891  10.773  0.8407  3.0247 -2.2196
 2241SOL     OW18355   4.569   3.951   1.363 -0.3279 -0.3711 -0.1688
 2241SOL    HW118356   4.617   4.026   1.399 -1.8511  0.8267 -0.5948
 2241SOL    HW218357   4.574   3.888   1.435 -0.1323  1.0640  1.0772
 2242SOL     OW18358   2.741   3.531  12.505 -0.2056 -0.2337 -0.2371
 2242SOL    HW118359   2.758   3.583  12.427  0.7264  1.0176  0.8156
 2242SOL    HW218360   2.660   3.489  12.475 -1.0661  0.4617  1.1224
 2243SOL     OW18361   2.842   4.690  17.585  0.1160 -0.1417 -0.0335
 2243SOL    HW118362   2.913   4.644  17.629  0.2895  0.7406  0.6028
 2243SOL    HW218363   2.896   0.004  17.524  0.4031  2.5932  2.4759
 2244SOL     OW18364   0.612   1.808   7.947 -0.2954 -0.2343  0.7926
 2244SOL    HW118365   0.600   1.727   7.898 -3.4101 -0.0801  1.2956
 2244SOL    HW218366   0.573   1.864   7.879  0.9942 -0.6387 -0.2957
 2245SOL     OW18367   4.232   0.026   3.218  0.7941  0.0148  0.2456
 2245SOL    HW118368   4.300   4.711   3.173 -0.9550 -0.3162 -2.0205
 2245SOL    HW218369   4.185   4.699   3.272 -1.1599  1.2105 -0.0665
 2246SOL     OW18370   4.299   2.715   8.575  0.4377  0.0198 -0.4696
 2246SOL    HW118371   4.272   2.788   8.520 -0.3640 -0.1463 -0.2990
 2246SOL    HW218372   4.305   2.641   8.514  0.4241 -0.7639  0.4657
 2247SOL     OW18373   2.504   2.232   8.269  0.3422 -0.3962 -0.0715
 2247SOL    HW118374   2.456   2.301   8.315 -1.8132 -1.7736 -0.2353
 2247SOL    HW218375   2.433   2.182   8.229 -1.9413  3.0308 -0.2944
 2248SOL     OW18376   3.898   1.577   1.162 -0.4845 -0.0981 -0.1149
 2248SOL    HW118377   3.945   1.661   1.162 -2.4561  0.9908  0.6107
 2248SOL    HW218378   3.964   1.513   1.189  1.2981  1.6293 -0.3455
 2249SOL     OW18379   4.585   2.228   1.078 -0.3864 -0.4374  0.0396
 2249SOL    HW118380   4.601   2.164   1.147  1.5365 -1.2936 -1.1868
 2249SOL    HW218381   4.492   2.226   1.055 -0.1479 -1.0363 -0.8816
 2250SOL     OW18382   3.869   4.165   8.493  0.0301  0.3669 -0.0276
 2250SOL    HW118383   3.833   4.084   8.528  1.0283 -0.0760 -0.0315
 2250SOL    HW218384   3.960   4.135   8.496 -0.8306 -2.1153  1.0391
 2251SOL     OW18385   2.467   1.624   2.235 -0.0854  0.0698 -0.6214
 2251SOL    HW118386   2.476   1.707   2.188  1.0436  0.5456  0.4323
 2251SOL    HW218387   2.435   1.653   2.321  1.4387 -1.5018  0.4688
 2252SOL     OW18388   4.337   3.184   2.158 -0.1631 -0.1972 -0.0330
 2252SOL    HW118389   4.346   3.161   2.251 -0.1173 -1.9097 -0.4644
 2252SOL    HW218390   4.367   3.102   2.118 -0.8290 -0.2586 -0.3964
 2253SOL     OW18391   2.877   3.014   9.842  0.5754  0.2304 -0.4242
 2253SOL    HW118392   2.864   2.944   9.778 -0.3224 -1.0240  1.1349
 2253SOL    HW218393   2.954   2.972   9.881 -0.5254 -1.3355  0.0766
 2254SOL     OW18394   2.469   2.235  11.862 -0.0942 -0.1873 -0.1810
 2254SOL    HW118395   2.376   2.232  11.840 -0.2007 -1.5871  0.4668
 2254SOL    HW218396   2.470   2.184  11.943 -0.6594 -0.8682 -0.6111
 2255SOL     OW18397   3.417   1.339   1.085 -0.0667 -0.6945  0.5820
 2255SOL    HW118398   3.367   1.398   1.030  1.5397  1.2673  1.2161
 2255SOL    HW218399   3.347   1.305   1.141  0.0072 -1.4511  0.2151
 2256SOL     OW18400   3.035   1.150   4.035  0.3275 -0.3450 -0.6648
 2256SOL    HW118401   2.982   1.223   4.066 -0.6713 -1.4708  0.2590
 2256SOL    HW218402   2.968   1.095   3.995  0.4866  0.7180 -2.4091
 2257SOL     OW18403   0.729   4.533   1.435 -0.2842 -0.8207  0.0383
 2257SOL    HW118404   0.722   4.538   1.340 -3.0258 -0.3021  0.2422
 2257SOL    HW218405   0.805   4.587   1.453  0.5061 -1.1221 -2.4143
 2258SOL     OW18406   3.625   1.983  17.036  0.1185  0.0859  0.2636
 2258SOL    HW118407   3.556   1.918  17.053  0.0410  0.3567  0.9599
 2258SOL    HW218408   3.598   2.062  17.082  0.1551  1.2706 -1.7353
 2259SOL     OW18409   0.275   4.629   4.847  0.0916  0.1521 -0.4754
 2259SOL    HW118410   0.348   4.685   4.820  0.3408 -0.0474 -0.2198
 2259SOL    HW218411   0.212   4.652   4.779 -0.4575 -0.0263 -0.0190
 2260SOL     OW18412   1.496   1.920   2.275 -0.0601 -0.4409 -0.2020
 2260SOL    HW118413   1.463   1.888   2.359 -0.9602  0.4755 -0.2096
 2260SOL    HW218414   1.433   1.872   2.221 -1.2950 -0.1620  0.9988
 2261SOL     OW18415   3.849   1.609   3.355  0.1977  0.1698 -0.5517
 2261SOL    HW118416   3.846   1.683   3.294 -0.1935 -0.4703 -1.2948
 2261SOL    HW218417   3.929   1.561   3.333 -1.2050 -2.0554 -0.7730
 2262SOL     OW18418   1.726   4.305   3.845  0.3076 -0.3618 -0.1028
 2262SOL    HW118419   1.818   4.300   3.819 -0.2140  0.1159 -2.0217
 2262SOL    HW218420   1.720   4.216   3.879  0.4066  0.8156  3.0415
 2263SOL     OW18421   3.620   0.971   8.139  0.2814  0.2024  0.1879
 2263SOL    HW118422   3.554   1.017   8.191  0.3160  0.0742  0.3455
 2263SOL    HW218423   3.577   0.961   8.054 -0.7147  0.7390  0.6256
 2264SOL     OW18424   3.507   0.005   5.672  0.1167 -0.2812  0.2532
 2264SOL    HW118425   3.440   0.073   5.665  0.7931  0.3500 -0.0179
 2264SOL    HW218426   3.582   0.051   5.634  0.1539  1.3568  2.3174
 2265SOL     OW18427   1.433   2.970   0.200  0.3062 -0.4368  0.3970
 2265SOL    HW118428   1.517   3.007   0.229 -0.5921  1.4518  0.5769
 2265SOL    HW218429   1.401   2.961   0.290 -2.6401 -1.5344 -0.7929
 2266SOL     OW18430   0.275   3.903  10.625 -0.0415  0.0549  0.0142
 2266SOL    HW118431   0.362   3.923  10.661  0.7495  0.5908 -2.1983
 2266SOL    HW218432   0.261   3.814  10.657  1.4613 -0.1794  0.0239
 2267SOL     OW18433   2.479   2.075   6.143  0.7088  0.2057  0.1402
 2267SOL    HW118434   2.501   2.118   6.226  2.3968 -1.0006  0.3039
 2267SOL    HW218435   2.386   2.098   6.145  1.0702  1.8281 -1.6308
 2268SOL     OW18436   4.262   2.652   7.651 -0.0053  0.3050 -0.3340
 2268SOL    HW118437   4.210   2.725   7.684 -0.3360  0.4312 -1.1322
 2268SOL    HW218438   4.264   2.670   7.557  2.9753  0.0453 -0.3182
 2269SOL     OW18439   1.919   2.066  11.034 -0.1166 -0.3834  0.2391
 2269SOL    HW118440   1.864   1.990  11.016  1.2791 -1.9568  2.5922
 2269SOL    HW218441   2.010   2.036  11.037 -1.5281 -4.7286 -0.7077
 2270SOL     OW18442   3.985   1.046   5.765  0.1869 -0.4456  0.2362
 2270SOL    HW118443   3.911   1.104   5.749 -1.6404 -2.8622 -0.0236
 2270SOL    HW218444   3.983   1.002   5.680  2.8410  0.3403 -0.2521
 2271SOL     OW18445   1.633   2.840  15.386 -0.4103 -0.2720 -0.0747
 2271SOL    HW118446   1.649   2.788  15.307 -0.5393  0.4365 -0.5699
 2271SOL    HW218447   1.597   2.918  15.344 -0.9755  0.0309  0.9941
 2272SOL     OW18448   0.951   1.838   1.895  0.2034 -0.1105 -0.3002
 2272SOL    HW118449   0.967   1.902   1.826 -0.3826 -3.1913 -3.2747
 2272SOL    HW218450   1.009   1.869   1.964  2.4603 -0.1567 -2.1958
 2273SOL     OW18451   4.561   2.320   0.659 -0.4653 -0.2030  0.0000
 2273SOL    HW118452   4.480   2.346   0.614 -1.7560  0.7570  2.8927
 2273SOL    HW218453   4.626   2.359   0.602 -0.2229 -0.8985 -0.1943
 2274SOL     OW18454   1.697   3.814   4.155 -0.8759 -0.0806 -0.1592
 2274SOL    HW118455   1.696   3.739   4.214  0.6750 -0.4494 -0.6051
 2274SOL    HW218456   1.766   3.776   4.101 -2.2158 -0.5563 -1.5364
 2275SOL     OW18457   2.600   0.142   3.068 -0.5745 -0.1136 -0.3536
 2275SOL    HW118458   2.535   0.099   3.012 -3.2031 -0.4710  2.9218
 2275SOL    HW218459   2.559   0.124   3.153  0.0488 -2.9028 -0.6265
 2276SOL     OW18460   0.338   3.773   6.919 -0.2583 -0.1165  0.3416
 2276SOL    HW118461   0.413   3.794   6.974  0.7106 -1.8419 -0.3263
 2276SOL    HW218462   0.284   3.717   6.975 -0.4045 -0.8684 -0.5445
 2277SOL     OW18463   3.540   3.810  13.525  0.1157 -0.8074  0.0427
 2277SOL    HW118464   3.494   3.780  13.446 -0.9064  1.9194 -0.3907
 2277SOL    HW218465   3.493   3.760  13.591  1.0586 -1.2029  0.4188
 2278SOL     OW18466   1.629   4.706   1.433 -0.3444 -0.7251  0.0610
 2278SOL    HW118467   1.633   0.065   1.417  1.5393 -0.7747  0.1834
 2278SOL    HW218468   1.669   4.674   1.352  1.4815  0.3003  0.5551
 2279SOL     OW18469   0.676   0.658   2.856 -0.0948  0.0521 -0.3759
 2279SOL    HW118470   0.706   0.581   2.904 -0.0832  1.3170  1.6161
 2279SOL    HW218471   0.605   0.607   2.816  0.5334  0.9783 -2.6582
 2280SOL     OW18472   0.270   0.798  14.578 -0.3041 -0.0003 -0.2989
 2280SOL    HW118473   0.227   0.712  14.572  0.1517 -0.2675  0.3792
 2280SOL    HW218474   0.254   0.816  14.670  1.4211  0.8109 -0.1628
 2281SOL     OW18475   4.244   1.127   3.113  0.6226 -0.1862 -0.4075
 2281SOL    HW118476   4.284   1.210   3.086 -1.3225  0.1295 -2.3036
 2281SOL    HW218477   4.265   1.079   3.033  1.9501 -0.5371  0.1382
 2282SOL     OW18478   1.080   2.513   2.832 -0.1027  0.6077 -0.0718
 2282SOL    HW118479   1.100   2.596   2.788  1.6453 -0.5102 -1.3467
 2282SOL    HW218480   1.104   2.541   2.921 -1.5660  3.0276 -0.4223
 2283SOL     OW18481   1.972   2.488   4.453  0.0738  0.1656  0.4365
 2283SOL    HW118482   1.951   2.465   4.363  0.7253  1.4561 -0.0403
 2283SOL    HW218483   1.897   2.448   4.498  0.4007  0.1566  0.9684
 2284SOL     OW18484   2.873   2.522   8.833 -0.4692  0.1931 -0.9402
 2284SOL    HW118485   2.822   2.582   8.779 -0.0226 -0.7082 -2.3615
 2284SOL    HW218486   2.904   2.459   8.768 -1.0582 -0.3733 -0.6678
 2285SOL     OW18487   2.258   1.188   5.655  0.5160 -0.0664 -0.1022
 2285SOL    HW118488   2.328   1.155   5.712 -0.8704 -1.7008  0.6482
 2285SOL    HW218489   2.290   1.277   5.645  0.3349 -0.0578 -0.5855
 2286SOL     OW18490   2.424   0.372  14.840  0.5027  0.3430  0.1929
 2286SOL    HW118491   2.485   0.398  14.909 -1.5012 -0.1299  2.1361
 2286SOL    HW218492   2.427   0.278  14.858 -0.1031 -0.1846 -2.3671
 2287SOL     OW18493   2.443   1.572   5.699  0.4549 -0.5679  0.5773
 2287SOL    HW118494   2.487   1.521   5.767  0.6962 -0.6283  0.3768
 2287SOL    HW218495   2.355   1.537   5.689  0.2723 -0.3090  1.2896
 2288SOL     OW18496   1.631   0.202   0.132  0.2261 -0.2407 -0.4030
 2288SOL    HW118497   1.626   0.111   0.102  0.0663  0.3245 -2.1004
 2288SOL    HW218498   1.537   0.216   0.128  0.3038  0.5241  0.6352
 2289SOL     OW18499   2.351   1.115   2.792  0.0340 -0.1991 -0.1673
 2289SOL    HW118500   2.301   1.140   2.714  1.3650  0.2705 -0.8592
 2289SOL    HW218501   2.338   1.021   2.801 -0.7477  0.2314  3.3096
 2290SOL     OW18502   4.543   2.063  11.893  0.1338 -0.7106  0.9880
 2290SOL    HW118503   4.586   2.025  11.969 -1.1135 -3.1371  0.4869
 2290SOL    HW218504   4.594   2.143  11.879 -0.0488 -0.5891  1.0218
 2291SOL     OW18505   3.935   0.341   7.807  0.1498 -0.7501  0.2742
 2291SOL    HW118506   4.012   0.301   7.849  0.7265  0.1879  0.1121
 2291SOL    HW218507   3.937   0.304   7.719  0.8250  1.4568 -0.6387
 2292SOL     OW18508   2.027   0.266   2.721 -0.5106  0.7178 -0.1202
 2292SOL    HW118509   2.035   0.171   2.730 -0.0341  0.7161 -0.5407
 2292SOL    HW218510   2.058   0.282   2.631  1.7877  0.8300  0.6922
 2293SOL     OW18511   1.378   1.507  12.062 -0.2722  0.0408 -0.3862
 2293SOL    HW118512   1.415   1.571  12.002 -0.7700 -3.0377 -4.0289
 2293SOL    HW218513   1.455   1.450  12.073 -1.3937 -1.5787 -0.8128
 2294SOL     OW18514   3.889   0.529   3.022  0.4976  0.4012 -0.4219
 2294SOL    HW118515   3.960   0.530   2.958  0.7106 -2.1962 -0.1996
 2294SOL    HW218516   3.821   0.579   2.977  1.5117  1.3652 -0.8740
 2295SOL     OW18517   0.728   3.839  12.094  0.2375 -0.4211 -0.1867
 2295SOL    HW118518   0.789   3.898  12.050  2.5813 -3.4547 -1.0051
 2295SOL    HW218519   0.714   3.891  12.173 -1.3521 -0.8989 -0.1516
 2296SOL     OW18520   2.008   0.303  16.579 -0.0055 -0.1015 -0.5632
 2296SOL    HW118521   2.028   0.327  16.489  1.3648  2.0586  0.3362
 2296SOL    HW218522   2.065   0.228  16.597 -0.6829 -0.0690  1.6988
 2297SOL     OW18523   0.840   0.949   3.643 -0.5038  0.0325 -0.5521
 2297SOL    HW118524   0.892   0.885   3.594  1.2361  0.3842  0.8481
 2297SOL    HW218525   0.765   0.945   3.584 -0.7445 -1.4970 -0.1219
 2298SOL     OW18526   2.586   2.600   3.162  0.0818 -0.2377  0.0211
 2298SOL    HW118527   2.648   2.641   3.101  0.5313 -0.0785  0.5860
 2298SOL    HW218528   2.637   2.597   3.243  0.3027 -1.5698 -0.1773
 2299SOL     OW18529   0.410   0.003   1.371 -0.0856  0.2961 -0.2239
 2299SOL    HW118530   0.501   0.026   1.353 -0.4037  1.5976 -0.1534
 2299SOL    HW218531   0.384   4.699   1.288  1.6929  0.1724 -0.7294
 2300SOL     OW18532   1.945   4.723  15.490 -0.0771  0.0956  0.6614
 2300SOL    HW118533   1.889   4.702  15.564  0.7742 -0.5577  1.1130
 2300SOL    HW218534   1.940   4.635  15.452  1.2254  0.4366 -0.3157
 2301SOL     OW18535   1.727   0.397   5.186  0.3613  0.0168  0.6302
 2301SOL    HW118536   1.678   0.338   5.129  1.6391 -0.9204  0.5007
 2301SOL    HW218537   1.652   0.437   5.230 -1.1264 -1.9741 -0.0937
 2302SOL     OW18538   1.479   2.382   9.694 -0.3123 -1.0786  0.2385
 2302SOL    HW118539   1.483   2.358   9.787 -1.0796  0.7181  0.7460
 2302SOL    HW218540   1.394   2.428   9.699  0.8281  0.9550  1.2176
 2303SOL     OW18541   3.889   3.402   8.839 -0.2071 -0.1098  0.2209
 2303SOL    HW118542   3.854   3.412   8.928 -1.7478 -1.7166 -0.1939
 2303SOL    HW218543   3.941   3.481   8.827 -1.4171  0.5241 -0.7772
 2304SOL     OW18544   0.876   3.714   9.055 -0.3719  0.4314  0.1493
 2304SOL    HW118545   0.948   3.759   9.010  0.0586 -0.7126 -0.2917
 2304SOL    HW218546   0.925   3.647   9.103 -0.5933 -0.2625 -0.6038
 2305SOL     OW18547   4.140   4.532   5.976 -0.9175 -0.6974 -0.2004
 2305SOL    HW118548   4.075   4.465   5.953  0.2971 -1.7279 -0.6639
 2305SOL    HW218549   4.182   4.487   6.049 -0.1755 -2.9935 -2.0179
 2306SOL     OW18550   0.077   4.028   5.149  0.2101 -0.5793  0.0187
 2306SOL    HW118551   0.022   4.023   5.227 -1.2260  2.1517 -0.7999
 2306SOL    HW218552   0.070   3.937   5.120  1.9629 -0.8422  0.4142
 2307SOL     OW18553   3.445   2.289   5.238  0.1409  0.1247 -0.3978
 2307SOL    HW118554   3.385   2.261   5.169 -1.1530 -1.4660  1.3978
 2307SOL    HW218555   3.385   2.333   5.299  1.3618  0.4112  0.6000
 2308SOL     OW18556   2.279   2.328   5.056 -0.0785  0.0659 -0.0243
 2308SOL    HW118557   2.190   2.323   5.091  0.6170  0.3267  1.7348
 2308SOL    HW218558   2.248   2.340   4.966 -2.2414  1.1579  0.8619
 2309SOL     OW18559   1.057   2.270   3.636 -0.0554  0.1531 -0.3086
 2309SOL    HW118560   1.108   2.257   3.556  0.9271  0.5043  0.2676
 2309SOL    HW218561   1.116   2.324   3.688 -1.1660  1.7957 -0.7423
 2310SOL     OW18562   3.306   2.944  14.583  0.2481  0.2888 -0.0083
 2310SOL    HW118563   3.241   2.877  14.566 -0.0090  0.4240  0.4202
 2310SOL    HW218564   3.324   2.978  14.496  2.3771 -2.5597 -0.6975
 2311SOL     OW18565   2.907   0.522   1.706  0.4799 -0.5049 -0.0470
 2311SOL    HW118566   2.961   0.584   1.755 -1.1554  1.3546 -0.5498
 2311SOL    HW218567   2.860   0.484   1.779  1.0116  0.4028  0.7692
 2312SOL     OW18568   2.302   2.279   6.385 -0.1494  0.5596  0.2966
 2312SOL    HW118569   2.345   2.355   6.425 -0.2859 -1.5061  4.3406
 2312SOL    HW218570   2.378   2.222   6.394  1.5051  2.7418  0.1206
 2313SOL     OW18571   2.478   0.309  15.292 -0.2207  0.2338 -0.5691
 2313SOL    HW118572   2.422   0.256  15.236 -0.0939 -0.6070  0.1102
 2313SOL    HW218573   2.413   0.371  15.327 -1.2251 -1.4080  0.4824
 2314SOL     OW18574   4.658   4.110   3.399 -0.3814  0.1132 -0.0494
 2314SOL    HW118575   4.671   4.168   3.324  0.1441  2.5398  1.9304
 2314SOL    HW218576   4.595   4.053   3.354 -0.7094  0.3296  0.1303
 2315SOL     OW18577   3.573   3.607   6.516  0.3401  0.0734  0.0850
 2315SOL    HW118578   3.525   3.635   6.438  0.0348 -0.3339  0.1297
 2315SOL    HW218579   3.643   3.549   6.486  0.8971 -0.3153  2.1771
 2316SOL     OW18580   3.634   1.525  14.388  0.0170  0.0429 -0.2436
 2316SOL    HW118581   3.586   1.483  14.316  0.9425  1.6491 -1.8088
 2316SOL    HW218582   3.576   1.517  14.463  0.3523 -0.0088  0.0066
 2317SOL     OW18583   0.852   2.983   2.375  0.4641  0.8534 -0.4198
 2317SOL    HW118584   0.802   3.014   2.299 -2.6140 -0.7758  0.9437
 2317SOL    HW218585   0.901   2.909   2.341  0.7756  0.5113  0.7866
 2318SOL     OW18586   4.467   1.939   4.280 -0.2592  0.2388  0.2719
 2318SOL    HW118587   4.447   2.002   4.349 -0.7954 -0.6029  0.8786
 2318SOL    HW218588   4.531   1.885   4.326  0.4958  0.5034 -0.4702
 2319SOL     OW18589   0.239   2.264   3.329 -0.4438 -0.5316 -0.4516
 2319SOL    HW118590   0.273   2.293   3.244 -1.7719  0.4513 -0.6505
 2319SOL    HW218591   0.241   2.342   3.384  0.1307 -1.8811  1.4506
 2320SOL     OW18592   3.628   0.026  15.913  0.0103  0.1037 -0.5190
 2320SOL    HW118593   3.539   0.044  15.885  0.0627  1.5874  0.3227
 2320SOL    HW218594   3.680   0.066  15.843 -0.4110  0.0327 -0.8687
 2321SOL     OW18595   2.131   3.134  10.300  0.4613  0.1916  0.5607
 2321SOL    HW118596   2.071   3.072  10.341 -0.5504 -0.0136 -1.2687
 2321SOL    HW218597   2.156   3.084  10.222 -1.1332 -0.8289  0.7157
 2322SOL     OW18598   1.021   1.947   5.656  0.2305 -0.1912 -0.0205
 2322SOL    HW118599   0.989   1.861   5.683  0.0730  0.3925  1.6610
 2322SOL    HW218600   0.943   1.988   5.618 -1.6645 -2.7229  1.1906
 2323SOL     OW18601   3.771   1.749   0.152 -0.7104 -0.7503 -0.5102
 2323SOL    HW118602   3.712   1.678   0.175 -1.5342  0.1857  0.2613
 2323SOL    HW218603   3.774   1.737   0.057 -1.0027 -1.1221 -0.4724
 2324SOL     OW18604   3.825   0.516   0.547  0.3862  0.2485 -0.2211
 2324SOL    HW118605   3.806   0.476   0.462  1.8416 -0.4401 -0.2174
 2324SOL    HW218606   3.817   0.433   0.593  1.6456  0.1499 -0.1822
 2325SOL     OW18607   1.964   1.734   5.235  0.0184 -0.2978  0.2756
 2325SOL    HW118608   2.006   1.810   5.194 -1.7504 -0.5065 -1.9530
 2325SOL    HW218609   2.030   1.668   5.214  2.4154  1.6987  1.5630
 2326SOL     OW18610   3.717   1.032  10.233 -0.3041 -0.6760  0.4228
 2326SOL    HW118611   3.720   0.984  10.150  0.5587 -1.4241  0.8790
 2326SOL    HW218612   3.689   1.118  10.201  0.2902  0.0816  1.9321
 2327SOL     OW18613   3.035   4.151   4.102 -0.1897 -0.1817  0.0162
 2327SOL    HW118614   3.084   4.229   4.130  3.6170 -2.9018  0.9360
 2327SOL    HW218615   3.050   4.139   4.009  0.4871 -1.2698  0.2628
 2328SOL     OW18616   2.658   4.201   8.031 -0.0955  0.7865  0.4032
 2328SOL    HW118617   2.708   4.150   8.094  0.8912  2.1669  0.7097
 2328SOL    HW218618   2.684   4.292   8.043 -0.8717  0.9359  0.9364
 2329SOL     OW18619   1.937   4.117   5.356  0.1725  0.7125  0.0506
 2329SOL    HW118620   2.024   4.136   5.392  2.1298 -1.6788 -3.3094
 2329SOL    HW218621   1.956   4.041   5.300 -0.5898  0.4707  0.1165
 2330SOL     OW18622   3.764   0.200   8.997  0.0456  0.2611 -0.1041
 2330SOL    HW118623   3.843   0.164   8.958  0.2420  1.8557 -1.2108
 2330SOL    HW218624   3.745   0.262   8.926 -1.7029  0.2277  0.3257
 2331SOL     OW18625   4.674   2.363   6.311  0.2567  0.0053 -0.9983
 2331SOL    HW118626   4.604   2.345   6.374  0.6485  1.5957 -0.1038
 2331SOL    HW218627   4.636   2.424   6.248 -0.0016  1.2447  0.3597
 2332SOL     OW18628   2.822   0.145   2.666  0.3662  0.1971  0.1621
 2332SOL    HW118629   2.786   0.059   2.646  0.6783  0.1972 -0.3794
 2332SOL    HW218630   2.739   0.193   2.659 -0.1466 -0.6296  0.4752
 2333SOL     OW18631   3.438   2.195  10.382 -0.2235 -0.4865  0.4293
 2333SOL    HW118632   3.343   2.181  10.377 -0.0881 -0.9042 -0.8408
 2333SOL    HW218633   3.431   2.264  10.448  0.6511  1.5536 -1.6115
 2334SOL     OW18634   0.116   0.275  13.902 -0.0237  0.6295 -0.1903
 2334SOL    HW118635   0.028   0.239  13.902  1.2530 -2.5251 -1.8125
 2334SOL    HW218636   0.101   0.354  13.850  3.8409  0.3893 -1.6722
 2335SOL     OW18637   2.180   3.833   3.722 -0.4570  0.6675 -0.1484
 2335SOL    HW118638   2.116   3.767   3.697 -2.7112  2.5397  0.6421
 2335SOL    HW218639   2.127   3.882   3.786  0.8347  1.7539  0.0803
 2336SOL     OW18640   2.965   3.342   5.640  0.5919  0.2249  0.4914
 2336SOL    HW118641   2.952   3.270   5.701 -0.2495 -0.0706 -0.0333
 2336SOL    HW218642   2.874   3.359   5.614  0.9232  2.3061  0.6973
 2337SOL     OW18643   3.693   4.691  15.134  0.3020  0.1014 -0.4747
 2337SOL    HW118644   3.602   4.672  15.114  0.6383 -2.6496  0.7278
 2337SOL    HW218645   3.703   4.663  15.225  1.9351  2.5288  0.0952
 2338SOL     OW18646   3.120   4.205   5.216  0.5407 -0.4200  0.6267
 2338SOL    HW118647   3.026   4.217   5.200  0.8318  0.4903 -0.4052
 2338SOL    HW218648   3.130   4.128   5.160  3.1619 -0.3030  0.9488
 2339SOL     OW18649   3.701   4.420   7.008  0.7279 -0.7506  0.0372
 2339SOL    HW118650   3.607   4.417   7.029  0.9277 -2.5081  0.6565
 2339SOL    HW218651   3.701   4.395   6.916 -0.8081 -1.3014  0.1866
 2340SOL     OW18652   2.304   0.006  10.955 -0.4011  0.0478  0.3390
 2340SOL    HW118653   2.323   0.035  10.866 -1.7462  0.0889  0.0659
 2340SOL    HW218654   2.364   4.669  10.973 -1.7085 -1.2426 -0.4878
 2341SOL     OW18655   0.684   0.944   7.832  0.5733 -0.4998 -0.1448
 2341SOL    HW118656   0.752   0.964   7.768  1.6589 -0.2302  1.0781
 2341SOL    HW218657   0.686   0.850   7.816 -0.4767 -0.4032 -0.8154
 2342SOL     OW18658   0.693   0.095  10.961  0.5191  0.5536 -0.2360
 2342SOL    HW118659   0.779   0.063  10.989  0.6755  1.4426  0.3010
 2342SOL    HW218660   0.634   0.034  11.006  1.7564 -0.9458 -0.6168
 2343SOL     OW18661   3.784   1.885  16.218 -0.3279  0.6717 -0.1933
 2343SOL    HW118662   3.694   1.915  16.236  0.2396  1.4060  1.3845
 2343SOL    HW218663   3.757   1.794  16.223 -0.5564  0.7252 -0.4008
 2344SOL     OW18664   4.174   4.339   5.234  0.1819 -0.0518  0.2964
 2344SOL    HW118665   4.126   4.409   5.278 -0.8628  0.3197 -1.4304
 2344SOL    HW218666   4.224   4.403   5.182  0.6456 -0.6826 -0.0406
 2345SOL     OW18667   0.473   3.667  11.750 -0.3533 -0.4541 -0.0455
 2345SOL    HW118668   0.491   3.706  11.665 -0.9108 -1.6113 -0.6840
 2345SOL    HW218669   0.454   3.582  11.712  0.9869 -1.5450  1.7346
 2346SOL     OW18670   3.530   3.293   3.173 -0.1734 -0.1185  0.2707
 2346SOL    HW118671   3.446   3.308   3.218  0.3602 -1.6836  1.8207
 2346SOL    HW218672   3.531   3.197   3.172  2.2722 -0.0847 -0.0372
 2347SOL     OW18673   3.531   1.532  17.273 -0.1748  0.0148 -0.7898
 2347SOL    HW118674   3.592   1.575  17.213  0.1417 -1.9309 -1.8716
 2347SOL    HW218675   3.590   1.530  17.348 -1.3043 -3.5645  0.0027
 2348SOL     OW18676   3.024   1.628   0.391 -0.3961  0.2291 -0.0684
 2348SOL    HW118677   3.075   1.700   0.354  0.8543  0.3308  1.8332
 2348SOL    HW218678   2.946   1.682   0.403 -0.5812 -0.1654  0.5080
 2349SOL     OW18679   0.487   2.710   6.853 -0.1701 -0.5599  0.2642
 2349SOL    HW118680   0.427   2.643   6.820  0.3488 -0.5242 -0.7720
 2349SOL    HW218681   0.543   2.663   6.915  3.2284 -1.7760 -3.6924
 2350SOL     OW18682   0.205   2.489   3.463 -0.4228 -0.4351 -0.2352
 2350SOL    HW118683   0.203   2.537   3.380  0.6775  0.0377  0.0147
 2350SOL    HW218684   0.158   2.557   3.511 -1.2310 -1.3070  0.1997
 2351SOL     OW18685   4.664   1.184  11.604 -0.2097 -0.5707 -0.1328
 2351SOL    HW118686   4.731   1.144  11.548  0.8073 -0.1017  0.7359
 2351SOL    HW218687   4.654   1.272  11.568  0.6530 -1.3852 -2.3330
 2352SOL     OW18688   4.225   4.558  14.755 -0.3535 -0.2555  0.2036
 2352SOL    HW118689   4.300   4.502  14.733 -0.5406 -0.8970  1.2122
 2352SOL    HW218690   4.149   4.500  14.759 -2.5340  2.5547 -0.7407
 2353SOL     OW18691   2.028   3.603  14.135  0.3045  0.1196  0.2149
 2353SOL    HW118692   1.958   3.625  14.073  1.2720  0.3222 -0.8127
 2353SOL    HW218693   1.972   3.606  14.213  0.8184 -0.8708  0.6096
 2354SOL     OW18694   4.311   3.091   3.835 -0.4904  0.2738  0.3986
 2354SOL    HW118695   4.308   3.165   3.774 -1.8472 -1.3599 -1.5174
 2354SOL    HW218696   4.381   3.116   3.896  0.7066  1.0799 -1.2955
 2355SOL     OW18697   2.940   0.777  14.156  0.7884  0.4102  0.0983
 2355SOL    HW118698   2.868   0.824  14.114  0.5646 -1.6321 -1.8353
 2355SOL    HW218699   2.907   0.690  14.132  1.8884 -0.1874  0.7362
 2356SOL     OW18700   1.909   1.135   6.973  0.4770 -0.2261  0.2660
 2356SOL    HW118701   1.969   1.209   6.979 -0.2552  0.2852  1.2694
 2356SOL    HW218702   1.831   1.179   7.009 -0.0998 -1.2680  0.2717
 2357SOL     OW18703   0.961   1.967  13.987 -0.4746 -0.1843  0.2919
 2357SOL    HW118704   0.945   2.057  14.013  2.1132  0.5364 -0.5657
 2357SOL    HW218705   0.988   1.992  13.898 -0.1714  3.0991  1.3113
 2358SOL     OW18706   4.630   1.431   4.232  0.0909 -0.3208  0.2780
 2358SOL    HW118707   4.682   1.450   4.310 -1.9391  1.2824  1.2157
 2358SOL    HW218708   4.587   1.348   4.253 -0.1071 -0.5648 -1.0552
 2359SOL     OW18709   1.926   0.631   3.044  0.0211 -0.1790 -0.5420
 2359SOL    HW118710   1.866   0.674   3.105  0.1882  0.8377 -1.0951
 2359SOL    HW218711   1.984   0.706   3.032  0.5289 -0.4020  0.5298
 2360SOL     OW18712   4.727   2.753   2.245 -0.1612 -0.3930 -0.3613
 2360SOL    HW118713   4.731   2.847   2.230 -0.8561 -0.2548  0.2738
 2360SOL    HW218714   4.632   2.739   2.240 -0.1834 -1.0521  1.8238
 2361SOL     OW18715   3.070   2.147   2.930 -0.4071 -0.2977  0.7321
 2361SOL    HW118716   3.054   2.095   2.851 -0.9174  0.3714  0.3997
 2361SOL    HW218717   3.026   2.086   2.989 -1.6534  1.1385  1.2835
 2362SOL     OW18718   3.168   1.805   5.999 -0.3940 -0.0243 -0.0345
 2362SOL    HW118719   3.143   1.760   6.080  0.5794 -3.6765 -1.7945
 2362SOL    HW218720   3.182   1.896   6.026  1.0444 -0.0415 -0.7483
 2363SOL     OW18721   3.090   3.197   6.826 -0.1615 -0.3963  0.4682
 2363SOL    HW118722   3.127   3.121   6.871 -0.4901  0.8766  2.8936
 2363SOL    HW218723   3.084   3.151   6.742  0.1300 -2.5192  1.6092
 2364SOL     OW18724   3.506   1.853  17.586 -0.4476 -0.6366  0.0577
 2364SOL    HW118725   3.530   1.924  17.644  4.6070 -2.4950  0.2357
 2364SOL    HW218726   3.568   1.877  17.517 -0.0485  0.6201  0.8645
 2365SOL     OW18727   0.403   0.836   6.718  0.6696  0.6673  0.0655
 2365SOL    HW118728   0.311   0.849   6.693  0.2474 -1.0269  0.7452
 2365SOL    HW218729   0.452   0.878   6.647 -0.4553  1.6505 -0.1360
 2366SOL     OW18730   0.689   4.576   8.428 -0.1223  0.0036  0.3050
 2366SOL    HW118731   0.776   4.614   8.415  0.2764 -1.0639 -0.1175
 2366SOL    HW218732   0.713   4.484   8.440  1.8356  0.3197 -1.1918
 2367SOL     OW18733   2.790   3.037   1.293 -0.3067  0.5117  0.1082
 2367SOL    HW118734   2.877   3.076   1.289 -1.0274  1.8743 -2.0609
 2367SOL    HW218735   2.735   3.082   1.228 -1.1017  0.2198  0.5836
 2368SOL     OW18736   0.772   0.572   6.217  0.0970 -0.4476  0.0922
 2368SOL    HW118737   0.766   0.668   6.220 -0.1155 -0.5122  2.2736
 2368SOL    HW218738   0.863   0.559   6.244 -0.1572 -1.0456  0.6605
 2369SOL     OW18739   3.510   1.842   7.247  0.1491  0.1108  0.3476
 2369SOL    HW118740   3.509   1.907   7.177  3.0071  0.0037  0.1871
 2369SOL    HW218741   3.424   1.845   7.287 -0.0972  0.8376 -0.2332
 2370SOL     OW18742   4.263   0.339  13.045  0.1552 -0.2428 -0.1289
 2370SOL    HW118743   4.214   0.277  12.991 -2.9394  2.6792 -0.6506
 2370SOL    HW218744   4.345   0.359  12.999  0.8851  1.9029  2.0811
 2371SOL     OW18745   3.016   0.759   0.868 -0.1253 -0.0879  0.5916
 2371SOL    HW118746   3.010   0.743   0.774 -0.0388  2.0250  0.2196
 2371SOL    HW218747   2.949   0.828   0.871  1.3166  1.2024  3.4050
 2372SOL     OW18748   3.461   1.820  10.916  0.4710 -0.2401  0.0859
 2372SOL    HW118749   3.544   1.859  10.889  0.2498  1.3872  1.7885
 2372SOL    HW218750   3.485   1.760  10.986 -0.5968 -0.0486  0.6198
 2373SOL     OW18751   3.007   0.290   3.180  0.0523 -0.5923 -0.0319
 2373SOL    HW118752   2.936   0.312   3.240  0.0986 -0.9950  0.1717
 2373SOL    HW218753   2.950   0.267   3.106 -0.2672 -1.9166  0.6239
 2374SOL     OW18754   2.167   2.994   6.979  0.5917 -0.1587  0.2665
 2374SOL    HW118755   2.186   2.940   7.056 -0.4842 -0.2463  0.4655
 2374SOL    HW218756   2.183   3.080   7.017 -0.3416  0.2587 -0.2935
 2375SOL     OW18757   2.914   1.026   8.334  0.3329 -0.4490  0.3671
 2375SOL    HW118758   2.986   1.059   8.280  0.4462  0.1527  0.8779
 2375SOL    HW218759   2.843   1.021   8.270 -0.9751 -0.7336  1.8398
 2376SOL     OW18760   4.442   2.893   3.047 -0.0426 -0.1129  0.0566
 2376SOL    HW118761   4.474   2.805   3.068  1.1023  0.1431 -0.5842
 2376SOL    HW218762   4.347   2.882   3.048 -0.3707  2.9594  0.5760
 2377SOL     OW18763   4.502   0.610   9.138  0.3860 -0.2811  0.1343
 2377SOL    HW118764   4.410   0.616   9.166  0.4740  1.9631 -0.0604
 2377SOL    HW218765   4.519   0.516   9.143 -0.6273 -0.3586  2.5963
 2378SOL     OW18766   3.357   2.789   3.664 -0.2682 -0.1160  0.0784
 2378SOL    HW118767   3.294   2.725   3.695 -1.0438  0.9941  0.8219
 2378SOL    HW218768   3.300   2.866   3.660  0.8272  0.8119  2.6014
 2379SOL     OW18769   1.569   2.770   4.959  0.0254  0.1717 -0.1414
 2379SOL    HW118770   1.489   2.718   4.961  0.7763 -1.0364 -1.6323
 2379SOL    HW218771   1.616   2.713   5.019  0.3768  0.2832 -0.3102
 2380SOL     OW18772   4.112   4.246  10.586  0.1175  0.6345  0.3483
 2380SOL    HW118773   4.167   4.201  10.522  0.1973 -0.7158  1.3661
 2380SOL    HW218774   4.084   4.320  10.532  1.9373  1.6940  0.8734
 2381SOL     OW18775   1.509   0.761   4.045  0.3197 -0.5670 -0.3337
 2381SOL    HW118776   1.460   0.704   3.986 -0.2784 -0.3650 -0.0288
 2381SOL    HW218777   1.601   0.744   4.024  0.1847  1.1253 -2.2192
 2382SOL     OW18778   2.711   0.968   6.794  0.2932  0.4786 -0.1106
 2382SOL    HW118779   2.650   1.040   6.811 -0.2290  0.0923 -0.3452
 2382SOL    HW218780   2.746   0.946   6.881 -0.5458  2.0405  0.6284
 2383SOL     OW18781   0.112   2.447   9.269  0.9990 -0.0961  0.0455
 2383SOL    HW118782   0.150   2.522   9.223 -1.9271  1.9075  0.8695
 2383SOL    HW218783   0.023   2.472   9.294  1.2847  0.0287  0.9562
 2384SOL     OW18784   0.375   0.716  11.100 -0.1787  0.0051 -0.1297
 2384SOL    HW118785   0.447   0.657  11.120 -0.4852 -0.5499 -0.6853
 2384SOL    HW218786   0.366   0.694  11.007 -1.0698  0.0077 -0.0395
 2385SOL     OW18787   4.528   3.689   2.664  0.2867 -0.4682 -0.5071
 2385SOL    HW118788   4.479   3.607   2.666 -1.1173  0.3333 -2.3581
 2385SOL    HW218789   4.512   3.712   2.756  1.9365 -3.1946  0.4564
 2386SOL     OW18790   3.913   4.457   4.882 -0.0101  0.0613 -0.3302
 2386SOL    HW118791   3.965   4.505   4.817  0.4563 -1.3904 -1.0282
 2386SOL    HW218792   3.985   4.394   4.889  0.9742  1.0651 -1.6295
 2387SOL     OW18793   2.584   3.496   1.317  0.4374 -0.1206 -0.6098
 2387SOL    HW118794   2.522   3.425   1.334  1.0308 -0.3811  0.4740
 2387SOL    HW218795   2.522   3.561   1.284  1.2380  0.9362 -0.0199
 2388SOL     OW18796   1.257   2.991   2.766 -0.0154  0.5764 -0.1520
 2388SOL    HW118797   1.310   2.991   2.686 -0.1534  0.4329 -0.2418
 2388SOL    HW218798   1.255   2.897   2.782 -2.8983  1.3614  4.0998
 2389SOL     OW18799   0.332   1.531   7.388 -0.1351  0.2531 -0.0328
 2389SOL    HW118800   0.353   1.460   7.328 -0.5032  0.2296 -0.1286
 2389SOL    HW218801   0.422   1.559   7.409  0.6581 -0.8336 -2.0349
 2390SOL     OW18802   2.454   4.323   4.945 -0.4861  0.0169 -0.1278
 2390SOL    HW118803   2.485   4.286   5.028  0.3343 -1.7240 -1.2247
 2390SOL    HW218804   2.509   4.401   4.939  0.8927 -0.9855 -0.4457
 2391SOL     OW18805   2.151   3.861  14.313  0.1767 -0.7270  0.3907
 2391SOL    HW118806   2.154   3.775  14.355  1.4195 -0.9333 -0.1146
 2391SOL    HW218807   2.244   3.879  14.331 -0.4695  0.7358  2.2655
 2392SOL     OW18808   1.845   4.733  15.172  0.1721  0.0486 -0.2629
 2392SOL    HW118809   1.753   4.722  15.194  0.6337 -0.6752  1.3002
 2392SOL    HW218810   1.883   4.652  15.205  1.0899  0.5898  0.0004
 2393SOL     OW18811   0.987   4.613   2.254 -0.0589  0.4691 -0.3642
 2393SOL    HW118812   0.895   4.639   2.256  0.5512  2.5383  1.6494
 2393SOL    HW218813   0.982   4.535   2.308  1.8551  0.4691 -0.1815
 2394SOL     OW18814   1.664   1.715   3.997  0.0300 -0.3141  0.0813
 2394SOL    HW118815   1.605   1.670   3.937  0.6302  1.7684 -2.0591
 2394SOL    HW218816   1.603   1.778   4.036  0.7524  0.4730 -0.0770
 2395SOL     OW18817   0.740   1.509  11.582 -0.4739  0.0682 -0.1192
 2395SOL    HW118818   0.824   1.555  11.582  0.3422 -1.4138  2.3025
 2395SOL    HW218819   0.682   1.582  11.563  0.9283  0.8826 -1.3252
 2396SOL     OW18820   0.982   2.405   2.271  0.2682 -0.1349 -0.0140
 2396SOL    HW118821   1.060   2.427   2.321  0.2552 -0.7456  0.2780
 2396SOL    HW218822   1.003   2.447   2.187 -0.9764  2.8067  1.1721
 2397SOL     OW18823   4.679   1.437   8.664 -0.7577 -0.5457  0.4484
 2397SOL    HW118824   4.681   1.343   8.682 -2.9286 -0.6543  0.1886
 2397SOL    HW218825   4.672   1.445   8.568 -0.8509 -0.2510  0.4778
 2398SOL     OW18826   1.026   2.044  10.180 -0.2154 -0.7490 -0.2792
 2398SOL    HW118827   1.095   2.036  10.245  0.1473 -0.2481 -0.5945
 2398SOL    HW218828   0.957   1.981  10.197  0.6149 -1.6279 -0.1833
 2399SOL     OW18829   3.558   1.918   9.327  0.3367 -0.1171  0.1222
 2399SOL    HW118830   3.632   1.958   9.282  0.4848 -0.7716 -0.2220
 2399SOL    HW218831   3.599   1.851   9.380  1.3088  0.4913  0.1345
 2400SOL     OW18832   3.879   2.143   1.671  0.1431  0.9580 -0.0719
 2400SOL    HW118833   3.957   2.194   1.695 -1.0494  1.3902  2.9466
 2400SOL    HW218834   3.898   2.065   1.723 -1.6691  0.1203 -0.6887
 2401SOL     OW18835   2.887   0.607   4.932 -0.0136  0.1790  0.3057
 2401SOL    HW118836   2.858   0.687   4.976  1.4341  0.8199  0.0930
 2401SOL    HW218837   2.943   0.645   4.864  1.1223 -0.9459  0.6146
 2402SOL     OW18838   1.982   3.057  15.778 -0.2128  0.2097 -0.1386
 2402SOL    HW118839   2.018   2.973  15.805 -2.3419 -0.0607  1.8457
 2402SOL    HW218840   1.892   3.040  15.803  0.5010 -2.4337  0.6491
 2403SOL     OW18841   3.200   3.417   3.915  0.3825 -0.2015  0.4078
 2403SOL    HW118842   3.112   3.379   3.911  0.2044  0.3778 -0.9602
 2403SOL    HW218843   3.194   3.472   3.838  1.6991  1.3801  1.4503
 2404SOL     OW18844   2.806   0.587  17.508  0.4560 -0.1437 -0.1523
 2404SOL    HW118845   2.718   0.558  17.483  0.9730 -0.3365 -1.7291
 2404SOL    HW218846   2.859   0.531  17.452  0.3745  0.8161 -1.1795
 2405SOL     OW18847   4.412   2.628   3.309  0.2103  0.2475 -0.0397
 2405SOL    HW118848   4.317   2.641   3.315  0.0292 -1.4249  0.8260
 2405SOL    HW218849   4.421   2.613   3.215 -0.3461  1.5724 -0.3002
 2406SOL     OW18850   2.227   2.592   6.068  0.4791 -0.3308  0.9075
 2406SOL    HW118851   2.256   2.626   6.152  0.9837 -2.9700  1.8099
 2406SOL    HW218852   2.265   2.504   6.064  1.2375 -0.0192  1.5249
 2407SOL     OW18853   4.091   0.097   6.825  0.6104  0.2318 -0.0839
 2407SOL    HW118854   4.063   0.024   6.882  0.8684  0.9485  0.9632
 2407SOL    HW218855   4.020   0.161   6.824  1.1340  0.8348  1.5580
 2408SOL     OW18856   1.436   1.544   7.482 -0.5892 -1.1916  0.3406
 2408SOL    HW118857   1.524   1.519   7.452 -0.1433  1.5527 -0.6414
 2408SOL    HW218858   1.444   1.519   7.574 -0.6641 -0.2050  0.6116
 2409SOL     OW18859   0.166   4.681   5.137  0.1296  0.7721 -0.0343
 2409SOL    HW118860   0.242   4.625   5.130  0.4370  1.2365 -0.4227
 2409SOL    HW218861   0.163   4.709   5.046 -0.4164 -0.3126 -0.3475
 2410SOL     OW18862   1.257   1.444  10.880 -0.1743 -0.2686  0.6007
 2410SOL    HW118863   1.317   1.488  10.820  1.5435 -1.1247  1.6858
 2410SOL    HW218864   1.195   1.396  10.824 -2.4924  1.3369  1.8203
 2411SOL     OW18865   2.136   4.440   6.172 -0.1092  0.3690  0.4514
 2411SOL    HW118866   2.200   4.486   6.117  1.5238  0.4221  2.3696
 2411SOL    HW218867   2.200   4.399   6.230 -1.5995 -1.1513  1.0129
 2412SOL     OW18868   2.845   3.913   5.372  0.2407  0.3754  0.4997
 2412SOL    HW118869   2.846   3.942   5.463 -2.2040  0.7910  0.4119
 2412SOL    HW218870   2.778   3.844   5.381  1.6032 -0.4577  3.9452
 2413SOL     OW18871   4.654   0.357  15.395  0.0840 -0.0107 -0.0994
 2413SOL    HW118872   4.600   0.281  15.373  0.9901 -0.7301  0.1679
 2413SOL    HW218873   4.628   0.366  15.487 -0.5095  0.8717 -0.3649
 2414SOL     OW18874   3.427   4.540   0.240 -0.0605 -1.0675  0.3545
 2414SOL    HW118875   3.494   4.472   0.230  0.2299 -0.8234  0.6445
 2414SOL    HW218876   3.482   4.608   0.278  1.0397  0.0850 -3.3745
 2415SOL     OW18877   2.210   2.385   4.471 -0.0367 -0.2227 -0.2436
 2415SOL    HW118878   2.125   2.429   4.463 -0.2870 -0.6166  0.2106
 2415SOL    HW218879   2.267   2.446   4.425  0.3355 -0.3215  0.0880
 2416SOL     OW18880   1.339   2.853   2.232 -0.1979 -0.1861  0.5916
 2416SOL    HW118881   1.276   2.800   2.184 -0.8323 -0.6161  1.8888
 2416SOL    HW218882   1.384   2.896   2.160 -1.0120  1.3226  0.9780
 2417SOL     OW18883   2.575   0.635   2.184  0.2030 -0.0948 -0.6451
 2417SOL    HW118884   2.488   0.645   2.222  0.3415 -1.7650  0.1054
 2417SOL    HW218885   2.559   0.644   2.090  1.8377  0.4296 -0.8758
 2418SOL     OW18886   3.565   4.514  12.239 -0.6365  0.1539  0.5723
 2418SOL    HW118887   3.503   4.566  12.187 -0.8975 -1.1434 -0.4146
 2418SOL    HW218888   3.507   4.489  12.311 -4.1618  0.2808 -2.1864
 2419SOL     OW18889   1.538   1.726   7.289  0.0897 -0.1898  0.8600
 2419SOL    HW118890   1.473   1.679   7.235  1.9473  0.0452 -1.5772
 2419SOL    HW218891   1.584   1.656   7.335  0.6987 -1.2957 -1.3973
 2420SOL     OW18892   3.152   2.562   5.780 -0.6582  0.6970 -0.5815
 2420SOL    HW118893   3.179   2.620   5.708  0.5896  2.6607  1.4653
 2420SOL    HW218894   3.211   2.598   5.846  1.3038  2.0351 -3.0657
 2421SOL     OW18895   2.446   2.892   5.564 -0.1904  0.3860  0.1401
 2421SOL    HW118896   2.353   2.908   5.576 -0.0566 -0.2329  1.9755
 2421SOL    HW218897   2.453   2.823   5.629  0.1106 -0.2176 -0.5348
 2422SOL     OW18898   4.396   4.481   6.923 -0.1067  0.0947 -0.2394
 2422SOL    HW118899   4.348   4.485   7.005 -0.7008  1.5695 -0.6643
 2422SOL    HW218900   4.448   4.402   6.940 -1.0214 -0.1622  1.2916
 2423SOL     OW18901   2.176   1.526   5.668  0.5492  0.3712 -0.3651
 2423SOL    HW118902   2.144   1.605   5.712 -0.3793  1.3189 -2.7185
 2423SOL    HW218903   2.137   1.458   5.722 -3.8071  2.1890 -1.1907
 2424SOL     OW18904   0.868   2.307  11.568 -0.3404 -0.0849 -0.0588
 2424SOL    HW118905   0.797   2.285  11.507 -0.5127  0.6423 -0.1186
 2424SOL    HW218906   0.887   2.399  11.550 -0.2978 -0.1894 -0.5737
 2425SOL     OW18907   0.346   4.472   4.180  0.2285  0.0086  0.0191
 2425SOL    HW118908   0.324   4.476   4.087  1.7458  0.4429 -0.3200
 2425SOL    HW218909   0.359   4.566   4.195  3.8315 -0.5365  0.2559
 2426SOL     OW18910   1.395   3.866   8.684  0.1723 -0.1853  0.1538
 2426SOL    HW118911   1.367   3.818   8.762 -3.0747  2.8058  0.8392
 2426SOL    HW218912   1.480   3.896   8.716  1.0922 -1.7853 -0.7920
 2427SOL     OW18913   3.573   0.703   4.866  0.0185 -0.0410  0.1591
 2427SOL    HW118914   3.577   0.607   4.863 -0.4395 -0.1116  1.4364
 2427SOL    HW218915   3.609   0.724   4.780  0.8397 -1.2693  0.2064
 2428SOL     OW18916   1.024   4.313   4.368  0.4557  0.1480 -0.0458
 2428SOL    HW118917   0.928   4.313   4.367  0.4516 -1.3290  0.4305
 2428SOL    HW218918   1.037   4.363   4.288 -0.5661 -0.7921 -0.8087
 2429SOL     OW18919   2.943   1.404   4.079  0.2883 -0.8887  0.4355
 2429SOL    HW118920   3.027   1.437   4.111  0.0253  0.0829  0.1183
 2429SOL    HW218921   2.880   1.456   4.130 -1.1506 -1.8030 -0.4138
 2430SOL     OW18922   2.150   1.748   1.955  0.4844  0.4092 -0.0770
 2430SOL    HW118923   2.082   1.683   1.972  0.6486  0.3539  0.3446
 2430SOL    HW218924   2.087   1.820   1.963 -1.0481 -0.8977 -0.3227
 2431SOL     OW18925   2.628   0.615   9.321  0.0646  0.5087 -0.3829
 2431SOL    HW118926   2.632   0.711   9.321  0.1761  0.5048  1.4747
 2431SOL    HW218927   2.666   0.596   9.235 -0.2428  0.5364 -0.5245
 2432SOL     OW18928   2.732   1.573   4.515 -0.3082 -0.1354  0.7790
 2432SOL    HW118929   2.731   1.667   4.529 -2.1406 -0.2762  1.6617
 2432SOL    HW218930   2.639   1.551   4.508  0.2683 -1.5432 -2.6013
 2433SOL     OW18931   4.399   3.024  11.774 -0.2742 -0.0469  0.2732
 2433SOL    HW118932   4.305   3.021  11.756 -0.3771 -0.3650  0.8671
 2433SOL    HW218933   4.391   3.034  11.869  1.4799 -0.4881  0.4740
 2434SOL     OW18934   3.627   3.321   4.935 -0.3317  0.2275 -0.4810
 2434SOL    HW118935   3.553   3.332   4.995  0.5732 -0.2515  0.7305
 2434SOL    HW218936   3.578   3.315   4.853  1.3119 -0.7147 -1.4185
 2435SOL     OW18937   2.439   1.784   1.617  0.6192 -0.0324  0.3801
 2435SOL    HW118938   2.528   1.792   1.583  0.3866 -0.6027 -0.3698
 2435SOL    HW218939   2.443   1.848   1.688  0.0994 -0.2064  0.5716
 2436SOL     OW18940   2.396   3.895   7.951 -0.3535 -0.3682 -0.1997
 2436SOL    HW118941   2.331   3.933   7.892  0.4088  0.0517 -0.7736
 2436SOL    HW218942   2.477   3.920   7.906 -0.6712 -0.7527 -0.9747
 2437SOL     OW18943   2.606   4.705   6.567 -0.2676  0.3750 -0.4506
 2437SOL    HW118944   2.569   4.729   6.652 -0.8194  2.8130 -1.3738
 2437SOL    HW218945   2.530   4.704   6.509  0.3684  1.1377 -1.2872
 2438SOL     OW18946   4.362   1.154  16.352  0.2129 -0.3241 -0.3658
 2438SOL    HW118947   4.315   1.150  16.268 -1.6510  0.9023  0.6270
 2438SOL    HW218948   4.385   1.061  16.356 -0.2311 -0.4309 -0.3068
 2439SOL     OW18949   2.730   0.772   8.065  0.3580 -0.3551 -0.3745
 2439SOL    HW118950   2.805   0.776   8.006 -0.3992  1.8376 -1.1723
 2439SOL    HW218951   2.737   0.854   8.113  0.7586  0.0480 -1.1331
 2440SOL     OW18952   0.256   0.151   7.439 -0.6300 -0.3364 -0.3570
 2440SOL    HW118953   0.274   0.096   7.362  1.0348  0.5167 -0.5724
 2440SOL    HW218954   0.340   0.190   7.462 -1.3033  1.1259 -0.4037
 2441SOL     OW18955   0.943   1.541   2.218 -0.1977  0.7017 -0.3908
 2441SOL    HW118956   0.880   1.602   2.177  1.0505  2.3665  0.1635
 2441SOL    HW218957   0.922   1.457   2.178  2.6328 -0.3862  0.4227
 2442SOL     OW18958   0.203   1.668  16.653 -0.0460 -0.4844  0.2771
 2442SOL    HW118959   0.132   1.725  16.681 -0.4253 -0.1170 -1.4158
 2442SOL    HW218960   0.175   1.649  16.563 -3.3687 -2.1758  1.6765
 2443SOL     OW18961   0.824   3.181   4.280  0.5401 -0.2185  0.3479
 2443SOL    HW118962   0.784   3.121   4.342  2.5573  0.2078  2.0741
 2443SOL    HW218963   0.901   3.133   4.248  1.3047  1.1128  0.1756
 2444SOL     OW18964   3.043   3.153   3.503  0.2090 -0.5556 -0.9046
 2444SOL    HW118965   3.100   3.076   3.490 -0.4509 -1.7025  3.0294
 2444SOL    HW218966   2.970   3.118   3.553 -0.7354  1.8399 -0.6131
 2445SOL     OW18967   3.145   0.490   4.464 -0.1488  0.3333 -0.1130
 2445SOL    HW118968   3.224   0.476   4.517  0.3745  0.0666 -0.9624
 2445SOL    HW218969   3.177   0.538   4.388  0.3521  2.8778  1.6945
 2446SOL     OW18970   2.238   2.566  16.214  0.0761  0.0122 -0.3035
 2446SOL    HW118971   2.332   2.548  16.211  0.0389 -0.0905 -0.9191
 2446SOL    HW218972   2.237   2.610  16.299 -0.8443  0.1559 -0.3924
 2447SOL     OW18973   2.904   4.407   0.733  0.1882  0.6926 -0.4673
 2447SOL    HW118974   2.960   4.390   0.658  0.5550 -1.3489  0.2544
 2447SOL    HW218975   2.829   4.452   0.695 -0.5940  0.4355  0.7433
 2448SOL     OW18976   1.514   1.445   6.733  0.5168 -0.5085 -0.3590
 2448SOL    HW118977   1.465   1.435   6.651  0.0343  0.4666 -0.1874
 2448SOL    HW218978   1.472   1.382   6.792  1.6188 -0.6176  0.3079
 2449SOL     OW18979   0.804   3.447   4.611 -0.4587  0.0067 -0.1336
 2449SOL    HW118980   0.872   3.386   4.582 -0.9627 -0.3910 -0.4630
 2449SOL    HW218981   0.797   3.422   4.704  1.9873 -2.6575 -0.6837
 2450SOL     OW18982   3.286   3.236   8.285 -0.3979  0.5681 -0.4406
 2450SOL    HW118983   3.218   3.192   8.337  1.3413 -1.3841  0.1530
 2450SOL    HW218984   3.262   3.197   8.200  0.7391 -0.7041 -0.1736
 2451SOL     OW18985   3.856   1.849   4.064 -0.0145  0.1856  0.1201
 2451SOL    HW118986   3.798   1.773   4.064 -2.2837  1.9398  2.5528
 2451SOL    HW218987   3.868   1.858   4.158 -0.5054  0.9638  0.1085
 2452SOL     OW18988   1.476   1.850   6.442  0.3369 -0.1305 -0.0019
 2452SOL    HW118989   1.390   1.820   6.411  0.0441  1.5775 -0.8577
 2452SOL    HW218990   1.523   1.843   6.360 -0.8335  0.1674 -0.7009
 2453SOL     OW18991   4.525   1.154  10.989 -0.4366 -0.0409 -0.5283
 2453SOL    HW118992   4.485   1.159  11.076 -0.6183  2.1414 -0.7390
 2453SOL    HW218993   4.619   1.159  11.004 -0.6916 -1.1233  1.3670
 2454SOL     OW18994   4.626   4.416   7.708 -0.3737  0.3110 -0.2957
 2454SOL    HW118995   4.702   4.380   7.754 -0.2856 -0.1274 -0.7883
 2454SOL    HW218996   4.582   4.334   7.685 -0.4465  0.9525 -2.4303
 2455SOL     OW18997   3.934   0.022  17.467  0.4010 -0.0322  0.2778
 2455SOL    HW118998   3.998   4.720  17.528  0.8452  0.2951  0.0129
 2455SOL    HW218999   3.856   4.735  17.516  0.6322 -0.3436  0.5055
 2456SOL     OW19000   1.102   2.482   3.302 -0.7071 -0.3137  0.0779
 2456SOL    HW119001   1.094   2.525   3.216  0.5270  0.7889  0.5110
 2456SOL    HW219002   1.039   2.530   3.357 -0.7352  0.1073 -0.3234
 2457SOL     OW19003   0.529   2.979   6.888  0.1692  0.0541 -0.2085
 2457SOL    HW119004   0.578   2.984   6.970 -0.9319  0.4129  0.4332
 2457SOL    HW219005   0.507   2.886   6.897 -1.4392  0.3558 -0.9383
 2458SOL     OW19006   0.844   2.093  17.537  0.1520 -0.0095 -0.6567
 2458SOL    HW119007   0.829   2.162  17.602 -1.4940 -0.8608 -0.1359
 2458SOL    HW219008   0.930   2.123  17.508 -0.2854  1.3951 -0.5167
 2459SOL     OW19009   4.703   4.562   4.331 -0.0475 -0.2150  0.1846
 2459SOL    HW119010   4.719   4.571   4.237  2.1740 -0.0232  0.5903
 2459SOL    HW219011   0.054   4.575   4.369 -0.3010  1.2256  0.2975
 2460SOL     OW19012   1.858   0.402  15.880 -0.0591 -0.4469 -0.1560
 2460SOL    HW119013   1.802   0.399  15.803 -1.6730 -2.5722  1.1073
 2460SOL    HW219014   1.788   0.391  15.944 -0.4581 -1.0570 -0.7082
 2461SOL     OW19015   3.166   0.745   1.153  0.0334 -0.4062  0.3043
 2461SOL    HW119016   3.185   0.660   1.194 -1.4467 -1.4307 -1.1452
 2461SOL    HW219017   3.090   0.727   1.098 -0.1926 -2.0962  1.1470
 2462SOL     OW19018   4.205   2.756   4.790 -0.1191 -0.5149 -0.1823
 2462SOL    HW119019   4.249   2.841   4.790 -2.6431  0.7897  0.9279
 2462SOL    HW219020   4.268   2.698   4.746  0.4985  1.1021 -1.4231
 2463SOL     OW19021   2.044   3.439   5.393  0.2058 -0.0510 -0.4337
 2463SOL    HW119022   2.104   3.468   5.463  0.5062 -4.1623  1.0221
 2463SOL    HW219023   1.957   3.462   5.425  0.0741 -0.1359 -0.7306
 2464SOL     OW19024   0.087   1.652   8.497  0.1849 -0.1436 -0.1777
 2464SOL    HW119025   0.154   1.673   8.432  1.8660 -2.4923  0.8013
 2464SOL    HW219026   0.138   1.596   8.555  2.0086  0.7573 -0.9134
 2465SOL     OW19027   0.241   3.187   9.376  0.6011  0.8658  0.1874
 2465SOL    HW119028   0.220   3.094   9.383  0.3054  1.0616  1.7683
 2465SOL    HW219029   0.232   3.196   9.281  0.2260  0.4220  0.1772
 2466SOL     OW19030   1.366   1.017   5.550 -0.2041  0.3393 -0.1557
 2466SOL    HW119031   1.310   1.094   5.542 -0.4706  0.2452  0.7902
 2466SOL    HW219032   1.332   0.964   5.477  0.4171 -0.8515  0.4281
 2467SOL     OW19033   2.341   0.508   4.512 -0.1642  0.0356  0.1235
 2467SOL    HW119034   2.267   0.569   4.514 -0.1435  0.1147 -1.1625
 2467SOL    HW219035   2.402   0.541   4.578 -0.8199 -1.4317  1.4419
 2468SOL     OW19036   4.517   4.462   2.717  0.4703  0.4249  0.2133
 2468SOL    HW119037   4.541   4.551   2.693 -3.1798  1.3000 -0.1498
 2468SOL    HW219038   4.564   4.415   2.647  0.8996  1.0017  0.1133
 2469SOL     OW19039   1.977   3.645   9.064  0.7849 -0.1176 -0.1826
 2469SOL    HW119040   1.920   3.576   9.097  0.3202 -0.2503 -1.2854
 2469SOL    HW219041   2.030   3.666   9.141  2.0231  2.1778 -1.6710
 2470SOL     OW19042   0.022   4.275  11.911  0.6371 -0.1839 -0.0059
 2470SOL    HW119043   0.103   4.232  11.936  0.5942  0.0985  0.6276
 2470SOL    HW219044   0.032   4.298  11.819  1.5740 -0.4354  0.0318
 2471SOL     OW19045   3.809   4.598   2.788  0.6804  0.3829 -0.3400
 2471SOL    HW119046   3.715   4.580   2.776  0.3139  2.3327 -0.3787
 2471SOL    HW219047   3.844   4.578   2.701  0.3221 -1.3235 -0.0936
 2472SOL     OW19048   2.768   2.840   2.616  0.3101 -0.7218  0.6162
 2472SOL    HW119049   2.679   2.874   2.628  0.2260 -0.5200 -0.6787
 2472SOL    HW219050   2.775   2.828   2.522 -1.0800 -1.0094  0.5456
 2473SOL     OW19051   2.615   4.259  12.847  0.0717  0.3820 -0.5680
 2473SOL    HW119052   2.632   4.165  12.842  0.8323  0.3509  2.6426
 2473SOL    HW219053   2.676   4.286  12.915 -1.6069  0.8904  0.7503
 2474SOL     OW19054   2.555   0.327   7.117 -0.0993 -0.1556 -0.5205
 2474SOL    HW119055   2.511   0.406   7.086  1.0255  1.3441  1.6753
 2474SOL    HW219056   2.589   0.361   7.200 -0.6195 -0.4630 -0.1824
 2475SOL     OW19057   3.334   3.803   4.029  0.4307  0.0958  0.5374
 2475SOL    HW119058   3.332   3.755   3.947 -2.0241 -3.8202  2.9109
 2475SOL    HW219059   3.385   3.881   4.006  0.9637 -0.8125 -1.2900
 2476SOL     OW19060   3.698   0.412  12.007 -0.1729 -0.0782  0.5781
 2476SOL    HW119061   3.667   0.461  12.083 -2.5699  0.5395 -0.8231
 2476SOL    HW219062   3.656   0.468  11.942  0.4599 -2.8705 -2.2158
 2477SOL     OW19063   3.918   4.407   0.370  0.5848 -0.7487  0.0100
 2477SOL    HW119064   3.945   4.350   0.298 -0.9366 -0.7477 -0.5565
 2477SOL    HW219065   3.896   4.346   0.440  0.6884 -0.0772  0.6339
 2478SOL     OW19066   1.376   2.394   1.994 -1.0451 -0.5444  0.1473
 2478SOL    HW119067   1.307   2.441   1.946 -1.1380  0.4877  1.2776
 2478SOL    HW219068   1.395   2.324   1.933  0.2810  0.8966 -1.0762
 2479SOL     OW19069   2.845   2.777  13.164 -1.0180  0.2955  0.6953
 2479SOL    HW119070   2.928   2.761  13.118 -1.3058  2.5036 -0.6046
 2479SOL    HW219071   2.861   2.860  13.208 -0.1241 -0.6931  2.2447
 2480SOL     OW19072   4.190   1.488  12.391 -0.9609  0.2787  0.7110
 2480SOL    HW119073   4.269   1.498  12.337  0.0406 -1.4078  1.9005
 2480SOL    HW219074   4.202   1.408  12.442  0.3255  0.3979  0.6001
 2481SOL     OW19075   3.918   1.803   3.526 -0.6844 -0.3567  0.0291
 2481SOL    HW119076   3.865   1.758   3.592 -1.9125  0.9623 -0.0576
 2481SOL    HW219077   3.897   1.746   3.452  0.8891 -0.5921 -0.2301
 2482SOL     OW19078   2.216   2.325   7.388 -0.9511 -0.1426 -0.6245
 2482SOL    HW119079   2.271   2.403   7.382 -0.5880 -0.2792  0.8436
 2482SOL    HW219080   2.272   2.259   7.431  0.8642  1.6911 -0.1975
 2483SOL     OW19081   0.331   1.691  13.244  0.3210 -0.1539  0.6652
 2483SOL    HW119082   0.297   1.688  13.334  0.5617 -1.0297  0.7261
 2483SOL    HW219083   0.339   1.787  13.239 -0.1686 -0.1842 -0.7273
 2484SOL     OW19084   2.934   3.667  13.893 -0.3630  0.3685  0.3116
 2484SOL    HW119085   3.014   3.676  13.841 -1.1661 -0.2335 -1.0296
 2484SOL    HW219086   2.963   3.703  13.977  0.1163  0.6810  0.0106
 2485SOL     OW19087   0.554   1.222   6.515 -0.0964  0.3215 -0.0236
 2485SOL    HW119088   0.478   1.273   6.542 -0.5122 -0.0207 -0.5657
 2485SOL    HW219089   0.549   1.231   6.420 -0.0396  0.4822 -0.0119
 2486SOL     OW19090   4.110   3.552  12.202  0.3467 -0.0724 -0.5857
 2486SOL    HW119091   4.152   3.637  12.188 -1.4263  0.6901 -1.2220
 2486SOL    HW219092   4.183   3.500  12.236  0.4465 -0.0633 -0.7880
 2487SOL     OW19093   2.158   1.075  12.507 -0.5322  0.3045 -0.1321
 2487SOL    HW119094   2.200   1.055  12.590 -0.2228 -0.7783 -0.5535
 2487SOL    HW219095   2.163   1.171  12.512  0.1437  0.1705  1.7045
 2488SOL     OW19096   4.038   3.866   0.314  0.4727  0.0411  0.1652
 2488SOL    HW119097   4.052   3.828   0.401 -0.3757  0.3403  0.4216
 2488SOL    HW219098   3.949   3.851   0.283  0.1106  2.2759  0.1905
 2489SOL     OW19099   3.876   3.458   8.330  0.5204 -0.3074 -0.0099
 2489SOL    HW119100   3.837   3.545   8.323  1.7808  0.1951 -0.6899
 2489SOL    HW219101   3.801   3.398   8.330 -0.1184  0.4748 -1.4793
 2490SOL     OW19102   3.666   2.778   4.123  0.0055 -0.1219 -0.3106
 2490SOL    HW119103   3.604   2.769   4.050  1.4854  2.2637 -1.8428
 2490SOL    HW219104   3.744   2.772   4.068  0.8475  1.7427  0.6661
 2491SOL     OW19105   1.739   2.521   4.013 -0.3071 -0.4167  0.0407
 2491SOL    HW119106   1.648   2.538   3.987 -1.2918 -1.6505  2.7109
 2491SOL    HW219107   1.756   2.598   4.067 -0.4738 -0.1608 -0.2700
 2492SOL     OW19108   3.158   0.819   4.119 -0.2651  0.1498  0.4415
 2492SOL    HW119109   3.094   0.789   4.055  0.6291 -0.1598 -0.3131
 2492SOL    HW219110   3.235   0.849   4.070  0.4954 -0.4906  1.2464
 2493SOL     OW19111   4.046   1.474   8.067 -0.6048  0.8553 -0.7579
 2493SOL    HW119112   4.022   1.385   8.092  1.0035  0.5290 -0.3419
 2493SOL    HW219113   3.960   1.507   8.041  0.8408  2.8307 -2.9915
 2494SOL     OW19114   0.963   1.017   6.908 -0.1510 -0.0708 -0.3830
 2494SOL    HW119115   0.874   1.052   6.917  0.3040  0.6585  1.2997
 2494SOL    HW219116   0.931   0.970   6.831  1.3880 -0.3255 -0.8613
 2495SOL     OW19117   1.080   2.926   4.834 -0.2620 -0.4719  0.3560
 2495SOL    HW119118   1.114   3.014   4.817 -0.1241 -1.0186 -2.1784
 2495SOL    HW219119   1.097   2.883   4.751 -1.3777 -1.1132  0.4749
 2496SOL     OW19120   2.377   1.591   8.900 -0.0063 -0.5268  0.7695
 2496SOL    HW119121   2.316   1.607   8.972  0.7064 -0.8935  1.4534
 2496SOL    HW219122   2.404   1.682   8.890 -0.3435 -0.4142  0.8937
 2497SOL     OW19123   4.120   4.307   0.211  0.1152  0.0915 -0.4463
 2497SOL    HW119124   4.193   4.314   0.149  1.4777 -0.0258  1.1581
 2497SOL    HW219125   4.160   4.244   0.271 -0.5397 -1.8371 -2.0284
 2498SOL     OW19126   0.387   4.413   7.599 -0.4284 -0.1187 -0.1146
 2498SOL    HW119127   0.467   4.434   7.552  0.2039 -2.4669 -0.0567
 2498SOL    HW219128   0.410   4.338   7.654  2.3122 -1.9691 -3.8071
 2499SOL     OW19129   2.691   2.163   6.008  0.2219 -0.2064  0.0228
 2499SOL    HW119130   2.615   2.114   6.040 -1.0974  1.1229 -1.1209
 2499SOL    HW219131   2.640   2.237   5.974 -0.9153 -0.8199  0.3980
 2500SOL     OW19132   0.140   3.777  13.826  0.0078  0.1504 -0.0599
 2500SOL    HW119133   0.151   3.770  13.731  2.6091  1.4068  0.1360
 2500SOL    HW219134   0.048   3.751  13.834  0.1602 -0.0005  1.0742
 2501SOL     OW19135   2.648   4.695   5.703 -0.4630 -0.0732  0.3910
 2501SOL    HW119136   2.656   0.011   5.623  1.8247 -1.6451 -0.3746
 2501SOL    HW219137   2.559   4.661   5.694 -0.2009 -0.2516 -1.5339
 2502SOL     OW19138   3.238   1.635   4.234  0.4520  0.0139  0.6951
 2502SOL    HW119139   3.278   1.575   4.171 -0.0270  0.0656  0.3424
 2502SOL    HW219140   3.306   1.702   4.231  1.2740 -0.8179  0.7552
 2503SOL     OW19141   4.253   1.546   2.087 -0.4177  0.6040 -0.1531
 2503SOL    HW119142   4.198   1.496   2.027  1.0645  0.3929 -1.3219
 2503SOL    HW219143   4.247   1.509   2.176  0.3351 -0.4908 -0.5568
 2504SOL     OW19144   2.260   3.633   1.412 -0.4918  0.3287 -0.2557
 2504SOL    HW119145   2.337   3.644   1.356 -0.4677 -0.5568 -0.4012
 2504SOL    HW219146   2.221   3.720   1.421 -0.3505  0.1842  1.5826
 2505SOL     OW19147   1.433   3.881   1.388 -0.8579 -0.1366  0.1858
 2505SOL    HW119148   1.453   3.810   1.327 -0.7367 -1.8927  2.2563
 2505SOL    HW219149   1.523   3.894   1.416 -0.6792  1.9945 -1.3520
 2506SOL     OW19150   3.434   0.326  14.740 -0.6400 -0.0651 -0.1081
 2506SOL    HW119151   3.527   0.340  14.720 -0.5510 -0.5723 -0.0381
 2506SOL    HW219152   3.394   0.318  14.654 -2.1002 -0.5914  0.6139
 2507SOL     OW19153   0.698   4.123   6.496  0.7338 -0.4405 -0.4891
 2507SOL    HW119154   0.732   4.212   6.484 -1.6012  0.7858  1.9032
 2507SOL    HW219155   0.697   4.118   6.591 -1.5069  1.8268 -0.3849
 2508SOL     OW19156   4.351   2.836   1.686 -0.3805 -0.3135 -0.6791
 2508SOL    HW119157   4.352   2.743   1.665 -0.0338  0.0344 -2.1608
 2508SOL    HW219158   4.424   2.847   1.746 -1.0883 -0.3520  0.1897
 2509SOL     OW19159   1.480   2.739  12.392  0.0747  0.3920 -0.9266
 2509SOL    HW119160   1.391   2.742  12.427 -0.2807  1.7728 -1.9666
 2509SOL    HW219161   1.517   2.791  12.462 -0.1097 -1.1483  0.3129
 2510SOL     OW19162   0.744   1.929  15.980  0.1177 -0.0458  0.5474
 2510SOL    HW119163   0.739   1.838  16.010 -0.5834 -0.6673 -1.4643
 2510SOL    HW219164   0.734   1.916  15.886  2.1142  1.2899  0.1493
 2511SOL     OW19165   3.874   2.415  11.121  0.2520  0.7620 -0.2573
 2511SOL    HW119166   3.904   2.502  11.094  0.5523  0.6931 -0.1422
 2511SOL    HW219167   3.936   2.399  11.192 -1.9496 -0.5791  1.3785
 2512SOL     OW19168   1.785   0.851   8.955 -0.1853 -0.3607  0.3145
 2512SOL    HW119169   1.868   0.836   8.909  0.4540 -0.1209  1.3629
 2512SOL    HW219170   1.746   0.764   8.958 -1.1496  0.0899  0.7405
 2513SOL     OW19171   3.582   1.530   3.805 -0.1304 -0.1561  0.8305
 2513SOL    HW119172   3.568   1.435   3.816  0.1840 -0.4380 -1.1862
 2513SOL    HW219173   3.555   1.552   3.715  1.1220 -0.6263  0.3381
 2514SOL     OW19174   3.336   2.819   1.189 -0.2770  0.4570 -0.1370
 2514SOL    HW119175   3.362   2.892   1.244 -0.4545 -0.3803  1.0651
 2514SOL    HW219176   3.380   2.751   1.240  0.9292  1.4523  0.1554
 2515SOL     OW19177   3.492   2.369  17.736  0.1560  0.1605 -0.8701
 2515SOL    HW119178   3.442   2.318   0.059 -0.2541  0.1999 -1.1638
 2515SOL    HW219179   3.440   2.448  17.722  1.5696  1.4557  1.1194
 2516SOL     OW19180   3.058   0.242   2.725 -0.0809  0.2616 -0.3850
 2516SOL    HW119181   3.076   0.161   2.773  0.2914 -0.3916 -1.6424
 2516SOL    HW219182   2.967   0.215   2.712  0.2047 -0.1289 -1.5945
 2517SOL     OW19183   0.459   2.909   6.607  0.0328 -0.2205  0.6281
 2517SOL    HW119184   0.483   2.918   6.699 -0.2605 -1.9409  0.8574
 2517SOL    HW219185   0.497   2.824   6.588  1.2717  0.3966  0.3469
 2518SOL     OW19186   2.316   3.474  15.578 -0.5783  0.1462  0.4174
 2518SOL    HW119187   2.264   3.405  15.617 -3.4859  1.7339 -0.6404
 2518SOL    HW219188   2.286   3.462  15.488 -2.0226 -0.4971  0.9914
 2519SOL     OW19189   3.197   4.717  14.941 -0.1088 -0.1514 -0.1126
 2519SOL    HW119190   3.246   4.678  15.013 -0.5333 -0.8229 -0.1873
 2519SOL    HW219191   3.216   0.075  14.953 -1.0881  0.0706 -0.3505
 2520SOL     OW19192   0.084   2.100  17.298  0.1399 -0.0681 -0.5123
 2520SOL    HW119193   0.138   2.179  17.303  0.1197 -0.0771 -0.1331
 2520SOL    HW219194   0.051   2.106  17.388 -0.7828 -3.0394 -0.6698
 2521SOL     OW19195   3.043   4.223  14.869  0.4450  0.1026 -0.1731
 2521SOL    HW119196   2.989   4.301  14.874  1.1805  0.5682  0.3847
 2521SOL    HW219197   2.976   4.158  14.891  0.3438  0.2057 -0.1785
 2522SOL     OW19198   2.457   3.856   5.366 -0.1041  0.4282  0.8022
 2522SOL    HW119199   2.370   3.817   5.368 -0.8088  1.9651  0.1059
 2522SOL    HW219200   2.492   3.836   5.453  1.4213  0.1614  0.1239
 2523SOL     OW19201   2.286   2.499   5.706 -0.1065 -0.1338 -0.0451
 2523SOL    HW119202   2.283   2.422   5.650 -0.0347  0.2741 -0.6114
 2523SOL    HW219203   2.196   2.495   5.739  0.5003 -1.4086  1.4571
 2524SOL     OW19204   2.577   2.727   7.944  0.3208  0.2346  0.2415
 2524SOL    HW119205   2.614   2.780   8.015  0.0313  0.1598  0.4476
 2524SOL    HW219206   2.651   2.670   7.927 -0.2151 -0.7120  1.0852
 2525SOL     OW19207   0.993   1.936  15.005 -0.0177  0.5244  0.5007
 2525SOL    HW119208   1.070   1.880  15.007 -0.9871 -0.7504  2.3872
 2525SOL    HW219209   1.007   1.972  14.918 -2.6997 -1.8234 -0.8895
 2526SOL     OW19210   0.182   4.576   8.652  0.2287 -0.5160 -0.1774
 2526SOL    HW119211   0.229   4.496   8.630 -0.6208 -0.8425 -0.7947
 2526SOL    HW219212   0.101   4.541   8.690 -1.3489  1.8511 -1.3778
 2527SOL     OW19213   3.359   2.342  12.867 -0.1057 -0.1258  0.3624
 2527SOL    HW119214   3.301   2.293  12.809 -1.9545  1.1901  1.1028
 2527SOL    HW219215   3.436   2.353  12.812  0.5092 -1.2418  0.9997
 2528SOL     OW19216   3.714   1.466   1.552 -0.4620 -0.0162  0.2657
 2528SOL    HW119217   3.640   1.482   1.493 -0.5938  1.1065  0.7380
 2528SOL    HW219218   3.703   1.547   1.602 -0.5467  0.4188 -0.4579
 2529SOL     OW19219   2.032   3.867   4.664  0.1603  0.0644 -0.1579
 2529SOL    HW119220   1.966   3.863   4.733 -1.5037  1.1825 -1.7006
 2529SOL    HW219221   2.021   3.951   4.621  1.2936  0.7872  0.9395
 2530SOL     OW19222   1.349   2.692   5.326 -0.2949 -0.0580  0.3781
 2530SOL    HW119223   1.273   2.680   5.383  1.0758 -1.0981  1.9727
 2530SOL    HW219224   1.404   2.752   5.375 -1.3133 -1.0378  2.7587
 2531SOL     OW19225   0.574   0.039   4.487  0.1209 -0.4534  0.3312
 2531SOL    HW119226   0.597   4.694   4.535  1.2492 -0.8603 -0.8687
 2531SOL    HW219227   0.479   0.039   4.477  0.1910  0.2177 -0.3043
 2532SOL     OW19228   2.739   0.843   5.008 -0.8627  0.1543  0.6758
 2532SOL    HW119229   2.665   0.804   4.961  0.0135 -0.5143 -0.1478
 2532SOL    HW219230   2.753   0.930   4.973  0.3791  0.5446  2.1387
 2533SOL     OW19231   2.483   4.394   6.468 -0.4315 -0.9789 -0.0332
 2533SOL    HW119232   2.532   4.386   6.550  2.0477 -0.0040 -1.4453
 2533SOL    HW219233   2.422   4.466   6.485  3.1823  1.7828  1.1972
 2534SOL     OW19234   1.581   0.674  13.357 -0.0098  0.2090 -0.3739
 2534SOL    HW119235   1.574   0.604  13.292  0.2948  0.2195 -0.4181
 2534SOL    HW219236   1.672   0.701  13.345  0.6950 -1.2913  1.5814
 2535SOL     OW19237   0.422   2.842   6.182  0.1935  0.4888  0.1124
 2535SOL    HW119238   0.326   2.845   6.185  0.3612  2.8932  2.7769
 2535SOL    HW219239   0.442   2.825   6.090  2.5544 -0.8558  0.8811
 2536SOL     OW19240   1.770   1.022   0.166  0.0343  0.2526 -0.2567
 2536SOL    HW119241   1.835   1.040   0.098 -0.9990  0.8610 -1.0668
 2536SOL    HW219242   1.739   0.944   0.121  0.0567 -0.2649  0.6070
 2537SOL     OW19243   3.295   3.196  11.830  0.3794 -0.1799 -0.1826
 2537SOL    HW119244   3.345   3.217  11.909 -1.3668  1.5619  0.4630
 2537SOL    HW219245   3.231   3.132  11.860  1.9675 -1.8861 -0.4503
 2538SOL     OW19246   3.347   2.223   6.644 -0.1766 -0.2854 -0.1718
 2538SOL    HW119247   3.439   2.201   6.661 -0.4410 -1.0191  0.2774
 2538SOL    HW219248   3.324   2.169   6.568 -1.4021 -0.4286  0.3074
 2539SOL     OW19249   3.309   1.411  15.832 -0.3922  0.1786 -0.2629
 2539SOL    HW119250   3.346   1.486  15.787  0.4922 -0.9290 -1.3722
 2539SOL    HW219251   3.310   1.426  15.927  2.0450 -2.6408  0.1514
 2540SOL     OW19252   0.462   1.683  11.325  0.4364  0.1639 -0.2649
 2540SOL    HW119253   0.381   1.671  11.374  0.4861  0.1628 -0.1839
 2540SOL    HW219254   0.513   1.737  11.385 -0.1857 -0.4517  0.8058
 2541SOL     OW19255   3.661   1.525  15.932  0.3577 -0.7282 -0.2905
 2541SOL    HW119256   3.569   1.501  15.944  0.5838 -0.9381  0.9912
 2541SOL    HW219257   3.649   1.588  15.861  1.6312 -0.9506 -0.6975
 2542SOL     OW19258   4.136   0.476   2.425  0.2479 -0.0435  0.0403
 2542SOL    HW119259   4.225   0.478   2.391 -0.1624  0.9758 -1.0021
 2542SOL    HW219260   4.094   0.512   2.347  0.1329  2.0516  1.0648
 2543SOL     OW19261   4.562   0.022   3.562  0.3120 -0.1349 -0.3812
 2543SOL    HW119262   4.481   0.068   3.538 -0.3041 -0.8555  0.2985
 2543SOL    HW219263   4.624   0.080   3.518 -0.0080  0.6577  0.2029
 2544SOL     OW19264   3.508   2.748   9.212  0.6317  0.1014  0.2694
 2544SOL    HW119265   3.554   2.711   9.137 -1.8534 -2.4373 -0.0107
 2544SOL    HW219266   3.427   2.699   9.201  0.4262  0.6438 -0.6503
 2545SOL     OW19267   0.164   0.014  13.521  0.5397 -0.0527  0.0146
 2545SOL    HW119268   0.243   4.700  13.495  0.3169  0.4992 -1.6918
 2545SOL    HW219269   0.123   4.683  13.577 -0.4048  1.2482  0.8449
 2546SOL     OW19270   3.085   1.476   7.060 -0.0425  0.6192  0.1141
 2546SOL    HW119271   3.093   1.439   6.972  0.2343  1.8870 -0.3885
 2546SOL    HW219272   3.021   1.426   7.111 -0.7134 -0.6894 -1.9876
 2547SOL     OW19273   2.426   1.980   6.514 -0.7048  0.2840 -0.4764
 2547SOL    HW119274   2.494   1.943   6.569 -0.0424 -0.4350 -1.7706
 2547SOL    HW219275   2.364   2.030   6.567 -1.2255 -0.7164 -0.1369
 2548SOL     OW19276   4.493   1.895   2.767  0.6828 -0.7132  0.4551
 2548SOL    HW119277   4.569   1.914   2.823  0.1975  0.0649  0.8388
 2548SOL    HW219278   4.444   1.977   2.763 -1.2880 -1.9653 -0.7001
 2549SOL     OW19279   2.926   3.100  17.525 -0.3266 -0.0263 -0.1925
 2549SOL    HW119280   2.831   3.092  17.540 -0.0745 -1.1401  0.8275
 2549SOL    HW219281   2.932   3.156  17.448 -0.8010 -0.8263 -0.8147
 2550SOL     OW19282   0.131   4.087   0.146 -0.6100 -0.0143  0.3269
 2550SOL    HW119283   0.182   4.164   0.121 -2.1801  1.4310  1.5642
 2550SOL    HW219284   0.052   4.119   0.190  1.1144  3.4582  0.8831
 2551SOL     OW19285   3.704   0.681  15.474  0.5120 -0.5976 -0.3827
 2551SOL    HW119286   3.653   0.676  15.393  1.6496 -0.5562 -1.1066
 2551SOL    HW219287   3.678   0.607  15.528  0.6822 -0.2800  0.1369
 2552SOL     OW19288   4.224   0.279   3.120 -0.5813 -0.1310  0.0091
 2552SOL    HW119289   4.236   0.195   3.163 -0.7380  0.3606  1.0231
 2552SOL    HW219290   4.140   0.306   3.156  0.0499  2.2091 -0.2592
 2553SOL     OW19291   3.390   3.467   5.930 -0.0717 -0.4313  0.2164
 2553SOL    HW119292   3.477   3.427   5.923 -0.4172 -0.8624 -1.6470
 2553SOL    HW219293   3.352   3.429   5.851  0.3197  1.8493 -1.0374
 2554SOL     OW19294   0.448   0.853   8.012 -0.1929 -0.5230 -0.2568
 2554SOL    HW119295   0.508   0.890   7.947 -2.3887  0.0444 -1.9602
 2554SOL    HW219296   0.396   0.932   8.031 -1.8958 -1.9773  1.0641
 2555SOL     OW19297   0.118   0.112   5.855 -0.0508  0.4313  0.2084
 2555SOL    HW119298   0.076   0.131   5.939  0.1055  2.5917 -0.2212
 2555SOL    HW219299   0.077   0.027   5.835  1.4883 -0.3409  0.3367
 2556SOL     OW19300   0.123   0.436   3.398  0.2573  0.5348 -0.5315
 2556SOL    HW119301   0.124   0.396   3.311 -0.8170 -0.0916 -0.2572
 2556SOL    HW219302   0.217   0.442   3.414 -0.4814  1.5722  3.3600
 2557SOL     OW19303   3.755   3.940   1.282  0.3983 -0.0723  0.0243
 2557SOL    HW119304   3.671   3.984   1.266  0.6470 -0.2824 -1.7944
 2557SOL    HW219305   3.807   4.008   1.239  1.1396 -0.6062  0.0925
 2558SOL     OW19306   2.349   4.145   2.999  0.5249  0.7567  0.4656
 2558SOL    HW119307   2.345   4.213   3.066  2.0051  1.6073 -0.3094
 2558SOL    HW219308   2.309   4.076   3.053  0.2202  0.1170 -0.5744
 2559SOL     OW19309   2.772   2.391   7.242 -0.3522  0.2261 -0.2943
 2559SOL    HW119310   2.822   2.367   7.319 -1.4615 -1.1706  0.0018
 2559SOL    HW219311   2.709   2.444   7.290 -1.3174 -0.7101 -0.5185
 2560SOL     OW19312   2.779   1.005  11.814 -0.5390  0.3837 -0.2546
 2560SOL    HW119313   2.772   1.022  11.908  1.8545 -0.8147  0.1462
 2560SOL    HW219314   2.693   1.033  11.781 -0.6750  2.1684  1.5899
 2561SOL     OW19315   0.337   0.834   8.266  0.6400 -0.0865  0.3058
 2561SOL    HW119316   0.348   0.829   8.171 -1.3374  2.5774 -0.0805
 2561SOL    HW219317   0.422   0.867   8.293  0.4768 -0.2620  1.0251
 2562SOL     OW19318   1.016   2.789   7.493 -0.2555  0.6250  0.1046
 2562SOL    HW119319   1.072   2.823   7.563 -1.9796  0.9410  1.3219
 2562SOL    HW219320   0.941   2.844   7.515  1.5912  2.2838  2.2371
 2563SOL     OW19321   1.480   1.902   4.124 -0.8817 -0.2375 -0.2087
 2563SOL    HW119322   1.420   1.828   4.118 -1.1056 -0.1306  0.6919
 2563SOL    HW219323   1.514   1.900   4.214  1.5247 -1.0308 -1.1293
 2564SOL     OW19324   2.035   4.367   3.265 -0.0501  0.0298 -0.2140
 2564SOL    HW119325   2.012   4.278   3.292  0.4209  0.4566  1.5850
 2564SOL    HW219326   2.120   4.355   3.223 -0.0443 -0.2070 -0.1367
 2565SOL     OW19327   4.610   4.172  16.332 -0.4653 -0.1788 -0.5036
 2565SOL    HW119328   4.531   4.225  16.320 -1.0364 -0.4161  2.1979
 2565SOL    HW219329   4.604   4.113  16.257  1.4573 -1.5016  0.3818
 2566SOL     OW19330   2.057   1.352   8.270 -0.3753  0.2863 -0.0585
 2566SOL    HW119331   1.984   1.358   8.331 -1.0640  0.9578 -0.9428
 2566SOL    HW219332   2.027   1.305   8.192  1.7671  2.2415 -2.0779
 2567SOL     OW19333   1.369   2.002   5.082 -0.3079 -0.1899  0.7528
 2567SOL    HW119334   1.452   1.960   5.060 -1.0940 -0.4771 -1.7494
 2567SOL    HW219335   1.399   2.092   5.093 -0.3079 -0.1455  0.3987
 2568SOL     OW19336   4.536   1.473  16.855  0.2161 -0.1608 -0.1109
 2568SOL    HW119337   4.446   1.464  16.887  0.6620 -0.8071  0.9585
 2568SOL    HW219338   4.530   1.386  16.817 -0.7928 -0.0289 -0.2626
 2569SOL     OW19339   1.771   1.476   2.412  0.1674  0.0894  0.3673
 2569SOL    HW119340   1.812   1.557   2.381  2.3463 -0.8387  0.8346
 2569SOL    HW219341   1.694   1.502   2.464  2.2279  1.0953  2.8984
 2570SOL     OW19342   4.541   0.502   8.682 -0.5884 -0.9688 -0.3270
 2570SOL    HW119343   4.579   0.578   8.638 -2.1185  1.3634  2.3018
 2570SOL    HW219344   4.598   0.508   8.759  0.1000 -1.3835 -0.8101
 2571SOL     OW19345   3.601   1.103   0.453 -0.4485 -0.2351  0.0468
 2571SOL    HW119346   3.526   1.079   0.507 -1.3503 -0.2216 -1.2071
 2571SOL    HW219347   3.556   1.151   0.384 -0.5737 -2.3938 -1.3888
 2572SOL     OW19348   3.498   2.767   3.913  0.5866  0.2807 -0.2795
 2572SOL    HW119349   3.446   2.847   3.920  0.3575  0.0996  0.0594
 2572SOL    HW219350   3.425   2.711   3.888 -0.0957  0.5151  1.2181
 2573SOL     OW19351   2.573   4.575   4.957  0.3499  0.1156 -0.2307
 2573SOL    HW119352   2.652   4.598   5.006  0.2554  0.5869 -0.2985
 2573SOL    HW219353   2.587   4.612   4.869 -0.3011  1.8499  0.3875
 2574SOL     OW19354   0.675   1.604   1.187  0.4498  0.1467  0.4165
 2574SOL    HW119355   0.613   1.605   1.260  0.0404  1.2616  0.0517
 2574SOL    HW219356   0.747   1.552   1.222 -0.3202 -0.9190  0.4189
 2575SOL     OW19357   0.768   0.607   1.644 -0.8379 -0.0468  0.3712
 2575SOL    HW119358   0.710   0.565   1.580 -0.2864  0.7900 -0.6697
 2575SOL    HW219359   0.703   0.627   1.712 -1.8004 -0.9956 -0.2620
 2576SOL     OW19360   1.327   0.809   5.746 -0.2429  0.8002 -0.5636
 2576SOL    HW119361   1.356   0.889   5.702 -0.9906  0.5696 -1.4736
 2576SOL    HW219362   1.313   0.833   5.837 -2.5872 -0.8967 -0.4518
 2577SOL     OW19363   1.633   3.167   8.211  0.0859  0.2501  0.1015
 2577SOL    HW119364   1.545   3.156   8.248  1.5193 -0.8583  3.1717
 2577SOL    HW219365   1.667   3.079   8.200  1.2760  0.6704  0.4166
 2578SOL     OW19366   1.382   3.238   3.138 -0.4105 -0.1029  0.1145
 2578SOL    HW119367   1.422   3.165   3.091 -0.5329 -0.8026  1.0960
 2578SOL    HW219368   1.386   3.307   3.071 -0.2155 -1.2462 -1.0376
 2579SOL     OW19369   4.685   3.659   3.804  0.1621 -0.6247 -0.2448
 2579SOL    HW119370   4.644   3.575   3.823 -1.4187  0.0839 -0.5782
 2579SOL    HW219371   4.670   3.708   3.885  1.9215 -1.4113  0.5628
 2580SOL     OW19372   2.699   4.602   4.724 -0.4512 -0.0485 -0.1007
 2580SOL    HW119373   2.772   4.540   4.724 -0.2517  0.1866  0.1786
 2580SOL    HW219374   2.638   4.556   4.666 -0.3955 -0.2067 -0.0338
 2581SOL     OW19375   1.387   2.984  13.574  0.8932  0.5252  0.3355
 2581SOL    HW119376   1.342   2.988  13.659 -3.9324 -1.2837 -2.1243
 2581SOL    HW219377   1.472   2.952  13.604  1.2767 -1.2085 -2.5769
 2582SOL     OW19378   1.116   1.535   4.482  0.0057  0.6011 -0.1879
 2582SOL    HW119379   1.062   1.574   4.413 -0.6637 -1.2844 -0.7424
 2582SOL    HW219380   1.073   1.451   4.497  0.5672  0.6748  1.8727
 2583SOL     OW19381   0.245   1.909  15.914 -0.6335  0.4284 -0.3233
 2583SOL    HW119382   0.292   1.836  15.954  1.8130  1.4908 -1.2441
 2583SOL    HW219383   0.178   1.919  15.982  1.0004  1.3160  1.1874
 2584SOL     OW19384   3.247   3.419   5.688 -0.1691  0.4909  0.0683
 2584SOL    HW119385   3.211   3.336   5.656  0.5986 -0.1361  0.8226
 2584SOL    HW219386   3.167   3.466   5.709 -1.0074 -0.8745 -0.0788
 2585SOL     OW19387   2.805   4.642   5.118 -0.5174 -0.0691 -0.0429
 2585SOL    HW119388   2.891   4.655   5.078 -1.1238  1.8532 -0.7226
 2585SOL    HW219389   2.785   4.731   5.145  2.5219  0.4176  0.5793
 2586SOL     OW19390   1.483   3.633  16.815 -0.2519  0.8067 -0.0152
 2586SOL    HW119391   1.468   3.727  16.824  0.0201  0.8246  0.2628
 2586SOL    HW219392   1.437   3.613  16.734  0.9204 -2.2520  0.0662
 2587SOL     OW19393   1.889   0.605   7.363  0.3140 -0.4915 -0.5375
 2587SOL    HW119394   1.970   0.625   7.409  0.2012 -0.7017 -0.2446
 2587SOL    HW219395   1.878   0.682   7.307  2.2464 -0.9480 -1.5576
 2588SOL     OW19396   1.247   2.159   2.127  0.2895 -0.7694  0.6036
 2588SOL    HW119397   1.327   2.161   2.179 -0.0502 -1.7747  1.1779
 2588SOL    HW219398   1.272   2.222   2.060 -2.9500  0.3924  0.4738
 2589SOL     OW19399   2.390   1.461   7.810 -0.4275 -0.3964 -0.6791
 2589SOL    HW119400   2.415   1.538   7.861 -1.1441 -0.2047 -0.6143
 2589SOL    HW219401   2.306   1.493   7.779 -0.3571  0.0974 -0.3666
 2590SOL     OW19402   4.161   1.851   4.921  0.0933  0.5287 -0.0218
 2590SOL    HW119403   4.133   1.791   4.852 -0.5885 -1.1642  1.7247
 2590SOL    HW219404   4.249   1.825   4.949  0.6077 -1.0525 -3.0202
 2591SOL     OW19405   3.278   1.822   2.042 -0.6178 -0.2012 -0.1594
 2591SOL    HW119406   3.344   1.859   1.982 -0.2600  0.8330  0.8821
 2591SOL    HW219407   3.202   1.858   1.996 -0.1357 -0.0044 -0.8080
 2592SOL     OW19408   3.736   0.205   8.410  0.2004 -1.0874  0.1924
 2592SOL    HW119409   3.715   0.287   8.454 -1.0285 -0.6438 -1.2077
 2592SOL    HW219410   3.811   0.231   8.357 -0.6148 -0.2235 -0.5459
 2593SOL     OW19411   2.875   1.926  15.750  0.1084 -0.0953 -0.3433
 2593SOL    HW119412   2.951   1.983  15.736  1.9123 -2.2199  0.7011
 2593SOL    HW219413   2.812   1.991  15.779 -0.1616 -0.7849  0.6375
 2594SOL     OW19414   4.411   3.704   8.665  0.2944  0.2996 -0.4506
 2594SOL    HW119415   4.392   3.717   8.572  1.9846  1.1799 -0.6826
 2594SOL    HW219416   4.494   3.656   8.658  0.1195  0.1765 -1.6683
 2595SOL     OW19417   1.842   0.004   2.613  0.1712 -0.2494 -0.3930
 2595SOL    HW119418   1.797   0.064   2.553  1.0394  0.9158  0.1051
 2595SOL    HW219419   1.769   4.735   2.674 -1.2365 -2.9527 -2.3080
 2596SOL     OW19420   1.892   2.345   3.885 -0.4381  0.1241 -0.5857
 2596SOL    HW119421   1.834   2.406   3.930  0.6813 -0.3776  1.5368
 2596SOL    HW219422   1.831   2.272   3.874 -1.3123  0.4412  2.1317
 2597SOL     OW19423   3.943   0.190   9.696 -0.4078  0.1878  0.0005
 2597SOL    HW119424   3.959   0.205   9.789  2.2258 -0.3689 -0.3653
 2597SOL    HW219425   3.874   0.124   9.696 -0.1905 -0.0250  1.2502
 2598SOL     OW19426   0.498   0.036   4.855 -0.0231 -0.0974 -0.3129
 2598SOL    HW119427   0.549   4.730   4.785  0.2816  1.3897 -0.9793
 2598SOL    HW219428   0.555   0.114   4.858 -1.0307  0.4809  3.3080
 2599SOL     OW19429   1.899   0.540   3.587  0.1276 -1.1845 -0.0557
 2599SOL    HW119430   1.935   0.539   3.675  1.0809  0.1228 -0.4299
 2599SOL    HW219431   1.808   0.523   3.610  0.0566  0.3590  0.7838
 2600SOL     OW19432   3.757   3.482   3.429 -1.1109 -0.4381  0.4469
 2600SOL    HW119433   3.682   3.438   3.469 -2.5243  0.7025 -0.9274
 2600SOL    HW219434   3.818   3.409   3.429  0.9448  1.2947  0.3960
 2601SOL     OW19435   3.923   0.854  17.355 -0.6739 -0.3480 -0.3735
 2601SOL    HW119436   3.938   0.894  17.441 -0.4941 -2.8923  0.7532
 2601SOL    HW219437   3.999   0.879  17.303  0.0730  0.1498  0.9320
 2602SOL     OW19438   1.553   4.656  11.838 -0.6272 -0.3061  0.5739
 2602SOL    HW119439   1.645   4.653  11.864  0.0858 -3.0677 -2.2757
 2602SOL    HW219440   1.521   4.568  11.858  1.9203 -1.4559 -0.3474
 2603SOL     OW19441   0.400   0.354   3.355 -0.6829 -0.0648  0.2165
 2603SOL    HW119442   0.422   0.438   3.315 -0.0873 -0.6416 -0.6520
 2603SOL    HW219443   0.430   0.288   3.293 -0.6500  1.4028 -1.3398
 2604SOL     OW19444   0.234   1.633  12.987  0.1353  0.0670  0.3684
 2604SOL    HW119445   0.263   1.649  13.077 -0.6071  1.5995  0.3391
 2604SOL    HW219446   0.165   1.569  13.002  0.5052 -0.5843 -0.7565
 2605SOL     OW19447   1.680   0.324   4.136  0.5424 -0.1758 -0.8970
 2605SOL    HW119448   1.771   0.298   4.144  0.6603  0.0670 -1.4244
 2605SOL    HW219449   1.685   0.393   4.202  3.3688 -1.0001 -0.2644
 2606SOL     OW19450   3.303   2.120   7.363  0.0044  0.0891 -0.2277
 2606SOL    HW119451   3.382   2.132   7.310  2.3222 -3.1629  2.5331
 2606SOL    HW219452   3.263   2.056   7.303 -0.6258  0.1681  0.1009
 2607SOL     OW19453   0.916   4.573   6.045  0.1146 -0.0680  0.1051
 2607SOL    HW119454   0.882   4.532   6.124  1.6676  2.6301  2.1452
 2607SOL    HW219455   0.829   4.582   6.005  0.0073 -0.0568  0.3389
 2608SOL     OW19456   4.228   0.715   9.599  0.2243  0.2918  0.3037
 2608SOL    HW119457   4.262   0.756   9.679  3.8425  0.9514 -1.5798
 2608SOL    HW219458   4.287   0.756   9.536 -0.4104  0.7288 -0.0067
 2609SOL     OW19459   2.882   1.973   3.600 -0.2537 -0.2963 -0.2657
 2609SOL    HW119460   2.957   1.931   3.557 -0.8336  0.3129 -1.8567
 2609SOL    HW219461   2.835   1.895   3.630  1.2686 -0.9163  0.5171
 2610SOL     OW19462   4.317   4.471   2.194  0.4534  0.5131  0.0830
 2610SOL    HW119463   4.313   4.436   2.283 -1.5034 -0.4488 -0.3987
 2610SOL    HW219464   4.320   4.394   2.137 -1.7162 -0.6943  1.6174
 2611SOL     OW19465   2.303   0.746   3.491  0.2037 -0.3743 -0.1116
 2611SOL    HW119466   2.301   0.653   3.512 -0.2855 -0.0878  1.0745
 2611SOL    HW219467   2.256   0.780   3.566 -1.1688 -2.6096  0.0158
 2612SOL     OW19468   1.196   2.639   2.162 -0.3504 -0.4633  0.3245
 2612SOL    HW119469   1.205   2.566   2.223 -2.8771  0.1876  1.4794
 2612SOL    HW219470   1.199   2.592   2.079 -1.4612  1.8332 -1.0160
 2613SOL     OW19471   0.079   3.801   5.017  0.1015  0.0073 -0.0323
 2613SOL    HW119472   0.172   3.780   5.015 -0.1730 -1.1896 -0.3033
 2613SOL    HW219473   0.054   3.787   4.926  1.5921  0.7642 -0.5556
 2614SOL     OW19474   0.715   0.505  15.877 -0.3532  0.4277  0.1374
 2614SOL    HW119475   0.770   0.470  15.806 -0.4089 -1.5086  1.0397
 2614SOL    HW219476   0.627   0.508  15.839 -0.4169  0.4988  0.2935
 2615SOL     OW19477   0.016   2.685   1.701 -0.0667  0.1989 -0.4293
 2615SOL    HW119478   0.065   2.763   1.728 -0.8057  0.8548 -0.9838
 2615SOL    HW219479   4.698   2.669   1.779 -2.0234  4.4442 -0.9066
 2616SOL     OW19480   0.718   3.071   6.456  0.1472  0.5448 -0.0952
 2616SOL    HW119481   0.782   3.113   6.514  0.5781 -0.4264  0.1429
 2616SOL    HW219482   0.659   3.034   6.522  0.8362 -2.0740 -0.9405
 2617SOL     OW19483   1.027   1.784   8.652  0.0748  0.1267 -0.0247
 2617SOL    HW119484   1.006   1.760   8.743  2.9470 -0.5037  0.4613
 2617SOL    HW219485   1.063   1.873   8.661  1.4662 -0.4140 -0.2620
 2618SOL     OW19486   3.860   1.130   5.089  0.0866 -0.6391  0.3718
 2618SOL    HW119487   3.805   1.125   5.168  0.3638  0.6949  0.6607
 2618SOL    HW219488   3.943   1.142   5.135 -0.9223 -0.8454  2.2434
 2619SOL     OW19489   0.472   4.662  12.804 -0.8736  0.3389 -0.5746
 2619SOL    HW119490   0.555   4.708  12.797  0.0037 -1.2833 -0.6574
 2619SOL    HW219491   0.491   4.584  12.855 -1.2112  1.2721  1.0093
 2620SOL     OW19492   1.726   1.392  10.277  0.3232  0.6073 -0.0700
 2620SOL    HW119493   1.703   1.366  10.188 -1.2406 -2.9834  1.3661
 2620SOL    HW219494   1.799   1.333  10.294  0.2522  0.1939 -1.2182
 2621SOL     OW19495   3.608   3.021   9.060  0.3522  0.8634  0.3441
 2621SOL    HW119496   3.597   2.960   9.133 -0.5320  2.7852  1.7950
 2621SOL    HW219497   3.573   2.967   8.989  1.0125 -1.9265  2.1320
 2622SOL     OW19498   0.738   2.868   8.936  0.0448 -0.4051  0.2698
 2622SOL    HW119499   0.654   2.854   8.891 -0.0777 -0.4309  0.5089
 2622SOL    HW219500   0.774   2.780   8.950  2.1639  0.3875 -0.2112
 2623SOL     OW19501   1.500   3.034   3.691 -0.2058 -0.0310  0.0384
 2623SOL    HW119502   1.544   3.009   3.610  1.1615 -1.2687  1.1520
 2623SOL    HW219503   1.509   2.954   3.744  0.3207 -0.7014 -1.0664
 2624SOL     OW19504   2.715   0.445   4.752 -0.7117 -0.5930 -0.9706
 2624SOL    HW119505   2.716   0.536   4.782  3.3239 -0.5465 -1.2355
 2624SOL    HW219506   2.675   0.405   4.829 -0.4148  0.2599 -0.3753
 2625SOL     OW19507   3.144   3.913   3.046  0.4429  0.1027  0.0988
 2625SOL    HW119508   3.071   3.858   3.017  0.0200  0.9047 -0.3664
 2625SOL    HW219509   3.180   3.850   3.107 -0.9823 -0.1844  0.6445
 2626SOL     OW19510   1.813   3.555   1.558  0.3924 -0.3475 -0.0610
 2626SOL    HW119511   1.892   3.557   1.612  2.3550  0.4324 -2.9011
 2626SOL    HW219512   1.773   3.472   1.584  2.1712 -0.9635  0.6962
 2627SOL     OW19513   4.217   3.427  16.839 -0.6012  0.2307 -0.0223
 2627SOL    HW119514   4.207   3.380  16.756  1.4901 -0.6829  0.2500
 2627SOL    HW219515   4.262   3.503  16.804  3.7197 -2.3937 -0.1368
 2628SOL     OW19516   3.212   2.926  15.741  0.3653 -0.0463  0.5739
 2628SOL    HW119517   3.242   2.986  15.672  4.1389 -2.9496 -0.3178
 2628SOL    HW219518   3.125   2.916  15.702  1.1738  1.2574 -1.5936
 2629SOL     OW19519   0.894   3.045   9.597  0.2065 -0.1045  0.8440
 2629SOL    HW119520   0.953   3.117   9.576  0.7049 -1.2320 -1.6142
 2629SOL    HW219521   0.842   3.032   9.518  0.2949 -0.4895  0.8496
 2630SOL     OW19522   2.387   2.702   8.574  0.0988 -0.3217 -0.2100
 2630SOL    HW119523   2.442   2.633   8.538  0.8944  0.8344 -1.1993
 2630SOL    HW219524   2.422   2.727   8.659  2.9435 -2.3746 -0.7868
 2631SOL     OW19525   3.935   0.799   5.295 -0.3491  0.8036  0.1182
 2631SOL    HW119526   4.026   0.799   5.266 -0.6273  0.4716 -0.7531
 2631SOL    HW219527   3.882   0.786   5.216 -0.9803 -0.2912  0.7289
 2632SOL     OW19528   2.701   2.441   5.069  0.4908 -0.3337 -0.0541
 2632SOL    HW119529   2.704   2.535   5.088  2.7334 -0.1947 -1.0965
 2632SOL    HW219530   2.606   2.427   5.062 -0.0436  1.9930  2.1170
 2633SOL     OW19531   4.000   0.531  10.059  0.0453  0.1486  0.5589
 2633SOL    HW119532   3.925   0.589  10.074 -1.1061 -0.2859 -3.5306
 2633SOL    HW219533   4.061   0.570  10.122  0.6169  0.4359 -0.1814
 2634SOL     OW19534   4.275   0.952   2.866 -0.4174 -0.3126  0.4154
 2634SOL    HW119535   4.332   0.948   2.790 -1.1839 -0.1270 -0.1753
 2634SOL    HW219536   4.258   0.862   2.893  0.7781 -1.1299 -1.5943
 2635SOL     OW19537   1.802   2.819   4.698  0.3310  0.1494 -0.9290
 2635SOL    HW119538   1.713   2.783   4.696  0.5909 -0.3193 -3.7020
 2635SOL    HW219539   1.816   2.804   4.605  0.4144 -1.7667 -0.5939
 2636SOL     OW19540   4.204   0.482   5.894 -0.6819 -0.0610  0.4059
 2636SOL    HW119541   4.241   0.423   5.961 -1.1208  0.3500  1.0065
 2636SOL    HW219542   4.248   0.456   5.813 -0.9586  0.3395  0.1281
 2637SOL     OW19543   4.632   1.562  16.369 -0.5097  0.5799  0.7527
 2637SOL    HW119544   4.722   1.584  16.394  0.1858 -2.9931  1.4722
 2637SOL    HW219545   4.638   1.482  16.422  0.5158  0.7801  0.9468
 2638SOL     OW19546   3.248   2.239   4.968  0.5222 -0.0606  0.3300
 2638SOL    HW119547   3.255   2.333   4.982  0.0911 -0.2263  1.7118
 2638SOL    HW219548   3.253   2.219   4.875  0.4258 -1.1562  0.5507
 2639SOL     OW19549   2.035   3.076   8.624  0.1529  0.3924  0.6092
 2639SOL    HW119550   1.983   3.088   8.544 -0.4840  1.9692  1.2703
 2639SOL    HW219551   2.079   2.992   8.606  2.9109  1.7805  0.9071
 2640SOL     OW19552   2.529   0.312   5.659 -0.3247  0.2469 -0.5050
 2640SOL    HW119553   2.546   0.255   5.583 -1.6217 -1.6628  0.6432
 2640SOL    HW219554   2.438   0.340   5.652 -0.4095  0.6490  2.3610
 2641SOL     OW19555   2.695   2.615   4.627  0.9783  0.1279  0.4565
 2641SOL    HW119556   2.626   2.628   4.691  1.2322  1.6051  0.4358
 2641SOL    HW219557   2.696   2.691   4.567 -2.5393 -0.5689 -0.4472
 2642SOL     OW19558   2.807   2.681   4.243  0.2646 -0.0972 -0.5298
 2642SOL    HW119559   2.793   2.611   4.180  2.4377  0.9452 -2.1907
 2642SOL    HW219560   2.887   2.729   4.223 -0.2205  0.5229 -0.9839
 2643SOL     OW19561   3.308   2.719   7.995 -0.3852 -0.2384 -0.0761
 2643SOL    HW119562   3.335   2.780   8.063 -0.3060  0.9030 -1.1246
 2643SOL    HW219563   3.392   2.708   7.950 -0.5016  0.1085 -0.3820
 2644SOL     OW19564   1.308   1.911   3.820 -0.2324  0.3754 -0.1684
 2644SOL    HW119565   1.269   1.835   3.777  4.1270 -2.2169  0.4908
 2644SOL    HW219566   1.384   1.902   3.763 -1.1633  0.2448 -1.3964
 2645SOL     OW19567   4.270   3.811   5.575 -0.4638  0.3176 -0.3609
 2645SOL    HW119568   4.350   3.832   5.623 -0.2446 -1.7166  0.1583
 2645SOL    HW219569   4.203   3.813   5.644  1.7611 -0.9058  1.8339
 2646SOL     OW19570   2.622   4.349   8.359 -0.1905  0.2729  0.1124
 2646SOL    HW119571   2.544   4.400   8.380 -1.9455 -1.4063 -2.3587
 2646SOL    HW219572   2.652   4.406   8.288 -1.6454  3.0557  1.7229
 2647SOL     OW19573   3.180   1.972   0.598 -0.1611  0.4023 -0.3130
 2647SOL    HW119574   3.214   1.926   0.674 -3.5708 -1.6912 -0.0757
 2647SOL    HW219575   3.185   1.904   0.531 -1.0947 -0.9741  1.0126
 2648SOL     OW19576   0.928   4.209   4.674  0.0542  0.3444  0.3736
 2648SOL    HW119577   0.895   4.296   4.652 -0.2516 -0.0229 -0.6101
 2648SOL    HW219578   0.996   4.246   4.731 -0.0710  1.9660 -0.5176
 2649SOL     OW19579   4.065   1.928  16.185  0.3172 -0.7232  0.0332
 2649SOL    HW119580   3.970   1.921  16.177  0.1177  1.8524  0.2917
 2649SOL    HW219581   4.110   1.894  16.108 -0.3956  1.1892 -1.2134
 2650SOL     OW19582   1.000   3.548   6.993 -0.4369 -0.1343 -0.1007
 2650SOL    HW119583   0.970   3.458   6.983 -0.8754  0.1747 -1.5472
 2650SOL    HW219584   0.960   3.590   6.917  0.4583  2.2147  0.6986
 2651SOL     OW19585   4.614   0.271  14.032  0.3120  0.3400  0.5219
 2651SOL    HW119586   4.541   0.209  14.041  0.3792  0.2906  0.7098
 2651SOL    HW219587   4.568   0.355  14.039  2.4674  1.6102 -0.5045
 2652SOL     OW19588   2.052   3.607  13.024 -0.4332 -0.2003  0.4851
 2652SOL    HW119589   2.124   3.669  13.039  0.3186 -1.1485  0.7402
 2652SOL    HW219590   2.080   3.578  12.937  0.9975  2.2101  0.1327
 2653SOL     OW19591   4.162   3.519   6.662  0.2165  0.4811 -0.5541
 2653SOL    HW119592   4.256   3.505   6.677  0.1476  3.7343  2.9857
 2653SOL    HW219593   4.141   3.601   6.706  3.1088  0.8173  0.1882
 2654SOL     OW19594   3.576   1.507   8.425 -0.0542 -0.1616 -0.1764
 2654SOL    HW119595   3.530   1.591   8.430 -2.7417 -1.4754 -2.9481
 2654SOL    HW219596   3.659   1.519   8.470 -0.1182 -0.9461  0.1511
 2655SOL     OW19597   3.566   3.995  15.533  0.2369 -0.6227 -1.0732
 2655SOL    HW119598   3.474   4.013  15.513 -0.2033 -1.3002  0.3177
 2655SOL    HW219599   3.554   3.905  15.564 -2.4323 -0.1509 -0.7597
 2656SOL     OW19600   2.217   0.466   6.057 -0.1448  0.0476 -0.3366
 2656SOL    HW119601   2.220   0.503   6.145  0.9194 -1.6958  0.3636
 2656SOL    HW219602   2.278   0.526   6.015 -0.7871  1.0644  0.1991
 2657SOL     OW19603   4.489   4.282  15.146  0.2871 -0.2310  0.1140
 2657SOL    HW119604   4.552   4.282  15.074 -0.1484  0.0660 -0.2758
 2657SOL    HW219605   4.416   4.235  15.105  0.9270  0.7782 -2.2100
 2658SOL     OW19606   1.920   2.486   6.599 -0.3743 -0.9020 -0.0579
 2658SOL    HW119607   1.897   2.420   6.534 -0.9243 -1.5628  0.7998
 2658SOL    HW219608   1.833   2.524   6.612 -0.8040 -2.3041  1.1823
 2659SOL     OW19609   0.361   0.854  16.272  0.5342  0.2602  0.3816
 2659SOL    HW119610   0.307   0.849  16.351 -0.0628  0.3460 -0.0277
 2659SOL    HW219611   0.331   0.928  16.221 -1.0287  0.4397  1.5689
 2660SOL     OW19612   3.198   0.788   3.004 -0.3262 -0.0562  0.0483
 2660SOL    HW119613   3.135   0.718   2.988 -2.0018  1.7084 -1.0862
 2660SOL    HW219614   3.164   0.865   2.957  0.7584 -0.4259 -1.3321
 2661SOL     OW19615   0.011   1.365   7.542 -0.0335 -0.0533 -0.4197
 2661SOL    HW119616   0.086   1.343   7.598  1.2015  1.2247 -1.5615
 2661SOL    HW219617   4.667   1.372   7.596 -1.2810  1.1919 -2.4244
 2662SOL     OW19618   4.400   2.668   3.739  0.1291 -0.0082  0.1376
 2662SOL    HW119619   4.335   2.614   3.693  0.6479 -0.7874  0.3196
 2662SOL    HW219620   4.486   2.635   3.714  0.4502  0.9468  0.0133
 2663SOL     OW19621   1.373   2.127  10.826 -0.0507 -0.7713  0.1431
 2663SOL    HW119622   1.338   2.196  10.770  0.5468 -1.3874 -0.9766
 2663SOL    HW219623   1.294   2.108  10.877 -0.1189  0.6737  0.5891
 2664SOL     OW19624   1.208   1.427   2.742 -0.3397  0.6691  0.2100
 2664SOL    HW119625   1.276   1.364   2.765 -0.3920  0.6698  0.3631
 2664SOL    HW219626   1.143   1.357   2.733  0.8254 -0.3045 -0.5199
 2665SOL     OW19627   2.664   1.357  11.752  0.0012  0.4701  0.6887
 2665SOL    HW119628   2.582   1.336  11.708 -0.6782  0.5839  1.9163
 2665SOL    HW219629   2.738   1.333  11.695  0.0650  0.2664  0.8545
 2666SOL     OW19630   3.775   1.386   0.026 -0.4135  0.1312 -0.1122
 2666SOL    HW119631   3.842   1.449  17.737  0.3008 -1.1940 -1.3388
 2666SOL    HW219632   3.816   1.301   0.007  2.5136  0.6624  3.7138
 2667SOL     OW19633   2.944   2.529  13.001 -0.2642  0.8214 -0.8187
 2667SOL    HW119634   3.031   2.504  13.031 -1.3470 -0.2286  1.4101
 2667SOL    HW219635   2.957   2.583  12.923 -0.4643  0.7721 -0.8855
 2668SOL     OW19636   4.323   2.674   1.954  0.4251 -0.0504  0.3537
 2668SOL    HW119637   4.292   2.652   2.042 -1.3351 -0.5070 -0.3760
 2668SOL    HW219638   4.287   2.762   1.945 -1.5446 -0.9247 -0.4957
 2669SOL     OW19639   1.768   1.610  17.062 -0.3197 -0.2143  0.1850
 2669SOL    HW119640   1.828   1.619  17.137  0.8581  2.0837 -1.0423
 2669SOL    HW219641   1.825   1.555  17.008 -1.3675  0.4195 -1.5579
 2670SOL     OW19642   0.701   3.431   0.729 -0.0556  0.6184 -0.1401
 2670SOL    HW119643   0.622   3.418   0.676 -0.1248 -0.7193  0.2959
 2670SOL    HW219644   0.768   3.372   0.695 -0.3842  1.1271 -1.6675
 2671SOL     OW19645   2.979   2.467  10.852  0.3453 -0.3329 -0.3571
 2671SOL    HW119646   3.032   2.532  10.806  0.5582 -0.1862  0.0938
 2671SOL    HW219647   3.044   2.397  10.861  2.6100  2.1836  2.7767
 2672SOL     OW19648   3.675   2.214   3.732 -0.2249 -0.5762 -0.0115
 2672SOL    HW119649   3.731   2.137   3.729 -0.2509 -0.5077 -2.3397
 2672SOL    HW219650   3.674   2.232   3.826 -1.6378  2.7059 -0.6448
 2673SOL     OW19651   1.426   0.524  10.330  0.0768  0.1543  0.1014
 2673SOL    HW119652   1.516   0.516  10.360 -0.7115 -0.3750  2.3332
 2673SOL    HW219653   1.432   0.455  10.263  0.2060  0.3415 -0.0805
 2674SOL     OW19654   1.646   1.083   3.751  0.5909 -0.1157 -0.0226
 2674SOL    HW119655   1.710   1.092   3.822  2.3346  0.8220 -1.7266
 2674SOL    HW219656   1.557   1.081   3.785 -0.0864  1.2795 -1.7387
 2675SOL     OW19657   4.358   3.027   6.475 -0.1184  0.0136 -0.6716
 2675SOL    HW119658   4.291   3.090   6.502 -2.4303 -1.6477 -2.5891
 2675SOL    HW219659   4.405   3.070   6.404 -1.1947  3.0177  0.4554
 2676SOL     OW19660   3.870   0.968   6.263 -0.0452  0.2767 -0.4091
 2676SOL    HW119661   3.785   0.985   6.304  0.5340 -0.0392  0.9001
 2676SOL    HW219662   3.855   0.883   6.221 -2.1165 -0.3810  1.7120
 2677SOL     OW19663   3.356   1.045   7.117  0.0490 -0.0164 -0.2993
 2677SOL    HW119664   3.352   1.141   7.116 -0.2955 -0.0268  0.1613
 2677SOL    HW219665   3.447   1.030   7.092  0.5343  1.6422  0.4609
 2678SOL     OW19666   2.785   0.925   0.872  0.0433  0.5293 -0.2670
 2678SOL    HW119667   2.733   0.930   0.792 -1.1161  0.5777  0.4955
 2678SOL    HW219668   2.713   0.903   0.930  0.3326 -2.0947 -0.9010
 2679SOL     OW19669   2.695   2.057   2.759  0.0706 -0.0753  0.1133
 2679SOL    HW119670   2.618   2.060   2.816  1.1602  3.4534  1.4371
 2679SOL    HW219671   2.750   2.130   2.789  0.6751 -0.9781  1.1756
 2680SOL     OW19672   0.442   0.117   6.875  0.4628 -0.2211 -0.1198
 2680SOL    HW119673   0.454   0.024   6.855 -3.3454 -0.5460 -0.8571
 2680SOL    HW219674   0.527   0.146   6.909 -0.0931 -0.3872  1.4132
 2681SOL     OW19675   1.897   0.427  10.517 -0.1931 -0.4778  0.4048
 2681SOL    HW119676   1.885   0.451  10.609 -1.4456  1.4882 -0.2729
 2681SOL    HW219677   1.957   0.352  10.522 -1.2772 -1.4339 -1.0405
 2682SOL     OW19678   0.301   4.578   6.107  0.0486  0.4806 -0.7526
 2682SOL    HW119679   0.335   4.522   6.176 -2.9399 -0.1886  0.1641
 2682SOL    HW219680   0.348   4.661   6.115 -0.6427  0.8636 -0.6660
 2683SOL     OW19681   0.545   4.660  16.502  0.1928 -0.5665 -0.2316
 2683SOL    HW119682   0.588   4.587  16.546  0.1361 -1.4146 -1.5691
 2683SOL    HW219683   0.596   0.001  16.526  0.5151 -1.1825  1.0136
 2684SOL     OW19684   3.080   3.101  14.699 -0.0111  0.3387  0.3720
 2684SOL    HW119685   3.104   3.025  14.751 -0.9554  1.5190  2.5423
 2684SOL    HW219686   3.162   3.116  14.652 -0.6234  0.7040 -0.5637
 2685SOL     OW19687   2.428   0.820   3.083  0.3235 -0.1576  0.0967
 2685SOL    HW119688   2.514   0.780   3.092 -0.1146 -1.2222 -0.4160
 2685SOL    HW219689   2.415   0.859   3.170 -2.0308  0.5157 -0.5452
 2686SOL     OW19690   1.723   4.261   4.663 -0.2118  0.2952 -0.0527
 2686SOL    HW119691   1.794   4.300   4.612  0.7230  0.8812  1.6761
 2686SOL    HW219692   1.656   4.328   4.663  0.5876  1.0959  0.0184
 2687SOL     OW19693   4.531   4.429  10.771 -0.9246  0.4506 -0.2543
 2687SOL    HW119694   4.560   4.473  10.691  1.9758  0.8916  1.0395
 2687SOL    HW219695   4.438   4.448  10.764 -0.5958  1.7702 -1.0002
 2688SOL     OW19696   3.253   3.846  16.446 -0.2281  0.4336  0.4029
 2688SOL    HW119697   3.253   3.854  16.350  1.7001 -0.8732  0.2749
 2688SOL    HW219698   3.245   3.753  16.468  0.8532 -0.3289 -2.2877
 2689SOL     OW19699   3.127   1.612   2.306  0.0707  0.2060  0.4317
 2689SOL    HW119700   3.110   1.585   2.216 -0.5216  0.3386  0.4984
 2689SOL    HW219701   3.215   1.577   2.320 -0.1910 -1.5748 -2.3045
 2690SOL     OW19702   1.321   1.684   9.479 -0.1569 -0.2836  0.0503
 2690SOL    HW119703   1.260   1.758   9.474 -1.1251 -1.0663  0.3742
 2690SOL    HW219704   1.392   1.723   9.531  0.3029 -2.2774  0.8931
 2691SOL     OW19705   3.815   0.647  11.024  0.7614  0.0945 -0.3823
 2691SOL    HW119706   3.791   0.727  11.071 -1.0062  0.1972 -1.4771
 2691SOL    HW219707   3.905   0.664  10.997 -0.3029  1.6258 -2.8822
 2692SOL     OW19708   1.128   2.642  12.303 -0.1875 -0.0345  0.0870
 2692SOL    HW119709   1.189   2.634  12.230 -0.6425  0.7382 -0.3724
 2692SOL    HW219710   1.182   2.586  12.358 -0.7904 -1.4246 -0.7172
 2693SOL     OW19711   0.191   4.481  12.061 -0.3959 -0.1443  0.1950
 2693SOL    HW119712   0.184   4.551  11.997 -0.7281 -0.9502 -0.6462
 2693SOL    HW219713   0.217   4.408  12.004 -2.0093 -3.0423  3.1722
 2694SOL     OW19714   0.700   0.168   7.014  0.1558  0.2154 -0.4368
 2694SOL    HW119715   0.760   0.131   6.949  0.8261  0.9322 -0.2295
 2694SOL    HW219716   0.757   0.179   7.090 -1.1369  2.1620  0.2645
 2695SOL     OW19717   2.032   4.285  10.400 -0.9943 -0.0774 -0.1581
 2695SOL    HW119718   2.054   4.230  10.325  2.1864  0.1330  0.6273
 2695SOL    HW219719   2.024   4.370  10.356 -0.8964  0.1023  0.1688
 2696SOL     OW19720   0.089   4.319   4.856 -0.2299 -0.2045 -0.7247
 2696SOL    HW119721   0.127   4.319   4.768 -0.6097 -0.9171 -0.8921
 2696SOL    HW219722   0.040   4.237   4.848  1.3486 -1.2058 -0.1984
 2697SOL     OW19723   0.450   2.925   7.518 -0.8540  0.2242  0.0422
 2697SOL    HW119724   0.434   2.985   7.446 -1.7272  0.1356  0.1556
 2697SOL    HW219725   0.378   2.862   7.518  0.1943 -0.9878  1.3557
 2698SOL     OW19726   3.231   1.221  11.764 -0.5501 -0.0130  0.1374
 2698SOL    HW119727   3.163   1.188  11.822 -0.2437 -1.7912 -0.5103
 2698SOL    HW219728   3.263   1.140  11.724  0.0245  1.5568 -2.5835
 2699SOL     OW19729   4.369   2.328   3.027 -0.0018  0.6039  0.2214
 2699SOL    HW119730   4.416   2.406   3.058  1.5706 -0.1507 -0.2725
 2699SOL    HW219731   4.368   2.281   3.111 -0.1991 -1.5845 -1.0175
 2700SOL     OW19732   4.403   4.530   0.185  0.4568  0.3570 -0.6653
 2700SOL    HW119733   4.383   4.599   0.121  1.6346  1.5929  0.3001
 2700SOL    HW219734   4.378   4.451   0.138 -2.0789  0.4360  0.5909
 2701SOL     OW19735   3.251   4.160   7.585 -0.0316  0.5555  0.3669
 2701SOL    HW119736   3.264   4.132   7.494  1.3373  2.6426 -0.0646
 2701SOL    HW219737   3.155   4.158   7.580  0.0016 -0.7575  0.1739
 2702SOL     OW19738   2.425   3.531  16.625  0.5086 -0.0509 -0.5015
 2702SOL    HW119739   2.502   3.582  16.650  0.3765 -0.3233  0.4526
 2702SOL    HW219740   2.357   3.593  16.651  0.0169 -0.6013 -0.4879
 2703SOL     OW19741   1.097   2.374   8.264 -0.1115  0.1657  0.0716
 2703SOL    HW119742   1.156   2.424   8.321  1.5051 -1.5083 -0.1731
 2703SOL    HW219743   1.046   2.329   8.332 -0.1975 -2.2713 -1.6506
 2704SOL     OW19744   3.220   2.370   6.078  0.2335  0.4932  0.4185
 2704SOL    HW119745   3.206   2.399   6.168 -0.8207 -0.6681  0.6383
 2704SOL    HW219746   3.312   2.392   6.068 -0.0118  1.0839 -0.4962
 2705SOL     OW19747   4.587   1.867   3.713 -0.4611  0.3447 -0.0149
 2705SOL    HW119748   4.626   1.952   3.731  0.7544 -0.4125  0.9299
 2705SOL    HW219749   4.502   1.888   3.674  0.4378 -0.1267 -2.2030
 2706SOL     OW19750   1.688   1.137   5.957  0.7633 -0.2654 -0.2617
 2706SOL    HW119751   1.688   1.220   6.004 -0.7671  0.5065 -1.5969
 2706SOL    HW219752   1.679   1.070   6.024  2.4904  0.3794  0.6089
 2707SOL     OW19753   4.540   3.987   8.588  0.4629  0.0995  0.1733
 2707SOL    HW119754   4.496   3.955   8.510  1.0278 -2.9903  1.1334
 2707SOL    HW219755   4.596   3.915   8.615  0.0840 -0.5481 -0.7803
 2708SOL     OW19756   0.961   0.389   3.722 -0.3589  0.7103 -0.1536
 2708SOL    HW119757   0.982   0.366   3.812 -1.6646 -0.8100 -0.2316
 2708SOL    HW219758   1.038   0.354   3.677 -0.6971  0.3644 -0.4626
 2709SOL     OW19759   0.960   4.340  15.635 -0.0209 -0.1224  0.9167
 2709SOL    HW119760   0.878   4.332  15.587  2.1720  0.6699 -2.9857
 2709SOL    HW219761   0.999   4.423  15.606  2.5161 -1.2553  1.1215
 2710SOL     OW19762   0.824   0.109  10.162  0.0122 -0.2404  0.2185
 2710SOL    HW119763   0.762   0.124  10.234  0.4907  0.0207  0.5752
 2710SOL    HW219764   0.784   0.029  10.127  2.5309 -1.0812 -0.6880
 2711SOL     OW19765   4.520   4.287   6.481 -0.0739  0.2112  0.1684
 2711SOL    HW119766   4.493   4.342   6.555 -0.4676  0.0853  0.1174
 2711SOL    HW219767   4.500   4.200   6.517  0.0785  0.3537  0.6036
 2712SOL     OW19768   1.390   4.034   9.252 -0.3893  0.0359  0.0034
 2712SOL    HW119769   1.337   3.955   9.259  0.2967 -0.3112  1.2076
 2712SOL    HW219770   1.465   3.990   9.212 -0.6331  0.1742 -0.6053
 2713SOL     OW19771   2.904   2.740   9.738  0.5345  0.0397 -0.2438
 2713SOL    HW119772   2.939   2.661   9.780  1.9122  0.4229 -0.6680
 2713SOL    HW219773   2.819   2.713   9.703 -1.0159  2.4878  1.7026
 2714SOL     OW19774   3.042   2.269  13.930 -0.3312 -0.1251 -0.7939
 2714SOL    HW119775   3.016   2.275  13.838  0.2566 -0.3559 -0.9748
 2714SOL    HW219776   3.107   2.199  13.925 -0.3880 -0.1642 -1.0298
 2715SOL     OW19777   3.843   2.176  15.645  0.0607  0.3459  0.0965
 2715SOL    HW119778   3.853   2.233  15.569  0.1843 -0.9315 -0.8303
 2715SOL    HW219779   3.750   2.194  15.659  0.1055 -0.0012  0.8751
 2716SOL     OW19780   0.674   0.928  16.572  0.7160 -0.1793  0.4382
 2716SOL    HW119781   0.710   0.938  16.660 -3.1993 -1.1859  2.1633
 2716SOL    HW219782   0.717   0.847  16.543  2.5267  1.6363 -1.8949
 2717SOL     OW19783   3.301   1.981   2.441  0.7231  0.5099  0.0906
 2717SOL    HW119784   3.221   1.971   2.390  0.3178  2.0090  0.4229
 2717SOL    HW219785   3.360   2.037   2.389  0.5257  2.3465  1.8305
 2718SOL     OW19786   0.223   1.719   5.329 -0.1303  0.0750  0.2658
 2718SOL    HW119787   0.130   1.699   5.318  0.0051  0.0286 -0.8652
 2718SOL    HW219788   0.231   1.778   5.254  0.3378 -3.1019 -2.1856
 2719SOL     OW19789   2.417   1.928  12.342 -0.0544 -0.1739 -0.4065
 2719SOL    HW119790   2.402   1.874  12.264 -0.4350  0.0286 -0.4753
 2719SOL    HW219791   2.454   2.002  12.294  2.5398  1.6321  4.3870
 2720SOL     OW19792   1.050   0.286   2.637 -0.2372 -0.3835  0.2909
 2720SOL    HW119793   1.002   0.266   2.717  0.9323 -0.0423  1.0773
 2720SOL    HW219794   1.035   0.380   2.642 -1.5204 -0.6403  1.1596
 2721SOL     OW19795   1.615   2.088   4.959 -0.8269 -0.9076 -0.1960
 2721SOL    HW119796   1.596   2.166   4.907 -0.4155  0.2667  1.4254
 2721SOL    HW219797   1.655   2.131   5.034 -1.0591 -0.8752 -0.0909
 2722SOL     OW19798   2.779   0.741  12.525 -0.0436  0.0702  0.1999
 2722SOL    HW119799   2.807   0.682  12.595  0.4465  0.7853  0.5951
 2722SOL    HW219800   2.708   0.788  12.567 -1.2662 -1.3445 -0.2979
 2723SOL     OW19801   3.233   0.563   9.902  0.6277  0.1074 -0.0178
 2723SOL    HW119802   3.193   0.503   9.964  0.7898 -0.9622 -0.9513
 2723SOL    HW219803   3.327   0.565   9.921  0.4327  1.0092  0.9088
 2724SOL     OW19804   1.147   4.096   8.604 -0.0209  0.1163 -0.0598
 2724SOL    HW119805   1.057   4.064   8.615  0.3267 -1.8192 -2.9930
 2724SOL    HW219806   1.198   4.025   8.642 -0.4403  0.8595  1.9098
 2725SOL     OW19807   2.030   4.502   9.366  0.3505  0.5637  0.1050
 2725SOL    HW119808   2.107   4.551   9.338  1.5181 -1.6429 -0.5851
 2725SOL    HW219809   2.027   4.519   9.460  0.8560 -0.6079  0.3303
 2726SOL     OW19810   3.698   1.761   7.865 -0.1387  0.3230 -0.9647
 2726SOL    HW119811   3.731   1.848   7.887 -0.5033  0.0523  0.6116
 2726SOL    HW219812   3.638   1.796   7.799 -1.5666  0.9205  0.6579
 2727SOL     OW19813   0.727   3.196  11.008 -0.8481 -0.3803  0.1321
 2727SOL    HW119814   0.818   3.166  10.999  0.1407  2.3643  0.8853
 2727SOL    HW219815   0.742   3.290  10.992 -1.7405  0.1543  2.4601
 2728SOL     OW19816   2.273   0.429   6.720 -0.2936 -0.2411 -0.6508
 2728SOL    HW119817   2.354   0.480   6.714 -0.4350 -0.2949 -2.7762
 2728SOL    HW219818   2.296   0.354   6.775 -1.1929  0.6828  0.9988
 2729SOL     OW19819   2.636   2.185   7.679 -0.2512 -0.3373  0.0903
 2729SOL    HW119820   2.652   2.140   7.762  0.7264  0.4636  0.3418
 2729SOL    HW219821   2.693   2.135   7.620  0.3923 -2.5881  2.6247
 2730SOL     OW19822   1.745   1.408   4.015 -0.3291 -0.4559  0.1025
 2730SOL    HW119823   1.666   1.433   3.967 -0.1225 -1.2796 -0.6691
 2730SOL    HW219824   1.708   1.429   4.101 -0.7415  0.4685 -0.3006
 2731SOL     OW19825   1.732   1.936   4.759  0.9194  0.0164 -0.0130
 2731SOL    HW119826   1.705   1.997   4.828 -0.8815 -2.4900  1.5021
 2731SOL    HW219827   1.789   1.881   4.812  2.5611  1.5731 -0.1457
 2732SOL     OW19828   4.324   1.999  17.177  0.0097  0.0544  0.0569
 2732SOL    HW119829   4.379   2.077  17.185 -1.4700  0.9559  1.2551
 2732SOL    HW219830   4.373   1.951  17.110  0.1302  1.9050 -1.1649
 2733SOL     OW19831   1.797   0.741   0.322 -0.2715 -0.4535 -0.1750
 2733SOL    HW119832   1.783   0.663   0.269 -0.6518  1.1681 -2.4779
 2733SOL    HW219833   1.713   0.768   0.360 -0.5368  1.6624 -2.2610
 2734SOL     OW19834   2.875   2.601   0.518  0.0429 -0.1295  0.0060
 2734SOL    HW119835   2.831   2.559   0.444  0.0762  1.7228 -1.0379
 2734SOL    HW219836   2.959   2.630   0.483  0.6919 -1.2181  0.6671
 2735SOL     OW19837   1.347   2.710   6.167 -0.2339 -0.2385 -0.0559
 2735SOL    HW119838   1.294   2.636   6.198 -0.2362 -0.3858 -0.4039
 2735SOL    HW219839   1.433   2.681   6.196  0.2366  0.5401 -0.6724
 2736SOL     OW19840   3.784   3.960  15.385 -0.0403  0.3017 -0.1867
 2736SOL    HW119841   3.705   4.010  15.406  0.0073 -0.7664  2.5215
 2736SOL    HW219842   3.823   3.958  15.472  0.5888 -1.4695 -0.5043
 2737SOL     OW19843   1.655   2.443   5.529  0.4109 -0.3440 -0.3842
 2737SOL    HW119844   1.681   2.522   5.577 -1.2226  0.5962 -1.0253
 2737SOL    HW219845   1.641   2.383   5.602  0.2409  0.4117  0.1991
 2738SOL     OW19846   4.116   3.829   3.787  0.6369 -0.6106  0.2595
 2738SOL    HW119847   4.072   3.775   3.853  1.5826 -0.3533  1.1089
 2738SOL    HW219848   4.037   3.866   3.749  0.9831 -0.2909 -0.1330
 2739SOL     OW19849   2.842   1.760  17.476 -0.0812 -0.0610  0.1119
 2739SOL    HW119850   2.936   1.775  17.486  0.1545 -1.5122  0.0151
 2739SOL    HW219851   2.826   1.681  17.527  0.8832 -0.0409  0.4450
 2740SOL     OW19852   1.519   4.469  10.303  0.1267 -0.0291 -0.2902
 2740SOL    HW119853   1.478   4.554  10.319  1.9366  0.7638  0.1887
 2740SOL    HW219854   1.590   4.504  10.248  0.9306  0.1024  0.8225
 2741SOL     OW19855   0.055   3.897  16.375  0.4810 -0.0475 -0.4047
 2741SOL    HW119856   4.699   3.917  16.355  0.9417 -0.5425 -3.0846
 2741SOL    HW219857   0.090   3.912  16.287 -3.6653  0.6048 -1.9075
 2742SOL     OW19858   1.041   4.135   3.629 -0.3885  0.3732  0.0549
 2742SOL    HW119859   1.086   4.150   3.546  0.3174 -0.0423  0.3677
 2742SOL    HW219860   0.973   4.203   3.625  1.4579  2.1341 -1.6171
 2743SOL     OW19861   2.150   1.907   2.323 -0.0395 -0.1389 -0.4022
 2743SOL    HW119862   2.197   1.955   2.391 -1.8511 -1.8476  2.0318
 2743SOL    HW219863   2.153   1.975   2.256 -2.7260  0.7508  0.3898
 2744SOL     OW19864   3.910   3.006   3.282  0.4440  0.0971  0.2769
 2744SOL    HW119865   4.005   3.013   3.271  0.2590 -1.4877 -2.4531
 2744SOL    HW219866   3.899   2.983   3.374 -1.8992  3.1607  0.7715
 2745SOL     OW19867   3.660   2.460   5.374 -0.0542 -0.1306 -0.0356
 2745SOL    HW119868   3.587   2.411   5.337  0.2616  0.5901 -1.6084
 2745SOL    HW219869   3.672   2.428   5.463  1.9250  1.1087  0.1447
 2746SOL     OW19870   2.007   2.333   5.191  0.4529  0.0469 -0.2939
 2746SOL    HW119871   1.997   2.428   5.191  0.6002  0.0600  0.3189
 2746SOL    HW219872   1.938   2.301   5.250  0.2413  0.5204 -0.2879
 2747SOL     OW19873   4.196   0.067   3.670 -0.2311  0.1880 -0.0348
 2747SOL    HW119874   4.109   0.097   3.696  0.1789 -1.4952  3.2896
 2747SOL    HW219875   4.210   0.011   3.747 -0.6712  0.3598  0.1726
 2748SOL     OW19876   0.211   1.433  15.434 -0.1238 -0.0878 -0.3866
 2748SOL    HW119877   0.195   1.517  15.475 -0.1166  0.6020 -1.7920
 2748SOL    HW219878   0.233   1.468  15.347  2.6785 -0.7924  0.0455
 2749SOL     OW19879   0.792   2.502  13.152  0.0207 -0.0843 -0.2631
 2749SOL    HW119880   0.712   2.480  13.104 -0.8907  1.5213  0.5355
 2749SOL    HW219881   0.857   2.476  13.086  0.2656  0.9532 -0.4208
 2750SOL     OW19882   2.570   4.000   4.386 -0.0198  0.0868 -0.0738
 2750SOL    HW119883   2.525   3.957   4.313 -0.5636  2.9149 -1.4065
 2750SOL    HW219884   2.491   4.049   4.410 -0.4707 -1.0642  0.8082
 2751SOL     OW19885   4.032   2.329   3.998 -0.2313  0.4822 -0.0724
 2751SOL    HW119886   4.120   2.292   3.996  0.5434  2.4094 -1.5244
 2751SOL    HW219887   3.991   2.252   3.959 -2.0671  1.3704  0.1056
 2752SOL     OW19888   2.945   4.355   5.879 -0.1138  0.1734  0.2000
 2752SOL    HW119889   3.023   4.313   5.915 -1.0425 -2.9229 -1.4211
 2752SOL    HW219890   2.888   4.372   5.955  0.0011 -3.5250  1.1087
 2753SOL     OW19891   2.132   2.287  17.677  0.1786  0.2353  0.0833
 2753SOL    HW119892   2.158   2.219  17.614 -1.0247  0.4594 -0.6583
 2753SOL    HW219893   2.200   2.354  17.669  1.2754 -0.8153  0.5372
 2754SOL     OW19894   3.788   3.188   7.245  0.0330 -0.2652 -0.2716
 2754SOL    HW119895   3.786   3.181   7.150 -1.2992 -1.3143 -0.1630
 2754SOL    HW219896   3.884   3.186   7.248  0.0371 -0.6140 -0.6013
 2755SOL     OW19897   3.950   1.970  15.420  0.6267  0.5300 -0.0775
 2755SOL    HW119898   4.009   1.903  15.386 -0.8512 -1.3499  1.0929
 2755SOL    HW219899   3.980   2.056  15.388  1.1162  0.1461 -0.6383
 2756SOL     OW19900   2.255   2.767   6.782 -0.0693  0.2343  0.5975
 2756SOL    HW119901   2.271   2.683   6.825 -1.3903  0.2831  1.1830
 2756SOL    HW219902   2.241   2.823   6.858 -0.5717  0.2434  0.5000
 2757SOL     OW19903   2.294   1.193   3.372 -0.2027 -0.1791  0.0159
 2757SOL    HW119904   2.332   1.106   3.388  0.6365  0.4375  1.3717
 2757SOL    HW219905   2.282   1.185   3.277  0.0727  1.2728 -0.1334
 2758SOL     OW19906   3.732   3.945   8.555 -0.0523 -0.5229 -0.0258
 2758SOL    HW119907   3.660   3.979   8.608  1.4232  0.9440  1.0026
 2758SOL    HW219908   3.778   3.885   8.613  2.6440  0.0770 -1.5292
 2759SOL     OW19909   2.648   3.562   2.599 -0.1553  0.4077 -0.4465
 2759SOL    HW119910   2.622   3.642   2.644  0.1109  0.9612 -1.2683
 2759SOL    HW219911   2.731   3.585   2.558  1.5842 -1.8500  1.8161
 2760SOL     OW19912   1.189   4.287   5.657 -0.3864 -0.1364  0.1604
 2760SOL    HW119913   1.249   4.322   5.591  1.6962  1.2230  2.7601
 2760SOL    HW219914   1.179   4.197   5.627 -1.1215 -0.3670  1.0855
 2761SOL     OW19915   2.877   3.267   3.331  0.6895 -0.0055  0.1840
 2761SOL    HW119916   2.799   3.255   3.384  1.3794 -1.7094  0.8071
 2761SOL    HW219917   2.943   3.246   3.397  1.1593  2.1505  0.4091
 2762SOL     OW19918   3.418   4.624   9.258 -0.5466 -0.3919 -0.4803
 2762SOL    HW119919   3.495   4.673   9.288 -0.3577 -0.1597 -1.3410
 2762SOL    HW219920   3.409   4.652   9.167 -0.9767 -0.0028 -0.3175
 2763SOL     OW19921   0.159   2.785   4.316  0.1209 -0.3842 -0.0386
 2763SOL    HW119922   0.066   2.788   4.338  0.9018 -2.7395  3.5089
 2763SOL    HW219923   0.142   2.707   4.262 -1.3346  1.0084 -1.6136
 2764SOL     OW19924   1.068   1.173   8.146 -0.1425 -0.4515  0.4802
 2764SOL    HW119925   0.982   1.159   8.108  0.0843  0.6836 -0.4663
 2764SOL    HW219926   1.101   1.083   8.152 -0.2130 -0.5027  0.0400
 2765SOL     OW19927   1.421   0.389  12.539  0.2215  0.1642 -0.0111
 2765SOL    HW119928   1.429   0.365  12.632 -2.4544 -0.2327  0.1308
 2765SOL    HW219929   1.329   0.369  12.524 -0.3800  2.4449  0.6727
 2766SOL     OW19930   1.470   0.282   1.634  0.3734 -0.6075  0.0316
 2766SOL    HW119931   1.446   0.336   1.710  0.2162 -0.9052  0.1922
 2766SOL    HW219932   1.529   0.342   1.588 -1.8376  0.7873 -0.9496
 2767SOL     OW19933   1.761   1.317   1.898 -0.5517  0.1885 -0.7410
 2767SOL    HW119934   1.853   1.338   1.880  0.2532 -2.0294  0.7800
 2767SOL    HW219935   1.746   1.373   1.974  0.0559 -0.9004  0.1945
 2768SOL     OW19936   0.939   3.963   3.347 -0.3030 -0.1844 -0.0641
 2768SOL    HW119937   0.996   4.034   3.375 -0.4400 -1.5021  3.5461
 2768SOL    HW219938   0.858   3.977   3.395 -0.5770 -2.8385  0.2436
 2769SOL     OW19939   3.153   0.831   5.692 -0.1623  0.3444  0.4369
 2769SOL    HW119940   3.099   0.757   5.664  1.1252 -0.2683 -0.3925
 2769SOL    HW219941   3.159   0.879   5.609 -1.9556  0.3503  0.3023
 2770SOL     OW19942   2.420   2.022   3.224 -0.4991 -0.3118 -0.1522
 2770SOL    HW119943   2.428   2.055   3.313 -0.7522  2.4220 -1.1461
 2770SOL    HW219944   2.478   2.087   3.184 -1.2360  0.0336 -0.6564
 2771SOL     OW19945   4.191   1.277  14.148 -0.5105 -0.2958 -0.0193
 2771SOL    HW119946   4.184   1.373  14.143 -0.7469 -0.2007  2.3934
 2771SOL    HW219947   4.226   1.256  14.061 -1.0693  0.2782 -0.3901
 2772SOL     OW19948   1.079   4.351   3.092 -0.0467 -0.8054  0.0592
 2772SOL    HW119949   1.104   4.442   3.108  0.7393 -1.5981  3.4748
 2772SOL    HW219950   1.123   4.322   3.012 -0.5938 -0.3682 -0.3880
 2773SOL     OW19951   3.338   1.018  12.406  0.0083 -0.1658 -0.2747
 2773SOL    HW119952   3.302   0.986  12.324  1.8059  0.2666 -1.2424
 2773SOL    HW219953   3.346   0.933  12.450 -0.3076  0.8063  1.6437
 2774SOL     OW19954   1.348   2.894   7.092  0.2667 -0.0649 -0.0483
 2774SOL    HW119955   1.393   2.963   7.142 -0.6732 -0.2661  1.0756
 2774SOL    HW219956   1.420   2.880   7.030  1.5856 -2.5188  2.0576
 2775SOL     OW19957   4.342   0.642   6.911  0.3177  0.8086  0.1124
 2775SOL    HW119958   4.398   0.682   6.845  1.4819  0.7055  1.0256
 2775SOL    HW219959   4.257   0.683   6.892 -0.8903 -1.5638  0.4660
 2776SOL     OW19960   4.175   2.160  15.856  0.0097 -0.0422 -0.2157
 2776SOL    HW119961   4.153   2.248  15.824 -1.2561 -1.1011 -2.2527
 2776SOL    HW219962   4.142   2.108  15.783 -1.3361  1.0995 -0.4123
 2777SOL     OW19963   1.720   3.797   1.401 -0.1464  0.5689 -0.2957
 2777SOL    HW119964   1.729   3.844   1.484 -0.2339  0.2908 -0.1267
 2777SOL    HW219965   1.756   3.716   1.436 -1.3918  1.0193  2.0438
 2778SOL     OW19966   4.204   3.988   3.588  0.0610  0.4155  0.6147
 2778SOL    HW119967   4.296   4.012   3.580  0.4900 -1.1834  0.7089
 2778SOL    HW219968   4.221   3.913   3.645  0.2217  0.4188  0.5712
 2779SOL     OW19969   4.192   2.097   3.003  0.1200  0.1012 -0.1875
 2779SOL    HW119970   4.232   2.070   2.921  0.9348 -0.6686  0.4629
 2779SOL    HW219971   4.236   2.181   3.019 -0.2818  0.0102  1.3848
 2780SOL     OW19972   4.201   4.345  13.245 -0.6862  0.1667 -0.3954
 2780SOL    HW119973   4.190   4.440  13.245  1.0451  0.3708 -0.9157
 2780SOL    HW219974   4.202   4.327  13.339 -0.0242  1.3893 -0.1719
 2781SOL     OW19975   1.874   3.390   0.408  0.0351 -0.6356 -0.0721
 2781SOL    HW119976   1.836   3.303   0.413  1.8765 -1.3681  1.3038
 2781SOL    HW219977   1.814   3.427   0.343  1.2283  0.3735 -0.5833
 2782SOL     OW19978   3.275   1.126   6.420  0.1283 -0.6707  0.4981
 2782SOL    HW119979   3.348   1.182   6.394  1.1254 -1.9944  0.4522
 2782SOL    HW219980   3.276   1.134   6.515 -0.5278  0.9095  0.3699
 2783SOL     OW19981   1.047   2.428   3.966 -0.2182 -0.0183 -0.3025
 2783SOL    HW119982   0.970   2.390   3.924  0.0289 -0.0156 -0.7469
 2783SOL    HW219983   1.045   2.379   4.049 -1.4840 -0.0451 -0.3521
 2784SOL     OW19984   1.572   1.781   1.502  0.4906 -0.0381 -0.0619
 2784SOL    HW119985   1.532   1.827   1.575  0.7913  0.7454 -0.3755
 2784SOL    HW219986   1.628   1.716   1.544  1.0758 -1.1264 -2.5193
 2785SOL     OW19987   4.069   4.449   2.327 -0.2883  0.0348 -0.0982
 2785SOL    HW119988   4.028   4.371   2.289  0.9724  0.2290 -1.7990
 2785SOL    HW219989   4.138   4.482   2.271 -0.0121  3.0434  2.0363
 2786SOL     OW19990   3.717   0.714   7.647  0.2433 -0.1379  0.3646
 2786SOL    HW119991   3.668   0.658   7.706 -0.8288 -0.7893 -1.1396
 2786SOL    HW219992   3.660   0.704   7.570 -1.3656 -0.6090  1.6289
 2787SOL     OW19993   2.164   0.220  16.311 -0.0639  0.4629  0.7199
 2787SOL    HW119994   2.221   0.296  16.325 -0.3786  0.7828  0.2454
 2787SOL    HW219995   2.199   0.180  16.231  4.8960  1.1031  2.5849
 2788SOL     OW19996   0.789   3.366   7.306 -0.0198  0.1430 -0.3759
 2788SOL    HW119997   0.769   3.413   7.387 -0.3544  1.3258 -1.1500
 2788SOL    HW219998   0.863   3.315   7.340  1.5262  1.0355 -2.4100
 2789SOL     OW19999   2.717   1.207   0.174 -0.1765  0.4367  0.1190
 2789SOL    HW120000   2.796   1.256   0.194 -1.1503  2.2892 -0.6449
 2789SOL    HW220001   2.734   1.161   0.092 -0.4539  1.6954 -0.6306
 2790SOL     OW20002   3.116   4.409  11.357  0.0034  0.2696 -0.1370
 2790SOL    HW120003   3.164   4.463  11.420  0.4013  1.4238 -1.4442
 2790SOL    HW220004   3.024   4.418  11.382 -0.3935 -1.1827 -1.1032
 2791SOL     OW20005   2.895   4.234   4.372  0.3216  0.3959  0.1776
 2791SOL    HW120006   2.851   4.227   4.457 -0.7992  1.2581 -0.3365
 2791SOL    HW220007   2.848   4.171   4.317 -1.2733  0.9959  0.8795
 2792SOL     OW20008   1.163   3.582   7.902 -0.8387  1.3008 -0.2232
 2792SOL    HW120009   1.220   3.520   7.949  0.1446  1.9435 -0.5705
 2792SOL    HW220010   1.084   3.558   7.950 -0.5878 -2.3033 -1.6316
 2793SOL     OW20011   2.241   2.196   3.590  0.2928 -0.6341  0.4232
 2793SOL    HW120012   2.240   2.212   3.685  0.0491  0.6637  0.2091
 2793SOL    HW220013   2.281   2.109   3.587  1.3141 -0.0368 -2.4557
 2794SOL     OW20014   0.787   3.641   2.631 -0.1945  0.3734 -0.7337
 2794SOL    HW120015   0.791   3.704   2.560 -1.8335  0.4210 -0.7840
 2794SOL    HW220016   0.876   3.605   2.632 -0.6493 -0.6417  3.4297
 2795SOL     OW20017   2.324   1.753   6.420 -0.5560 -0.0301 -0.1560
 2795SOL    HW120018   2.345   1.845   6.434  0.3265 -0.4988  1.6502
 2795SOL    HW220019   2.414   1.723   6.408 -0.2437  0.8351  0.0281
 2796SOL     OW20020   0.920   1.580   6.281  0.0832 -0.1892 -0.5127
 2796SOL    HW120021   0.940   1.497   6.237  0.8102 -0.7456  0.8647
 2796SOL    HW220022   0.901   1.550   6.370 -0.9069 -1.6647 -1.2091
 2797SOL     OW20023   3.585   1.783  11.764  0.6478 -0.1355 -0.3855
 2797SOL    HW120024   3.553   1.722  11.830 -0.2086  0.0459 -0.6337
 2797SOL    HW220025   3.501   1.793  11.721  0.3055 -0.5413  0.1906
 2798SOL     OW20026   4.378   3.360   9.159  0.5514  0.3312  0.0358
 2798SOL    HW120027   4.463   3.403   9.162  1.1532 -0.9321  0.9850
 2798SOL    HW220028   4.372   3.316   9.243  1.7476 -1.8247 -0.9999
 2799SOL     OW20029   0.149   0.999  15.429  0.3619 -0.6754 -0.3990
 2799SOL    HW120030   0.218   1.062  15.451 -0.3888  0.4217 -1.2078
 2799SOL    HW220031   0.084   1.024  15.496 -0.6753 -1.8690 -0.9591
 2800SOL     OW20032   0.167   3.048   1.128  0.3514 -0.1964 -0.1929
 2800SOL    HW120033   0.150   2.983   1.195 -0.8994  0.2237 -0.1064
 2800SOL    HW220034   0.083   3.049   1.081  0.0384  0.5009  0.3737
 2801SOL     OW20035   2.875   3.602  12.749  0.5032 -0.0456 -0.3213
 2801SOL    HW120036   2.913   3.516  12.770  2.1790  0.6900 -0.3155
 2801SOL    HW220037   2.832   3.595  12.664  0.0326 -2.7543  0.1315
 2802SOL     OW20038   2.192   3.990   9.156 -0.0548  0.1519  0.2739
 2802SOL    HW120039   2.266   3.987   9.216  0.0156 -1.1185  0.1222
 2802SOL    HW220040   2.136   3.923   9.196  1.7679 -1.5840 -0.0596
 2803SOL     OW20041   2.176   2.100   3.120 -0.0438 -0.1967  0.0281
 2803SOL    HW120042   2.260   2.059   3.142  1.5728  1.8539 -2.2760
 2803SOL    HW220043   2.212   2.188   3.135  0.6152 -0.4264 -0.2109
 2804SOL     OW20044   4.202   0.039   4.785  0.2067  0.2722 -0.0365
 2804SOL    HW120045   4.251   4.730   4.854  1.6370  0.8500 -0.6912
 2804SOL    HW220046   4.135   4.710   4.761 -2.2536  2.6233  0.4410
 2805SOL     OW20047   4.535   1.042   4.042 -0.2470 -0.1373  0.2157
 2805SOL    HW120048   4.479   0.965   4.053  0.5719 -0.4400  2.3361
 2805SOL    HW220049   4.554   1.063   4.133  2.8682 -0.4510 -0.3819
 2806SOL     OW20050   1.274   2.135   8.362 -0.0028 -0.0613  0.0512
 2806SOL    HW120051   1.312   2.048   8.377  1.5576  0.3344 -1.5544
 2806SOL    HW220052   1.339   2.204   8.372 -1.0772  1.2818 -2.2407
 2807SOL     OW20053   2.506   2.383   4.792 -0.2327  0.0403 -0.1817
 2807SOL    HW120054   2.594   2.372   4.827 -0.5165 -0.8903  0.2493
 2807SOL    HW220055   2.501   2.477   4.805 -1.4799 -0.4066  2.6336
 2808SOL     OW20056   2.664   2.487  17.215 -0.4803 -0.2541 -0.1473
 2808SOL    HW120057   2.731   2.459  17.153 -0.5529 -1.5569  0.3472
 2808SOL    HW220058   2.708   2.489  17.300  1.2600 -0.1193 -1.0573
 2809SOL     OW20059   2.019   4.259   6.869  0.8074  0.5769  0.5250
 2809SOL    HW120060   2.053   4.170   6.872  1.4808  0.8541  1.0226
 2809SOL    HW220061   1.970   4.250   6.951  0.5026 -0.6483  0.2091
 2810SOL     OW20062   0.252   1.393   8.064  0.4253 -0.6050 -0.1489
 2810SOL    HW120063   0.256   1.451   7.988 -0.3607  0.7919  0.8818
 2810SOL    HW220064   0.201   1.443   8.127  0.9264  1.4270 -1.3397
 2811SOL     OW20065   0.519   3.322   5.979  0.1935 -1.1401 -0.0511
 2811SOL    HW120066   0.476   3.252   6.027 -2.8043  1.2316  0.7740
 2811SOL    HW220067   0.449   3.388   5.971  2.1464  1.1224  1.6071
 2812SOL     OW20068   1.292   4.482   6.866  0.0974  0.2254  0.2571
 2812SOL    HW120069   1.251   4.407   6.910  1.3962 -0.6038  0.0339
 2812SOL    HW220070   1.380   4.446   6.862 -0.5130 -1.1410 -1.2705
 2813SOL     OW20071   3.707   2.371   2.379  0.4806  0.0868  0.0774
 2813SOL    HW120072   3.797   2.353   2.353 -0.1294 -1.2288 -1.1279
 2813SOL    HW220073   3.717   2.422   2.459  0.1554  0.3369 -0.0403
 2814SOL     OW20074   2.952   0.460   6.476 -0.4725 -0.0226 -0.7510
 2814SOL    HW120075   2.895   0.534   6.453 -0.8267  0.0976  0.5383
 2814SOL    HW220076   2.922   0.397   6.410 -1.4737  0.0921 -0.3966
 2815SOL     OW20077   3.798   1.733   4.628  0.5242 -0.1188  0.7704
 2815SOL    HW120078   3.820   1.710   4.538  0.9754 -2.6032  1.5114
 2815SOL    HW220079   3.718   1.784   4.614  1.3936  0.0704 -3.4296
 2816SOL     OW20080   3.200   2.636  10.868  0.1373  0.3226 -0.4007
 2816SOL    HW120081   3.237   2.624  10.955  0.4064 -0.6791 -0.6553
 2816SOL    HW220082   3.206   2.732  10.865 -2.2907  0.5546  2.0666
 2817SOL     OW20083   2.589   1.236   2.884  0.4600  0.1016  0.1086
 2817SOL    HW120084   2.651   1.211   2.816 -0.4042  0.1245 -0.6850
 2817SOL    HW220085   2.504   1.201   2.857 -0.2843  0.2701  2.2617
 2818SOL     OW20086   4.468   0.538   8.094  0.0124  0.5818  0.3332
 2818SOL    HW120087   4.520   0.463   8.064  0.5312  1.6202 -1.3291
 2818SOL    HW220088   4.482   0.546   8.189  1.7850 -1.6005  0.2604
 2819SOL     OW20089   4.087   0.534  13.678  0.6941  0.4862 -0.5316
 2819SOL    HW120090   4.066   0.556  13.769  1.9688 -0.2471 -0.0522
 2819SOL    HW220091   4.181   0.515  13.679  0.4485 -0.5153  3.6291
 2820SOL     OW20092   2.000   3.025   7.344  0.7371 -0.2732 -0.0769
 2820SOL    HW120093   1.917   3.004   7.386  0.1357  1.3971 -0.4536
 2820SOL    HW220094   1.994   2.957   7.276  0.6445 -1.5103  1.1647
 2821SOL     OW20095   1.962   0.053  16.360 -0.6293  0.1657 -0.3525
 2821SOL    HW120096   1.896   0.119  16.338  0.0983  1.7003  2.1175
 2821SOL    HW220097   2.039   0.110  16.362  0.2038 -1.0136  1.0350
 2822SOL     OW20098   1.334   4.598   7.911 -0.4852 -0.1283  0.4866
 2822SOL    HW120099   1.377   4.619   7.994 -3.3783  0.7060  1.7450
 2822SOL    HW220100   1.253   4.557   7.940 -2.1098  2.3123 -0.5765
 2823SOL     OW20101   4.283   3.690   4.509 -0.0863  0.2574 -0.7644
 2823SOL    HW120102   4.278   3.741   4.591  0.1220  0.0496 -0.6221
 2823SOL    HW220103   4.235   3.610   4.527  2.5084 -0.6374  2.2747
 2824SOL     OW20104   1.202   1.326   6.514 -0.5604  0.1874 -0.1705
 2824SOL    HW120105   1.184   1.259   6.448  1.7693 -1.3202  0.7098
 2824SOL    HW220106   1.116   1.315   6.554 -1.1532  4.8994 -0.1964
 2825SOL     OW20107   0.812   0.770   9.698 -0.1739  0.6656 -0.2774
 2825SOL    HW120108   0.776   0.814   9.621 -1.0880 -1.2279 -0.9371
 2825SOL    HW220109   0.905   0.793   9.701  0.1346 -0.6793  0.4456
 2826SOL     OW20110   3.572   2.041   2.679 -0.5837 -0.0858 -0.9108
 2826SOL    HW120111   3.481   2.011   2.675 -0.5915  0.1446 -2.3930
 2826SOL    HW220112   3.616   1.978   2.622 -0.2248 -0.3556 -0.3380
 2827SOL     OW20113   4.103   0.313   4.109 -0.0898  0.0110 -0.1145
 2827SOL    HW120114   4.014   0.339   4.135 -1.1331 -3.6782  0.1367
 2827SOL    HW220115   4.119   0.375   4.038 -2.3039  0.6351 -0.0801
 2828SOL     OW20116   0.494   3.342   0.601  0.2678  0.2346 -0.2503
 2828SOL    HW120117   0.479   3.263   0.654 -0.7717  0.8225  0.3291
 2828SOL    HW220118   0.523   3.300   0.520  0.7038 -0.5892  0.3231
 2829SOL     OW20119   2.344   2.077   7.496 -0.2555 -0.3266  0.6794
 2829SOL    HW120120   2.264   2.030   7.473 -0.6445  0.1415  1.0783
 2829SOL    HW220121   2.356   2.042   7.584  1.1349  0.1005  0.6576
 2830SOL     OW20122   2.752   4.409   6.056  0.7740  0.0637 -0.2239
 2830SOL    HW120123   2.665   4.391   6.091 -0.1192  3.4386 -0.6420
 2830SOL    HW220124   2.739   4.504   6.057 -1.7602 -0.2589 -1.0471
 2831SOL     OW20125   3.298   0.667   8.422  0.2795 -0.1456 -0.3553
 2831SOL    HW120126   3.367   0.728   8.449 -0.3381  0.6304 -0.5207
 2831SOL    HW220127   3.263   0.718   8.349  1.3138  0.2997 -0.5412
 2832SOL     OW20128   0.313   0.724   2.010  0.7346 -0.2150 -0.2841
 2832SOL    HW120129   0.282   0.637   2.035 -2.6445  1.6010  1.8704
 2832SOL    HW220130   0.230   0.770   1.998  0.7013 -0.5793 -1.5211
 2833SOL     OW20131   3.758   1.790   6.343  0.0015  0.7531  0.2824
 2833SOL    HW120132   3.744   1.858   6.277  1.9642 -1.3139 -2.2526
 2833SOL    HW220133   3.826   1.737   6.302 -1.4733 -2.6134  2.1443
 2834SOL     OW20134   3.820   2.036   5.806  0.6826 -0.5723  0.3897
 2834SOL    HW120135   3.850   2.076   5.724  0.1075 -3.3649 -1.1714
 2834SOL    HW220136   3.792   1.948   5.781  1.6600 -0.9226  0.5464
 2835SOL     OW20137   2.032   3.197   8.062 -0.0076  0.3241  0.3286
 2835SOL    HW120138   2.011   3.276   8.111 -0.4800 -1.8756  3.6824
 2835SOL    HW220139   2.102   3.155   8.112  0.4790  0.4692 -0.2251
 2836SOL     OW20140   0.176   0.290   3.188  0.5994  0.1223 -0.1285
 2836SOL    HW120141   0.251   0.252   3.232 -1.2943  0.2530  3.2219
 2836SOL    HW220142   0.115   0.216   3.184 -0.1268  0.6281  1.6894
 2837SOL     OW20143   0.058   1.686  17.202 -0.3003  0.1252 -0.3499
 2837SOL    HW120144   0.102   1.739  17.135  0.0173 -0.2401 -0.4278
 2837SOL    HW220145   0.038   1.604  17.156 -1.1799 -0.2048  0.6340
 2838SOL     OW20146   2.641   1.922   5.617 -0.4473  0.3071 -0.3183
 2838SOL    HW120147   2.619   1.929   5.710 -0.3600  2.2453 -0.4284
 2838SOL    HW220148   2.729   1.959   5.622 -1.1432  1.9612 -0.0842
 2839SOL     OW20149   1.190   0.165   0.930 -0.2954  0.5992 -0.5194
 2839SOL    HW120150   1.194   0.089   0.872 -0.4024 -1.0755  1.6485
 2839SOL    HW220151   1.279   0.198   0.933 -0.0791 -0.0344  0.0639
 2840SOL     OW20152   2.234   1.845  12.545 -0.4462 -0.5122  0.3570
 2840SOL    HW120153   2.198   1.910  12.605 -1.4658  0.1406 -0.9612
 2840SOL    HW220154   2.262   1.891  12.466 -1.5808 -0.4938 -0.0230
 2841SOL     OW20155   4.137   1.606  11.890 -0.1388  0.3807 -0.4732
 2841SOL    HW120156   4.199   1.534  11.888 -1.4187 -0.7604  1.2967
 2841SOL    HW220157   4.058   1.576  11.845 -0.2014 -2.1377  1.3167
 2842SOL     OW20158   0.795   1.702   2.087 -0.2851  0.3477 -0.3973
 2842SOL    HW120159   0.839   1.757   2.022 -2.2563  1.4107 -0.8251
 2842SOL    HW220160   0.706   1.700   2.052 -0.6094 -1.8078  0.5262
 2843SOL     OW20161   1.294   4.613   0.555 -0.1627  0.1267  0.3425
 2843SOL    HW120162   1.313   4.704   0.578  0.9834 -0.0988  0.2679
 2843SOL    HW220163   1.233   4.623   0.482 -0.0733  0.2250  0.2820
 2844SOL     OW20164   1.192   0.652   6.937 -0.1094  0.3516  0.4453
 2844SOL    HW120165   1.242   0.719   6.892 -1.0211  1.5413  1.2207
 2844SOL    HW220166   1.248   0.632   7.012 -1.1719 -2.2474  0.5493
 2845SOL     OW20167   3.780   1.078  11.772 -0.1080 -0.3857 -0.7169
 2845SOL    HW120168   3.713   1.011  11.782  1.5425 -2.0246 -0.6598
 2845SOL    HW220169   3.744   1.164  11.795  1.1444 -0.0438  0.0051
 2846SOL     OW20170   3.951   0.074   4.135  0.2021  0.0408  0.1687
 2846SOL    HW120171   3.941   0.103   4.044 -1.7006  1.1676  0.7396
 2846SOL    HW220172   4.028   0.127   4.155 -1.1467  1.5606  1.3834
 2847SOL     OW20173   3.465   4.121   2.525  0.6289  0.1958  0.9658
 2847SOL    HW120174   3.415   4.044   2.496  2.4052 -0.1857 -1.1125
 2847SOL    HW220175   3.551   4.084   2.506 -0.4494 -0.9999 -1.6397
 2848SOL     OW20176   4.242   0.414   6.255  0.6657 -0.5699  0.6631
 2848SOL    HW120177   4.271   0.363   6.331  1.6750  0.3955  0.9428
 2848SOL    HW220178   4.163   0.452   6.294  0.6605 -0.5459  0.6290
 2849SOL     OW20179   3.703   3.640   2.641 -0.0083  0.1079  0.5494
 2849SOL    HW120180   3.759   3.586   2.697  0.9828  0.8287  0.2522
 2849SOL    HW220181   3.747   3.723   2.655 -1.3900  1.1883 -1.5336
 2850SOL     OW20182   2.228   0.806  15.562  0.3184  0.4776 -0.1425
 2850SOL    HW120183   2.262   0.859  15.634 -2.2765  2.1702 -0.1724
 2850SOL    HW220184   2.152   0.773  15.609  1.0140 -0.3365  0.4285
 2851SOL     OW20185   1.153   1.118  16.143 -0.5186 -0.2690  0.0647
 2851SOL    HW120186   1.100   1.194  16.166  0.0663  0.1103  0.1726
 2851SOL    HW220187   1.145   1.106  16.048  0.4900  1.2556 -0.2213
 2852SOL     OW20188   2.650   3.350   6.303 -0.1486 -0.2881 -0.8309
 2852SOL    HW120189   2.589   3.285   6.268 -0.9486 -0.8526  1.5530
 2852SOL    HW220190   2.715   3.291   6.341 -0.4670  0.3235  0.6742
 2853SOL     OW20191   1.405   3.375  12.322 -0.4321 -0.1435  0.1601
 2853SOL    HW120192   1.457   3.393  12.400 -1.8049 -2.6730  1.6484
 2853SOL    HW220193   1.317   3.363  12.358 -1.6265  1.2059 -2.2665
 2854SOL     OW20194   1.272   0.228   8.651  0.1203 -0.4025  0.7670
 2854SOL    HW120195   1.271   0.320   8.626  0.3670 -0.7886 -0.7210
 2854SOL    HW220196   1.181   0.207   8.670 -0.1951  0.9181  0.7119
 2855SOL     OW20197   0.081   0.797   5.808  0.0135  0.1058 -0.7958
 2855SOL    HW120198   0.108   0.709   5.782 -1.4504 -0.8246  0.8683
 2855SOL    HW220199   0.088   0.782   5.902  1.9159  1.5825 -0.7025
 2856SOL     OW20200   3.732   3.438   5.418  0.6680 -0.5488 -0.1447
 2856SOL    HW120201   3.827   3.439   5.431  0.5524  0.0590  0.6224
 2856SOL    HW220202   3.707   3.477   5.502 -0.7733 -1.1220 -0.3065
 2857SOL     OW20203   2.204   4.729   8.573 -0.7126 -0.3732 -0.3319
 2857SOL    HW120204   2.225   4.640   8.603  0.1778 -0.2293 -0.5338
 2857SOL    HW220205   2.296   0.019   8.570 -1.1314  0.9268 -2.2937
 2858SOL     OW20206   0.218   1.595   7.859  0.1107 -0.2632  0.2370
 2858SOL    HW120207   0.312   1.594   7.847  0.0222  1.5325 -0.4878
 2858SOL    HW220208   0.184   1.601   7.770 -0.9337  2.7381  0.8279
 2859SOL     OW20209   0.639   2.655  14.638  0.3684  0.4291 -0.3071
 2859SOL    HW120210   0.596   2.634  14.555 -1.2565 -1.3764  0.9922
 2859SOL    HW220211   0.728   2.623  14.625  0.4598  0.6996 -0.3622
 2860SOL     OW20212   1.123   2.091   3.097  0.1945  0.4688 -0.5545
 2860SOL    HW120213   1.181   2.148   3.046  0.5388  2.6337  2.2286
 2860SOL    HW220214   1.174   2.010   3.095  1.1393  1.0456 -0.3444
 2861SOL     OW20215   3.014   0.839  14.399  0.3199 -0.0561 -0.1736
 2861SOL    HW120216   3.004   0.833  14.304  1.2370 -2.3770 -0.1207
 2861SOL    HW220217   2.937   0.894  14.417  1.7182  2.1157 -0.7745
 2862SOL     OW20218   4.423   1.777  17.634  0.4201 -0.2801 -0.5430
 2862SOL    HW120219   4.404   1.817  17.549  1.4420 -1.8860 -1.5283
 2862SOL    HW220220   4.402   1.687  17.611 -0.9787  0.1891 -1.0552
 2863SOL     OW20221   3.114   2.163   8.542  0.1247 -0.3919  0.0087
 2863SOL    HW120222   3.191   2.129   8.497 -0.4480 -0.6076 -0.7928
 2863SOL    HW220223   3.044   2.101   8.521  0.5381 -0.5244 -0.9532
 2864SOL     OW20224   4.635   0.495   6.160 -0.3523  0.0447  0.1434
 2864SOL    HW120225   4.587   0.573   6.189  2.2140  1.0244  1.7572
 2864SOL    HW220226   4.690   0.493   6.238 -0.4721 -0.4040  0.2113
 2865SOL     OW20227   1.650   4.410   9.442  0.4154  1.1159  0.1800
 2865SOL    HW120228   1.679   4.374   9.358  0.8121 -0.5369  1.0114
 2865SOL    HW220229   1.693   4.356   9.508  0.4626  0.5493 -0.3068
 2866SOL     OW20230   1.985   3.716   6.946  0.4385  0.4142 -0.1334
 2866SOL    HW120231   1.901   3.674   6.966 -0.1381  1.3578 -0.5183
 2866SOL    HW220232   2.025   3.729   7.032  0.8905  0.8686 -0.4111
 2867SOL     OW20233   0.918   3.974   6.851  0.1932 -0.0098 -0.1207
 2867SOL    HW120234   0.945   4.021   6.771 -0.6967  2.6583  1.1571
 2867SOL    HW220235   0.833   3.939   6.825  1.2604  0.4587 -4.2541
 2868SOL     OW20236   2.606   4.134   8.870 -0.0461  0.1414 -0.8207
 2868SOL    HW120237   2.687   4.110   8.915  1.1367  1.7743 -2.1194
 2868SOL    HW220238   2.575   4.057   8.824 -2.4444  0.5820  0.0395
 2869SOL     OW20239   1.133   4.154   8.892 -0.4023 -0.2471 -0.0070
 2869SOL    HW120240   1.217   4.185   8.858 -0.9727  1.4077  0.0805
 2869SOL    HW220241   1.141   4.193   8.979  1.4998 -0.8692  0.1006
 2870SOL     OW20242   1.798   3.813   2.953  0.3078 -0.3044  0.0493
 2870SOL    HW120243   1.823   3.888   3.007 -2.1034  0.4632  0.1043
 2870SOL    HW220244   1.867   3.748   2.952 -1.2459 -1.9371 -1.2060
 2871SOL     OW20245   1.279   0.617   8.737  0.5726  0.0170 -0.7133
 2871SOL    HW120246   1.278   0.707   8.704 -3.4285  0.1013 -0.4080
 2871SOL    HW220247   1.357   0.608   8.791 -1.1203 -0.6799  1.6286
 2872SOL     OW20248   2.044   1.864   0.006 -0.0263  0.0416 -0.3214
 2872SOL    HW120249   2.046   1.891  17.655  2.0378 -2.9319 -1.1534
 2872SOL    HW220250   2.071   1.772   0.004 -0.3768 -0.0585 -0.2798
 2873SOL     OW20251   1.422   2.424   5.354  0.5067 -0.2741 -0.0251
 2873SOL    HW120252   1.498   2.434   5.412  0.7850 -0.8151 -0.2961
 2873SOL    HW220253   1.407   2.518   5.349 -1.1455 -0.6027 -1.2874
 2874SOL     OW20254   3.620   0.848   5.524 -0.3621 -0.5878 -0.0271
 2874SOL    HW120255   3.537   0.828   5.566 -0.9012 -2.0920 -1.7882
 2874SOL    HW220256   3.678   0.773   5.541  0.0998 -0.3018 -0.3374
 2875SOL     OW20257   4.679   1.420  12.304  0.2204  0.5601  0.2529
 2875SOL    HW120258   0.005   1.475  12.354  2.2030 -1.4240 -0.0034
 2875SOL    HW220259   0.005   1.371  12.250 -0.9020  0.1949 -0.6751
 2876SOL     OW20260   2.648   0.519   2.891 -0.1559  0.2418 -0.5748
 2876SOL    HW120261   2.602   0.544   2.971  0.2742 -0.6219 -0.0574
 2876SOL    HW220262   2.576   0.495   2.833  0.1025 -2.0988  0.0786
 2877SOL     OW20263   0.354   1.564   8.582 -0.1109  0.1369 -0.0940
 2877SOL    HW120264   0.410   1.545   8.507  1.3778 -0.1467  1.0985
 2877SOL    HW220265   0.356   1.659   8.570 -0.9067  0.2564  0.6838
 2878SOL     OW20266   3.811   2.365   2.744 -0.4146 -0.1679 -0.0594
 2878SOL    HW120267   3.794   2.441   2.690 -0.2899 -0.0510  0.0638
 2878SOL    HW220268   3.726   2.321   2.747  0.0958 -1.2222 -0.8132
 2879SOL     OW20269   3.885   2.474   7.586 -0.7564 -0.1823 -0.1681
 2879SOL    HW120270   3.885   2.539   7.515 -0.3867  0.7977  0.7492
 2879SOL    HW220271   3.893   2.386   7.548 -1.3864 -1.7073  3.2145
 2880SOL     OW20272   3.301   2.973  12.617  0.1318 -0.1730 -0.4879
 2880SOL    HW120273   3.256   2.987  12.700 -0.7960  0.8600 -1.1594
 2880SOL    HW220274   3.362   3.046  12.617 -0.7009  0.5233  0.2523
 2881SOL     OW20275   1.404   4.613   4.513 -0.3069 -0.2789 -0.1177
 2881SOL    HW120276   1.312   4.610   4.540 -0.0018  0.2194  0.9878
 2881SOL    HW220277   1.434   4.703   4.520 -1.3216 -0.1140  2.1593
 2882SOL     OW20278   1.080   2.051  16.615  0.5372  0.2096  0.0767
 2882SOL    HW120279   1.129   1.982  16.659 -3.1349 -2.0408  0.5874
 2882SOL    HW220280   1.024   1.998  16.558  0.4085 -1.5111  1.8326
 2883SOL     OW20281   1.095   4.533   7.995  0.2355  0.3707  0.1278
 2883SOL    HW120282   1.135   4.527   8.082  0.7816 -0.8716 -0.2112
 2883SOL    HW220283   1.006   4.512   8.022  1.1130 -1.5473  1.5451
 2884SOL     OW20284   1.684   4.529   8.009 -0.0490  0.7746  0.0746
 2884SOL    HW120285   1.737   4.538   8.089 -0.2937  1.6485  0.1373
 2884SOL    HW220286   1.742   4.564   7.941  0.3772 -0.0269  0.0311
 2885SOL     OW20287   1.755   2.203   3.383 -0.2736 -0.0714 -0.0575
 2885SOL    HW120288   1.722   2.113   3.394 -2.0316  0.6199  0.3232
 2885SOL    HW220289   1.839   2.201   3.429  0.3525 -1.9929 -1.2895
 2886SOL     OW20290   3.243   1.100   9.082 -0.7650 -0.5894  0.1724
 2886SOL    HW120291   3.190   1.058   9.149  1.0395  0.2093  2.0826
 2886SOL    HW220292   3.313   1.138   9.134  0.1230  0.7174 -1.9557
 2887SOL     OW20293   0.306   1.764   3.300 -0.4114  0.2786 -0.4927
 2887SOL    HW120294   0.303   1.745   3.394 -2.6263 -0.9483 -0.8061
 2887SOL    HW220295   0.313   1.673   3.271 -4.0615 -1.1275  2.9791
 2888SOL     OW20296   2.894   3.604   8.315  0.1968  0.3667  0.0091
 2888SOL    HW120297   2.846   3.537   8.266  0.2896  0.6591 -0.4923
 2888SOL    HW220298   2.873   3.583   8.406 -0.1429 -0.0595 -0.1638
 2889SOL     OW20299   1.321   3.714  14.637 -0.0668  0.0185  0.1129
 2889SOL    HW120300   1.348   3.653  14.705 -0.0266  0.2136  0.2725
 2889SOL    HW220301   1.406   3.742  14.601 -0.3759  0.5743 -0.1953
 2890SOL     OW20302   4.207   2.942  11.056 -0.2774  0.2023 -0.2677
 2890SOL    HW120303   4.270   2.945  10.984  1.1387  3.4041  1.1036
 2890SOL    HW220304   4.147   3.016  11.044 -0.9224 -0.6659 -2.3385
 2891SOL     OW20305   4.038   2.952   7.070  0.7413 -0.1536 -0.0523
 2891SOL    HW120306   4.059   3.010   7.143 -0.8752  1.0941 -0.5903
 2891SOL    HW220307   3.943   2.947   7.071  0.6193  1.2538 -3.0881
 2892SOL     OW20308   2.791   0.660   6.392 -0.0930  0.2152  0.0232
 2892SOL    HW120309   2.824   0.749   6.396 -0.6886  0.4101  0.7285
 2892SOL    HW220310   2.714   0.674   6.448  1.2906  2.0023  1.4547
 2893SOL     OW20311   3.969   2.892   0.142  0.3262  0.1898 -0.3772
 2893SOL    HW120312   3.972   2.987   0.132  0.2275  0.3290  0.9677
 2893SOL    HW220313   3.887   2.880   0.190  0.3285  0.3689 -0.3294
 2894SOL     OW20314   2.287   0.606   7.942  0.3019  0.5266  0.6119
 2894SOL    HW120315   2.242   0.524   7.924  2.2646  0.0172 -1.9369
 2894SOL    HW220316   2.228   0.670   7.900  2.0914  1.1110 -1.0416
 2895SOL     OW20317   0.978   0.538   9.038 -0.3870  0.3674 -0.5229
 2895SOL    HW120318   1.048   0.490   9.083 -0.5301  1.5449  0.9560
 2895SOL    HW220319   0.942   0.454   9.009 -1.6918  0.1036  1.8746
 2896SOL     OW20320   3.180   3.769   7.983 -0.7805 -0.5994 -0.3433
 2896SOL    HW120321   3.148   3.699   8.040 -1.6328  1.2249  1.3888
 2896SOL    HW220322   3.224   3.827   8.045 -0.8044  0.5776 -1.4290
 2897SOL     OW20323   0.863   4.031   8.292  0.0739 -0.5899  0.3427
 2897SOL    HW120324   0.846   4.033   8.198 -0.2283 -1.3424  0.3844
 2897SOL    HW220325   0.774   4.023   8.327  0.0329  0.8891  0.5841
 2898SOL     OW20326   4.484   2.310  11.329  0.3055 -0.1137 -0.1542
 2898SOL    HW120327   4.542   2.383  11.306 -0.4902 -0.0881 -2.0506
 2898SOL    HW220328   4.403   2.361  11.334  1.9862  2.4671  0.9597
 2899SOL     OW20329   3.330   2.949   4.004 -0.5094 -0.8007 -0.0566
 2899SOL    HW120330   3.366   3.006   4.072 -0.7155 -2.8628  1.7798
 2899SOL    HW220331   3.266   3.011   3.969 -2.1754 -2.7724 -0.4827
 2900SOL     OW20332   1.013   3.274   4.608  0.7668  0.1577  0.3069
 2900SOL    HW120333   0.973   3.189   4.590  0.2637  0.7976 -1.5465
 2900SOL    HW220334   1.011   3.258   4.703  3.2526 -1.2392  0.1295
 2901SOL     OW20335   2.736   0.173   5.136  0.4312  0.0723 -0.4387
 2901SOL    HW120336   2.751   0.225   5.215 -0.5914 -2.8036  1.6312
 2901SOL    HW220337   2.717   0.240   5.070  2.6851  2.0454  0.8701
 2902SOL     OW20338   3.372   1.035  15.666  0.1015 -0.5760  0.0572
 2902SOL    HW120339   3.350   0.945  15.639 -1.9462  0.5612 -2.0390
 2902SOL    HW220340   3.292   1.086  15.660  0.1015 -0.4864  0.7715
 2903SOL     OW20341   3.658   2.207   5.085  1.0713  0.2526 -0.7674
 2903SOL    HW120342   3.629   2.281   5.032  1.3415  0.7448 -0.2262
 2903SOL    HW220343   3.605   2.230   5.161  3.4055 -1.8890  1.5076
 2904SOL     OW20344   4.265   1.709  16.865 -0.0722  0.1309 -0.3608
 2904SOL    HW120345   4.219   1.673  16.789  2.0630 -1.0309 -1.0792
 2904SOL    HW220346   4.265   1.803  16.849  0.3556  0.0490 -0.8373
 2905SOL     OW20347   3.215   2.157  11.506 -0.1484  0.1097  0.4113
 2905SOL    HW120348   3.133   2.125  11.470  1.8515 -1.5420 -2.6869
 2905SOL    HW220349   3.179   2.228  11.559 -1.9854 -0.5658  0.0583
 2906SOL     OW20350   3.966   1.641  10.601 -0.4571 -0.0909 -0.8716
 2906SOL    HW120351   4.010   1.678  10.524  1.5504  0.0659  0.3489
 2906SOL    HW220352   3.940   1.552  10.578 -0.5054 -0.1222 -0.6949
 2907SOL     OW20353   0.892   2.589   5.433 -0.1075 -0.0534 -0.5035
 2907SOL    HW120354   0.966   2.567   5.378 -0.7990 -1.5328 -0.8501
 2907SOL    HW220355   0.876   2.507   5.479  1.8853 -0.3934 -0.4206
 2908SOL     OW20356   2.559   0.106  14.883  0.0831 -0.0603  0.3680
 2908SOL    HW120357   2.624   0.122  14.952  1.8735 -0.6198 -1.1922
 2908SOL    HW220358   2.489   0.073  14.940  0.3711 -2.9993 -0.9482
 2909SOL     OW20359   3.418   3.117  10.880 -0.3225 -0.2255 -0.2810
 2909SOL    HW120360   3.367   3.072  10.947  0.5779 -2.1401 -0.8901
 2909SOL    HW220361   3.390   3.209  10.882 -0.0440 -0.1301 -0.6636
 2910SOL     OW20362   3.112   0.893   3.423 -0.4341  0.3352  0.4750
 2910SOL    HW120363   3.185   0.878   3.484  0.4347  2.4971 -0.0465
 2910SOL    HW220364   3.116   0.822   3.359  0.5500 -0.2621  1.1904
 2911SOL     OW20365   4.591   0.062   6.447  0.0258  0.2029 -0.2694
 2911SOL    HW120366   4.535   0.119   6.500  2.1821  0.3746  1.7978
 2911SOL    HW220367   4.664   0.038   6.504 -0.6527  0.0758  0.5415
 2912SOL     OW20368   3.405   1.666  16.677 -0.2523 -0.1357  0.1258
 2912SOL    HW120369   3.500   1.653  16.676 -0.2414  0.0851 -1.8231
 2912SOL    HW220370   3.387   1.716  16.598 -2.3021  0.5163  0.9991
 2913SOL     OW20371   2.256   1.520   4.184 -0.1459 -0.0932  0.5874
 2913SOL    HW120372   2.343   1.542   4.216  0.3501 -1.4306  0.1805
 2913SOL    HW220373   2.245   1.425   4.193 -0.7496 -0.1525 -0.7269
 2914SOL     OW20374   2.760   0.313  11.049  0.3772 -0.1804 -0.4189
 2914SOL    HW120375   2.779   0.309  11.143 -1.6370  2.7933  0.1170
 2914SOL    HW220376   2.817   0.241  11.022 -1.6021 -1.0105 -2.2845
 2915SOL     OW20377   1.027   3.141   3.701 -0.4716  0.1311  0.1689
 2915SOL    HW120378   1.094   3.157   3.767  0.4477 -1.7695 -0.2884
 2915SOL    HW220379   1.073   3.099   3.627  1.4965  0.8812  0.9735
 2916SOL     OW20380   1.643   3.095   8.528  0.3337 -0.7057 -0.4905
 2916SOL    HW120381   1.709   3.108   8.460  1.3985  0.4105  0.7587
 2916SOL    HW220382   1.676   3.153   8.597  1.8136 -0.4531 -1.4258
 2917SOL     OW20383   2.625   3.158   0.490 -0.5018  0.2255 -0.2800
 2917SOL    HW120384   2.632   3.145   0.395 -1.7106 -1.9304 -0.0723
 2917SOL    HW220385   2.683   3.086   0.511 -0.4609  1.1500  2.6992
 2918SOL     OW20386   1.375   2.673   8.111  0.8222  0.1430 -0.1466
 2918SOL    HW120387   1.408   2.624   8.035 -0.2945 -0.2365 -0.3880
 2918SOL    HW220388   1.419   2.758   8.100  0.3625  0.2655 -1.0548
 2919SOL     OW20389   0.428   1.064   4.934 -0.1237  0.3280 -0.5976
 2919SOL    HW120390   0.435   1.044   4.841  0.2972  2.4996 -1.0499
 2919SOL    HW220391   0.351   1.015   4.962  0.5818 -0.8487 -0.7564
 2920SOL     OW20392   4.483   2.242   0.123  0.5236 -0.1931 -0.4099
 2920SOL    HW120393   4.465   2.174   0.058 -0.5909 -0.8032  0.5512
 2920SOL    HW220394   4.454   2.199   0.203 -2.3016  0.0374 -1.2985
 2921SOL     OW20395   2.837   1.801   6.279  0.7675  0.0988  0.2673
 2921SOL    HW120396   2.905   1.750   6.234  0.6206  0.6745 -0.6021
 2921SOL    HW220397   2.883   1.871   6.325  1.2698 -1.1294  1.6399
 2922SOL     OW20398   4.148   2.775   8.109 -0.0719 -0.0076  0.0138
 2922SOL    HW120399   4.073   2.787   8.050 -1.1522 -0.2668  1.3230
 2922SOL    HW220400   4.189   2.699   8.067 -1.0030 -0.9121  0.7172
 2923SOL     OW20401   1.686   0.798  10.105 -0.2485 -0.8563  0.0009
 2923SOL    HW120402   1.739   0.858  10.053 -1.1004  1.5589  1.9035
 2923SOL    HW220403   1.723   0.818  10.191  0.3147 -1.4742 -0.1008
 2924SOL     OW20404   2.221   3.726  10.336 -0.7282 -0.0565  0.0584
 2924SOL    HW120405   2.180   3.672  10.404 -2.5199  0.8147 -0.3426
 2924SOL    HW220406   2.315   3.711  10.345 -0.7658  0.3551  1.1147
 2925SOL     OW20407   0.620   4.280   3.806  0.0183  0.3501  0.0449
 2925SOL    HW120408   0.560   4.303   3.734  0.4415  0.1918 -0.3576
 2925SOL    HW220409   0.642   4.362   3.850 -0.9071 -0.8843  2.7879
 2926SOL     OW20410   4.609   3.218   8.114 -0.3918  0.8267  0.2345
 2926SOL    HW120411   4.515   3.235   8.121 -0.5052 -0.2640  1.3003
 2926SOL    HW220412   4.610   3.195   8.021  1.2887 -1.4791  0.8270
 2927SOL     OW20413   0.733   1.211   5.309  0.5214  0.1399  0.0450
 2927SOL    HW120414   0.679   1.133   5.300  1.1119 -0.0010 -2.3102
 2927SOL    HW220415   0.664   1.278   5.304  1.1131  0.7483  0.1115
 2928SOL     OW20416   1.958   1.568   3.966 -0.1705 -0.3045 -0.4409
 2928SOL    HW120417   1.875   1.532   3.998  0.0644 -0.4419  0.0148
 2928SOL    HW220418   2.004   1.487   3.942  1.4884  0.4759  0.0535
 2929SOL     OW20419   0.990   3.027  17.016 -0.3813 -0.1909  0.7479
 2929SOL    HW120420   1.001   3.099  17.079  0.0377 -0.4343  0.9499
 2929SOL    HW220421   0.899   3.000  17.028 -0.9531  1.0722 -0.6262
 2930SOL     OW20422   4.183   2.954   4.376 -0.1626 -0.2292  0.3968
 2930SOL    HW120423   4.263   2.903   4.364 -1.2044 -2.0870  1.3663
 2930SOL    HW220424   4.193   3.008   4.297 -0.0388 -0.7264  0.0732
 2931SOL     OW20425   2.729   1.509  12.674  0.5572  0.6586 -0.4352
 2931SOL    HW120426   2.696   1.578  12.732 -0.3857 -1.1646  1.1896
 2931SOL    HW220427   2.737   1.431  12.729 -1.0992 -0.1541 -1.3541
 2932SOL     OW20428   1.666   1.650   2.928  0.4222  0.5894  0.4202
 2932SOL    HW120429   1.574   1.678   2.926  0.3346  0.2966  0.3972
 2932SOL    HW220430   1.712   1.731   2.949 -1.2826  1.2445  1.6299
 2933SOL     OW20431   2.066   3.256   5.181  1.0626  0.2595  0.3015
 2933SOL    HW120432   2.062   3.308   5.261  0.0776  0.0990  0.3681
 2933SOL    HW220433   2.048   3.170   5.220  0.8786 -0.0684 -0.4885
 2934SOL     OW20434   2.728   1.000  15.096 -0.0882 -0.1861  0.4221
 2934SOL    HW120435   2.652   1.026  15.148 -0.8045 -1.1165 -0.1624
 2934SOL    HW220436   2.777   0.968  15.172  0.3615 -0.4175  0.0334
 2935SOL     OW20437   0.752   0.240   8.901 -0.1265 -0.4229  0.3250
 2935SOL    HW120438   0.835   0.242   8.947 -0.0770  2.9010  0.1205
 2935SOL    HW220439   0.762   0.301   8.828  1.9660 -1.3295 -0.1431
 2936SOL     OW20440   3.391   1.932  15.635 -0.2163  0.1650  0.5710
 2936SOL    HW120441   3.328   1.943  15.563 -1.4041  2.2805  1.8997
 2936SOL    HW220442   3.439   1.850  15.625 -1.9547 -0.7143 -0.5032
 2937SOL     OW20443   4.714   1.076   8.964  0.4103 -0.1071 -0.2957
 2937SOL    HW120444   4.717   1.132   9.041 -1.2575 -0.2664 -0.1035
 2937SOL    HW220445   4.690   0.992   9.004  0.3296  0.2926  0.4916
 2938SOL     OW20446   2.397   3.572   4.114 -0.3205  0.4945 -0.7434
 2938SOL    HW120447   2.349   3.495   4.086  2.3368 -0.9118 -1.3622
 2938SOL    HW220448   2.333   3.619   4.169 -0.7083  0.1536 -0.9008
 2939SOL     OW20449   2.037   3.303  16.514  0.3796 -0.1948  0.3287
 2939SOL    HW120450   2.080   3.343  16.590  0.8414  0.4941 -0.2794
 2939SOL    HW220451   2.108   3.320  16.451  0.0810  0.6844  0.2279
 2940SOL     OW20452   3.790   1.033   0.623 -0.3927  0.2272 -0.3575
 2940SOL    HW120453   3.733   1.076   0.559  0.7944  0.9171 -0.9418
 2940SOL    HW220454   3.769   0.940   0.616 -0.5700  0.3754 -1.7650
 2941SOL     OW20455   3.178   1.991   1.110 -0.0885 -0.1479  0.4512
 2941SOL    HW120456   3.208   2.027   1.193  0.3421  0.2264  0.1334
 2941SOL    HW220457   3.237   2.029   1.045 -1.7174 -0.5220 -1.2571
 2942SOL     OW20458   2.975   1.422   8.238 -0.0627 -0.4140 -1.0706
 2942SOL    HW120459   2.937   1.347   8.283  0.8034 -0.4487 -0.3974
 2942SOL    HW220460   3.001   1.384   8.154  2.3722  2.0722 -1.4357
 2943SOL     OW20461   0.639   1.685   1.763  0.0486  0.0193  0.1287
 2943SOL    HW120462   0.615   1.767   1.808 -3.2449 -0.3515 -0.9064
 2943SOL    HW220463   0.625   1.614   1.826 -0.5445 -1.4455 -1.6527
 2944SOL     OW20464   0.593   1.729   6.058 -0.0933  0.8753 -0.1762
 2944SOL    HW120465   0.688   1.721   6.059 -0.1690  0.3753  4.3234
 2944SOL    HW220466   0.586   1.824   6.059 -0.2932  0.8816 -2.5916
 2945SOL     OW20467   0.252   3.127   7.982 -0.5268  0.4069 -0.2366
 2945SOL    HW120468   0.225   3.046   7.939 -0.0024  0.7915 -1.2906
 2945SOL    HW220469   0.265   3.192   7.913  1.8643 -0.9726 -1.1130
 2946SOL     OW20470   3.792   4.499   2.174  1.0112  0.2371  0.2089
 2946SOL    HW120471   3.714   4.457   2.211  2.6243 -1.8404  1.2360
 2946SOL    HW220472   3.857   4.461   2.233 -0.7475 -0.9128  1.4128
 2947SOL     OW20473   2.643   3.854   7.504  1.4907  0.5367  0.0736
 2947SOL    HW120474   2.577   3.873   7.437  1.7365  0.3790 -0.2113
 2947SOL    HW220475   2.589   3.856   7.583  2.5762 -0.3189  0.8354
 2948SOL     OW20476   2.445   3.176  15.439  0.2264  0.6157  0.1569
 2948SOL    HW120477   2.524   3.221  15.469 -0.4198  1.4505  0.6190
 2948SOL    HW220478   2.453   3.168  15.344  0.8381  0.1806  0.2458
 2949SOL     OW20479   0.097   0.262  11.418 -0.5156 -0.2829  0.3267
 2949SOL    HW120480   0.015   0.310  11.431 -1.4844 -1.3368 -1.8053
 2949SOL    HW220481   0.142   0.287  11.498 -2.7706  0.7779  1.2422
 2950SOL     OW20482   0.289   2.311   8.353 -0.2425  0.4743  0.9405
 2950SOL    HW120483   0.332   2.383   8.307  0.0512 -2.1717 -2.8638
 2950SOL    HW220484   0.249   2.249   8.292  2.3692 -0.6106  0.3782
 2951SOL     OW20485   3.703   3.422   3.849  0.9546  0.2272 -0.2514
 2951SOL    HW120486   3.690   3.508   3.810 -1.2067 -0.0863 -0.2544
 2951SOL    HW220487   3.614   3.387   3.851 -0.2342  3.1954 -2.0136
 2952SOL     OW20488   1.147   1.810   4.219 -0.3650 -0.1801 -0.1302
 2952SOL    HW120489   1.113   1.873   4.283 -1.3161  1.7368 -2.5208
 2952SOL    HW220490   1.078   1.746   4.238 -0.0332 -0.9570 -1.5462
 2953SOL     OW20491   1.930   4.345   8.022  0.2473 -0.2139  0.0459
 2953SOL    HW120492   1.900   4.290   7.950  0.8201  0.4038 -0.6713
 2953SOL    HW220493   1.929   4.424   7.967  0.4032 -1.7704 -2.1916
 2954SOL     OW20494   1.433   3.698   4.620 -0.2283 -0.9136 -0.5736
 2954SOL    HW120495   1.393   3.664   4.700  0.5632  2.5518  1.3041
 2954SOL    HW220496   1.364   3.700   4.554 -1.4194 -2.3819  0.6226
 2955SOL     OW20497   3.324   0.434   2.250  0.0120 -0.1431  0.0753
 2955SOL    HW120498   3.237   0.467   2.275  0.4229 -0.3081  1.7270
 2955SOL    HW220499   3.334   0.465   2.160  0.7420 -1.1934 -0.2060
 2956SOL     OW20500   3.863   1.070   9.410  0.4328  0.6113 -0.0306
 2956SOL    HW120501   3.841   0.978   9.424  1.0970  0.4966  0.2424
 2956SOL    HW220502   3.818   1.121   9.478  1.1805  0.0076  0.9205
 2957SOL     OW20503   4.439   1.356   6.847 -0.3810  0.1198 -0.0247
 2957SOL    HW120504   4.420   1.274   6.892 -2.2750  1.0764  0.8967
 2957SOL    HW220505   4.425   1.336   6.754  1.5949 -2.0193  0.1246
 2958SOL     OW20506   4.081   0.611   5.584 -0.0468  0.1450  0.4296
 2958SOL    HW120507   3.994   0.650   5.595 -0.6548 -1.0978 -0.0321
 2958SOL    HW220508   4.140   0.685   5.574 -1.0715  0.7259 -1.3762
 2959SOL     OW20509   4.397   1.145  17.533 -0.0589  0.0278  0.0405
 2959SOL    HW120510   4.338   1.148  17.608 -0.7364  0.5331 -0.5169
 2959SOL    HW220511   4.443   1.229  17.535  1.5927 -0.8978  1.3305
 2960SOL     OW20512   1.728   3.156   4.455 -0.3165  0.9072  0.1345
 2960SOL    HW120513   1.723   3.203   4.372 -0.5623  2.0559  0.8052
 2960SOL    HW220514   1.774   3.218   4.511  3.1343  0.5134 -2.2774
 2961SOL     OW20515   0.835   2.220   6.896  0.5241 -0.1619 -0.6060
 2961SOL    HW120516   0.784   2.165   6.837  0.0933  0.6446 -0.9903
 2961SOL    HW220517   0.778   2.297   6.894 -2.0859 -2.2043 -3.7155
 2962SOL     OW20518   2.781   1.768   0.434  0.7604  0.6283 -0.5145
 2962SOL    HW120519   2.696   1.749   0.395  2.0347 -1.1903 -2.4040
 2962SOL    HW220520   2.775   1.863   0.448 -2.3934  0.5196 -1.2459
 2963SOL     OW20521   3.304   3.683   9.499  0.1245 -0.4726  0.0914
 2963SOL    HW120522   3.238   3.707   9.435 -0.8101 -0.0841  1.2051
 2963SOL    HW220523   3.387   3.724   9.472 -0.8208  1.5394  0.2497
 2964SOL     OW20524   2.428   0.166   3.332  0.0356  0.3064  0.3012
 2964SOL    HW120525   2.355   0.174   3.392  0.7884 -0.4185  1.3147
 2964SOL    HW220526   2.454   0.258   3.320 -1.4111  0.6641 -0.0999
 2965SOL     OW20527   2.886   3.189   5.284  0.8035 -0.4064 -0.4118
 2965SOL    HW120528   2.935   3.213   5.363  1.1831  1.3691 -1.1864
 2965SOL    HW220529   2.956   3.152   5.229  0.7179 -0.9204 -0.1748
 2966SOL     OW20530   1.823   3.411   3.251  0.0940 -0.0049  0.7015
 2966SOL    HW120531   1.803   3.319   3.233  1.5737 -0.3934  1.0710
 2966SOL    HW220532   1.734   3.438   3.271  1.0311  2.5715  1.3202
 2967SOL     OW20533   2.733   2.156   4.830 -0.1430  0.0125 -0.2087
 2967SOL    HW120534   2.802   2.222   4.826 -2.4369  2.3820 -0.2224
 2967SOL    HW220535   2.754   2.114   4.913 -1.9207  0.8004  0.6331
 2968SOL     OW20536   1.013   4.176  12.352 -0.6060 -0.0732 -0.2225
 2968SOL    HW120537   1.057   4.098  12.316  1.8958  0.3608  1.8435
 2968SOL    HW220538   1.064   4.180  12.433 -2.1182  1.2309  0.6521
 2969SOL     OW20539   0.533   3.048   4.678  0.2998 -0.4706  0.2230
 2969SOL    HW120540   0.594   2.978   4.701  1.4298  0.0556 -1.1358
 2969SOL    HW220541   0.447   3.011   4.699  0.0896  0.3718  0.8264
 2970SOL     OW20542   3.167   0.868   3.715 -0.3259 -0.1304  0.2064
 2970SOL    HW120543   3.182   0.821   3.633 -0.0105 -1.8950  1.2697
 2970SOL    HW220544   3.096   0.812   3.747 -2.1576  2.7076  1.1299
 2971SOL     OW20545   2.259   3.372   4.839  0.0744  0.5303 -0.3190
 2971SOL    HW120546   2.202   3.338   4.770 -1.3382  0.2142  1.0037
 2971SOL    HW220547   2.216   3.457   4.849 -1.0313  0.0058 -0.6555
 2972SOL     OW20548   4.018   0.050   2.830 -0.7149  0.3661  0.0272
 2972SOL    HW120549   3.948   0.012   2.776  0.0222 -1.1587  0.1428
 2972SOL    HW220550   3.969   0.083   2.905 -3.8677 -0.3249 -1.7115
 2973SOL     OW20551   1.473   3.259   7.193  0.0070 -0.5882 -0.0377
 2973SOL    HW120552   1.488   3.321   7.264 -0.4641 -0.6135  0.0817
 2973SOL    HW220553   1.552   3.205   7.193  0.6739  0.3861 -0.5752
 2974SOL     OW20554   4.415   1.754   4.983 -0.0551 -0.1084 -0.2140
 2974SOL    HW120555   4.444   1.805   5.060  2.2786  0.0150 -1.1671
 2974SOL    HW220556   4.382   1.670   5.013  1.1819 -0.8921 -1.0167
 2975SOL     OW20557   1.247   1.591  16.516  0.9047  0.0884  0.1283
 2975SOL    HW120558   1.226   1.541  16.437  3.1624 -0.3813 -0.1734
 2975SOL    HW220559   1.322   1.646  16.495  0.3775  0.1421 -1.5554
 2976SOL     OW20560   3.978   1.562  10.310  0.1383  1.0080 -0.1064
 2976SOL    HW120561   3.936   1.498  10.367 -1.2340 -0.6370 -3.0469
 2976SOL    HW220562   4.070   1.535  10.317 -0.2527  0.0977  1.6420
 2977SOL     OW20563   2.321   0.390  16.086 -1.4996  0.0212  0.3852
 2977SOL    HW120564   2.305   0.296  16.082  0.6671 -0.2583 -1.9011
 2977SOL    HW220565   2.409   0.392  16.047 -1.7993 -1.8829 -0.3585
 2978SOL     OW20566   3.272   1.463   0.342 -0.6136  0.4458  0.3923
 2978SOL    HW120567   3.322   1.485   0.421 -0.6439 -1.0189  0.8188
 2978SOL    HW220568   3.189   1.509   0.356 -0.7217  0.7409 -1.1959
 2979SOL     OW20569   3.331   0.169   8.821 -0.0178  0.2219 -0.0059
 2979SOL    HW120570   3.372   0.181   8.907  0.9173 -1.6830 -0.1915
 2979SOL    HW220571   3.283   0.252   8.824  1.5139  1.0902  0.2727
 2980SOL     OW20572   3.596   0.102   7.743  0.4334 -0.0311 -0.4302
 2980SOL    HW120573   3.578   0.098   7.837  1.9470  1.9198 -0.0640
 2980SOL    HW220574   3.609   0.014   7.708 -1.0119  0.6596 -2.7222
 2981SOL     OW20575   2.708   3.122   2.877 -0.0696 -0.5313 -0.0936
 2981SOL    HW120576   2.709   3.214   2.904  2.0608 -0.1763 -1.3951
 2981SOL    HW220577   2.787   3.114   2.823  1.4566  0.0778  2.0434
 2982SOL     OW20578   1.706   1.244   7.125  0.0382 -0.3724  0.1947
 2982SOL    HW120579   1.755   1.243   7.207  1.6231 -0.1124 -0.7422
 2982SOL    HW220580   1.699   1.337   7.104 -0.6852 -0.3638  0.4961
 2983SOL     OW20581   0.138   3.653   5.422  0.0158 -0.6146  0.3089
 2983SOL    HW120582   0.131   3.622   5.331  1.5479  0.3377 -0.1111
 2983SOL    HW220583   0.109   3.574   5.468 -0.2488 -0.1972  0.8653
 2984SOL     OW20584   2.590   2.565  14.025  0.3646 -0.2072  0.5196
 2984SOL    HW120585   2.670   2.554  13.972  1.6431  0.7951  2.2436
 2984SOL    HW220586   2.545   2.637  13.981  0.2024 -1.3838 -1.2596
 2985SOL     OW20587   0.440   1.154  16.797  0.0690 -0.0376 -0.1002
 2985SOL    HW120588   0.376   1.187  16.735  0.7106 -1.0584 -1.3040
 2985SOL    HW220589   0.407   1.200  16.874 -0.0178 -0.3024  0.0194
 2986SOL     OW20590   2.160   3.841   4.039 -0.0574  0.0037  0.6947
 2986SOL    HW120591   2.123   3.755   4.020  2.0263 -0.7508 -0.0298
 2986SOL    HW220592   2.095   3.906   4.013 -1.4725 -1.8954 -0.4554
 2987SOL     OW20593   3.092   3.115   3.864 -0.7604  0.2352  0.0749
 2987SOL    HW120594   3.060   3.188   3.811  0.0741  0.5784  0.0478
 2987SOL    HW220595   3.018   3.107   3.925 -0.1021 -0.0975  0.8338
 2988SOL     OW20596   1.720   1.222   3.475  0.0624  0.2504 -0.1433
 2988SOL    HW120597   1.642   1.252   3.429 -0.7238 -0.4725  0.7160
 2988SOL    HW220598   1.677   1.223   3.560 -0.3753 -0.4569 -0.3538
 2989SOL     OW20599   1.827   2.399   0.285 -0.3214 -0.4515 -0.0995
 2989SOL    HW120600   1.911   2.357   0.267  0.3991  1.6256 -1.5063
 2989SOL    HW220601   1.771   2.321   0.291 -0.5824 -0.3911 -1.9437
 2990SOL     OW20602   1.124   1.259   8.494  0.2266  0.0327  0.6244
 2990SOL    HW120603   1.142   1.288   8.404 -2.3616 -0.4931 -0.0704
 2990SOL    HW220604   1.157   1.170   8.482 -1.3586 -0.3697 -0.7453
 2991SOL     OW20605   2.588   1.703  12.844  0.1368  0.0868  0.2832
 2991SOL    HW120606   2.579   1.736  12.934 -2.0002 -0.0188  0.1055
 2991SOL    HW220607   2.522   1.759  12.803 -0.4819 -0.2645  0.7973
 2992SOL     OW20608   0.540   0.749   7.467 -0.5220  0.4134 -0.2097
 2992SOL    HW120609   0.446   0.769   7.474 -0.5910  0.2897 -0.7746
 2992SOL    HW220610   0.569   0.765   7.377 -0.6319  1.5065 -0.0452
 2993SOL     OW20611   2.452   2.314   1.460  0.7361 -0.5317 -0.3292
 2993SOL    HW120612   2.381   2.376   1.447  0.6559 -0.2044  1.6248
 2993SOL    HW220613   2.532   2.366   1.448  0.4024  0.2491  0.7920
 2994SOL     OW20614   0.041   4.443  13.832 -0.8901 -0.0891  0.1422
 2994SOL    HW120615   0.112   4.458  13.770 -0.2146 -3.0262  0.1877
 2994SOL    HW220616   0.095   4.396  13.896 -2.0203 -2.7282 -0.8233
 2995SOL     OW20617   1.148   3.924  12.266 -0.0751 -0.2787 -0.4001
 2995SOL    HW120618   1.186   3.839  12.243  0.0454 -0.0939 -0.8948
 2995SOL    HW220619   1.121   3.946  12.176  0.6648 -1.9599 -1.0363
 2996SOL     OW20620   4.670   2.160   9.278  0.2292  0.2290 -0.5815
 2996SOL    HW120621   4.719   2.080   9.257 -2.7081 -1.2715 -1.8204
 2996SOL    HW220622   4.709   2.180   9.363 -0.4556 -2.5563  0.3959
 2997SOL     OW20623   2.872   1.096   1.139  0.0717 -0.1581  0.0453
 2997SOL    HW120624   2.959   1.058   1.137 -0.6755 -1.8538 -0.1222
 2997SOL    HW220625   2.826   1.036   1.080 -0.4665 -0.5073  0.8113
 2998SOL     OW20626   0.125   2.145   2.302 -0.1272 -0.2201  0.1111
 2998SOL    HW120627   0.163   2.216   2.352 -1.4838 -0.8530  2.0153
 2998SOL    HW220628   0.079   2.115   2.380 -3.1483 -1.0877 -1.9893
 2999SOL     OW20629   4.653   0.394   1.736 -0.0477  0.4258  0.2296
 2999SOL    HW120630   0.004   0.355   1.738  0.7293  2.0417 -1.7752
 2999SOL    HW220631   4.647   0.411   1.830  0.0334  0.8165  0.1661
 3000SOL     OW20632   2.880   1.578   3.101  0.0649  0.6124 -0.7388
 3000SOL    HW120633   2.956   1.609   3.053 -0.4465  0.4222 -1.6667
 3000SOL    HW220634   2.825   1.546   3.030  0.3553  1.0912 -1.1810
 3001SOL     OW20635   4.601   3.218   4.888  0.2678  0.4136  0.6247
 3001SOL    HW120636   4.519   3.211   4.937 -0.6790 -0.3887 -1.0810
 3001SOL    HW220637   4.650   3.253   4.963  1.4912  0.5695 -0.2565
 3002SOL     OW20638   2.791   2.035   5.048 -0.3179  0.1184  0.1237
 3002SOL    HW120639   2.747   2.065   5.127 -2.5633  0.1169 -1.0986
 3002SOL    HW220640   2.883   2.050   5.069  0.2082 -1.9096 -0.6803
 3003SOL     OW20641   2.574   4.441   4.569 -0.4334 -0.0503 -0.0932
 3003SOL    HW120642   2.550   4.486   4.489 -1.9220 -0.2809  0.2085
 3003SOL    HW220643   2.589   4.353   4.535  0.1359 -0.7320  1.9117
 3004SOL     OW20644   2.799   2.067  12.541 -0.5394  1.1392  0.2681
 3004SOL    HW120645   2.730   2.001  12.550  0.4872  0.2956  1.9215
 3004SOL    HW220646   2.879   2.015  12.531  0.2544  2.8693 -2.7279
 3005SOL     OW20647   1.474   4.344   6.544 -0.1630  0.4456 -0.1202
 3005SOL    HW120648   1.565   4.319   6.527 -0.0801  0.6476  0.0311
 3005SOL    HW220649   1.454   4.390   6.462 -0.5480  1.9035  0.7977
 3006SOL     OW20650   0.367   0.317   5.568 -0.2421 -0.5097  0.4744
 3006SOL    HW120651   0.405   0.233   5.545  0.4433 -0.5258  1.6931
 3006SOL    HW220652   0.323   0.337   5.485 -0.3617  0.9977  0.9020
 3007SOL     OW20653   0.291   4.488  13.718  0.0133 -0.0876  0.4679
 3007SOL    HW120654   0.337   4.525  13.644 -0.1012  1.7805  1.3127
 3007SOL    HW220655   0.279   4.571  13.765 -2.2817 -0.0616 -0.1439
 3008SOL     OW20656   0.946   3.368   6.405 -0.3443  0.1686 -0.0575
 3008SOL    HW120657   0.871   3.403   6.357 -0.6818 -1.8877 -1.0297
 3008SOL    HW220658   0.917   3.354   6.495 -1.2845  0.8871 -0.2514
 3009SOL     OW20659   2.747   0.906   4.260 -0.2324 -0.2930 -1.2358
 3009SOL    HW120660   2.734   0.815   4.234  1.4040 -0.7540 -0.3966
 3009SOL    HW220661   2.764   0.952   4.177  0.2291 -0.1433 -1.0545
 3010SOL     OW20662   1.726   2.320   7.709 -0.1431  0.0091  0.6138
 3010SOL    HW120663   1.631   2.311   7.720 -0.3018 -0.6459 -1.3277
 3010SOL    HW220664   1.748   2.340   7.800 -3.4382 -0.0329  1.4266
 3011SOL     OW20665   3.134   3.818   1.403 -0.6023  0.2633 -0.2148
 3011SOL    HW120666   3.066   3.879   1.431  0.0564  1.7411 -1.9132
 3011SOL    HW220667   3.186   3.797   1.481 -0.0546  0.6788 -0.4723
 3012SOL     OW20668   3.484   3.194   4.071  0.1037 -0.2275  0.9646
 3012SOL    HW120669   3.421   3.232   4.132  0.3513 -0.6047  1.4489
 3012SOL    HW220670   3.547   3.151   4.129 -0.5983 -1.4631  0.8102
 3013SOL     OW20671   0.227   3.666   8.991 -0.2090 -0.3315  0.1390
 3013SOL    HW120672   0.287   3.693   9.061 -0.0960 -0.1079 -0.0453
 3013SOL    HW220673   0.290   3.653   8.921 -0.6423  0.3873 -0.3857
 3014SOL     OW20674   3.495   2.634   5.605 -0.1084 -0.0215  0.1914
 3014SOL    HW120675   3.500   2.562   5.668  1.0871 -1.5914 -1.7201
 3014SOL    HW220676   3.573   2.685   5.627 -0.4836 -0.2243  2.0427
 3015SOL     OW20677   1.466   0.238   2.946  0.5583  0.3780 -0.8187
 3015SOL    HW120678   1.485   0.306   2.881 -1.2350  1.2362 -0.4298
 3015SOL    HW220679   1.410   0.286   3.006  1.8611  0.4913  0.2927
 3016SOL     OW20680   3.084   2.360   1.074 -0.3787  0.4870  0.3004
 3016SOL    HW120681   3.010   2.353   1.014 -1.7477  0.4623  1.9778
 3016SOL    HW220682   3.157   2.322   1.026  0.5326  2.2945  0.2298
 3017SOL     OW20683   3.110   4.358  15.159 -0.2396  0.5902  0.4743
 3017SOL    HW120684   3.158   4.375  15.078 -0.3374 -1.0487  0.0886
 3017SOL    HW220685   3.168   4.399  15.224  1.3386 -0.7373 -0.1078
 3018SOL     OW20686   3.153   0.883  17.338  0.4717 -0.4505 -0.6739
 3018SOL    HW120687   3.196   0.893  17.253 -0.6101 -1.5638 -1.3483
 3018SOL    HW220688   3.132   0.789  17.335  1.4764 -0.7417  1.0639
 3019SOL     OW20689   3.990   4.386  13.050  0.1046  0.4296  0.9118
 3019SOL    HW120690   3.950   4.302  13.026  1.3828  0.7175 -2.2682
 3019SOL    HW220691   4.078   4.371  13.083 -0.4361 -3.5219  0.5145
 3020SOL     OW20692   1.822   1.147   8.664 -0.4537 -0.1925 -0.3682
 3020SOL    HW120693   1.892   1.141   8.599  0.6092 -0.3603  0.7874
 3020SOL    HW220694   1.779   1.064   8.642 -1.1029  0.7031 -2.5267
 3021SOL     OW20695   4.145   3.620  13.996  0.6677  0.1882  0.2420
 3021SOL    HW120696   4.193   3.703  13.997  1.8834 -0.5641  2.5256
 3021SOL    HW220697   4.209   3.568  13.947  1.0105 -0.3659  1.2925
 3022SOL     OW20698   2.013   2.290   1.209 -0.3894  0.2745  0.5498
 3022SOL    HW120699   2.068   2.305   1.133  0.0347  4.6799  1.7327
 3022SOL    HW220700   2.082   2.269   1.273  0.5262 -0.0409 -0.5508
 3023SOL     OW20701   0.285   3.636   4.270 -0.0203  0.1488  0.0672
 3023SOL    HW120702   0.378   3.658   4.270  0.0142  0.0402 -2.5254
 3023SOL    HW220703   0.256   3.726   4.254  0.4792  0.5420  1.3837
 3024SOL     OW20704   1.467   0.706   3.454  0.0152 -0.2751  0.4189
 3024SOL    HW120705   1.522   0.783   3.469 -0.3734  0.1786 -0.4721
 3024SOL    HW220706   1.392   0.739   3.405  0.9777 -0.4542 -1.1665
 3025SOL     OW20707   2.198   3.901  10.114  0.3288  0.0528  0.0265
 3025SOL    HW120708   2.222   3.828  10.171 -2.3147 -1.0441 -0.2475
 3025SOL    HW220709   2.197   3.868  10.024 -0.4437  0.9070 -0.2801
 3026SOL     OW20710   0.213   3.028   8.445  0.2789 -0.3298 -0.0387
 3026SOL    HW120711   0.191   3.089   8.374  0.3368  0.7989  0.9119
 3026SOL    HW220712   0.129   3.009   8.488  0.5771 -0.1347  0.6264
 3027SOL     OW20713   3.786   2.327   1.483  0.4005 -0.3831 -0.2500
 3027SOL    HW120714   3.816   2.247   1.528 -2.3201 -1.3519 -0.1729
 3027SOL    HW220715   3.743   2.369   1.557  1.1414  0.1961 -0.1451
 3028SOL     OW20716   1.036   0.740   5.946 -0.2799  0.4886 -0.0781
 3028SOL    HW120717   1.128   0.744   5.970 -0.0693  1.3134 -1.0335
 3028SOL    HW220718   1.037   0.646   5.926 -0.1263  0.6576 -0.8680
 3029SOL     OW20719   3.779   0.319  12.343  0.8632  0.2678 -0.0012
 3029SOL    HW120720   3.872   0.338  12.334  1.1736 -0.7653  1.0570
 3029SOL    HW220721   3.789   0.234  12.386 -1.7807 -1.1359 -2.2170
 3030SOL     OW20722   4.487   2.141   4.495  0.6786 -0.6012  0.1561
 3030SOL    HW120723   4.581   2.147   4.480  0.4538 -0.6510 -1.3319
 3030SOL    HW220724   4.481   2.170   4.586 -0.2839 -1.7891  0.4708
 3031SOL     OW20725   1.138   1.462  12.132  0.2985 -0.0144 -0.5625
 3031SOL    HW120726   1.141   1.367  12.145 -0.4093  0.1719  1.0135
 3031SOL    HW220727   1.230   1.485  12.118 -0.0825  1.5583 -0.4761
 3032SOL     OW20728   1.160   0.312   8.276 -0.2498  0.1668 -0.8725
 3032SOL    HW120729   1.185   0.366   8.351 -1.1313 -0.5902 -0.0417
 3032SOL    HW220730   1.111   0.241   8.318  1.2287 -0.4150 -0.1562
 3033SOL     OW20731   3.510   0.131   3.636  0.1417  0.2565 -0.4278
 3033SOL    HW120732   3.437   0.142   3.696 -2.0079  0.1397 -3.0426
 3033SOL    HW220733   3.471   0.057   3.589  1.4634 -0.8002  0.1081
 3034SOL     OW20734   4.119   3.754   6.801 -0.6006 -0.4330 -0.3246
 3034SOL    HW120735   4.093   3.845   6.814 -0.4867 -0.4944  0.3023
 3034SOL    HW220736   4.178   3.749   6.876 -2.5251 -0.3868  1.2101
 3035SOL     OW20737   2.898   2.068   5.877  0.6641  0.5044  0.4179
 3035SOL    HW120738   2.957   2.060   5.952  0.1583 -1.1048  0.6391
 3035SOL    HW220739   2.820   2.095   5.926  1.0781 -1.6241  2.2235
 3036SOL     OW20740   1.306   1.273   3.056 -0.5431  0.3039 -0.3494
 3036SOL    HW120741   1.299   1.221   2.975 -0.6733  0.3959 -0.3972
 3036SOL    HW220742   1.220   1.270   3.098 -0.3153 -0.5681  0.0431
 3037SOL     OW20743   3.036   3.265  11.637 -0.2536  0.1743  0.3678
 3037SOL    HW120744   3.028   3.355  11.608 -1.0296 -1.0973 -3.3315
 3037SOL    HW220745   3.059   3.280  11.729  1.0446  0.3175  0.0259
 3038SOL     OW20746   2.653   3.969   8.234 -0.0133 -0.5232  0.0870
 3038SOL    HW120747   2.739   3.939   8.204 -0.0473 -2.0172  1.4677
 3038SOL    HW220748   2.678   3.997   8.322  1.4953  1.8447 -1.0915
 3039SOL     OW20749   0.748   1.118   2.148 -0.8031 -0.0298  0.4439
 3039SOL    HW120750   0.779   1.032   2.120  0.8029  0.5410  0.4747
 3039SOL    HW220751   0.656   1.101   2.168 -0.1984 -0.9882  2.3656
 3040SOL     OW20752   4.031   2.625   2.887  0.1985  0.1694  0.0082
 3040SOL    HW120753   3.943   2.613   2.922 -0.4264  0.2954 -1.4864
 3040SOL    HW220754   4.069   2.537   2.893 -1.7922 -0.7663 -1.0021
 3041SOL     OW20755   3.670   3.632   9.256 -0.6486 -0.0620  0.2333
 3041SOL    HW120756   3.741   3.571   9.234 -0.4452 -1.2315  4.1005
 3041SOL    HW220757   3.595   3.598   9.207 -1.4359  0.9248  0.7660
 3042SOL     OW20758   0.435   3.710   5.850 -0.0875  0.0026 -0.2462
 3042SOL    HW120759   0.356   3.724   5.796  0.7833  0.4154 -1.4139
 3042SOL    HW220760   0.419   3.768   5.925  0.4614 -0.8775  0.5400
 3043SOL     OW20761   3.760   1.348  16.186 -0.1455  0.1888 -0.2183
 3043SOL    HW120762   3.819   1.301  16.245 -2.4476 -2.7477 -0.2725
 3043SOL    HW220763   3.766   1.298  16.105  1.5961  0.1515 -0.0622
 3044SOL     OW20764   3.798   3.186   8.372  0.2077  0.0681 -0.6559
 3044SOL    HW120765   3.866   3.119   8.386 -1.2663 -1.2666  0.1253
 3044SOL    HW220766   3.784   3.197   8.466 -0.1046 -2.0886 -0.4361
 3045SOL     OW20767   2.257   4.033   5.188 -0.3022 -0.1839 -0.1371
 3045SOL    HW120768   2.182   3.993   5.232  0.6841 -1.3192  0.4976
 3045SOL    HW220769   2.296   3.961   5.139 -1.2174 -0.6236 -0.2049
 3046SOL     OW20770   1.197   4.008   0.366 -0.4732 -0.3340 -0.0189
 3046SOL    HW120771   1.224   4.005   0.457  1.4562 -0.1838 -0.5962
 3046SOL    HW220772   1.138   4.084   0.362  0.1757  0.1937  0.6494
 3047SOL     OW20773   2.693   1.971   5.288 -0.0236  0.1225  0.1689
 3047SOL    HW120774   2.772   1.942   5.333 -0.4442 -2.7984 -0.9462
 3047SOL    HW220775   2.643   1.889   5.294  1.2666 -0.7310 -0.6246
 3048SOL     OW20776   1.496   1.358  14.646  0.1259 -0.0189 -0.0953
 3048SOL    HW120777   1.497   1.435  14.590  1.5690  1.0674  1.4116
 3048SOL    HW220778   1.535   1.381  14.730 -0.8611  0.4886  0.2325
 3049SOL     OW20779   1.306   0.794   3.676 -0.0635 -0.3158 -0.6006
 3049SOL    HW120780   1.296   0.782   3.582 -3.4191  0.0475 -0.3074
 3049SOL    HW220781   1.215   0.779   3.702  0.1358 -0.2218  0.1529
 3050SOL     OW20782   4.126   2.841   6.035  0.2406  0.0289  0.9040
 3050SOL    HW120783   4.180   2.778   5.988  2.0495  1.6607  0.8030
 3050SOL    HW220784   4.132   2.916   5.976 -0.0216 -0.2567  0.5173
 3051SOL     OW20785   0.731   1.835   6.496  0.5352  0.3976 -0.0476
 3051SOL    HW120786   0.702   1.926   6.495  0.1140  0.2475 -1.3565
 3051SOL    HW220787   0.657   1.787   6.458  1.4019 -1.4460  0.5812
 3052SOL     OW20788   0.365   3.451   5.767  0.3600  0.0836 -0.4559
 3052SOL    HW120789   0.297   3.439   5.832  0.0267 -0.8361 -0.9669
 3052SOL    HW220790   0.400   3.537   5.788  0.5785  0.1259 -0.9892
 3053SOL     OW20791   4.095   4.524   4.205 -0.2499 -0.1182 -0.4155
 3053SOL    HW120792   4.068   4.600   4.153  1.8274  1.8067  1.2815
 3053SOL    HW220793   4.036   4.460   4.166 -1.2231  1.6458 -1.8630
 3054SOL     OW20794   0.662   0.147  10.680 -0.7573  0.6307  0.0771
 3054SOL    HW120795   0.736   0.095  10.649 -1.7514 -1.1542  0.7004
 3054SOL    HW220796   0.688   0.168  10.769 -1.5456  1.9405 -0.0033
 3055SOL     OW20797   0.113   2.487  11.143  0.1979  0.1897  0.6183
 3055SOL    HW120798   0.040   2.528  11.191  1.3990  2.3647  0.5575
 3055SOL    HW220799   0.063   2.437  11.079 -1.4218  1.4405  0.9005
 3056SOL     OW20800   1.863   0.976   9.952 -0.2939 -1.0043  0.3768
 3056SOL    HW120801   1.898   1.064   9.967 -3.2765 -0.1397  2.3540
 3056SOL    HW220802   1.940   0.937   9.912  1.6081  1.3626  1.7168
 3057SOL     OW20803   0.427   1.336  13.068  0.1728 -0.1643  0.4761
 3057SOL    HW120804   0.350   1.355  13.121  0.4933  0.0509  0.8539
 3057SOL    HW220805   0.394   1.258  13.021  0.2077  0.3908 -0.4792
 3058SOL     OW20806   4.306   2.136   5.949  0.1999 -0.3759 -0.7134
 3058SOL    HW120807   4.212   2.156   5.953  0.6214  1.3990  0.4827
 3058SOL    HW220808   4.313   2.053   5.996  1.2870 -0.7752 -1.5966
 3059SOL     OW20809   2.216   1.767   5.986 -0.1829  0.0318 -0.4349
 3059SOL    HW120810   2.164   1.699   6.028  1.1312 -0.5688  0.2149
 3059SOL    HW220811   2.164   1.776   5.906  0.9050  2.1776 -0.9047
 3060SOL     OW20812   1.629   2.713   8.389  0.0403  0.0373 -0.1322
 3060SOL    HW120813   1.682   2.781   8.347  1.4137 -1.6346 -1.1091
 3060SOL    HW220814   1.662   2.633   8.348  1.2790  0.7808 -0.5822
 3061SOL     OW20815   2.193   3.056   2.895 -0.3828  0.2443 -0.2409
 3061SOL    HW120816   2.153   3.036   2.810 -1.0103 -1.2116  0.3917
 3061SOL    HW220817   2.113   3.030   2.941 -0.0877  1.3312  0.8650
 3062SOL     OW20818   4.697   3.881  14.499 -0.3413  0.4775  0.1635
 3062SOL    HW120819   0.008   3.935  14.436  0.1195 -0.6360 -0.4463
 3062SOL    HW220820   0.034   3.840  14.546  0.3153  1.2298 -0.1852
 3063SOL     OW20821   3.172   1.488   1.378 -0.0448 -0.4204  0.0454
 3063SOL    HW120822   3.153   1.405   1.333  0.6206 -0.1732 -0.6892
 3063SOL    HW220823   3.110   1.556   1.351  1.0739  0.9280  0.9106
 3064SOL     OW20824   3.727   2.468   1.968  0.3587 -0.2099  0.0117
 3064SOL    HW120825   3.747   2.534   1.901 -1.0303  0.0928 -0.0980
 3064SOL    HW220826   3.712   2.511   2.052 -0.3889 -0.4743  0.0065
 3065SOL     OW20827   3.562   3.795   9.442  0.3490 -0.0705  0.2832
 3065SOL    HW120828   3.641   3.832   9.481  3.5944 -3.7546 -2.8341
 3065SOL    HW220829   3.601   3.730   9.384  1.8850  0.9427  0.1746
 3066SOL     OW20830   1.616   4.636   3.551  0.5382  0.1349 -0.3168
 3066SOL    HW120831   1.581   4.611   3.466  0.5532 -0.2014 -0.2245
 3066SOL    HW220832   1.692   4.684   3.520  0.1916  1.9044  1.5230
 3067SOL     OW20833   4.046   0.697   4.199 -0.1934 -0.2572 -0.0978
 3067SOL    HW120834   4.044   0.753   4.121 -0.2842  0.5904  0.5114
 3067SOL    HW220835   3.965   0.718   4.246 -0.4211  1.6517 -1.3508
 3068SOL     OW20836   2.530   2.531   0.316 -0.4144 -0.6902  0.0031
 3068SOL    HW120837   2.470   2.551   0.245  1.3331  3.3059 -0.3411
 3068SOL    HW220838   2.610   2.514   0.267  0.8172  0.0692  1.7434
 3069SOL     OW20839   0.160   3.045   5.477 -0.0322  0.5506 -0.8377
 3069SOL    HW120840   0.129   2.986   5.546 -0.1743  1.1387 -0.3927
 3069SOL    HW220841   0.180   3.127   5.522 -0.3189 -0.5986  1.3827
 3070SOL     OW20842   1.605   4.297   5.924  0.2072  0.0699 -0.0944
 3070SOL    HW120843   1.567   4.217   5.888 -0.4172 -1.3188  3.6677
 3070SOL    HW220844   1.670   4.255   5.980  1.3514  4.3588  1.7931
 3071SOL     OW20845   2.975   1.683   1.311  0.7253  0.1967 -0.2721
 3071SOL    HW120846   2.926   1.631   1.374  0.2490  1.2611  0.2300
 3071SOL    HW220847   2.904   1.725   1.263  0.5028 -0.7245 -0.7446
 3072SOL     OW20848   2.034   2.035  17.169  0.1050 -0.3233 -0.1588
 3072SOL    HW120849   2.040   2.130  17.185  2.3013 -0.5074  0.1247
 3072SOL    HW220850   2.104   1.999  17.223 -0.5887 -2.0617 -0.4293
 3073SOL     OW20851   4.637   2.835   6.785 -0.3554 -0.1656 -0.2666
 3073SOL    HW120852   4.697   2.908   6.771  1.0018 -1.2981 -0.3577
 3073SOL    HW220853   4.612   2.809   6.697  0.4175 -1.8507  0.0036
 3074SOL     OW20854   3.415   1.816   4.150  0.3780 -0.1788 -0.0378
 3074SOL    HW120855   3.493   1.774   4.114 -0.7144 -0.7265 -1.7483
 3074SOL    HW220856   3.369   1.834   4.069  1.9078  1.4038 -0.5665
 3075SOL     OW20857   2.121   1.681  11.773 -0.1481  0.3294  0.0194
 3075SOL    HW120858   2.149   1.600  11.814  0.8029  0.8006  0.2830
 3075SOL    HW220859   2.205   1.719  11.748  0.9066 -2.6088 -0.8935
 3076SOL     OW20860   2.131   4.047   7.433 -0.2596 -0.1337  0.1810
 3076SOL    HW120861   2.117   3.954   7.453  1.0638 -0.4014 -0.1324
 3076SOL    HW220862   2.040   4.072   7.419  0.0852  0.6710 -0.5951
 3077SOL     OW20863   1.392   3.168  17.738 -0.5803 -0.4792  0.2312
 3077SOL    HW120864   1.367   3.110   0.070 -1.0267 -0.5975 -0.0194
 3077SOL    HW220865   1.396   3.108  17.664  2.3676 -2.4938  2.0575
 3078SOL     OW20866   0.746   3.884   7.284  0.4420  0.3455  0.0820
 3078SOL    HW120867   0.834   3.851   7.266 -0.2721 -0.9548 -1.0291
 3078SOL    HW220868   0.756   3.928   7.368 -1.0656 -1.1541  1.0509
 3079SOL     OW20869   2.787   3.124   6.836 -0.0666  0.4889  0.1289
 3079SOL    HW120870   2.752   3.196   6.889 -1.3192  0.6422 -0.9080
 3079SOL    HW220871   2.879   3.146   6.851  0.5900 -1.2627 -1.2729
 3080SOL     OW20872   0.689   4.136   7.148  0.0984  0.0462  0.5323
 3080SOL    HW120873   0.771   4.151   7.101 -0.2623 -0.7416 -0.3674
 3080SOL    HW220874   0.699   4.043   7.172  1.9713  0.1666  0.2512
 3081SOL     OW20875   2.151   4.080   0.816  0.2880 -0.4295  0.1653
 3081SOL    HW120876   2.074   4.106   0.765  0.2874 -0.3892  0.1867
 3081SOL    HW220877   2.119   4.080   0.906 -0.5616  1.4419 -0.1322
 3082SOL     OW20878   3.063   2.692   0.998 -0.1346  0.5410 -0.1425
 3082SOL    HW120879   3.062   2.630   0.925 -1.1937 -0.4985  0.7514
 3082SOL    HW220880   3.080   2.772   0.949 -2.4132 -0.9574 -3.4003
 3083SOL     OW20881   3.185   2.289  10.840  0.2332  0.0723  0.9132
 3083SOL    HW120882   3.277   2.315  10.844  0.5887 -0.8525 -1.5675
 3083SOL    HW220883   3.201   2.215  10.782 -1.1068  0.3165  0.2216
 3084SOL     OW20884   4.107   1.686  16.561 -0.3977  0.0119  0.1233
 3084SOL    HW120885   4.108   1.777  16.532 -1.1224  0.5284  1.7483
 3084SOL    HW220886   4.200   1.663  16.570 -0.7916 -1.3173  0.7808
 3085SOL     OW20887   1.264   1.558   6.876  0.3058  0.2724 -0.1907
 3085SOL    HW120888   1.240   1.466   6.888  1.1416  0.3384  1.9480
 3085SOL    HW220889   1.239   1.570   6.784 -3.0762  0.4178  0.7629
 3086SOL     OW20890   0.395   3.962   2.136  0.5192 -0.0850 -0.0294
 3086SOL    HW120891   0.353   4.034   2.088  2.6839  1.4784  0.4185
 3086SOL    HW220892   0.333   3.948   2.208 -0.5682 -0.4930 -1.0255
 3087SOL     OW20893   1.467   2.671   0.251 -0.1330 -0.1483 -0.3622
 3087SOL    HW120894   1.435   2.706   0.168  1.6374  0.4934 -0.7695
 3087SOL    HW220895   1.533   2.739   0.262 -1.1607  0.8347 -0.3564
 3088SOL     OW20896   2.747   2.264   4.176  0.1020 -0.4881  0.3822
 3088SOL    HW120897   2.727   2.188   4.230 -1.2666  0.2434  0.9048
 3088SOL    HW220898   2.821   2.294   4.229  1.1647  2.1499 -2.5915
 3089SOL     OW20899   2.619   2.176   3.583 -0.7727 -0.2046 -0.4630
 3089SOL    HW120900   2.572   2.094   3.571 -1.0108 -0.1163 -0.1370
 3089SOL    HW220901   2.647   2.168   3.674 -1.5749  0.4786 -0.1527
 3090SOL     OW20902   0.524   3.662  10.046 -0.4052  0.1929 -0.0307
 3090SOL    HW120903   0.456   3.700  10.101 -0.2852  0.0838  0.1914
 3090SOL    HW220904   0.600   3.713  10.071 -0.8156 -1.0180  3.6516
 3091SOL     OW20905   3.170   1.194  15.709  0.5812 -0.3602  0.4048
 3091SOL    HW120906   3.195   1.286  15.721  1.3760 -0.5660  0.2735
 3091SOL    HW220907   3.128   1.175  15.793  0.2526 -0.1573  0.2886
 3092SOL     OW20908   1.373   3.945   2.801 -0.0571 -0.0248  0.2077
 3092SOL    HW120909   1.361   3.860   2.844 -3.4912  0.6614  0.5630
 3092SOL    HW220910   1.408   3.919   2.715 -0.9445 -1.0341  0.1458
 3093SOL     OW20911   4.282   3.595   5.833 -0.6798 -0.0859  0.2613
 3093SOL    HW120912   4.243   3.511   5.856 -1.2050  0.7120  2.3281
 3093SOL    HW220913   4.210   3.657   5.847 -0.5446  0.4655 -1.4082
 3094SOL     OW20914   2.711   0.201   6.469  0.4204 -0.0858 -0.3228
 3094SOL    HW120915   2.778   0.189   6.402  2.5525  1.7782  1.4756
 3094SOL    HW220916   2.688   0.111   6.490  1.3862 -0.2214  0.1616
 3095SOL     OW20917   2.509   1.859   4.299  0.2317  0.6015 -0.4490
 3095SOL    HW120918   2.550   1.781   4.261  1.4776  1.4527 -0.8606
 3095SOL    HW220919   2.422   1.847   4.261 -0.3770 -0.9122  1.4426
 3096SOL     OW20920   2.445   2.544   5.103  0.6102  0.7034 -0.3773
 3096SOL    HW120921   2.474   2.545   5.194 -2.4406  1.8758  0.5625
 3096SOL    HW220922   2.381   2.473   5.104  1.4446 -0.0424 -0.1212
 3097SOL     OW20923   0.951   4.642   8.355  0.0703 -0.1168 -0.0505
 3097SOL    HW120924   1.029   4.610   8.310  0.0854  1.5629 -1.2019
 3097SOL    HW220925   0.964   4.618   8.447  1.0719 -1.0448 -0.4295
 3098SOL     OW20926   4.021   1.974  15.126  0.0851  0.1324  0.2302
 3098SOL    HW120927   3.928   1.968  15.149 -0.2241 -0.0761 -1.0738
 3098SOL    HW220928   4.025   2.044  15.061  1.3114 -1.2159 -1.1370
 3099SOL     OW20929   0.150   1.590  12.416  0.1696  0.0797  0.0361
 3099SOL    HW120930   0.123   1.682  12.411  0.7440  0.2541  0.0585
 3099SOL    HW220931   0.229   1.596  12.470  0.0288 -0.2541  0.2801
 3100SOL     OW20932   4.381   1.663   2.658 -0.1540  0.3399  0.4913
 3100SOL    HW120933   4.467   1.632   2.630  1.3025  1.3801  3.8612
 3100SOL    HW220934   4.415   1.740   2.703  1.0528  0.7710 -1.1397
 3101SOL     OW20935   0.563   2.063   4.467  0.7565  0.1584  0.2610
 3101SOL    HW120936   0.486   2.118   4.482  0.0081 -0.6092 -0.8366
 3101SOL    HW220937   0.565   2.044   4.373  0.4530  0.1365  0.2608
 3102SOL     OW20938   2.631   0.841   8.930 -0.3027  0.8184 -0.0562
 3102SOL    HW120939   2.695   0.834   9.001  2.2970 -1.9346 -2.6230
 3102SOL    HW220940   2.554   0.806   8.974 -0.8962 -0.3613 -2.0473
 3103SOL     OW20941   4.570   4.392   1.598 -0.2234  0.2943  0.3056
 3103SOL    HW120942   4.500   4.440   1.643  0.1882  0.0855  1.1775
 3103SOL    HW220943   4.603   4.465   1.546 -1.1530  0.5517  0.0855
 3104SOL     OW20944   0.127   3.613   1.704 -0.0024  0.5088 -0.1663
 3104SOL    HW120945   0.092   3.675   1.768 -0.6267 -0.0918  0.0817
 3104SOL    HW220946   0.049   3.575   1.663  0.3336  0.9714 -1.2459
 3105SOL     OW20947   2.889   4.140   6.887 -0.3377  0.0472  0.1124
 3105SOL    HW120948   2.945   4.119   6.813 -0.5900 -1.7911  0.4426
 3105SOL    HW220949   2.804   4.102   6.865 -1.7203  3.1477 -0.0058
 3106SOL     OW20950   1.623   1.089   1.598  0.1417 -0.5651 -0.1551
 3106SOL    HW120951   1.709   1.116   1.630 -1.1079 -0.0926  2.8683
 3106SOL    HW220952   1.567   1.164   1.619 -1.7871 -2.0419 -0.0024
 3107SOL     OW20953   3.638   3.104   6.662 -0.9942  0.2669 -0.4551
 3107SOL    HW120954   3.544   3.093   6.678 -1.3944 -0.4785 -3.2948
 3107SOL    HW220955   3.639   3.198   6.645 -4.0176  0.7372  1.9440
 3108SOL     OW20956   2.544   4.121   9.147  0.1529  0.1075  0.5356
 3108SOL    HW120957   2.635   4.144   9.164  0.4809 -1.6932  1.2675
 3108SOL    HW220958   2.528   4.123   9.052 -0.9501 -0.9349  0.6952
 3109SOL     OW20959   4.149   1.668  16.133 -0.3815  0.6706 -0.3106
 3109SOL    HW120960   4.066   1.628  16.108  0.3847 -0.5250 -1.0002
 3109SOL    HW220961   4.200   1.654  16.053  0.3891 -2.0849  0.6239
 3110SOL     OW20962   0.654   1.640   9.290  0.5149 -0.2228  0.1945
 3110SOL    HW120963   0.695   1.630   9.376 -0.3082  1.1600  0.7319
 3110SOL    HW220964   0.648   1.735   9.277  0.9917 -0.5134 -2.2055
 3111SOL     OW20965   1.553   3.916   3.794  0.1980  0.1795 -0.3476
 3111SOL    HW120966   1.509   3.924   3.709 -0.1498  0.8393 -0.1019
 3111SOL    HW220967   1.486   3.860   3.833  0.6628  0.3185  0.6416
 3112SOL     OW20968   4.608   1.282   3.547 -0.5785  0.1662 -0.3421
 3112SOL    HW120969   4.585   1.246   3.632 -0.1879  0.6552 -0.0283
 3112SOL    HW220970   4.549   1.357   3.541 -2.5946 -1.6451 -2.9799
 3113SOL     OW20971   0.305   3.934   5.418  0.1089  0.1712  0.4766
 3113SOL    HW120972   0.230   3.907   5.471 -0.8949 -1.1414 -1.6210
 3113SOL    HW220973   0.339   3.846   5.402 -2.2985 -0.4096 -1.3984
 3114SOL     OW20974   3.265   4.063  10.910  0.6175  0.6659  0.0697
 3114SOL    HW120975   3.244   3.996  10.845 -0.5300 -0.5082  1.6639
 3114SOL    HW220976   3.310   4.018  10.981  1.3649 -0.4166 -1.0988
 3115SOL     OW20977   3.501   1.028   9.222  0.0678  0.3639 -0.1543
 3115SOL    HW120978   3.423   0.983   9.255  0.3371  0.6525  0.8921
 3115SOL    HW220979   3.546   0.959   9.173  0.6221 -0.7295  1.8969
 3116SOL     OW20980   1.998   4.685   5.888 -1.2114 -0.5124 -0.3501
 3116SOL    HW120981   1.974   0.028   5.839 -1.5384  0.1198  0.8255
 3116SOL    HW220982   2.009   4.711   5.979  2.1399 -0.9364 -0.5990
 3117SOL     OW20983   1.546   3.830   7.893  0.4353  0.2985  0.3349
 3117SOL    HW120984   1.614   3.897   7.891  0.5782  0.1310 -0.4571
 3117SOL    HW220985   1.521   3.827   7.985  0.8943  0.0833  0.4552
 3118SOL     OW20986   2.940   4.517   3.962 -0.3195 -0.1372  0.3672
 3118SOL    HW120987   2.956   4.517   4.056 -0.0034 -0.6430  0.3103
 3118SOL    HW220988   3.002   4.450   3.934  0.3119 -0.2073  1.9182
 3119SOL     OW20989   3.932   2.029   3.671  0.0300 -0.2704  0.4780
 3119SOL    HW120990   3.949   1.969   3.598  1.6063  0.9176 -0.1313
 3119SOL    HW220991   3.974   2.109   3.638 -1.6553  0.5196  0.2355
 3120SOL     OW20992   2.120   4.181   4.696  0.3247 -0.4101  0.2009
 3120SOL    HW120993   2.192   4.168   4.759  0.3502  0.6494  0.3944
 3120SOL    HW220994   2.056   4.232   4.746 -0.8167 -0.1060 -1.5670
 3121SOL     OW20995   0.127   1.627  15.589 -0.0096  0.1292 -0.4752
 3121SOL    HW120996   0.108   1.570  15.664 -1.7977  0.8596 -0.3661
 3121SOL    HW220997   0.181   1.696  15.628  1.9964  0.3383 -3.6362
 3122SOL     OW20998   2.416   2.260  10.064  0.3641 -0.1064  0.5074
 3122SOL    HW120999   2.420   2.165  10.059 -0.9802 -0.0710 -1.4336
 3122SOL    HW221000   2.464   2.269  10.146  1.4535 -0.0326 -0.1394
 3123SOL     OW21001   1.804   2.943   3.752  0.2059  0.4848  0.9732
 3123SOL    HW121002   1.813   2.988   3.835 -0.6274  0.7801  0.9047
 3123SOL    HW221003   1.716   2.906   3.760  0.2265 -0.2136 -1.7752
 3124SOL     OW21004   2.934   1.271   6.692 -0.2263  0.3386 -0.2180
 3124SOL    HW121005   2.848   1.311   6.676 -0.3515  0.0968 -0.1484
 3124SOL    HW221006   2.987   1.307   6.621 -0.7226 -2.3532 -1.9548
 3125SOL     OW21007   0.276   1.406   4.161 -0.1151 -0.4918  0.3305
 3125SOL    HW121008   0.341   1.452   4.108 -0.0578  0.0698  0.8871
 3125SOL    HW221009   0.204   1.467   4.146  1.8742  0.8607 -3.7879
 3126SOL     OW21010   2.593   4.447   3.595 -0.0711  0.4185  0.4743
 3126SOL    HW121011   2.630   4.506   3.660 -1.7528 -1.6898  3.3649
 3126SOL    HW221012   2.508   4.432   3.636 -0.1874  0.7356  0.3523
 3127SOL     OW21013   3.317   0.259   9.922 -0.1994  0.6237  0.0932
 3127SOL    HW121014   3.366   0.334   9.957  1.0901 -0.4718  0.6134
 3127SOL    HW221015   3.257   0.238   9.993 -0.7398  2.2392  0.1094
 3128SOL     OW21016   0.983   3.290  16.809 -0.2632  0.1566 -0.2730
 3128SOL    HW121017   0.907   3.336  16.845 -0.3208 -0.2252  0.1008
 3128SOL    HW221018   0.969   3.207  16.855  0.3587  0.7753  1.0272
 3129SOL     OW21019   0.992   0.497   4.560 -0.1375  0.3531  0.0077
 3129SOL    HW121020   1.082   0.486   4.530 -0.1761  1.6699 -0.5675
 3129SOL    HW221021   0.999   0.545   4.642  0.4962  1.7205 -0.8475
 3130SOL     OW21022   1.034   1.616  15.409 -0.6662 -0.0949  0.1467
 3130SOL    HW121023   1.006   1.625  15.318 -0.7715 -0.7135  0.1128
 3130SOL    HW221024   1.126   1.635  15.394 -1.5474  2.2061 -2.3464
 3131SOL     OW21025   4.003   3.998   6.872 -0.0684 -0.0281  0.0284
 3131SOL    HW121026   3.943   3.956   6.934 -1.2355  1.3036 -0.2180
 3131SOL    HW221027   3.964   4.085   6.863 -0.7436 -0.2966  0.3276
 3132SOL     OW21028   1.090   4.038  13.162  0.2938  0.4266  0.2319
 3132SOL    HW121029   1.177   4.026  13.123 -0.3841  0.1634 -1.2251
 3132SOL    HW221030   1.095   4.128  13.194  0.5008  0.9970 -1.3937
 3133SOL     OW21031   2.401   1.112   8.188 -0.0018  0.1747 -0.5267
 3133SOL    HW121032   2.440   1.194   8.159  1.1021 -0.1770 -0.0413
 3133SOL    HW221033   2.439   1.054   8.122 -1.8014 -1.3110 -0.2551
 3134SOL     OW21034   1.729   1.051   1.903  0.6195 -0.4988  0.0848
 3134SOL    HW121035   1.816   1.031   1.869  0.4765 -0.2546 -0.4226
 3134SOL    HW221036   1.738   1.145   1.892 -2.1670 -0.1788  0.3646
 3135SOL     OW21037   1.125   0.723   1.961  0.0113  0.4272  0.2459
 3135SOL    HW121038   1.112   0.648   2.019 -0.0480 -1.0131 -1.6398
 3135SOL    HW221039   1.219   0.740   1.971  0.5345 -1.8667 -0.7024
 3136SOL     OW21040   1.174   4.596   6.079 -0.1046  0.0248 -0.2777
 3136SOL    HW121041   1.190   4.541   6.002 -2.2240 -2.5919  1.1747
 3136SOL    HW221042   1.082   4.615   6.060  0.1178 -0.9539 -2.2920
 3137SOL     OW21043   3.007   1.824   1.599 -0.3552 -0.2832 -0.0784
 3137SOL    HW121044   2.985   1.731   1.605  0.6672 -0.4524  1.0550
 3137SOL    HW221045   3.102   1.825   1.609 -0.3294  0.0341 -0.3527
 3138SOL     OW21046   1.166   1.232   5.538  0.3399  0.5197  0.2061
 3138SOL    HW121047   1.072   1.214   5.535  0.1184  1.6676  0.5716
 3138SOL    HW221048   1.193   1.270   5.454 -1.6938 -0.9944 -1.1678
 3139SOL     OW21049   2.512   1.031  17.696  0.1697 -0.1303 -0.2433
 3139SOL    HW121050   2.540   0.941  17.716  0.5911  0.6764  2.7796
 3139SOL    HW221051   2.553   1.045  17.611  1.2161 -0.3695  0.2247
 3140SOL     OW21052   2.516   0.769  15.696  0.3738 -0.4152 -0.0007
 3140SOL    HW121053   2.488   0.683  15.728  0.4230 -0.6160 -0.5054
 3140SOL    HW221054   2.520   0.762  15.601 -1.2960  1.0999 -0.1786
 3141SOL     OW21055   3.518   1.584   2.025 -0.0621  0.3105 -0.2793
 3141SOL    HW121056   3.549   1.494   2.026  0.1824  0.3963 -0.0426
 3141SOL    HW221057   3.425   1.575   2.007 -0.1604  2.3594 -0.8712
 3142SOL     OW21058   3.570   1.983   2.089 -0.3481  0.2444 -0.1947
 3142SOL    HW121059   3.630   2.057   2.079 -1.2019  0.8189 -1.1592
 3142SOL    HW221060   3.511   2.018   2.155 -0.4920  0.7791 -0.6056
 3143SOL     OW21061   3.602   1.501  10.119  0.0146 -0.3029  0.2418
 3143SOL    HW121062   3.637   1.412  10.111  2.2769  0.7299 -1.5699
 3143SOL    HW221063   3.674   1.563  10.134 -0.3113  0.1688 -0.1457
 3144SOL     OW21064   4.707   2.438   5.611 -0.1091 -0.1946  0.3128
 3144SOL    HW121065   0.064   2.419   5.599 -0.4540  0.3204 -3.0318
 3144SOL    HW221066   4.723   2.518   5.662  2.5329 -0.2112 -0.5428
 3145SOL     OW21067   2.066   2.447   5.889 -0.3023  0.1847 -0.0359
 3145SOL    HW121068   2.008   2.371   5.892 -0.3938  0.2308 -0.6641
 3145SOL    HW221069   2.107   2.453   5.976  1.0222  0.0820 -0.6530
 3146SOL     OW21070   1.986   3.648   8.030 -0.0419 -0.4608 -0.2854
 3146SOL    HW121071   2.077   3.647   7.999  1.2641 -0.4724  3.6286
 3146SOL    HW221072   1.939   3.690   7.958 -0.7549 -2.1274 -0.7819
 3147SOL     OW21073   3.915   3.526   5.066  0.2924 -0.0663 -0.1867
 3147SOL    HW121074   3.844   3.472   5.029 -0.5262  0.1095  1.1441
 3147SOL    HW221075   3.945   3.577   4.991 -1.0999  0.6346 -0.2633
 3148SOL     OW21076   4.728   4.029  12.080 -0.1991  0.2054  0.1864
 3148SOL    HW121077   0.025   4.117  12.061 -0.4578  0.2330 -0.1201
 3148SOL    HW221078   0.071   3.978  12.104 -0.1670 -0.3092 -1.0423
 3149SOL     OW21079   0.716   0.622   0.450  0.3319 -0.2120 -0.6438
 3149SOL    HW121080   0.723   0.717   0.444  0.0096 -0.0735  1.1513
 3149SOL    HW221081   0.730   0.611   0.544 -0.4245  0.4956 -0.4500
 3150SOL     OW21082   4.572   3.423   2.944 -0.2074 -0.5203  0.4888
 3150SOL    HW121083   4.560   3.340   2.992  0.1990 -0.7406  0.2165
 3150SOL    HW221084   4.505   3.440   2.879  0.8950  1.6142 -0.0881
 3151SOL     OW21085   0.495   1.727  17.251 -0.2408  0.4607 -0.0935
 3151SOL    HW121086   0.497   1.822  17.260  0.6846  0.7508 -3.4105
 3151SOL    HW221087   0.474   1.698  17.340  1.8774  0.0300  0.2464
 3152SOL     OW21088   0.039   0.024   3.234 -0.0473 -0.0877  0.4740
 3152SOL    HW121089   4.713   4.693   3.267 -0.1841 -0.0058  0.3825
 3152SOL    HW221090   0.117   0.000   3.285  0.1206 -0.2300  0.1477
 3153SOL     OW21091   3.973   3.672   8.077 -0.3866 -0.2447 -0.4007
 3153SOL    HW121092   4.009   3.590   8.111  0.6321 -0.2993 -1.6300
 3153SOL    HW221093   3.885   3.652   8.045  0.1876 -0.1683 -2.0113
 3154SOL     OW21094   0.944   1.864   2.935  0.1043 -0.3844 -0.0700
 3154SOL    HW121095   0.915   1.880   2.845 -1.4762 -0.0765  0.4935
 3154SOL    HW221096   1.030   1.825   2.917  1.0719  1.7004  0.0810
 3155SOL     OW21097   4.273   2.583   5.490  0.5234 -0.8924 -0.0170
 3155SOL    HW121098   4.355   2.609   5.532  0.7184  1.9448 -2.2020
 3155SOL    HW221099   4.311   2.547   5.410  2.0696  0.6164  0.0423
 3156SOL     OW21100   0.599   4.300   0.901 -0.5845  0.2554 -0.0458
 3156SOL    HW121101   0.657   4.293   0.978 -1.3526  0.9261  0.5883
 3156SOL    HW221102   0.599   4.395   0.892 -0.0793  0.4529  1.9835
 3157SOL     OW21103   4.005   1.766  15.819  0.3873 -0.2542 -0.1743
 3157SOL    HW121104   3.933   1.827  15.835  1.0339  0.3575  0.4126
 3157SOL    HW221105   3.990   1.703  15.889 -2.2982 -1.1143 -1.5290
 3158SOL     OW21106   4.051   2.249   3.554 -0.0411 -0.2080 -0.0200
 3158SOL    HW121107   3.975   2.307   3.556 -0.2116 -0.4171 -0.3056
 3158SOL    HW221108   4.071   2.262   3.462  0.0828  1.4720  0.2384
 3159SOL     OW21109   4.604   1.215   4.789 -0.2788  0.4812 -0.2587
 3159SOL    HW121110   4.665   1.150   4.824 -0.3856 -1.2182 -3.3140
 3159SOL    HW221111   4.665   1.289   4.780  0.0566  0.1110 -1.0365
 3160SOL     OW21112   4.663   0.273   6.961  0.5949  0.3912 -0.3794
 3160SOL    HW121113   4.706   0.345   7.006 -1.9702  2.6701 -1.5906
 3160SOL    HW221114   4.577   0.312   6.943  1.3158  2.3739  0.4618
 3161SOL     OW21115   0.863   1.993   4.358 -0.4433 -0.2605  0.5474
 3161SOL    HW121116   0.769   1.982   4.344 -0.7228  0.8598  1.6359
 3161SOL    HW221117   0.876   1.904   4.392  1.7138 -0.9029 -1.9185
 3162SOL     OW21118   4.533   1.329   2.215  0.1789 -0.0143 -0.3818
 3162SOL    HW121119   4.441   1.348   2.233  0.6985 -0.2980  2.5159
 3162SOL    HW221120   4.571   1.417   2.213 -1.8068  0.8370 -0.2757
 3163SOL     OW21121   1.184   1.868   0.342 -0.4357 -0.1096 -0.0508
 3163SOL    HW121122   1.223   1.944   0.386  1.3538 -1.7102  1.1199
 3163SOL    HW221123   1.105   1.858   0.395  1.3842 -0.4800  2.6195
 3164SOL     OW21124   1.429   4.385   3.660 -0.4166 -0.2750  0.1668
 3164SOL    HW121125   1.487   4.461   3.672  0.2471 -1.0122  1.6626
 3164SOL    HW221126   1.390   4.371   3.747  0.6759  3.5807  1.3189
 3165SOL     OW21127   3.803   1.242   5.742  0.0066  0.4286 -0.7959
 3165SOL    HW121128   3.713   1.230   5.770  0.4744  0.3770  0.7085
 3165SOL    HW221129   3.803   1.265   5.649 -0.6307 -2.5804 -1.5332
 3166SOL     OW21130   1.124   2.041  17.258  0.1913  0.2259 -0.0704
 3166SOL    HW121131   1.050   2.092  17.225 -1.3611 -1.4189  0.8294
 3166SOL    HW221132   1.170   2.104  17.313  0.9243 -0.2615 -0.1212
 3167SOL     OW21133   2.639   3.080   6.617  0.1121  0.0110 -0.0345
 3167SOL    HW121134   2.591   3.162   6.629 -1.8808 -1.2044  0.2910
 3167SOL    HW221135   2.693   3.086   6.696 -1.1153  0.2113  0.7695
 3168SOL     OW21136   2.089   4.645   8.930 -0.2742 -0.2060  0.0136
 3168SOL    HW121137   2.179   4.645   8.961 -0.5206 -1.0330  0.7502
 3168SOL    HW221138   2.046   4.620   9.012  0.1996  0.9303  0.6126
 3169SOL     OW21139   3.208   2.962   0.982 -0.3597 -0.4969 -0.1785
 3169SOL    HW121140   3.265   2.974   0.905 -1.2943 -0.0692 -0.7972
 3169SOL    HW221141   3.256   2.893   1.028 -1.2918 -1.2216 -0.2896
 3170SOL     OW21142   0.666   4.462   1.701 -0.6011 -0.4343 -0.5805
 3170SOL    HW121143   0.680   4.495   1.612  1.9035  0.4039  0.1170
 3170SOL    HW221144   0.758   4.464   1.729 -1.0228  0.8076  0.7191
 3171SOL     OW21145   2.281   2.985  15.113  0.0446  0.7823 -0.6486
 3171SOL    HW121146   2.254   2.948  15.198  1.8935 -0.1144 -0.4556
 3171SOL    HW221147   2.215   2.952  15.052  1.5474 -3.8531  0.1656
 3172SOL     OW21148   2.088   1.981  13.901  0.1021 -0.0338 -0.2166
 3172SOL    HW121149   2.127   2.052  13.953 -1.4412  0.5442  0.1641
 3172SOL    HW221150   2.168   1.935  13.875  0.5852  1.5871 -1.6164
 3173SOL     OW21151   0.017   2.845   7.163  0.2087  0.2412 -0.3640
 3173SOL    HW121152   4.695   2.830   7.238 -0.0317  1.9977 -0.1925
 3173SOL    HW221153   4.706   2.810   7.088 -0.7868 -0.8701  0.7664
 3174SOL     OW21154   4.595   2.819   5.985 -0.5179  0.1711  0.4254
 3174SOL    HW121155   4.643   2.742   6.014  0.4802  0.9492  0.8087
 3174SOL    HW221156   4.537   2.836   6.060  2.1231  2.5747  1.8860
 3175SOL     OW21157   0.764   0.817  11.546  0.5557 -0.4277  0.5135
 3175SOL    HW121158   0.699   0.758  11.508  2.3366 -0.9965 -1.6210
 3175SOL    HW221159   0.713   0.896  11.561  0.0477 -0.2581 -2.0996
 3176SOL     OW21160   1.625   2.953  13.408  0.3160  0.8068 -0.6597
 3176SOL    HW121161   1.634   3.043  13.440  2.7545 -0.1450  1.3091
 3176SOL    HW221162   1.629   2.903  13.489 -1.3079 -0.9775 -1.7075
 3177SOL     OW21163   2.047   4.547   3.761 -0.5629 -0.1746  0.0087
 3177SOL    HW121164   2.061   4.630   3.715 -1.6329  0.1322  0.2440
 3177SOL    HW221165   1.963   4.562   3.803 -0.6415 -2.0484  0.5374
 3178SOL     OW21166   0.872   4.581   4.292  0.1564 -0.3004 -0.0448
 3178SOL    HW121167   0.831   4.517   4.351 -0.2547  0.4330  0.4728
 3178SOL    HW221168   0.797   4.597   4.235  0.1309 -3.1407 -0.7666
 3179SOL     OW21169   4.479   0.436   4.278  0.1668 -0.6005  0.1426
 3179SOL    HW121170   4.431   0.390   4.347  0.3504 -0.6062  0.2681
 3179SOL    HW221171   4.411   0.500   4.258 -1.4694 -1.3159  3.2986
 3180SOL     OW21172   2.414   4.578   2.213 -0.2806  0.1947  0.5669
 3180SOL    HW121173   2.343   4.630   2.251 -0.1742  0.7913 -0.0442
 3180SOL    HW221174   2.485   4.643   2.209 -0.7889  0.6461 -1.3300
 3181SOL     OW21175   0.765   4.692   8.854 -0.3223  0.1620  0.2973
 3181SOL    HW121176   0.740   0.044   8.883 -1.5034 -0.5187  1.3189
 3181SOL    HW221177   0.704   4.688   8.780 -0.2859  1.9962  0.1824
 3182SOL     OW21178   4.515   4.721   0.712 -0.0999  0.1110 -0.1115
 3182SOL    HW121179   4.552   0.057   0.659 -2.1546  1.0279 -0.3082
 3182SOL    HW221180   4.456   4.682   0.647  0.1980 -1.4606  0.5784
 3183SOL     OW21181   0.285   0.731  10.122 -0.0402 -0.4234  0.6438
 3183SOL    HW121182   0.238   0.744  10.205 -2.8585  2.0822 -1.3260
 3183SOL    HW221183   0.235   0.790  10.064 -0.5193 -0.9837  0.4885
 3184SOL     OW21184   0.168   4.148  17.054 -0.1853  0.4371  0.4107
 3184SOL    HW121185   0.121   4.066  17.039 -1.1059  1.2375 -1.1964
 3184SOL    HW221186   0.117   4.200  16.991  2.1198 -0.5407 -2.2930
 3185SOL     OW21187   4.710   2.632  13.337  0.7114 -0.3102 -0.1295
 3185SOL    HW121188   4.655   2.628  13.415 -0.4401  0.1345 -0.9179
 3185SOL    HW221189   4.657   2.658  13.261  1.1329 -0.6877 -0.5517
 3186SOL     OW21190   2.683   2.769   1.559 -0.1030  0.0759 -0.3610
 3186SOL    HW121191   2.707   2.744   1.469 -1.9018 -0.0808 -0.7978
 3186SOL    HW221192   2.628   2.695   1.586 -1.6860  0.9302 -1.2489
 3187SOL     OW21193   4.584   1.835   4.789  0.1226  0.6470  0.6167
 3187SOL    HW121194   4.519   1.850   4.722 -0.7565  2.3633  1.8680
 3187SOL    HW221195   4.525   1.818   4.863 -1.5581  1.2974 -0.6022
 3188SOL     OW21196   4.419   2.282   7.514 -0.1656 -0.5285 -0.3622
 3188SOL    HW121197   4.364   2.304   7.439 -1.2811 -0.2930  0.5171
 3188SOL    HW221198   4.381   2.341   7.579 -1.5228 -1.7488 -0.0316
 3189SOL     OW21199   2.712   4.726   6.994  0.1956  0.1667  0.2070
 3189SOL    HW121200   2.643   4.714   7.059  0.5094 -0.0424  0.5029
 3189SOL    HW221201   2.672   4.685   6.917  2.4067  0.7580 -1.2673
 3190SOL     OW21202   4.621   3.534   8.669 -0.0594  0.4478  0.2280
 3190SOL    HW121203   4.651   3.465   8.610  0.2178 -0.4356  1.4000
 3190SOL    HW221204   4.541   3.495   8.705  0.6159 -0.6456  0.5370
 3191SOL     OW21205   0.921   4.577  12.628  0.1548  0.3149 -0.4693
 3191SOL    HW121206   0.869   4.611  12.554 -0.4357  1.2598  0.3747
 3191SOL    HW221207   0.882   4.490  12.639 -0.3850  0.8729  1.9727
 3192SOL     OW21208   2.567   1.445   8.745  0.1419  0.2537 -0.0405
 3192SOL    HW121209   2.480   1.480   8.768  1.3533  2.1378  1.6642
 3192SOL    HW221210   2.540   1.364   8.702 -0.5300  0.8125 -0.6788
 3193SOL     OW21211   0.130   0.861  14.820 -0.0401  0.1898 -0.4485
 3193SOL    HW121212   0.204   0.919  14.837 -1.3581  1.1125  2.2353
 3193SOL    HW221213   0.096   0.848  14.909 -0.2974  0.3491 -0.5226
 3194SOL     OW21214   4.510   2.723   4.090 -0.0273  0.0822  0.5806
 3194SOL    HW121215   4.417   2.728   4.069  0.0153 -0.8871  0.1393
 3194SOL    HW221216   4.544   2.666   4.020  3.4390 -0.6640  2.8669
 3195SOL     OW21217   0.831   4.051   5.311  0.0156 -0.4363  0.5310
 3195SOL    HW121218   0.802   4.101   5.234 -1.2956 -1.3185  0.4564
 3195SOL    HW221219   0.770   3.978   5.313 -1.1269  0.5424  1.3600
 3196SOL     OW21220   0.913   3.874   4.254  0.2774  0.1064  0.2954
 3196SOL    HW121221   0.833   3.847   4.299  2.6322 -0.7084  3.9280
 3196SOL    HW221222   0.982   3.872   4.320  0.6772  0.1261 -0.1257
 3197SOL     OW21223   0.574   2.440   8.399 -0.2421 -0.5068 -0.0345
 3197SOL    HW121224   0.556   2.510   8.462 -0.0621 -0.4008 -0.0990
 3197SOL    HW221225   0.545   2.365   8.450  1.9085 -0.3761  1.3786
 3198SOL     OW21226   0.715   3.241  16.915  1.1217 -0.0596 -0.0473
 3198SOL    HW121227   0.650   3.218  16.849  2.2188  0.6214 -1.3802
 3198SOL    HW221228   0.723   3.153  16.951  1.8141 -0.0175 -0.0984
 3199SOL     OW21229   4.344   2.604  11.346  0.4705  0.1541 -0.1421
 3199SOL    HW121230   4.323   2.696  11.334 -1.5840 -0.2773  0.1049
 3199SOL    HW221231   4.256   2.567  11.352  0.5655 -0.0208  0.2180
 3200SOL     OW21232   3.615   3.673   7.726 -0.5702  0.2506 -0.4141
 3200SOL    HW121233   3.522   3.675   7.703 -1.7257 -0.0749  4.0611
 3200SOL    HW221234   3.610   3.654   7.820 -0.0494  1.6268 -0.1182
 3201SOL     OW21235   4.257   3.539   5.168 -0.1426 -0.1438 -0.4350
 3201SOL    HW121236   4.191   3.585   5.220  0.0671 -0.4692  0.1184
 3201SOL    HW221237   4.293   3.619   5.131 -2.4171  0.9339 -0.3554
 3202SOL     OW21238   1.877   4.591   5.178  0.2575 -0.0052 -0.0098
 3202SOL    HW121239   1.933   4.554   5.247 -1.0571 -2.2007 -0.1318
 3202SOL    HW221240   1.941   4.656   5.149  1.4139 -1.4416 -0.7109
 3203SOL     OW21241   1.288   0.187  15.512  0.0182  0.2735  0.3559
 3203SOL    HW121242   1.348   0.121  15.477 -2.0958 -2.0805  1.1781
 3203SOL    HW221243   1.291   0.244  15.435 -1.5740 -2.0737 -1.4401
 3204SOL     OW21244   1.961   0.838  14.315 -0.4117  0.5334  0.1232
 3204SOL    HW121245   1.964   0.817  14.221  2.8095  1.3045  0.0387
 3204SOL    HW221246   1.884   0.794  14.350 -0.3660 -0.9684 -1.6744
 3205SOL     OW21247   3.769   0.161   3.455 -0.5183 -0.6188 -0.1966
 3205SOL    HW121248   3.691   0.142   3.508 -1.1994  0.1289 -0.9390
 3205SOL    HW221249   3.817   0.087   3.494 -1.1993 -2.5143 -2.9429
 3206SOL     OW21250   1.921   3.075   2.406 -0.6772 -0.5254 -0.0392
 3206SOL    HW121251   1.992   3.070   2.470 -0.2787 -0.1846 -0.4586
 3206SOL    HW221252   1.914   3.170   2.396  0.8805 -0.4636 -0.4039
 3207SOL     OW21253   3.815   4.677   3.588  0.0011  0.5921  0.2533
 3207SOL    HW121254   3.840   4.585   3.598 -0.9929  0.2423 -0.4006
 3207SOL    HW221255   3.769   4.693   3.671 -0.1255  2.7765 -0.2390
 3208SOL     OW21256   4.304   2.380   6.661  0.2389  0.0683  0.4816
 3208SOL    HW121257   4.215   2.352   6.639  0.1233  0.3063  0.6502
 3208SOL    HW221258   4.315   2.362   6.754 -3.2427  0.5857  0.9756
 3209SOL     OW21259   0.268   2.565   7.042 -0.3735  0.1518  0.2908
 3209SOL    HW121260   0.256   2.562   6.947 -2.2193  0.6544  0.5069
 3209SOL    HW221261   0.343   2.509   7.062 -1.4052 -1.4124 -0.2262
 3210SOL     OW21262   2.524   0.987  17.220 -0.1490 -0.4317 -0.1260
 3210SOL    HW121263   2.564   0.969  17.135  0.6538 -0.5356  0.2675
 3210SOL    HW221264   2.435   1.001  17.189 -0.5147  1.0316  1.5986
 3211SOL     OW21265   3.355   2.416   3.593 -0.2998 -0.3802 -0.1558
 3211SOL    HW121266   3.282   2.403   3.532  0.1991  0.7003 -0.9883
 3211SOL    HW221267   3.378   2.323   3.589 -0.2681 -0.3263 -1.3810
 3212SOL     OW21268   3.564   1.334  14.186 -0.6824  0.0027 -0.1349
 3212SOL    HW121269   3.614   1.263  14.225 -2.7882 -2.0894 -1.1924
 3212SOL    HW221270   3.553   1.288  14.102 -2.3741 -1.5951  0.9585
 3213SOL     OW21271   3.381   1.561   2.382  0.2755 -0.1109  0.1486
 3213SOL    HW121272   3.440   1.626   2.344 -0.1672 -0.4141 -1.0552
 3213SOL    HW221273   3.393   1.600   2.468 -0.0773 -1.3936  0.7782
 3214SOL     OW21274   1.986   3.585  13.326  0.0325 -0.1311 -0.0828
 3214SOL    HW121275   1.955   3.495  13.336 -1.9096  0.6572  1.1012
 3214SOL    HW221276   2.006   3.580  13.233 -0.8798  0.8265 -0.3293
 3215SOL     OW21277   1.478   3.641   6.116 -0.6301 -0.4036 -0.0907
 3215SOL    HW121278   1.407   3.695   6.148 -1.9825 -2.2830  0.1056
 3215SOL    HW221279   1.497   3.595   6.198 -0.8128  2.2328  1.4210
 3216SOL     OW21280   1.130   2.204   9.986  0.0448 -0.0755  0.0851
 3216SOL    HW121281   1.113   2.128  10.041  0.1848  0.0095  0.2453
 3216SOL    HW221282   1.103   2.277  10.042 -1.3386  0.9581 -1.9143
 3217SOL     OW21283   3.890   3.451   4.318  0.1505 -0.3203  0.4552
 3217SOL    HW121284   3.893   3.544   4.340  2.5219 -0.0040 -1.2448
 3217SOL    HW221285   3.856   3.456   4.229 -1.2023 -0.4160  0.9660
 3218SOL     OW21286   0.215   2.710   5.438 -0.2664 -0.1946 -0.2693
 3218SOL    HW121287   0.158   2.683   5.367 -0.4867  0.4657 -0.3398
 3218SOL    HW221288   0.285   2.756   5.392 -1.7472  2.1776 -0.1541
 3219SOL     OW21289   3.256   2.014   8.851  0.3279  0.2737  0.3504
 3219SOL    HW121290   3.243   1.924   8.880 -1.3301  0.5150  0.3677
 3219SOL    HW221291   3.168   2.036   8.820  0.3431  0.7899  0.6794
 3220SOL     OW21292   0.222   1.812   2.322  0.0439 -0.1699  0.4913
 3220SOL    HW121293   0.169   1.852   2.253  0.4052 -0.2589  0.1657
 3220SOL    HW221294   0.295   1.872   2.333  0.9979 -1.2197 -0.0929
 3221SOL     OW21295   1.521   1.516   3.843  0.0604  0.1490 -0.1014
 3221SOL    HW121296   1.528   1.461   3.765 -2.1251 -0.7378  0.3447
 3221SOL    HW221297   1.427   1.532   3.840  0.1859  1.1051  1.1010
 3222SOL     OW21298   3.612   4.446  16.886  0.7070  0.7571 -0.1632
 3222SOL    HW121299   3.658   4.374  16.930 -0.7782  0.0037  0.1554
 3222SOL    HW221300   3.611   4.417  16.794 -0.1101  3.6826 -1.0639
 3223SOL     OW21301   4.089   2.040  15.635  0.3710  0.4644  0.4870
 3223SOL    HW121302   4.107   1.954  15.596  0.1018 -0.1210  1.6276
 3223SOL    HW221303   4.000   2.057  15.605  0.2472 -1.8157 -0.4821
 3224SOL     OW21304   3.054   0.566   8.599 -0.2051  0.0613  0.0746
 3224SOL    HW121305   3.058   0.660   8.579 -0.1455 -0.0060 -0.2299
 3224SOL    HW221306   2.961   0.544   8.592 -0.3919  1.0730 -0.7020
 3225SOL     OW21307   0.033   4.300   5.143  1.0548  0.2322  0.0272
 3225SOL    HW121308   0.051   4.207   5.133 -0.0929 -0.2127  2.2519
 3225SOL    HW221309   0.072   4.339   5.064  1.4337  0.9605  0.5748
 3226SOL     OW21310   0.506   1.884  11.150  0.0867 -0.0986 -0.1272
 3226SOL    HW121311   0.466   1.968  11.171 -0.5529 -0.0172 -1.6865
 3226SOL    HW221312   0.486   1.826  11.224  0.8731  0.8825  0.8484
 3227SOL     OW21313   1.658   3.982  17.366  0.1716 -0.3049 -0.4439
 3227SOL    HW121314   1.596   3.910  17.360 -1.7267  0.9941  3.3915
 3227SOL    HW221315   1.697   3.951  17.448 -0.8881 -0.0621  0.1510
 3228SOL     OW21316   4.646   3.196   7.843  0.4027  0.4377  0.3586
 3228SOL    HW121317   4.570   3.201   7.785 -0.4274  4.0491  1.7468
 3228SOL    HW221318   4.713   3.232   7.785 -0.4225 -0.9667 -1.4897
 3229SOL     OW21319   1.759   4.711  15.700  0.2576  0.1402 -0.0977
 3229SOL    HW121320   1.714   0.060  15.689  0.1711 -0.1568 -1.9516
 3229SOL    HW221321   1.793   4.725  15.789 -0.2967  0.4934  0.0614
 3230SOL     OW21322   0.871   0.626   2.188  0.0136 -0.5567  0.0647
 3230SOL    HW121323   0.876   0.688   2.261 -1.2788  1.1139 -1.2407
 3230SOL    HW221324   0.935   0.561   2.217  0.1890  0.8397  2.8149
 3231SOL     OW21325   4.479   0.185   5.472 -0.0811  0.1772 -0.0205
 3231SOL    HW121326   4.473   0.095   5.503 -2.8160  0.4746  0.3134
 3231SOL    HW221327   4.575   0.184   5.469 -0.0386 -0.3533  2.0103
 3232SOL     OW21328   4.236   3.782  12.186 -0.0554  0.1807  0.3031
 3232SOL    HW121329   4.189   3.854  12.228  0.6633  1.3513 -0.9271
 3232SOL    HW221330   4.256   3.818  12.100 -1.1425 -0.1813 -0.1033
 3233SOL     OW21331   1.617   2.760   2.656  0.0265  0.6222  0.3871
 3233SOL    HW121332   1.647   2.803   2.576  4.7488  1.8458  2.8123
 3233SOL    HW221333   1.648   2.672   2.634 -2.1279  0.1063 -0.5241
 3234SOL     OW21334   1.150   1.075   6.696 -0.3346 -0.4738 -0.1958
 3234SOL    HW121335   1.109   1.029   6.622 -0.1329 -0.0030 -0.6011
 3234SOL    HW221336   1.079   1.079   6.759 -0.2907  1.9329 -0.2936
 3235SOL     OW21337   4.057   1.478   3.691 -0.0306  0.0631  0.6258
 3235SOL    HW121338   3.979   1.435   3.656 -0.3508 -0.9870  2.6386
 3235SOL    HW221339   4.021   1.546   3.747 -0.4859 -0.3542  0.8414
 3236SOL     OW21340   3.693   0.954  12.551  0.9387  0.2128  0.8107
 3236SOL    HW121341   3.606   0.991  12.564  0.8686  0.2047  0.3296
 3236SOL    HW221342   3.746   1.033  12.564 -1.7697  2.0428  0.8084
 3237SOL     OW21343   3.921   3.730  13.707  0.7380 -0.2476 -0.7763
 3237SOL    HW121344   3.894   3.647  13.744 -1.5886  1.2222  0.7758
 3237SOL    HW221345   3.881   3.787  13.773  1.1404  0.1233 -0.8478
 3238SOL     OW21346   0.940   0.269   7.949 -0.0320  0.7037 -0.3847
 3238SOL    HW121347   0.906   0.351   7.913  3.3505  1.7847 -1.1612
 3238SOL    HW221348   0.971   0.231   7.866  2.1713 -0.3270  0.9059
 3239SOL     OW21349   3.653   0.937   6.438  0.0680 -0.2282  0.9590
 3239SOL    HW121350   3.617   0.881   6.507 -0.1469 -2.9855 -1.3759
 3239SOL    HW221351   3.582   0.920   6.377  0.4062  1.8034  0.0040
 3240SOL     OW21352   3.842   3.426   9.102 -0.2362  0.1029 -0.3161
 3240SOL    HW121353   3.816   3.335   9.112  0.9054 -0.1390  0.4667
 3240SOL    HW221354   3.938   3.425   9.096 -0.1865 -0.3433  0.5844
 3241SOL     OW21355   0.108   4.537   7.162 -0.8254 -0.1899 -0.3493
 3241SOL    HW121356   0.049   4.504   7.230  3.7694 -0.6845  3.3745
 3241SOL    HW221357   0.067   4.618   7.131  0.3757  0.2551 -0.7804
 3242SOL     OW21358   1.497   0.114   9.998 -0.0736 -0.2549 -0.3727
 3242SOL    HW121359   1.505   0.106   9.903  0.2923  0.4949 -0.4049
 3242SOL    HW221360   1.473   0.022  10.013 -0.1460 -0.6371 -2.8375
 3243SOL     OW21361   4.141   1.905   7.297 -0.3660 -0.0002  0.1660
 3243SOL    HW121362   4.135   1.838   7.229  1.3780 -1.0819  1.0755
 3243SOL    HW221363   4.072   1.959   7.260 -1.4698 -0.8380  0.9814
 3244SOL     OW21364   4.576   0.444   4.684 -0.1234  0.2079 -0.0884
 3244SOL    HW121365   4.599   0.523   4.634  1.7446  0.9709  1.9601
 3244SOL    HW221366   4.486   0.465   4.708  0.0581 -0.4612  1.1946
 3245SOL     OW21367   0.198   2.256   8.764 -0.5045  0.5004 -0.6727
 3245SOL    HW121368   0.284   2.276   8.801 -0.2990 -0.2742 -0.7255
 3245SOL    HW221369   0.155   2.240   8.848 -0.5448  0.3570 -0.7204
 3246SOL     OW21370   1.497   4.406   2.181  0.2765  0.3667 -0.4053
 3246SOL    HW121371   1.443   4.348   2.127  1.1726 -0.1820 -0.7158
 3246SOL    HW221372   1.435   4.412   2.253  1.0856  1.6073  0.2001
 3247SOL     OW21373   0.879   3.722  14.036  0.7924  0.3341  0.0098
 3247SOL    HW121374   0.922   3.778  13.971 -0.1559  1.9800  0.7946
 3247SOL    HW221375   0.786   3.734  14.016  0.7532 -0.3579 -0.2160
 3248SOL     OW21376   0.032   3.420   5.543  0.3359 -0.2189  0.3276
 3248SOL    HW121377   4.695   3.365   5.574  2.1328 -2.2207  0.9622
 3248SOL    HW221378   0.093   3.349   5.526 -0.7927 -0.9286 -0.7767
 3249SOL     OW21379   0.401   2.279   2.681  0.1831  0.0289 -0.2734
 3249SOL    HW121380   0.470   2.249   2.741  0.0425 -0.2783 -0.2653
 3249SOL    HW221381   0.421   2.222   2.607 -1.4448 -1.0153  0.1057
 3250SOL     OW21382   2.742   2.765   2.349 -0.1880  0.1914 -0.0527
 3250SOL    HW121383   2.696   2.812   2.280 -2.2052 -2.5749 -0.5749
 3250SOL    HW221384   2.791   2.708   2.290 -0.9466  0.2174 -0.6901
 3251SOL     OW21385   0.799   2.284   3.578 -0.3086  0.6074 -0.1548
 3251SOL    HW121386   0.893   2.298   3.588  0.0767 -2.0893  0.1051
 3251SOL    HW221387   0.785   2.215   3.643 -0.6347  2.7421  2.0236
 3252SOL     OW21388   2.293   1.641   2.956 -0.1565 -0.1673 -0.3754
 3252SOL    HW121389   2.271   1.716   2.900 -1.7705  0.0627  0.5417
 3252SOL    HW221390   2.234   1.571   2.929 -0.1404  0.3181 -1.6964
 3253SOL     OW21391   2.530   3.960   0.516  0.0003 -0.4328  0.0588
 3253SOL    HW121392   2.566   4.049   0.524  1.2021 -0.8185 -0.9421
 3253SOL    HW221393   2.469   3.957   0.589 -1.0638 -0.6121 -0.8350
 3254SOL     OW21394   0.069   0.093   4.228 -0.0854  0.4041  0.0851
 3254SOL    HW121395   0.054   0.016   4.174 -2.3448  0.5880  0.4727
 3254SOL    HW221396   4.717   0.118   4.257 -0.1859  1.5564 -1.1777
 3255SOL     OW21397   1.038   4.025   9.448  0.2027  0.2903  0.2992
 3255SOL    HW121398   1.086   4.033   9.365  2.9562  0.1142  1.8828
 3255SOL    HW221399   1.005   3.936   9.439  1.3926  0.1287 -2.3237
 3256SOL     OW21400   2.452   4.263  10.541  0.0055 -0.2779  0.6971
 3256SOL    HW121401   2.458   4.189  10.480  0.6033  0.1794  0.2035
 3256SOL    HW221402   2.533   4.249  10.590  1.5070 -0.0654 -1.7005
 3257SOL     OW21403   0.143   1.054   7.799  0.1042  0.2737 -0.2742
 3257SOL    HW121404   0.118   1.120   7.864  1.1832  0.1382  0.2804
 3257SOL    HW221405   0.107   1.092   7.719  1.1195  3.2656  0.6682
 3258SOL     OW21406   0.236   2.958   8.839  0.5293 -0.3330  0.3539
 3258SOL    HW121407   0.202   2.933   8.925  0.0248  1.2318  0.6098
 3258SOL    HW221408   0.237   3.053   8.847  0.9243 -0.5615  2.9165
 3259SOL     OW21409   1.133   4.637  12.099 -0.3044  0.1497 -0.2031
 3259SOL    HW121410   1.185   4.714  12.075  0.2981  0.3072  1.5690
 3259SOL    HW221411   1.189   4.572  12.056 -1.6876 -1.2875  0.1591
 3260SOL     OW21412   3.486   4.341   4.485 -0.7023 -0.0675  0.4115
 3260SOL    HW121413   3.397   4.350   4.520 -0.1586  2.1112  1.2389
 3260SOL    HW221414   3.545   4.401   4.531 -0.6113  0.5805 -0.5463
 3261SOL     OW21415   3.204   4.116   5.610 -0.3167  0.8114  0.0781
 3261SOL    HW121416   3.165   4.055   5.547 -0.9607  1.0344  0.2587
 3261SOL    HW221417   3.198   4.071   5.694 -1.8028  0.5931 -0.1288
 3262SOL     OW21418   3.222   0.457   6.460  1.0389  0.2588  0.0277
 3262SOL    HW121419   3.127   0.464   6.465  1.0259  0.8134 -1.0139
 3262SOL    HW221420   3.258   0.460   6.549  0.1687  2.8608  0.3034
 3263SOL     OW21421   3.939   0.990   8.427  0.4584  0.9661 -0.1214
 3263SOL    HW121422   4.027   0.989   8.465 -0.1870  0.5278  1.3792
 3263SOL    HW221423   3.942   0.906   8.382  1.9866  1.0016 -0.0899
 3264SOL     OW21424   2.178   0.401   3.789 -0.1982  0.3140 -1.1322
 3264SOL    HW121425   2.130   0.452   3.855  1.0748 -0.2753  0.2337
 3264SOL    HW221426   2.149   0.314   3.816 -0.6180 -0.0782 -2.8422
 3265SOL     OW21427   3.443   2.409   2.323 -0.1072  0.2441 -0.0608
 3265SOL    HW121428   3.532   2.388   2.353  0.0100  0.7421 -0.0592
 3265SOL    HW221429   3.415   2.476   2.386 -1.6677 -1.2008  0.7865
 3266SOL     OW21430   2.976   3.502   7.126  0.1333 -0.3235 -0.4560
 3266SOL    HW121431   2.928   3.523   7.045  0.4686 -0.4301 -0.6823
 3266SOL    HW221432   2.926   3.550   7.192  0.0204  1.9916 -2.2287
 3267SOL     OW21433   3.433   0.579   3.810 -0.0476 -0.0392 -0.8171
 3267SOL    HW121434   3.485   0.651   3.774 -1.9504  1.1044 -1.3254
 3267SOL    HW221435   3.437   0.518   3.736 -0.4480 -0.5408 -0.4241
 3268SOL     OW21436   2.124   3.623  16.214 -0.1746  0.1586 -0.7287
 3268SOL    HW121437   2.061   3.650  16.281  1.4260 -0.3341  0.9766
 3268SOL    HW221438   2.194   3.688  16.219  0.1989 -0.2913 -0.0240
 3269SOL     OW21439   2.873   3.479  15.345  0.4033  0.0740 -0.0040
 3269SOL    HW121440   2.890   3.399  15.295 -0.4560  0.6852 -1.2579
 3269SOL    HW221441   2.780   3.462  15.357  0.0819  1.0011 -1.2730
 3270SOL     OW21442   1.596   0.509   6.190  0.1513 -0.4280  0.1516
 3270SOL    HW121443   1.598   0.604   6.198 -1.2089 -0.4739  1.1896
 3270SOL    HW221444   1.510   0.487   6.155  1.7240  0.7565 -4.4709
 3271SOL     OW21445   1.411   0.182   9.530  0.0822 -0.0294  0.2402
 3271SOL    HW121446   1.375   0.241   9.595 -1.2177 -0.3267 -0.2086
 3271SOL    HW221447   1.442   0.114   9.590  1.9775 -0.0731 -0.7838
 3272SOL     OW21448   1.805   3.212   1.354 -0.3608 -0.1405  0.0752
 3272SOL    HW121449   1.802   3.207   1.450 -0.9934  0.1616  0.0723
 3272SOL    HW221450   1.754   3.291   1.341 -0.6489 -0.2851  0.3270
 3273SOL     OW21451   4.303   4.503   9.881 -0.2864  0.0393  0.2036
 3273SOL    HW121452   4.275   4.592   9.863 -0.1491 -0.0832 -0.6242
 3273SOL    HW221453   4.293   4.501   9.976  1.5052  0.5017  0.3929
 3274SOL     OW21454   4.333   1.455   6.279  0.4433  0.6817 -0.4123
 3274SOL    HW121455   4.341   1.428   6.188  1.6683  1.2868 -0.4836
 3274SOL    HW221456   4.385   1.535   6.277 -0.4401  1.2906  0.6321
 3275SOL     OW21457   4.511   2.496   0.029 -0.1219 -0.0322 -0.3998
 3275SOL    HW121458   4.491   2.412   0.069  1.7308 -0.0983  0.4202
 3275SOL    HW221459   4.480   2.474  17.681 -0.6687  0.5766 -0.3609
 3276SOL     OW21460   2.011   3.835   8.752  0.2127 -0.7516  0.1650
 3276SOL    HW121461   1.934   3.854   8.806  0.5920  3.5250 -0.8139
 3276SOL    HW221462   2.082   3.878   8.799  1.6063 -2.0229 -0.7938
 3277SOL     OW21463   3.263   1.748   5.752  0.0494  0.1446  0.0090
 3277SOL    HW121464   3.351   1.748   5.789  0.4528 -1.3262 -0.9473
 3277SOL    HW221465   3.212   1.770   5.830 -1.8855 -2.1428 -0.6152
 3278SOL     OW21466   3.662   1.073  13.746  0.3573 -0.3068 -0.5788
 3278SOL    HW121467   3.748   1.052  13.710  0.3310 -0.0402 -0.7912
 3278SOL    HW221468   3.611   1.005  13.703 -1.2411  0.5302  0.0110
 3279SOL     OW21469   4.349   2.994   7.808  0.8746 -0.1976 -0.2102
 3279SOL    HW121470   4.255   2.976   7.814  1.0045 -0.7817  0.0560
 3279SOL    HW221471   4.353   3.089   7.794 -0.0606 -0.2431 -0.7951
 3280SOL     OW21472   0.418   1.287   2.026 -0.5352 -0.2678  0.4669
 3280SOL    HW121473   0.394   1.215   1.968 -1.2450 -1.0916  1.7763
 3280SOL    HW221474   0.354   1.286   2.097  0.3133 -1.6661  1.2181
 3281SOL     OW21475   1.374   1.499  11.642 -0.1350  0.3338  0.2205
 3281SOL    HW121476   1.306   1.554  11.679 -1.1301  0.3723 -1.6781
 3281SOL    HW221477   1.320   1.431  11.603 -0.6138  0.5601  0.4855
 3282SOL     OW21478   0.508   1.798   4.509 -0.0274 -0.2026 -0.3802
 3282SOL    HW121479   0.509   1.894   4.505 -1.3560 -0.2057 -0.6583
 3282SOL    HW221480   0.500   1.784   4.604  0.0562  0.0742 -0.3324
 3283SOL     OW21481   2.433   1.279   4.718  0.1187 -0.1463  0.4437
 3283SOL    HW121482   2.432   1.370   4.747 -2.8346  0.7523 -2.5129
 3283SOL    HW221483   2.379   1.289   4.639  1.1317  2.5363  0.0981
 3284SOL     OW21484   4.508   0.891  10.917 -0.2770  0.0233  0.3793
 3284SOL    HW121485   4.493   0.985  10.921  0.0858  0.0640  0.8062
 3284SOL    HW221486   4.550   0.874  11.002  0.8646 -0.7079 -0.3230
 3285SOL     OW21487   2.301   2.147   7.010  0.0727 -0.0222  0.8674
 3285SOL    HW121488   2.236   2.078   7.021  0.9345 -0.5663  2.3591
 3285SOL    HW221489   2.247   2.225   7.026 -0.6910 -0.8790  2.3408
 3286SOL     OW21490   1.964   4.419   2.921 -0.5685  0.0403  0.0750
 3286SOL    HW121491   1.898   4.456   2.862 -1.3843  0.0472  1.0025
 3286SOL    HW221492   1.983   4.496   2.975  0.1577  1.7072 -2.5642
 3287SOL     OW21493   3.394   3.889   8.169  0.1542 -0.0080 -0.0967
 3287SOL    HW121494   3.419   3.868   8.259 -1.0062 -2.0856 -0.2461
 3287SOL    HW221495   3.480   3.914   8.137  0.7851  0.6868  2.1724
 3288SOL     OW21496   4.688   0.729   5.343 -0.0675 -0.1925 -0.2400
 3288SOL    HW121497   4.708   0.637   5.362  1.1228  0.6599  2.6198
 3288SOL    HW221498   4.615   0.745   5.403 -0.0584  1.4687 -0.6616
 3289SOL     OW21499   1.329   4.143   7.978  0.9557  0.4435  0.9330
 3289SOL    HW121500   1.393   4.209   7.949  1.6199 -1.0908 -1.0627
 3289SOL    HW221501   1.309   4.181   8.063  0.4397  1.1238  0.5106
 3290SOL     OW21502   3.311   0.548  17.157  0.4950  0.4479 -0.0687
 3290SOL    HW121503   3.348   0.636  17.158 -2.0350  1.5071  1.2050
 3290SOL    HW221504   3.220   0.562  17.187 -0.4793  0.5359 -3.1096
 3291SOL     OW21505   3.203   2.947   0.601 -0.1801 -0.6461  0.1770
 3291SOL    HW121506   3.276   2.967   0.660 -0.3552 -0.3779  0.3054
 3291SOL    HW221507   3.129   2.958   0.661  0.0578  0.0737  0.3462
 3292SOL     OW21508   4.330   3.681  16.810  0.2422 -0.3760 -0.5681
 3292SOL    HW121509   4.325   3.765  16.854  1.2807 -0.1993 -0.7976
 3292SOL    HW221510   4.422   3.674  16.785  0.9071  1.3457  1.3746
 3293SOL     OW21511   4.099   0.957  12.764  0.1025 -0.2802 -0.1885
 3293SOL    HW121512   4.159   0.983  12.694 -0.0364  0.7427  0.0697
 3293SOL    HW221513   4.086   0.865  12.741 -1.0941 -0.6302  1.9331
 3294SOL     OW21514   0.944   0.071   6.488  0.1899  0.1874  0.2667
 3294SOL    HW121515   0.909   0.008   6.425 -0.3760  0.8989 -0.1256
 3294SOL    HW221516   0.948   0.017   6.568 -1.6237 -1.6192 -0.8848
 3295SOL     OW21517   3.018   3.202   7.168  0.3913 -0.6244  0.0769
 3295SOL    HW121518   3.005   3.292   7.137  0.3214  0.0806  2.1275
 3295SOL    HW221519   3.107   3.201   7.203  0.0432 -0.6668  0.9733
 3296SOL     OW21520   3.198   0.402   8.456 -0.0540 -0.0551  0.1196
 3296SOL    HW121521   3.262   0.473   8.452 -0.7893  0.5616 -0.4765
 3296SOL    HW221522   3.143   0.442   8.523 -0.9849 -0.9931 -0.0766
 3297SOL     OW21523   4.475   0.949   2.675 -0.0201  0.2699 -0.2120
 3297SOL    HW121524   4.493   0.869   2.625 -0.1616  0.2987 -0.3081
 3297SOL    HW221525   4.552   0.963   2.731  0.6500  0.8685 -1.2900
 3298SOL     OW21526   3.870   0.352  11.053 -0.5829  0.3857  0.0408
 3298SOL    HW121527   3.848   0.445  11.064  0.3841  0.3771  1.9753
 3298SOL    HW221528   3.872   0.354  10.957  0.4440  0.0991  0.0619
 3299SOL     OW21529   0.794   0.551   9.315 -1.0163 -0.4593 -0.0577
 3299SOL    HW121530   0.820   0.484   9.251 -0.5367 -0.7868  0.4765
 3299SOL    HW221531   0.871   0.607   9.321 -2.0277  1.0162 -0.9203
 3300SOL     OW21532   1.217   2.952   9.426 -0.4284 -0.1109  0.2238
 3300SOL    HW121533   1.233   2.922   9.337 -0.6291  1.5840 -0.3903
 3300SOL    HW221534   1.166   3.030   9.404  1.4408  1.4584  1.3879
 3301SOL     OW21535   0.451   3.006   3.395 -0.3111 -0.3152  0.0254
 3301SOL    HW121536   0.481   3.058   3.469  1.9015  1.4900 -2.1156
 3301SOL    HW221537   0.440   3.072   3.326 -0.5155 -1.8905 -1.4420
 3302SOL     OW21538   4.053   0.714   0.609 -0.1094 -0.3401 -0.0650
 3302SOL    HW121539   4.019   0.793   0.566 -2.4032 -0.2328  1.9606
 3302SOL    HW221540   4.009   0.644   0.560 -1.3592  0.4914 -0.1453
 3303SOL     OW21541   3.194   0.414   2.900 -0.3225 -0.2181 -0.0426
 3303SOL    HW121542   3.161   0.366   2.824  0.4168 -0.2900 -0.3223
 3303SOL    HW221543   3.122   0.476   2.906 -0.2284  0.1340 -2.6089
 3304SOL     OW21544   3.267   2.872   4.517 -0.8458  0.1928 -0.3741
 3304SOL    HW121545   3.270   2.801   4.582 -1.3360  0.6370  0.1437
 3304SOL    HW221546   3.293   2.826   4.438  0.2499  0.6132 -0.2579
 3305SOL     OW21547   3.863   2.004   7.192 -0.4645  0.3556  0.0953
 3305SOL    HW121548   3.794   1.986   7.256  0.7049  0.8311  1.4679
 3305SOL    HW221549   3.814   2.054   7.127 -1.6930 -1.1957 -0.2024
 3306SOL     OW21550   2.063   0.237   1.882  0.0519 -0.3933 -0.3602
 3306SOL    HW121551   2.075   0.162   1.940 -0.0216  0.9855  1.3995
 3306SOL    HW221552   2.020   0.307   1.931  0.4175 -0.3566 -0.0916
 3307SOL     OW21553   2.106   4.410   7.779 -0.0048 -0.4974  0.1375
 3307SOL    HW121554   2.187   4.403   7.728 -0.9646 -0.5172 -1.3697
 3307SOL    HW221555   2.099   4.504   7.792  1.8763 -0.5534  1.6768
 3308SOL     OW21556   1.385   1.887   1.853 -0.0707 -0.3403  0.4054
 3308SOL    HW121557   1.472   1.900   1.889 -1.6153  1.1830  3.5450
 3308SOL    HW221558   1.336   1.852   1.927 -2.2424 -0.3316 -1.0174
 3309SOL     OW21559   4.706   1.635   5.591  0.6820 -0.0852  0.2123
 3309SOL    HW121560   4.638   1.696   5.620  0.1975 -2.1296  3.2203
 3309SOL    HW221561   4.699   1.662   5.499  0.0870  0.0612  0.3005
 3310SOL     OW21562   4.673   0.466   5.340 -0.0037  0.9083 -0.3573
 3310SOL    HW121563   4.701   0.405   5.409  0.0991  2.6676  1.1792
 3310SOL    HW221564   4.642   0.406   5.273 -0.9526  1.1244 -0.1008
 3311SOL     OW21565   0.148   2.334  15.654  0.1703  0.5794  0.2959
 3311SOL    HW121566   0.126   2.242  15.669  1.0387  0.0475 -1.5918
 3311SOL    HW221567   0.244   2.341  15.657  0.2320 -0.4104  0.6283
 3312SOL     OW21568   1.844   4.490   8.504  0.2162  0.3148  0.2945
 3312SOL    HW121569   1.885   4.572   8.475 -0.6386  1.5141  2.4892
 3312SOL    HW221570   1.900   4.476   8.580  0.0016  1.0554  0.5834
 3313SOL     OW21571   2.971   3.085  14.422  0.3077 -0.6556  0.4477
 3313SOL    HW121572   2.973   3.073  14.517  1.7980  0.6361  0.5863
 3313SOL    HW221573   2.931   3.171  14.411 -0.6356 -0.7843  2.8837
 3314SOL     OW21574   1.887   2.665   7.331 -0.0128 -0.1702  0.2682
 3314SOL    HW121575   1.813   2.622   7.373 -0.7685 -0.3250 -1.1917
 3314SOL    HW221576   1.957   2.643   7.391  0.6754  0.1327 -0.4170
 3315SOL     OW21577   1.892   2.347   3.010  0.3465  0.1583 -0.2519
 3315SOL    HW121578   1.813   2.366   3.061 -0.2256 -2.4216 -0.2165
 3315SOL    HW221579   1.855   2.323   2.925 -1.5692  0.5293  0.4769
 3316SOL     OW21580   3.347   1.450  10.083  0.4766  0.2045 -0.1316
 3316SOL    HW121581   3.358   1.356  10.072  0.4752  0.0584  1.0446
 3316SOL    HW221582   3.436   1.471  10.109  0.3594  0.4348  0.0910
 3317SOL     OW21583   1.972   0.115   3.474 -0.5983 -0.1240  0.7525
 3317SOL    HW121584   1.911   0.122   3.400  0.0010 -0.6680  0.2006
 3317SOL    HW221585   2.028   0.046   3.438 -0.2664 -0.4694  1.9356
 3318SOL     OW21586   3.981   3.972   3.399  0.3715  0.2713  0.2312
 3318SOL    HW121587   4.050   4.001   3.459  2.8790 -1.2155 -1.9213
 3318SOL    HW221588   3.942   3.905   3.454  1.1224 -0.7560 -0.4888
 3319SOL     OW21589   0.517   3.682   7.302 -0.3514  0.5934 -0.1940
 3319SOL    HW121590   0.594   3.739   7.309  0.2953 -0.1212 -1.6638
 3319SOL    HW221591   0.552   3.608   7.254  0.4575  0.0962  1.1551
 3320SOL     OW21592   2.330   3.994  12.928 -0.4401  0.2129  0.5106
 3320SOL    HW121593   2.340   4.013  12.835  2.1904 -0.3273  0.7052
 3320SOL    HW221594   2.241   4.027  12.941 -0.3832  0.6471 -0.2338
 3321SOL     OW21595   1.044   3.982  12.757  0.0320 -0.2318  0.0609
 3321SOL    HW121596   1.122   4.024  12.793  0.6922 -0.0185 -1.5961
 3321SOL    HW221597   0.982   4.056  12.754  1.6615  1.1163 -0.1284
 3322SOL     OW21598   0.716   1.679   5.216  0.5381  0.0306 -0.2097
 3322SOL    HW121599   0.796   1.726   5.192  0.2804  2.1666  3.2111
 3322SOL    HW221600   0.689   1.638   5.134  1.4469  2.5157 -1.7568
 3323SOL     OW21601   4.016   1.713   7.011 -0.3159  0.1203  0.4478
 3323SOL    HW121602   3.958   1.701   7.086 -1.2260 -3.1852 -0.8004
 3323SOL    HW221603   3.990   1.637   6.959  0.5808  0.6802 -0.8403
 3324SOL     OW21604   0.053   4.488   9.619 -0.4739 -0.3372 -0.0323
 3324SOL    HW121605   4.693   4.499   9.623 -0.4913  0.0644 -1.2698
 3324SOL    HW221606   0.070   4.469   9.526 -0.6334 -2.1393  0.3101
 3325SOL     OW21607   0.249   4.701   3.733  0.4567 -0.2656  0.0417
 3325SOL    HW121608   0.184   4.634   3.752 -0.3296  0.3457 -0.4864
 3325SOL    HW221609   0.327   4.660   3.770 -1.1664  0.0633  3.8765
 3326SOL     OW21610   0.629   3.589   9.149  0.1281 -0.0852 -0.4279
 3326SOL    HW121611   0.699   3.644   9.114 -0.0088  0.3632  0.0062
 3326SOL    HW221612   0.548   3.639   9.158  1.3734  2.3605 -2.6586
 3327SOL     OW21613   2.084   3.372  10.708  0.5418  0.1594 -0.0540
 3327SOL    HW121614   2.085   3.389  10.802  1.7809  2.0281 -0.3954
 3327SOL    HW221615   2.069   3.278  10.713  1.7093 -0.1719 -2.6244
 3328SOL     OW21616   1.768   0.714  11.668 -0.0525 -0.0381 -0.1780
 3328SOL    HW121617   1.700   0.725  11.735 -0.9507 -2.0643 -0.7653
 3328SOL    HW221618   1.802   0.632  11.705 -1.5315 -0.1099  1.0371
 3329SOL     OW21619   1.205   0.169   1.581 -0.1870 -0.1182 -0.6376
 3329SOL    HW121620   1.284   0.183   1.529 -0.2160 -1.7000 -1.1010
 3329SOL    HW221621   1.171   0.258   1.590  2.1156  1.0642 -3.7781
 3330SOL     OW21622   3.696   1.966  10.868  0.4645  0.2233  0.4335
 3330SOL    HW121623   3.789   1.946  10.854 -0.2159 -1.9991 -0.9350
 3330SOL    HW221624   3.702   2.061  10.879  3.4984  0.1983 -0.8645
 3331SOL     OW21625   2.392   0.918   5.000 -0.3701 -0.0661 -0.4187
 3331SOL    HW121626   2.421   0.833   4.966  0.8656  0.1708  0.0266
 3331SOL    HW221627   2.464   0.974   4.971 -0.2623  1.1475  2.2116
 3332SOL     OW21628   4.431   1.533   8.743 -0.1804 -0.2589 -0.1491
 3332SOL    HW121629   4.514   1.486   8.740  0.1941  0.4085 -0.1911
 3332SOL    HW221630   4.453   1.608   8.688 -0.0723  0.0980  0.3847
 3333SOL     OW21631   4.677   1.143   6.428 -0.2745 -0.5393 -0.4928
 3333SOL    HW121632   4.648   1.175   6.342  0.3186 -0.2318 -0.5844
 3333SOL    HW221633   0.037   1.153   6.422 -0.6257  4.3462  2.1405
 3334SOL     OW21634   3.177   4.268  16.978 -0.5730  0.4757 -0.6883
 3334SOL    HW121635   3.265   4.237  16.958  1.1813  4.3297  1.1206
 3334SOL    HW221636   3.132   4.184  16.982  1.3369 -0.5654 -1.0617
 3335SOL     OW21637   1.529   0.575   9.346  0.0079  0.1086 -0.3415
 3335SOL    HW121638   1.534   0.563   9.441  1.5158  1.3993 -0.2492
 3335SOL    HW221639   1.509   0.668   9.344 -1.5935 -0.2833 -1.8525
 3336SOL     OW21640   4.535   4.137   9.668  0.0379  0.5084 -0.3257
 3336SOL    HW121641   4.439   4.132   9.658  0.3803 -1.9989 -2.2623
 3336SOL    HW221642   4.564   4.225   9.641  1.0911  0.3775  0.3922
 3337SOL     OW21643   3.745   0.384   4.847  0.3603  0.1398 -0.3507
 3337SOL    HW121644   3.669   0.407   4.794  0.4878  0.3133 -0.4599
 3337SOL    HW221645   3.812   0.441   4.810 -0.3209  1.4719  0.4560
 3338SOL     OW21646   1.625   1.041   4.840  0.5539 -0.3748  0.4658
 3338SOL    HW121647   1.632   1.110   4.907  0.7532 -1.8866  2.0016
 3338SOL    HW221648   1.698   0.988   4.871  0.1847 -0.7428  0.7015
 3339SOL     OW21649   2.757   2.002   3.334  0.1798 -0.2641  0.4088
 3339SOL    HW121650   2.692   1.936   3.357 -1.9259  0.9805 -2.0389
 3339SOL    HW221651   2.777   2.026   3.425  0.7537 -0.4100  0.3214
 3340SOL     OW21652   3.716   3.686   3.251  0.3330  0.2431 -0.5113
 3340SOL    HW121653   3.644   3.721   3.302  0.0424 -0.4883 -0.4260
 3340SOL    HW221654   3.745   3.619   3.313  2.3874 -0.0772 -1.7874
 3341SOL     OW21655   3.630   1.940   4.748  0.3435  0.2718  0.3676
 3341SOL    HW121656   3.560   1.910   4.690 -0.6450  1.4524  0.9620
 3341SOL    HW221657   3.611   2.033   4.743 -3.3289 -0.5007  0.2367
 3342SOL     OW21658   1.106   2.233   7.899  0.0191  0.1938 -0.3487
 3342SOL    HW121659   1.034   2.287   7.930 -0.7599 -1.4149  0.6025
 3342SOL    HW221660   1.182   2.284   7.927  0.0813 -0.5557  0.8514
 3343SOL     OW21661   0.115   3.332  15.915 -0.4623 -0.0798 -0.3332
 3343SOL    HW121662   0.095   3.283  15.994 -0.8581  1.1391  0.3118
 3343SOL    HW221663   0.203   3.298  15.897 -1.1694 -2.0710 -0.0575
 3344SOL     OW21664   3.141   0.226   4.809 -0.0702 -0.4504  0.5904
 3344SOL    HW121665   3.066   0.269   4.850  0.0351  1.3482 -1.0657
 3344SOL    HW221666   3.106   0.138   4.795  0.5141 -0.4928 -0.6912
 3345SOL     OW21667   2.229   1.675   3.371 -0.0187 -0.0288 -0.0651
 3345SOL    HW121668   2.262   1.638   3.453 -0.4114  0.8201  0.4828
 3345SOL    HW221669   2.266   1.624   3.299  0.3319  2.2091 -1.4667
 3346SOL     OW21670   0.168   2.215   9.412 -0.6916  0.0001 -0.1588
 3346SOL    HW121671   0.153   2.303   9.380  1.2642  0.0121 -1.0491
 3346SOL    HW221672   0.250   2.195   9.367  1.0120 -1.1117  3.3594
 3347SOL     OW21673   4.152   4.390   1.762 -0.5128  0.3968 -0.1620
 3347SOL    HW121674   4.228   4.443   1.737  1.1651 -0.7493  2.5109
 3347SOL    HW221675   4.145   4.331   1.687  0.2173 -0.2593  0.2823
 3348SOL     OW21676   0.034   1.648  17.590  0.2677 -0.0484 -0.0971
 3348SOL    HW121677   0.001   1.734  17.617  2.3373  0.6585  0.2005
 3348SOL    HW221678   0.008   1.593  17.664 -1.1042 -0.3666 -0.8133
 3349SOL     OW21679   3.348   0.935  15.927 -0.2124  0.4728 -0.6546
 3349SOL    HW121680   3.294   0.988  15.985  1.4071  1.7075 -0.2945
 3349SOL    HW221681   3.357   0.999  15.857  0.2319  0.7155 -0.3747
 3350SOL     OW21682   1.015   1.817  17.610 -0.3099  0.0307  0.3910
 3350SOL    HW121683   1.099   1.814  17.565  0.5221 -0.1758  1.9383
 3350SOL    HW221684   0.957   1.783  17.542  0.1425 -1.6930  0.8697
 3351SOL     OW21685   2.613   4.612   5.336  0.1211 -0.0537 -0.0819
 3351SOL    HW121686   2.561   4.600   5.257  2.2727 -1.6266 -1.2811
 3351SOL    HW221687   2.698   4.627   5.293 -0.1929 -1.5513 -1.2222
 3352SOL     OW21688   3.006   1.504   4.668 -0.5824  0.0087  0.3250
 3352SOL    HW121689   2.915   1.519   4.641 -0.8681 -1.5650  0.3943
 3352SOL    HW221690   3.045   1.554   4.597  1.0030 -1.6058  0.0521
 3353SOL     OW21691   4.575   0.021   8.286  0.1021  0.0158  0.1658
 3353SOL    HW121692   4.493   0.036   8.239 -1.1607  2.7236  3.1828
 3353SOL    HW221693   4.548   4.708   8.364  0.2760 -0.4382 -0.0600
 3354SOL     OW21694   0.851   1.472   4.724  0.0577 -0.0639 -0.2309
 3354SOL    HW121695   0.814   1.385   4.736  0.8170 -0.6928 -2.4743
 3354SOL    HW221696   0.852   1.496   4.817  2.0261 -2.6374  0.3893
 3355SOL     OW21697   4.073   1.194   8.031  0.0861  0.1246 -0.3476
 3355SOL    HW121698   4.082   1.198   7.935  1.8267 -0.3788 -0.2120
 3355SOL    HW221699   3.990   1.147   8.040 -0.2097  0.4905 -1.1122
 3356SOL     OW21700   2.502   2.247   6.877 -0.0871  0.0815  0.6454
 3356SOL    HW121701   2.420   2.201   6.901 -0.9183  0.4363 -1.5642
 3356SOL    HW221702   2.549   2.218   6.956  0.1895  2.3430  1.3102
 3357SOL     OW21703   4.506   1.703  17.171 -0.0362  0.0177 -0.2874
 3357SOL    HW121704   4.525   1.744  17.087  1.0282  1.0785  0.4856
 3357SOL    HW221705   4.596   1.693  17.201 -0.4998 -2.3249  0.3983
 3358SOL     OW21706   1.238   2.629  12.059 -0.4473  0.1723  0.3346
 3358SOL    HW121707   1.297   2.579  12.116  0.1896 -1.0197 -1.3835
 3358SOL    HW221708   1.228   2.568  11.986 -1.9484  1.1612 -0.2834
 3359SOL     OW21709   4.672   2.184   7.670  0.6722 -0.1622  0.2807
 3359SOL    HW121710   4.602   2.235   7.628 -0.2691 -1.5967  0.1203
 3359SOL    HW221711   4.670   2.103   7.619 -0.0559 -1.1631  1.8974
 3360SOL     OW21712   3.491   4.148   7.766 -0.0668 -0.0419 -0.3350
 3360SOL    HW121713   3.430   4.120   7.698  0.7922 -1.9803 -0.3026
 3360SOL    HW221714   3.430   4.205   7.813 -1.5178 -0.0364 -2.2372
 3361SOL     OW21715   0.799   1.746  17.019  0.2338 -0.1752  0.1644
 3361SOL    HW121716   0.725   1.698  16.982  1.1141 -1.8148  0.5154
 3361SOL    HW221717   0.856   1.750  16.942 -0.3678 -0.1827 -0.2796
 3362SOL     OW21718   2.328   3.731   7.655 -0.2496 -0.1453  0.6405
 3362SOL    HW121719   2.265   3.729   7.727 -0.3917 -2.2216  0.4811
 3362SOL    HW221720   2.353   3.823   7.660 -1.9671  0.3033  0.7255
 3363SOL     OW21721   0.542   2.381   3.186 -0.6263  0.2024  0.1468
 3363SOL    HW121722   0.618   2.325   3.205 -1.6008 -1.0395  0.3730
 3363SOL    HW221723   0.572   2.461   3.228  1.9282 -1.2199  1.0588
 3364SOL     OW21724   2.543   3.397   3.048  0.1581 -0.4123 -0.0614
 3364SOL    HW121725   2.532   3.460   3.118 -1.0311 -0.3877 -0.2746
 3364SOL    HW221726   2.475   3.334   3.072 -0.8431  0.2727 -1.1249
 3365SOL     OW21727   4.496   2.288   6.507  0.2467 -0.0176 -0.0160
 3365SOL    HW121728   4.445   2.303   6.587 -0.1225 -1.5856  0.0455
 3365SOL    HW221729   4.434   2.319   6.441  1.4858 -0.1078 -1.2213
 3366SOL     OW21730   4.193   0.325   8.258 -0.1862  0.1303 -0.4338
 3366SOL    HW121731   4.221   0.406   8.216 -0.3812  0.2742 -0.2855
 3366SOL    HW221732   4.097   0.325   8.259 -0.1765  1.0215  0.1445
 3367SOL     OW21733   2.038   3.844   5.277 -0.3367  0.0328 -0.0238
 3367SOL    HW121734   2.070   3.787   5.208 -0.1665  0.6286 -0.4328
 3367SOL    HW221735   2.104   3.832   5.346  0.2502 -0.2557 -0.6349
 3368SOL     OW21736   0.672   0.640   3.530  0.0036  0.2068  0.3958
 3368SOL    HW121737   0.688   0.610   3.619  1.3484  1.7966  0.6907
 3368SOL    HW221738   0.593   0.693   3.537  0.6311  1.3618 -1.1361
 3369SOL     OW21739   2.939   1.725  13.811  0.0314  0.4286  0.2490
 3369SOL    HW121740   3.006   1.683  13.864  1.6719  0.8775 -1.4976
 3369SOL    HW221741   2.868   1.723  13.875  0.7976  0.5066  1.0940
 3370SOL     OW21742   2.467   0.710  15.158 -0.4805  0.1728  0.1739
 3370SOL    HW121743   2.552   0.704  15.116 -0.2947  2.2220  0.2538
 3370SOL    HW221744   2.414   0.733  15.082 -1.0922  0.4983  0.6893
 3371SOL     OW21745   1.196   1.609   9.226  0.6584  0.1389 -0.0660
 3371SOL    HW121746   1.120   1.564   9.261  0.3213  0.0045 -0.9603
 3371SOL    HW221747   1.252   1.617   9.303 -1.4117  2.4171  1.1668
 3372SOL     OW21748   3.390   2.298   8.093 -0.7246 -0.3304  0.2981
 3372SOL    HW121749   3.376   2.392   8.107  0.7462 -0.0118 -0.2721
 3372SOL    HW221750   3.431   2.307   8.007  2.2518  1.0137  1.8634
 3373SOL     OW21751   3.416   1.456  12.425 -0.3604  0.2397  0.5771
 3373SOL    HW121752   3.386   1.539  12.464 -0.5628 -0.2002  1.3611
 3373SOL    HW221753   3.492   1.431  12.478 -1.0286 -1.3459  0.7869
 3374SOL     OW21754   4.262   3.621   7.979 -0.2893  0.1003 -0.0025
 3374SOL    HW121755   4.232   3.561   7.911  0.8839  0.7505 -1.0670
 3374SOL    HW221756   4.233   3.565   8.052  1.4558 -1.6600 -0.6631
 3375SOL     OW21757   4.464   0.099   9.083  0.6593 -1.0770 -0.4387
 3375SOL    HW121758   4.419   0.017   9.103 -2.1392  0.4709 -0.3911
 3375SOL    HW221759   4.554   0.081   9.111  1.1779  2.5323  0.2892
 3376SOL     OW21760   2.076   1.727  12.820  0.5616  0.2570 -0.2109
 3376SOL    HW121761   2.129   1.648  12.811 -1.5031 -1.1754  0.2118
 3376SOL    HW221762   1.988   1.700  12.793  1.0022  0.0521 -1.4354
 3377SOL     OW21763   3.868   3.714   4.340 -0.4140  0.0682 -0.6447
 3377SOL    HW121764   3.777   3.735   4.362 -0.0323  2.9812 -1.8764
 3377SOL    HW221765   3.915   3.787   4.381  0.6221 -1.7004  1.3195
 3378SOL     OW21766   3.554   0.071   9.460  0.3983 -0.4743  0.2000
 3378SOL    HW121767   3.584   0.133   9.527 -0.4507  0.0940  0.0494
 3378SOL    HW221768   3.497   0.130   9.411 -0.5727 -0.7291  1.0281
 3379SOL     OW21769   4.728   3.446  17.403 -0.3783  0.1419 -0.5241
 3379SOL    HW121770   4.713   3.536  17.374  0.8455  0.1467 -1.1107
 3379SOL    HW221771   0.088   3.439  17.399 -0.4196 -2.1109  2.4340
 3380SOL     OW21772   2.148   1.479   0.681 -0.4479 -0.0711 -0.2681
 3380SOL    HW121773   2.068   1.525   0.657  0.4420  0.7585 -1.6466
 3380SOL    HW221774   2.219   1.537   0.655 -0.7051  0.9156  1.2644
 3381SOL     OW21775   0.977   3.777   5.593  0.4097  0.2787  0.5620
 3381SOL    HW121776   1.004   3.867   5.573 -2.1231  0.6260 -1.3109
 3381SOL    HW221777   0.881   3.786   5.591  0.2013 -2.0117  0.7039
 3382SOL     OW21778   3.148   4.528   8.476  0.8606 -0.5989 -0.2987
 3382SOL    HW121779   3.131   4.620   8.497  2.8244 -0.3172  0.0928
 3382SOL    HW221780   3.200   4.534   8.396  0.8758  1.3522 -0.1446
 3383SOL     OW21781   3.768   0.818   3.130  0.2663  0.0895 -0.4444
 3383SOL    HW121782   3.712   0.767   3.071  0.0865 -0.5862  0.3072
 3383SOL    HW221783   3.815   0.878   3.072  2.0138  0.5501  1.4608
 3384SOL     OW21784   1.057   1.839  10.873 -0.2361  0.5505  0.3608
 3384SOL    HW121785   1.034   1.755  10.912 -1.2462  0.4700 -0.4088
 3384SOL    HW221786   1.122   1.810  10.808 -0.4941 -0.4693  0.5643
 3385SOL     OW21787   0.002   3.729  15.909  0.4455  0.4361 -0.0833
 3385SOL    HW121788   0.041   3.816  15.914 -0.3740  0.7687  0.6734
 3385SOL    HW221789   0.018   3.694  15.997  1.1466  0.0845 -0.3558
 3386SOL     OW21790   1.652   4.508  12.693  0.0699  0.7221 -0.4557
 3386SOL    HW121791   1.677   4.418  12.713  0.5643  1.2235  1.1379
 3386SOL    HW221792   1.602   4.498  12.612 -1.6297  0.3313  0.6539
 3387SOL     OW21793   0.631   2.456   6.871 -0.0097  0.6442 -0.6801
 3387SOL    HW121794   0.565   2.433   6.806  1.1728  0.1303 -1.7012
 3387SOL    HW221795   0.693   2.501   6.814 -1.4448  2.1108 -1.0757
 3388SOL     OW21796   3.517   2.549   8.155  0.3640  0.0433 -0.1883
 3388SOL    HW121797   3.540   2.611   8.086 -0.7596 -0.5605 -1.0902
 3388SOL    HW221798   3.592   2.491   8.166  2.2227  2.1351 -1.8155
 3389SOL     OW21799   1.510   2.380  13.049 -0.1683  0.2220 -0.1084
 3389SOL    HW121800   1.494   2.285  13.045 -0.0478  0.2243 -0.6003
 3389SOL    HW221801   1.452   2.411  13.119  0.5308  1.1764  0.0415
 3390SOL     OW21802   3.084   1.131   8.140 -0.5386  0.6752 -0.1253
 3390SOL    HW121803   3.039   1.099   8.061 -2.5041  3.3219 -0.0699
 3390SOL    HW221804   3.166   1.170   8.110  0.8245 -0.7900  1.6821
 3391SOL     OW21805   3.020   1.230   4.609  0.0170 -0.5499 -0.0163
 3391SOL    HW121806   3.015   1.322   4.637 -2.1728 -0.4611 -0.7007
 3391SOL    HW221807   3.100   1.244   4.559 -0.6854  2.3717 -0.3419
 3392SOL     OW21808   0.734   2.193   8.885 -0.2376 -0.2101  0.4412
 3392SOL    HW121809   0.655   2.140   8.883  0.9702 -1.9579 -1.0646
 3392SOL    HW221810   0.794   2.128   8.923  0.2524  0.2206  0.3956
 3393SOL     OW21811   0.781   3.566   4.151  0.1053  0.1187  0.0211
 3393SOL    HW121812   0.774   3.567   4.056 -1.9011 -3.1070  0.1016
 3393SOL    HW221813   0.793   3.472   4.167 -0.5577  0.3192  1.7440
 3394SOL     OW21814   0.412   2.759   2.411 -0.0813  0.3916 -0.3807
 3394SOL    HW121815   0.481   2.786   2.471 -2.2542  0.8302  1.8988
 3394SOL    HW221816   0.398   2.670   2.443 -0.5102  0.8842  0.7864
 3395SOL     OW21817   1.179   3.711   9.639 -0.2638 -0.1755 -0.5298
 3395SOL    HW121818   1.194   3.804   9.659 -1.9689 -0.1135  0.4259
 3395SOL    HW221819   1.102   3.697   9.693 -0.2877 -0.7267 -0.7095
 3396SOL     OW21820   0.260   1.294   7.630  0.2133  0.4831  0.4555
 3396SOL    HW121821   0.330   1.349   7.596 -0.0309 -1.4680 -3.1123
 3396SOL    HW221822   0.299   1.207   7.637 -0.7521  0.1080  1.2523
 3397SOL     OW21823   1.697   4.650   1.179 -0.6324 -0.1203  0.9668
 3397SOL    HW121824   1.658   4.563   1.189 -0.1931 -0.2870  1.2900
 3397SOL    HW221825   1.642   4.693   1.114  2.1967 -0.5962 -1.7180
 3398SOL     OW21826   3.092   2.476  15.223 -0.0706  0.5371 -0.4800
 3398SOL    HW121827   3.012   2.423  15.230 -0.8297  1.9217  1.5268
 3398SOL    HW221828   3.070   2.548  15.164 -2.3054 -0.4616 -0.8774
 3399SOL     OW21829   2.572   2.717   8.842  0.0238  0.3755  0.1696
 3399SOL    HW121830   2.492   2.731   8.894 -1.5800 -1.0785 -1.8957
 3399SOL    HW221831   2.629   2.735   8.917  0.9136  2.0373 -0.8927
 3400SOL     OW21832   2.791   4.383   7.285  0.1773 -0.2629 -0.1899
 3400SOL    HW121833   2.758   4.306   7.239  0.3865 -0.0984 -0.6080
 3400SOL    HW221834   2.880   4.385   7.250  0.1882  1.5725 -0.0425
 3401SOL     OW21835   3.604   1.759   5.433 -0.2761 -0.5533 -0.2578
 3401SOL    HW121836   3.584   1.693   5.367 -0.4420 -0.5677 -0.1943
 3401SOL    HW221837   3.527   1.817   5.433 -1.5822 -2.2862  1.3056
 3402SOL     OW21838   3.593   3.323   5.211  0.3526  0.1417 -0.4716
 3402SOL    HW121839   3.665   3.281   5.165  2.4221  3.1435  0.0398
 3402SOL    HW221840   3.638   3.358   5.288 -0.1742 -3.6149  1.5940
 3403SOL     OW21841   1.802   0.566  17.048 -0.3373 -0.3400 -0.2502
 3403SOL    HW121842   1.833   0.493  16.995 -1.8037 -0.6012 -0.7745
 3403SOL    HW221843   1.762   0.618  16.978 -0.2400  1.7607  1.2502
 3404SOL     OW21844   4.235   3.022   5.860  0.4343 -0.4688  0.6156
 3404SOL    HW121845   4.262   2.930   5.868  1.1249 -0.4640 -1.8865
 3404SOL    HW221846   4.249   3.028   5.766 -0.9443 -0.7309  0.3965
 3405SOL     OW21847   0.009   0.511   8.875  0.4237  0.4189 -0.0762
 3405SOL    HW121848   0.035   0.515   8.967  4.1896  0.0912 -1.1291
 3405SOL    HW221849   0.087   0.549   8.834  0.5571 -0.5074 -0.6918
 3406SOL     OW21850   2.456   4.417   6.181  0.2386  0.0149  0.2961
 3406SOL    HW121851   2.464   4.507   6.149 -0.6955 -0.7270 -1.9844
 3406SOL    HW221852   2.459   4.429   6.276  0.1310  3.0325 -0.0679
 3407SOL     OW21853   4.459   3.124   2.438 -0.2170 -0.3971  0.0580
 3407SOL    HW121854   4.381   3.096   2.487 -2.2130  2.0150 -1.7217
 3407SOL    HW221855   4.500   3.170   2.511 -0.9192  1.6626 -0.8597
 3408SOL     OW21856   2.766   2.965   4.640  0.0337 -0.1998 -0.3815
 3408SOL    HW121857   2.709   2.928   4.573  0.6833 -0.7399 -0.6306
 3408SOL    HW221858   2.701   3.008   4.694  3.4255  0.7028  2.9927
 3409SOL     OW21859   3.156   4.599   5.694 -0.2602 -0.3558  0.3528
 3409SOL    HW121860   3.157   4.519   5.642 -0.6750 -0.7326  0.9219
 3409SOL    HW221861   3.061   4.604   5.706 -0.3971  0.1644 -0.9841
 3410SOL     OW21862   1.213   2.418  11.439  0.1135 -0.1135 -0.2029
 3410SOL    HW121863   1.123   2.391  11.455  0.2965 -1.0773 -0.8193
 3410SOL    HW221864   1.197   2.439  11.347 -0.7589  0.6144  0.1159
 3411SOL     OW21865   4.709   4.363   2.538  0.0348  0.0331  0.3786
 3411SOL    HW121866   0.026   4.437   2.509  0.3000 -0.8328 -1.3078
 3411SOL    HW221867   0.038   4.300   2.569 -0.6930 -0.1303  1.5708
 3412SOL     OW21868   3.032   0.212   6.608  0.2862  0.2936  0.2645
 3412SOL    HW121869   2.995   0.285   6.557  0.1003  1.3883  1.9474
 3412SOL    HW221870   2.963   0.147   6.602  1.3191 -0.6803 -0.8772
 3413SOL     OW21871   3.506   1.326   8.636  0.1828 -0.3978 -0.5750
 3413SOL    HW121872   3.456   1.380   8.575  0.2697 -1.1818 -1.3329
 3413SOL    HW221873   3.593   1.331   8.596  0.3001 -1.1731 -0.4137
 3414SOL     OW21874   1.616   4.281  10.097 -0.3489 -0.2999  0.9895
 3414SOL    HW121875   1.549   4.340  10.129 -0.5830  0.4000 -0.7938
 3414SOL    HW221876   1.681   4.277  10.167  2.1026 -0.7571 -1.3171
 3415SOL     OW21877   2.814   0.522   8.131  0.2342  0.3565 -0.5021
 3415SOL    HW121878   2.785   0.612   8.113 -4.3303 -1.4880 -2.4782
 3415SOL    HW221879   2.761   0.506   8.209  0.9568 -0.1355 -0.1160
 3416SOL     OW21880   2.406   4.361   2.411  0.0372 -0.5948  1.0807
 3416SOL    HW121881   2.401   4.402   2.325  0.2270 -1.8413  0.4816
 3416SOL    HW221882   2.460   4.429   2.451  2.1616 -0.4166 -2.1649
 3417SOL     OW21883   2.011   2.240   9.286 -0.1250  0.1768  0.3523
 3417SOL    HW121884   1.981   2.162   9.241  0.2961  1.4243 -2.1055
 3417SOL    HW221885   1.960   2.314   9.252  1.6087  1.0099 -0.4620
 3418SOL     OW21886   4.171   0.536   2.149  0.6274  0.3126 -0.2331
 3418SOL    HW121887   4.158   0.631   2.146 -0.5439  0.1307 -0.7108
 3418SOL    HW221888   4.092   0.504   2.106 -0.0938  0.6172  0.8866
 3419SOL     OW21889   4.429   2.724   7.048  0.3033 -0.5657  0.1198
 3419SOL    HW121890   4.354   2.740   7.106 -0.0369 -0.1239 -0.4381
 3419SOL    HW221891   4.397   2.774   6.973  0.5502  0.9228  1.0097
 3420SOL     OW21892   3.343   1.149   6.678  0.1196 -0.6755 -0.1462
 3420SOL    HW121893   3.377   1.064   6.708 -3.5336 -2.4200 -0.9834
 3420SOL    HW221894   3.417   1.202   6.709  0.6982 -2.3074  1.3102
 3421SOL     OW21895   3.991   3.960   6.590  0.0566  0.2595 -0.9342
 3421SOL    HW121896   3.993   3.975   6.685 -1.2919  0.7865 -0.9834
 3421SOL    HW221897   3.897   3.944   6.577  0.5385 -2.0039 -1.4803
 3422SOL     OW21898   0.612   3.935   8.989 -0.1223  0.1787 -0.3835
 3422SOL    HW121899   0.545   3.973   8.932  0.8918 -0.5783 -2.0800
 3422SOL    HW221900   0.681   3.904   8.931  1.1006 -0.3802  1.3872
 3423SOL     OW21901   0.028   0.837  11.631  0.2760  0.6266 -0.2953
 3423SOL    HW121902   0.101   0.787  11.667 -0.8449 -0.6575  0.1962
 3423SOL    HW221903   4.685   0.781  11.633  0.7347  0.0772  1.5917
 3424SOL     OW21904   0.862   2.083   4.048  0.7580 -0.2923  0.0069
 3424SOL    HW121905   0.860   2.083   4.144  2.7511 -0.9283  0.0555
 3424SOL    HW221906   0.940   2.030   4.033  0.9027 -0.7191  2.2953
 3425SOL     OW21907   4.456   1.281  15.158  0.0170 -0.2798  0.1249
 3425SOL    HW121908   4.380   1.316  15.110 -0.3462  0.5302  1.2921
 3425SOL    HW221909   4.459   1.190  15.127 -0.9433 -0.4518  0.5216
 3426SOL     OW21910   0.190   2.610   3.228  0.0348  0.5603 -0.5267
 3426SOL    HW121911   0.257   2.664   3.270 -2.4596  2.6757  0.6719
 3426SOL    HW221912   0.155   2.667   3.159  0.2151  3.9736  2.2067
 3427SOL     OW21913   1.738   4.177  12.488 -0.1482  0.1102  0.2936
 3427SOL    HW121914   1.720   4.114  12.558  2.0258 -0.6778  0.1475
 3427SOL    HW221915   1.784   4.120  12.427  0.8605 -0.2470  1.3834
 3428SOL     OW21916   0.484   3.607   2.399 -0.3466 -0.1807 -0.3855
 3428SOL    HW121917   0.457   3.598   2.307  1.5774  2.1392 -1.1525
 3428SOL    HW221918   0.553   3.672   2.387 -0.8876  0.3244 -0.7828
 3429SOL     OW21919   2.232   1.875   3.769 -0.5746  0.2378 -0.3106
 3429SOL    HW121920   2.219   1.780   3.769  4.7736 -0.4822 -1.2326
 3429SOL    HW221921   2.164   1.898   3.833  1.9837 -0.5580  2.6907
 3430SOL     OW21922   4.487   2.419   5.836 -0.0567 -0.1329  0.4628
 3430SOL    HW121923   4.545   2.392   5.765 -0.2935  2.6316 -0.7993
 3430SOL    HW221924   4.505   2.349   5.898  0.3072 -1.6581 -1.3904
 3431SOL     OW21925   0.274   2.987   4.725  0.0881  0.4190  0.1798
 3431SOL    HW121926   0.256   3.020   4.813 -0.6091  0.7252 -0.0844
 3431SOL    HW221927   0.188   2.957   4.698  0.1185  0.2769  0.2416
 3432SOL     OW21928   0.399   0.890  16.633  0.5088  0.7645 -0.5700
 3432SOL    HW121929   0.379   0.963  16.691 -0.6315 -1.6081  1.9842
 3432SOL    HW221930   0.491   0.913  16.624  0.7012 -0.7337 -2.4736
 3433SOL     OW21931   3.324   0.816   9.300  0.3044  0.0890 -0.0314
 3433SOL    HW121932   3.386   0.744   9.297  0.2777  0.1790 -2.7196
 3433SOL    HW221933   3.258   0.791   9.236  2.1045 -0.8412 -1.5114
 3434SOL     OW21934   4.157   3.467   8.160  0.4300 -0.3821 -0.0670
 3434SOL    HW121935   4.094   3.404   8.195  0.5731  0.3115  1.4128
 3434SOL    HW221936   4.215   3.466   8.236  1.2894  0.2279 -0.7143
 3435SOL     OW21937   3.771   4.289   1.197  0.1025 -0.1310 -0.5055
 3435SOL    HW121938   3.738   4.379   1.195 -1.1464 -0.5345  1.9938
 3435SOL    HW221939   3.741   4.265   1.284 -0.8208  2.1087 -0.1957
 3436SOL     OW21940   2.685   1.257  15.434 -0.0580 -0.4981  0.2384
 3436SOL    HW121941   2.756   1.299  15.483 -1.0851  1.1462  0.3170
 3436SOL    HW221942   2.706   1.288  15.346 -0.9736  2.0410  0.9234
 3437SOL     OW21943   4.681   4.314   3.210  0.0328 -0.2071 -0.4024
 3437SOL    HW121944   0.026   4.365   3.204  0.4529 -1.0159 -1.6629
 3437SOL    HW221945   4.617   4.382   3.231 -0.7096 -0.3393 -2.2841
 3438SOL     OW21946   2.469   2.498   7.427  0.4819 -0.0221  0.2956
 3438SOL    HW121947   2.510   2.560   7.366 -1.3659 -0.2505 -1.1746
 3438SOL    HW221948   2.538   2.440   7.458  1.2038 -0.4969 -2.1960
 3439SOL     OW21949   1.305   3.436   9.923  0.2283  0.6608  0.2054
 3439SOL    HW121950   1.215   3.463   9.942 -0.6189 -0.7312 -1.8714
 3439SOL    HW221951   1.328   3.394  10.006  1.9579  0.1421 -0.5357
 3440SOL     OW21952   2.370   1.056  16.415  0.8210  0.4373  0.1181
 3440SOL    HW121953   2.362   1.086  16.325  0.7506 -0.7838 -0.2927
 3440SOL    HW221954   2.309   0.982  16.408  2.3923 -0.6578 -2.0674
 3441SOL     OW21955   4.202   4.591   4.455 -0.1602  0.0164 -0.3086
 3441SOL    HW121956   4.277   4.650   4.452  0.6204 -1.0091 -1.0933
 3441SOL    HW221957   4.183   4.578   4.362 -1.1215 -0.1396 -0.0883
 3442SOL     OW21958   3.113   3.665   8.613  0.3302  0.5195 -0.3314
 3442SOL    HW121959   3.124   3.571   8.599  0.0377  0.4466 -0.0557
 3442SOL    HW221960   3.040   3.671   8.674  1.5556  0.5266  1.1285
 3443SOL     OW21961   4.529   0.486   2.863  0.2892 -0.0771  0.4169
 3443SOL    HW121962   4.623   0.468   2.853  0.3954  0.1252  1.0951
 3443SOL    HW221963   4.510   0.427   2.935  0.0829 -3.7420 -2.6541
 3444SOL     OW21964   2.565   2.234   3.127  0.1141 -0.0123  0.4125
 3444SOL    HW121965   2.643   2.275   3.164  0.3561 -0.9268  0.9120
 3444SOL    HW221966   2.567   2.266   3.037  0.2761 -1.8273 -0.2130
 3445SOL     OW21967   3.955   0.160  17.218  0.4941 -0.4212  0.3154
 3445SOL    HW121968   3.961   0.127  17.307 -1.0618 -0.8104  0.2719
 3445SOL    HW221969   3.878   0.217  17.216 -1.7223 -3.4069  0.3226
 3446SOL     OW21970   1.275   1.021   1.522 -0.3865 -0.1051 -0.9212
 3446SOL    HW121971   1.349   0.976   1.480  1.0169  0.0517  1.3887
 3446SOL    HW221972   1.208   0.954   1.529  0.0173 -0.2235  1.8620
 3447SOL     OW21973   3.314   2.400  11.831 -0.6219 -0.0181 -0.1281
 3447SOL    HW121974   3.364   2.318  11.821 -1.0106 -0.1152 -1.2457
 3447SOL    HW221975   3.308   2.414  11.926  1.4820 -2.2706  0.3643
 3448SOL     OW21976   0.920   3.139  10.772  0.0001  0.1724 -0.1798
 3448SOL    HW121977   0.939   3.111  10.862 -2.5538 -0.0851  0.2698
 3448SOL    HW221978   1.004   3.130  10.727 -0.3927 -2.2835 -0.4180
 3449SOL     OW21979   2.431   0.316   7.703 -0.3607  0.0100 -0.4947
 3449SOL    HW121980   2.369   0.314   7.630 -0.0280  3.0045 -0.8692
 3449SOL    HW221981   2.486   0.240   7.685 -0.0114 -0.3942  2.3074
 3450SOL     OW21982   0.214   3.443   5.991 -0.0495 -0.3547 -0.1340
 3450SOL    HW121983   0.252   3.409   6.072 -1.1062  0.8520  0.8709
 3450SOL    HW221984   0.121   3.423   6.001  0.1783 -1.0682  0.5520
 3451SOL     OW21985   3.019   3.269   6.233 -0.2944 -0.2609 -0.3863
 3451SOL    HW121986   3.035   3.355   6.273 -0.6762 -0.8525  1.0611
 3451SOL    HW221987   2.940   3.248   6.283 -0.6764 -1.1122 -1.3455
 3452SOL     OW21988   3.896   0.036  12.222 -0.6994 -0.1349  0.1689
 3452SOL    HW121989   3.889   4.676  12.213 -4.0903  0.4713 -3.3458
 3452SOL    HW221990   3.863   0.049  12.311  0.7956  0.9985  0.5694
 3453SOL     OW21991   0.165   0.090   2.692  0.4121 -0.5001  0.1614
 3453SOL    HW121992   0.177   4.731   2.698 -0.7876 -0.6962 -0.7034
 3453SOL    HW221993   0.202   0.108   2.606  0.4294 -4.3234 -0.6359
 3454SOL     OW21994   4.084   3.615   3.343  0.1589  0.2764  0.4080
 3454SOL    HW121995   4.109   3.652   3.258 -1.2466 -2.7069 -1.3257
 3454SOL    HW221996   4.099   3.520   3.336 -0.4187  0.1586  0.7883
 3455SOL     OW21997   0.603   3.550  15.206  0.0405 -0.0087 -0.7958
 3455SOL    HW121998   0.591   3.518  15.116  0.6756  1.4883 -1.4208
 3455SOL    HW221999   0.696   3.569  15.194  0.3635 -0.1732  1.4590
 3456SOL     OW22000   1.989   1.555   7.938 -0.1984 -0.0201 -0.0703
 3456SOL    HW122001   1.936   1.604   8.001 -1.0577  0.0277 -0.8276
 3456SOL    HW222002   1.929   1.493   7.897 -1.7986  0.3793  1.6772
 3457SOL     OW22003   0.460   4.275   6.389  0.3695 -0.1719 -0.1185
 3457SOL    HW122004   0.387   4.289   6.449 -0.8887 -1.9889 -1.2240
 3457SOL    HW222005   0.505   4.201   6.431 -0.8444  0.3592  2.1133
 3458SOL     OW22006   3.338   0.958  16.358 -0.0207 -0.1873  0.9549
 3458SOL    HW122007   3.414   1.011  16.383  0.7845 -1.3541  0.9638
 3458SOL    HW222008   3.365   0.939  16.269  0.5131  1.1886  0.8169
 3459SOL     OW22009   2.207   0.037   2.943 -0.3888  0.2345  0.4502
 3459SOL    HW122010   2.139   0.014   3.006  0.8190 -2.2869  0.8397
 3459SOL    HW222011   2.156   0.016   2.865  1.8193  1.1398 -1.2124
 3460SOL     OW22012   0.384   0.170  11.788 -0.1587  0.5235 -0.0400
 3460SOL    HW122013   0.329   0.243  11.761 -0.5256  0.1058 -0.4313
 3460SOL    HW222014   0.464   0.209  11.825 -0.5383  1.5253 -0.2686
 3461SOL     OW22015   4.024   0.351   3.666  0.4305  0.1418 -0.4700
 3461SOL    HW122016   4.040   0.417   3.597  0.6637  0.2041 -0.3572
 3461SOL    HW222017   4.028   0.406   3.744  0.0469 -1.1179  0.4177
 3462SOL     OW22018   3.103   0.194   2.453 -0.2617 -0.7095 -0.3312
 3462SOL    HW122019   3.081   0.205   2.545 -1.6302 -0.4399 -0.6885
 3462SOL    HW222020   3.199   0.198   2.444 -0.0697  0.5564  2.2783
 3463SOL     OW22021   2.172   3.246  15.757  0.4357 -0.5964  0.2596
 3463SOL    HW122022   2.248   3.198  15.725  0.5946  0.0351 -0.3206
 3463SOL    HW222023   2.105   3.178  15.771  0.4501 -0.7759 -0.4853
 3464SOL     OW22024   0.909   3.936   9.780 -0.4272 -0.3283  0.2882
 3464SOL    HW122025   0.938   3.845   9.778  0.9449  0.0940  0.7370
 3464SOL    HW222026   0.925   3.969   9.869  2.6487 -0.3694 -0.2737
 3465SOL     OW22027   1.119   1.383   6.048 -0.0514  0.4337  0.1023
 3465SOL    HW122028   1.051   1.351   6.107 -1.5545  3.6915  0.1284
 3465SOL    HW222029   1.106   1.329   5.971 -0.0563  1.0916 -0.3600
 3466SOL     OW22030   3.109   1.916  17.325 -0.5361  0.0867  0.3147
 3466SOL    HW122031   3.047   1.896  17.255  1.7257  0.3483 -1.7653
 3466SOL    HW222032   3.178   1.853  17.302  0.0972  0.5558  0.9221
 3467SOL     OW22033   1.237   1.278  17.311 -0.5556 -0.2703 -0.1469
 3467SOL    HW122034   1.184   1.351  17.343 -1.1371 -1.3378  1.3079
 3467SOL    HW222035   1.219   1.222  17.387  0.3934 -1.7923 -1.0566
 3468SOL     OW22036   3.843   1.023   1.787  0.1391 -0.3827  0.1515
 3468SOL    HW122037   3.852   1.002   1.694 -0.8785 -0.4815  0.0739
 3468SOL    HW222038   3.784   1.098   1.785 -0.4050 -0.7857  1.1295
 3469SOL     OW22039   0.809   3.094  11.247 -0.3200  0.4677 -0.2472
 3469SOL    HW122040   0.763   3.103  11.331  0.4501  3.0294 -0.1132
 3469SOL    HW222041   0.740   3.096  11.181 -0.5668  1.1170  0.0300
 3470SOL     OW22042   1.741   3.856   1.919  0.7486  0.1485  0.3978
 3470SOL    HW122043   1.829   3.872   1.953  1.4455 -0.4533 -1.1469
 3470SOL    HW222044   1.699   3.921   1.976  0.1121  0.4973 -0.4682
 3471SOL     OW22045   3.618   2.179   6.182  0.0205  0.2417  0.1605
 3471SOL    HW122046   3.677   2.162   6.256 -0.2282  0.0631  0.3156
 3471SOL    HW222047   3.568   2.098   6.182  1.4411 -0.6351  0.0194
 3472SOL     OW22048   1.921   4.717   1.914 -0.4425  1.2237 -0.3970
 3472SOL    HW122049   1.834   4.725   1.953 -0.7278  3.0110 -1.4102
 3472SOL    HW222050   1.903   0.024   1.830  1.7706  1.7847 -0.5869
 3473SOL     OW22051   0.567   0.555  11.687 -0.3811  0.3886 -0.4212
 3473SOL    HW122052   0.580   0.493  11.759 -1.8867  1.2289  0.5636
 3473SOL    HW222053   0.568   0.496  11.611  3.4247 -1.8910  1.3717
 3474SOL     OW22054   4.664   1.758   7.229  0.0518 -0.0036  0.0030
 3474SOL    HW122055   4.579   1.756   7.274 -0.1779  0.0700 -0.4201
 3474SOL    HW222056   4.700   1.677   7.265  0.8093  1.1047  1.7401
 3475SOL     OW22057   3.997   3.707  15.312 -0.2309 -0.3144  0.1869
 3475SOL    HW122058   3.924   3.714  15.374 -0.3268 -0.5360  0.0965
 3475SOL    HW222059   3.954   3.640  15.258 -0.0236 -0.0035 -0.3667
 3476SOL     OW22060   3.805   3.335  15.300 -0.7801  0.4127 -0.3107
 3476SOL    HW122061   3.787   3.398  15.230 -3.4391  0.1550  0.1457
 3476SOL    HW222062   3.797   3.253  15.250 -0.3002  0.9377 -1.2413
 3477SOL     OW22063   1.797   3.177  16.495  0.0470  1.1881 -0.0219
 3477SOL    HW122064   1.880   3.222  16.507  1.3133 -0.8791 -1.0343
 3477SOL    HW222065   1.807   3.093  16.540 -1.3558  0.5935 -0.8165
 3478SOL     OW22066   0.721   1.360   7.417 -0.3878  0.0998 -0.3929
 3478SOL    HW122067   0.681   1.281   7.454 -0.4758 -0.0375 -0.7791
 3478SOL    HW222068   0.730   1.339   7.323  2.5537  0.8291 -0.2632
 3479SOL     OW22069   3.883   2.629   7.146  0.4441 -0.2815 -0.3681
 3479SOL    HW122070   3.890   2.623   7.051 -1.5933 -0.2475 -0.5063
 3479SOL    HW222071   3.793   2.657   7.161  1.1615  1.1762  1.3335
 3480SOL     OW22072   1.872   2.881   7.163 -0.5090  0.2281 -0.2771
 3480SOL    HW122073   1.883   2.837   7.078 -0.9982  1.1887 -0.8285
 3480SOL    HW222074   1.837   2.802   7.205 -3.0165  0.3837 -2.1189
 3481SOL     OW22075   3.970   1.940   2.967  0.6035  0.0318 -0.1799
 3481SOL    HW122076   4.053   1.986   2.978 -0.0358  1.1487  0.0314
 3481SOL    HW222077   3.981   1.902   2.880  0.6759 -0.9018  0.2345
 3482SOL     OW22078   1.106   0.568   8.166 -0.2896  1.0452  0.1370
 3482SOL    HW122079   1.150   0.496   8.212  0.6718  0.7691 -1.1973
 3482SOL    HW222080   1.183   0.608   8.126 -1.2533  1.7263 -1.0237
 3483SOL     OW22081   4.093   0.685   4.914 -0.0148  0.0796  0.2521
 3483SOL    HW122082   4.184   0.714   4.919  0.0876 -0.4184  1.1706
 3483SOL    HW222083   4.053   0.739   4.982 -0.1808  0.5320 -0.2091
 3484SOL     OW22084   0.819   2.952   5.326 -0.1703  0.0130  0.4656
 3484SOL    HW122085   0.899   2.983   5.283 -0.7257 -0.8258 -1.1653
 3484SOL    HW222086   0.769   2.900   5.263 -2.8861  2.0087  0.9750
 3485SOL     OW22087   3.308   3.023   8.881 -0.8236  0.6635 -0.1875
 3485SOL    HW122088   3.255   2.944   8.888  1.1009 -0.7730 -1.6299
 3485SOL    HW222089   3.390   2.988   8.845 -1.1895  0.8113 -1.1691
 3486SOL     OW22090   2.740   3.834  16.432  0.0566 -0.2189  0.3119
 3486SOL    HW122091   2.733   3.757  16.489  1.4081  0.3901  1.3067
 3486SOL    HW222092   2.819   3.823  16.379 -0.3628  0.0243 -0.3578
 3487SOL     OW22093   1.883   4.368   6.174 -0.2463  0.5498 -0.1678
 3487SOL    HW122094   1.825   4.440   6.149 -0.5807  0.8418  1.4311
 3487SOL    HW222095   1.970   4.405   6.163  0.2273 -1.4141 -3.2249
 3488SOL     OW22096   2.511   3.611   8.279 -0.1987 -0.4298 -0.5804
 3488SOL    HW122097   2.438   3.665   8.247  0.4411  1.1756  0.6288
 3488SOL    HW222098   2.570   3.609   8.204  0.0957  1.6303 -0.4116
 3489SOL     OW22099   0.731   2.721   5.883 -0.1612  0.0717  0.5345
 3489SOL    HW122100   0.698   2.795   5.834 -0.0645 -0.9098 -1.0150
 3489SOL    HW222101   0.744   2.757   5.971  1.4159  1.3429 -0.2230
 3490SOL     OW22102   0.961   4.562   6.657  0.3278  0.0014  0.8135
 3490SOL    HW122103   0.990   4.568   6.748  1.9202 -0.4389  0.3177
 3490SOL    HW222104   1.045   4.562   6.612 -0.8268  0.7281 -1.3497
 3491SOL     OW22105   1.580   4.619   6.750  0.0651  0.0708 -0.3286
 3491SOL    HW122106   1.555   4.526   6.750 -0.6527  0.2565 -1.8528
 3491SOL    HW222107   1.640   4.642   6.821 -1.4898  1.7797  0.4407
 3492SOL     OW22108   3.603   1.184  15.764  0.0731 -0.2419 -0.7431
 3492SOL    HW122109   3.527   1.139  15.726 -1.6750  0.7294  1.5927
 3492SOL    HW222110   3.564   1.270  15.783  0.4108  0.1336 -1.7371
 3493SOL     OW22111   0.633   3.750   1.605 -0.3247 -0.5171  0.1244
 3493SOL    HW122112   0.553   3.769   1.655  1.8868 -0.3654  3.6030
 3493SOL    HW222113   0.622   3.781   1.516  0.2275 -0.4326  0.0892
 3494SOL     OW22114   0.593   1.884  12.430 -0.1632  0.0881 -0.5257
 3494SOL    HW122115   0.618   1.965  12.385  1.3018 -0.5854 -0.9248
 3494SOL    HW222116   0.499   1.892  12.447  0.3024 -2.8659  3.5148
 3495SOL     OW22117   3.790   4.161   5.237  0.0459 -0.1077  0.1472
 3495SOL    HW122118   3.758   4.251   5.237  1.4708  0.3894  0.9442
 3495SOL    HW222119   3.742   4.122   5.310  0.1118  1.1201  0.8500
 3496SOL     OW22120   3.341   2.644   3.315  0.1946  0.1582 -0.2976
 3496SOL    HW122121   3.273   2.631   3.380  0.6436  2.6009  0.6446
 3496SOL    HW222122   3.418   2.662   3.368  0.3198  0.2363 -0.5038
 3497SOL     OW22123   3.456   1.489   6.738  0.0303  0.2107  0.2219
 3497SOL    HW122124   3.502   1.410   6.710  1.2592  0.7548  0.6997
 3497SOL    HW222125   3.519   1.517   6.804  0.7303  0.0828 -0.3983
 3498SOL     OW22126   0.417   0.629   5.726 -0.2252  0.2972  0.1592
 3498SOL    HW122127   0.479   0.575   5.774  0.0772 -1.4100 -2.1263
 3498SOL    HW222128   0.429   0.590   5.639 -0.0895  3.3316 -1.2055
 3499SOL     OW22129   3.687   3.608   5.613 -0.3167  0.0253  0.4617
 3499SOL    HW122130   3.592   3.602   5.609 -0.2748  1.2365 -2.5859
 3499SOL    HW222131   3.707   3.673   5.681 -1.2199  2.2539 -1.4178
 3500SOL     OW22132   2.083   0.596   6.538 -0.1422 -0.7815 -0.4847
 3500SOL    HW122133   2.149   0.540   6.579 -1.6070 -1.3467  1.1129
 3500SOL    HW222134   2.112   0.576   6.449  0.1023 -0.1559 -0.5427
 3501SOL     OW22135   3.360   3.641   2.381  0.1418  0.1602 -0.1759
 3501SOL    HW122136   3.392   3.584   2.451  0.7642 -3.9672 -3.7715
 3501SOL    HW222137   3.436   3.630   2.323 -0.6077 -0.4181 -1.0420
 3502SOL     OW22138   2.736   0.544   1.499  0.7068  0.9598  0.5738
 3502SOL    HW122139   2.667   0.585   1.551 -0.6497 -0.2474 -0.2745
 3502SOL    HW222140   2.812   0.531   1.556  0.8548 -2.7352 -0.5203
 3503SOL     OW22141   0.470   1.607   7.761  0.4173  0.2804  0.2645
 3503SOL    HW122142   0.522   1.544   7.811 -1.2929  1.0417  3.0434
 3503SOL    HW222143   0.500   1.586   7.673  0.9369 -3.1061  1.2291
 3504SOL     OW22144   1.445   3.949  15.947  0.5874  0.3098  0.2007
 3504SOL    HW122145   1.357   3.973  15.977 -0.9283 -0.1020 -3.8272
 3504SOL    HW222146   1.432   3.904  15.863 -1.8085  1.0824  0.1345
 3505SOL     OW22147   0.789   2.937   8.191 -0.1430 -0.0273 -0.4396
 3505SOL    HW122148   0.750   3.025   8.189 -0.2173 -0.0892 -1.6905
 3505SOL    HW222149   0.845   2.949   8.267 -0.7634  0.3603 -0.0411
 3506SOL     OW22150   4.004   1.329  16.691 -0.1728 -0.4944 -0.3811
 3506SOL    HW122151   4.045   1.245  16.669  2.1521  0.5240  0.0553
 3506SOL    HW222152   3.960   1.358  16.611 -1.9464 -1.1098  0.3628
 3507SOL     OW22153   1.046   2.249   6.722 -0.1120 -0.0831  0.4559
 3507SOL    HW122154   0.974   2.253   6.785 -0.9806  0.6295 -0.5996
 3507SOL    HW222155   1.112   2.194   6.765 -1.1962 -1.7166  0.0024
 3508SOL     OW22156   0.842   0.494   7.843  0.7214 -0.4092 -0.0940
 3508SOL    HW122157   0.904   0.564   7.823 -1.3128  0.6526 -2.6374
 3508SOL    HW222158   0.759   0.520   7.804  0.5935  0.4889  0.7831
 3509SOL     OW22159   3.021   3.135   8.160  0.1886 -0.0175 -0.3093
 3509SOL    HW122160   3.005   3.230   8.167  0.7458 -0.0028  0.7580
 3509SOL    HW222161   3.021   3.121   8.255 -1.7241  3.1045  0.1674
 3510SOL     OW22162   0.051   3.000   7.502  0.3343 -0.1753  0.0257
 3510SOL    HW122163   4.719   2.966   7.441 -1.0660  1.1951  0.8153
 3510SOL    HW222164   0.054   2.934   7.571 -3.2685 -1.2646 -0.8509
 3511SOL     OW22165   4.121   0.197   2.017 -0.4250 -0.5477  0.0938
 3511SOL    HW122166   4.066   0.119   2.009  2.1461 -2.4098  0.6039
 3511SOL    HW222167   4.065   0.270   1.990  2.2762  1.5413  0.1267
 3512SOL     OW22168   4.067   0.624   3.193 -0.0788  0.2887 -1.0090
 3512SOL    HW122169   3.994   0.601   3.136 -2.2610  0.1649  1.8604
 3512SOL    HW222170   4.055   0.719   3.196 -0.0922  0.2046  1.7703
 3513SOL     OW22171   0.599   1.736   5.467 -0.0029 -0.0820  0.4797
 3513SOL    HW122172   0.647   1.712   5.388 -0.3017 -0.8057  0.5114
 3513SOL    HW222173   0.585   1.827   5.442 -3.9466 -0.9342 -0.4238
 3514SOL     OW22174   0.282   1.428  14.898  0.0763  0.3496 -0.1188
 3514SOL    HW122175   0.202   1.387  14.863  1.3776 -1.9700 -0.3874
 3514SOL    HW222176   0.241   1.470  14.973  1.4697 -3.3116  2.6714
 3515SOL     OW22177   1.394   4.597   9.948 -0.3834  0.2165  0.0158
 3515SOL    HW122178   1.381   4.527   9.884  1.0950 -1.2984  1.3809
 3515SOL    HW222179   1.361   4.554  10.028 -1.1184  0.7514  0.0065
 3516SOL     OW22180   0.491   1.850  12.045  0.2388  0.4540 -0.5006
 3516SOL    HW122181   0.573   1.897  12.062  1.0994 -0.5080 -1.9603
 3516SOL    HW222182   0.501   1.774  12.103  3.7589  0.3698 -1.2120
 3517SOL     OW22183   0.073   2.569   4.170  0.1489  0.0249 -0.3954
 3517SOL    HW122184   4.725   2.530   4.143 -0.9213  2.0680 -0.0324
 3517SOL    HW222185   0.127   2.526   4.104 -0.9762  0.4914 -1.6187
 3518SOL     OW22186   4.537   0.555   5.827  0.1129  0.7372  0.4426
 3518SOL    HW122187   4.534   0.465   5.859  1.1523  1.2899  2.0810
 3518SOL    HW222188   4.631   0.572   5.841  0.3428  1.0753 -1.4499
 3519SOL     OW22189   0.470   0.741   4.656  0.3504  0.3240 -0.0307
 3519SOL    HW122190   0.490   0.649   4.645  0.3630  0.3424 -0.1681
 3519SOL    HW222191   0.379   0.748   4.687 -0.4880 -1.1568 -2.1875
 3520SOL     OW22192   3.783   3.973  16.742 -0.0662 -0.0932  0.2980
 3520SOL    HW122193   3.708   3.945  16.793 -0.0713  0.9044  0.8460
 3520SOL    HW222194   3.858   3.943  16.793  1.2923  2.2768 -0.3041
 3521SOL     OW22195   3.510   2.271   0.761  0.4792 -0.1905  0.4433
 3521SOL    HW122196   3.585   2.274   0.821  0.0405 -3.2823  1.1925
 3521SOL    HW222197   3.478   2.355   0.793  0.8714 -0.0556  0.4849
 3522SOL     OW22198   3.365   0.591   8.721 -0.1868 -0.7496 -0.5006
 3522SOL    HW122199   3.313   0.515   8.744 -2.5866  1.6755  2.0694
 3522SOL    HW222200   3.306   0.633   8.659  2.5205  3.0544 -0.5391
 3523SOL     OW22201   1.737   3.365  12.934  0.0832 -0.2646 -0.3370
 3523SOL    HW122202   1.759   3.325  12.850 -0.1963 -1.1111 -0.0022
 3523SOL    HW222203   1.693   3.287  12.968 -0.5999  0.3032  0.0800
 3524SOL     OW22204   0.188   3.040  11.215 -0.4194 -0.2845 -0.0937
 3524SOL    HW122205   0.163   2.951  11.189  1.0435 -0.7128 -0.0286
 3524SOL    HW222206   0.106   3.069  11.254 -0.7807  0.9405 -1.7515
 3525SOL     OW22207   3.474   2.514   7.621  0.3912 -0.3816 -0.2148
 3525SOL    HW122208   3.528   2.455   7.568 -1.0628  0.5635 -2.7199
 3525SOL    HW222209   3.462   2.591   7.567  2.0402 -0.1668 -0.2761
 3526SOL     OW22210   0.043   1.869   2.127 -0.2290 -0.0024 -0.3984
 3526SOL    HW122211   4.714   1.934   2.097  0.2189  0.5289 -0.2129
 3526SOL    HW222212   0.103   1.882   2.053 -1.6816  1.4205 -1.3292
 3527SOL     OW22213   1.891   4.165   1.502  0.1952 -0.6705 -0.5165
 3527SOL    HW122214   1.979   4.156   1.539  0.2618 -1.1292 -0.7874
 3527SOL    HW222215   1.848   4.094   1.550 -1.3166  0.0422 -0.8084
 3528SOL     OW22216   1.608   3.986   8.797 -0.1867  0.2397  0.7244
 3528SOL    HW122217   1.615   4.065   8.850 -2.4355  1.2037 -0.4283
 3528SOL    HW222218   1.685   3.933   8.819  0.5220  0.3761 -1.4750
 3529SOL     OW22219   2.716   4.033   2.985 -0.3532  0.5603 -0.6386
 3529SOL    HW122220   2.758   4.056   3.068 -1.4313  0.6059 -0.0978
 3529SOL    HW222221   2.647   3.971   3.009 -0.2678  1.4883  1.9877
 3530SOL     OW22222   1.207   1.256   3.729 -0.0179 -0.0724 -0.0239
 3530SOL    HW122223   1.144   1.207   3.782 -0.5817  2.1635  1.3907
 3530SOL    HW222224   1.228   1.342   3.766  0.2612 -0.3439  0.4511
 3531SOL     OW22225   1.865   2.116   6.286  0.2338 -0.2113  0.2861
 3531SOL    HW122226   1.786   2.106   6.338 -0.3995  1.2011 -0.3839
 3531SOL    HW222227   1.830   2.107   6.197  0.9213 -1.4145  0.1425
 3532SOL     OW22228   3.631   0.041   1.891  0.2023  0.0240  0.0694
 3532SOL    HW122229   3.608   0.092   1.814 -0.1188  0.1598  0.2550
 3532SOL    HW222230   3.547   4.734   1.911  0.0051  0.4378  0.1174
 3533SOL     OW22231   2.771   2.178  11.129 -0.1125  0.2090 -0.3408
 3533SOL    HW122232   2.751   2.217  11.214 -0.1127 -0.7043  0.0781
 3533SOL    HW222233   2.865   2.198  11.123  0.1481 -0.8276  0.3755
 3534SOL     OW22234   0.279   0.060   2.938 -0.1379  0.0449 -0.4659
 3534SOL    HW122235   0.229   0.066   2.857 -0.8019  3.4133  0.1952
 3534SOL    HW222236   0.319   0.147   2.939 -0.2056  0.0755 -0.3715
 3535SOL     OW22237   2.482   1.366   5.884 -0.0715 -0.1508  0.1098
 3535SOL    HW122238   2.432   1.311   5.945 -0.7022  1.7621  1.3363
 3535SOL    HW222239   2.543   1.414   5.941 -1.0975  0.6770  0.5251
 3536SOL     OW22240   4.324   2.045   2.123 -0.5492 -0.1458 -0.0575
 3536SOL    HW122241   4.383   1.999   2.063 -0.4920 -0.2682  0.0927
 3536SOL    HW222242   4.252   2.084   2.074 -0.1480 -1.2224 -1.5260
 3537SOL     OW22243   4.183   4.320   7.749  0.0076 -0.0267  0.1234
 3537SOL    HW122244   4.161   4.282   7.834 -0.9485  1.0962  0.3768
 3537SOL    HW222245   4.218   4.241   7.708 -0.8334 -0.6957  0.6959
 3538SOL     OW22246   0.962   2.802  11.368  0.2593  0.5157  0.0821
 3538SOL    HW122247   0.888   2.836  11.318 -0.6043 -2.1006 -0.4066
 3538SOL    HW222248   0.984   2.879  11.421  2.1328  0.2792 -0.3216
 3539SOL     OW22249   2.796   3.823   4.460 -0.1241 -0.2989  0.4638
 3539SOL    HW122250   2.704   3.845   4.446 -0.4054 -2.3394 -0.8053
 3539SOL    HW222251   2.830   3.861   4.379  0.0632  1.6329  1.4502
 3540SOL     OW22252   3.808   2.936   6.083  0.6355  0.7384 -0.2734
 3540SOL    HW122253   3.858   2.883   6.145 -0.9037  0.3088  0.5926
 3540SOL    HW222254   3.764   2.877   6.021  0.1758  0.7064  0.0863
 3541SOL     OW22255   0.063   1.286   6.962  0.1599  0.4017  0.2738
 3541SOL    HW122256   0.076   1.380   6.973 -1.7099  0.5847  0.9297
 3541SOL    HW222257   0.092   1.260   7.049 -1.0793 -1.6795  0.0850
 3542SOL     OW22258   0.318   4.365   6.678  0.2161 -0.4528  0.2431
 3542SOL    HW122259   0.234   4.389   6.717 -0.8008 -0.1629 -2.1367
 3542SOL    HW222260   0.370   4.442   6.702 -2.5225  1.8948 -1.3783
 3543SOL     OW22261   1.151   3.909   6.024 -0.8651  0.4346  0.2331
 3543SOL    HW122262   1.199   3.850   6.083 -0.2266  0.9703  0.2485
 3543SOL    HW222263   1.189   3.888   5.938 -0.3756  0.4499  0.4419
 3544SOL     OW22264   3.381   4.498   6.687  0.1223 -0.2400  0.0944
 3544SOL    HW122265   3.367   4.531   6.598  3.3911 -2.4634 -1.2414
 3544SOL    HW222266   3.293   4.516   6.721  0.9774  0.7742  1.7752
 3545SOL     OW22267   4.179   0.947   8.526 -0.0147  0.5583  0.0189
 3545SOL    HW122268   4.264   0.940   8.570 -0.6382  1.4109  1.3380
 3545SOL    HW222269   4.211   0.935   8.436 -0.2569 -0.0469  0.0155
 3546SOL     OW22270   2.879   2.546   9.120 -0.2927 -0.5277  0.0676
 3546SOL    HW122271   2.884   2.554   9.025  3.6984 -0.7752  0.2388
 3546SOL    HW222272   2.912   2.457   9.132  3.1896  0.8324  0.7611
 3547SOL     OW22273   1.611   2.168   7.344 -0.5579  0.4250  0.1832
 3547SOL    HW122274   1.614   2.074   7.360  1.7804  0.3936 -0.5165
 3547SOL    HW222275   1.537   2.183   7.404 -0.1666  2.9049  0.0658
 3548SOL     OW22276   1.332   3.593   7.085 -0.0645 -0.3083 -0.4977
 3548SOL    HW122277   1.426   3.611   7.076 -0.1446 -1.2494 -3.2148
 3548SOL    HW222278   1.298   3.668   7.036 -0.0337 -0.0630 -0.1480
 3549SOL     OW22279   1.961   4.126   9.897  0.5318  0.6342  0.5084
 3549SOL    HW122280   1.945   4.042   9.853 -2.4139  1.3024  0.2438
 3549SOL    HW222281   1.978   4.094   9.985  1.3713  1.6761  0.7281
 3550SOL     OW22282   0.072   3.876  17.012 -0.5196 -0.1228  0.0532
 3550SOL    HW122283   0.149   3.866  16.956 -1.3961 -1.6169 -0.8613
 3550SOL    HW222284   0.041   3.785  17.013 -1.1229  0.0954  0.5989
 3551SOL     OW22285   4.401   2.043   7.357 -0.4743 -0.0931  0.1074
 3551SOL    HW122286   4.313   2.007   7.347 -0.0205 -0.7165 -1.6030
 3551SOL    HW222287   4.398   2.126   7.405 -1.5452 -0.9179  1.4971
 3552SOL     OW22288   0.111   1.568   7.052 -0.2750  0.2752 -0.4602
 3552SOL    HW122289   0.098   1.549   7.145 -0.2020 -1.6748 -0.8456
 3552SOL    HW222290   0.168   1.645   7.061 -0.7230  0.4506  0.9131
 3553SOL     OW22291   2.668   1.008   3.170  0.4272 -0.1304 -0.0920
 3553SOL    HW122292   2.640   1.097   3.146 -1.4655 -0.4941  0.7478
 3553SOL    HW222293   2.672   0.970   3.082  0.3610  0.3943 -0.3248
 3554SOL     OW22294   0.841   4.079  11.973 -0.5072 -0.8463  0.0970
 3554SOL    HW122295   0.858   4.161  12.020  1.4878 -1.2262  0.0479
 3554SOL    HW222296   0.907   4.080  11.904 -0.7543 -0.0991 -0.1307
 3555SOL     OW22297   4.576   4.494   5.237  0.1999  0.0440 -0.8346
 3555SOL    HW122298   4.631   4.571   5.250  0.8900  0.0514 -3.7470
 3555SOL    HW222299   4.639   4.428   5.209  0.7136 -0.5637  1.8310
 3556SOL     OW22300   4.594   1.910   6.286 -0.1394  0.4009 -0.3459
 3556SOL    HW122301   4.673   1.964   6.279 -0.1682  0.5268  0.2674
 3556SOL    HW222302   4.581   1.929   6.379  0.7964  1.2126 -0.3738
 3557SOL     OW22303   3.110   3.267  12.855 -0.0396 -0.6045  0.0318
 3557SOL    HW122304   3.074   3.300  12.937  0.2418 -1.3720  0.4601
 3557SOL    HW222305   3.037   3.277  12.794  0.1267 -2.0265 -0.4101
 3558SOL     OW22306   1.047   0.847   1.506 -0.0468  0.8041 -0.4381
 3558SOL    HW122307   0.980   0.791   1.467  3.6831 -2.4495 -2.2031
 3558SOL    HW222308   1.002   0.931   1.507  0.4060  1.0515 -0.8895
 3559SOL     OW22309   3.758   0.547   9.228  0.1637  0.2982  0.0143
 3559SOL    HW122310   3.777   0.539   9.135  0.3182 -0.3697  0.1051
 3559SOL    HW222311   3.777   0.456   9.249  0.4720  0.0206 -1.4945
 3560SOL     OW22312   0.060   3.214  17.048 -0.1455  0.2560  0.6694
 3560SOL    HW122313   4.700   3.211  17.035 -0.0890  0.3898  0.2342
 3560SOL    HW222314   0.096   3.294  17.009 -1.1820 -0.5609 -1.9510
 3561SOL     OW22315   3.341   2.219   1.986  0.2592 -0.7585 -0.1799
 3561SOL    HW122316   3.418   2.213   1.930  2.0561 -0.9854  2.2950
 3561SOL    HW222317   3.278   2.155   1.952  1.1238 -1.4059 -0.5654
 3562SOL     OW22318   2.213   3.759   5.463 -0.5960 -0.0022  0.3902
 3562SOL    HW122319   2.177   3.680   5.503 -2.1879 -0.0300 -1.0779
 3562SOL    HW222320   2.248   3.810   5.536  0.2784  0.1724 -0.1520
 3563SOL     OW22321   1.547   2.218  11.525 -0.3829  0.4563  0.0217
 3563SOL    HW122322   1.571   2.301  11.483 -2.5902  0.6984 -0.7401
 3563SOL    HW222323   1.456   2.207  11.497 -0.1899  0.6163 -0.6773
 3564SOL     OW22324   0.984   4.378   8.815 -0.2583 -0.5322 -0.1510
 3564SOL    HW122325   0.968   4.380   8.909 -1.8215  1.1031 -0.4446
 3564SOL    HW222326   1.029   4.295   8.803 -0.3354 -0.4816 -0.8078
 3565SOL     OW22327   3.677   0.710  16.237 -0.2606  0.3769  0.7232
 3565SOL    HW122328   3.669   0.615  16.245  1.1819  0.0670 -1.3793
 3565SOL    HW222329   3.598   0.729  16.186  0.7192  4.5305  0.7955
 3566SOL     OW22330   0.076   3.612   5.752 -0.3384  0.6023  0.2893
 3566SOL    HW122331   0.069   3.546   5.682  1.9368 -1.2454  1.8061
 3566SOL    HW222332   4.718   3.613   5.775 -0.3585 -3.2644  0.5088
 3567SOL     OW22333   2.201   0.471  15.630  0.7326 -0.0822  1.0818
 3567SOL    HW122334   2.159   0.540  15.680 -1.6948 -0.6443 -0.2148
 3567SOL    HW222335   2.126   0.418  15.604 -0.2965  3.0766 -2.2985
 3568SOL     OW22336   2.729   1.267  13.809 -0.5702 -0.3012  0.0282
 3568SOL    HW122337   2.701   1.176  13.821  2.4383 -0.6187  4.4619
 3568SOL    HW222338   2.750   1.282  13.717 -0.3647  2.6935  0.5539
 3569SOL     OW22339   3.618   2.716   7.054 -0.6191  0.6435 -0.2225
 3569SOL    HW122340   3.588   2.688   6.968  0.9790  0.5772 -0.7389
 3569SOL    HW222341   3.546   2.771   7.086 -1.8771 -1.9620  1.4302
 3570SOL     OW22342   3.519   0.737   6.278  0.4945 -0.0792 -0.0457
 3570SOL    HW122343   3.455   0.679   6.237 -0.3740  1.1133 -0.3989
 3570SOL    HW222344   3.492   0.739   6.370 -1.3203  1.3566 -0.6086
 3571SOL     OW22345   0.184   1.297  12.756 -0.4372 -0.2037  0.0374
 3571SOL    HW122346   0.244   1.222  12.763 -0.0366  0.1120 -0.0369
 3571SOL    HW222347   0.243   1.354  12.707 -0.4021 -2.2590 -2.3715
 3572SOL     OW22348   3.293   2.014  17.657  0.2420 -0.3380 -0.1941
 3572SOL    HW122349   3.247   2.022  17.573  1.9887 -0.6012 -1.1831
 3572SOL    HW222350   3.345   1.935  17.644  1.0688  0.2534 -0.4799
 3573SOL     OW22351   1.700   0.722  10.543  0.4400 -0.8782  0.3088
 3573SOL    HW122352   1.721   0.666  10.468  1.9523  0.9832 -0.6512
 3573SOL    HW222353   1.720   0.656  10.610  1.1585 -0.5501  0.4177
 3574SOL     OW22354   1.602   1.913   7.493  0.2194 -0.2755  0.0143
 3574SOL    HW122355   1.553   1.855   7.434 -0.5347  1.4417 -1.0569
 3574SOL    HW222356   1.557   1.885   7.572  0.9482 -1.9949 -0.1937
 3575SOL     OW22357   0.262   4.146  12.028  0.0258 -0.2800  0.2468
 3575SOL    HW122358   0.257   4.051  12.036  2.3902 -0.3378  0.8519
 3575SOL    HW222359   0.357   4.148  12.020  0.0762 -0.3750  0.7868
 3576SOL     OW22360   3.011   2.149   8.905 -0.5630  0.2192 -0.1275
 3576SOL    HW122361   2.981   2.175   8.992  0.1099  0.5630  0.0033
 3576SOL    HW222362   3.066   2.225   8.886  0.0973 -0.2437 -0.0893
 3577SOL     OW22363   3.247   1.589   9.853 -0.2769 -0.5177  0.1813
 3577SOL    HW122364   3.288   1.552   9.932  0.1339 -1.5019 -0.4902
 3577SOL    HW222365   3.155   1.590   9.878 -0.0681  0.8295  0.8848
 3578SOL     OW22366   2.894   2.973  10.837  0.3516  0.2050 -0.0900
 3578SOL    HW122367   2.858   2.926  10.761 -0.3934  0.3867  0.1483
 3578SOL    HW222368   2.829   2.955  10.905 -0.6940 -1.6693 -1.5780
 3579SOL     OW22369   4.372   1.716   7.230 -0.3427  0.7807  0.3327
 3579SOL    HW122370   4.349   1.761   7.149 -1.2090 -0.4838 -0.1263
 3579SOL    HW222371   4.411   1.629   7.221  1.2567  1.5078  0.3084
 3580SOL     OW22372   1.970   1.180   1.442 -0.6912  0.0047  0.3988
 3580SOL    HW122373   1.930   1.241   1.380 -0.9127 -1.3397 -0.8013
 3580SOL    HW222374   1.967   1.229   1.524 -0.0995 -0.3909  0.6518
 3581SOL     OW22375   4.254   0.965   3.930  0.3403 -0.7572  0.1759
 3581SOL    HW122376   4.206   0.978   3.849  1.1926 -0.4522 -0.2778
 3581SOL    HW222377   4.332   0.921   3.898  1.8199  0.7979  1.5881
 3582SOL     OW22378   4.619   1.573  15.470  0.6367  0.4263 -0.7104
 3582SOL    HW122379   4.707   1.604  15.493  0.8655 -0.0182 -0.9870
 3582SOL    HW222380   4.605   1.609  15.383  0.2299  2.3499  0.1594
 3583SOL     OW22381   0.624   1.729   2.648  0.5709  0.2391  0.3696
 3583SOL    HW122382   0.659   1.705   2.562  0.3199  0.8304  0.1109
 3583SOL    HW222383   0.672   1.811   2.658 -0.6162  0.9636  0.1087
 3584SOL     OW22384   3.927   2.839   8.002 -0.5343  0.3460 -0.0774
 3584SOL    HW122385   3.859   2.851   8.068  1.2002  2.6062  1.3058
 3584SOL    HW222386   3.875   2.846   7.922 -1.7224 -1.0475  0.5912
 3585SOL     OW22387   0.721   3.743   5.906 -0.4959  0.1598  0.0788
 3585SOL    HW122388   0.781   3.706   5.842  0.0810  0.4749  0.4350
 3585SOL    HW222389   0.634   3.710   5.883 -0.9858  2.4125 -1.2954
 3586SOL     OW22390   2.745   1.083   7.728  0.3828 -0.1932  0.1915
 3586SOL    HW122391   2.692   1.036   7.792 -0.1051  1.3098  0.8978
 3586SOL    HW222392   2.744   1.165   7.778  1.6600  0.3244 -0.6149
 3587SOL     OW22393   0.382   0.465   4.225  0.0968  0.3832 -0.6677
 3587SOL    HW122394   0.423   0.480   4.140  2.1728 -1.2182  0.0561
 3587SOL    HW222395   0.293   0.442   4.199 -0.1221 -1.1499  1.4209
 3588SOL     OW22396   2.033   0.864   2.777  0.7506 -0.2550  0.3737
 3588SOL    HW122397   2.127   0.866   2.794  0.6699  0.2493  0.7481
 3588SOL    HW222398   2.005   0.927   2.843  2.7314  0.5534  0.4356
 3589SOL     OW22399   4.085   4.158  12.431  0.0679 -0.4207 -0.7379
 3589SOL    HW122400   4.138   4.234  12.458  1.4629 -2.2268  1.6768
 3589SOL    HW222401   4.151   4.127  12.369  1.3648 -0.5704  0.7078
 3590SOL     OW22402   1.055   1.176   7.648 -0.5110  0.0198 -0.0599
 3590SOL    HW122403   1.112   1.114   7.693  1.5965  0.3986 -2.2165
 3590SOL    HW222404   0.974   1.128   7.629 -1.3255  0.8485  1.3539
 3591SOL     OW22405   0.694   4.472   5.822 -0.2495 -0.2032  0.7389
 3591SOL    HW122406   0.668   4.393   5.870  0.9019 -0.0774  1.5730
 3591SOL    HW222407   0.656   4.471   5.734 -0.4530 -3.8162  0.8659
 3592SOL     OW22408   4.253   1.153  13.142  0.8097  0.0487 -0.1768
 3592SOL    HW122409   4.299   1.204  13.076 -0.7234  0.3379 -1.0109
 3592SOL    HW222410   4.271   1.214  13.214  0.3286 -1.9434  1.6376
 3593SOL     OW22411   1.467   3.329  16.083  0.1431 -0.3311  0.0265
 3593SOL    HW122412   1.404   3.348  16.153  1.3080 -0.6586  1.1523
 3593SOL    HW222413   1.542   3.348  16.138 -1.1676  2.6936  0.8079
 3594SOL     OW22414   0.336   0.199  16.485  0.2099 -0.3468 -0.1110
 3594SOL    HW122415   0.426   0.230  16.495 -0.2067 -0.1505  3.0227
 3594SOL    HW222416   0.289   0.262  16.540 -0.5389 -0.5801 -0.4862
 3595SOL     OW22417   1.246   4.730   4.022  0.1386  0.1453 -0.1954
 3595SOL    HW122418   1.162   0.027   3.989 -1.5747 -2.4498  1.6350
 3595SOL    HW222419   1.281   0.070   4.069 -0.3388  1.2588 -1.6078
 3596SOL     OW22420   1.308   4.136   2.420  0.0348 -0.0942  0.4636
 3596SOL    HW122421   1.272   4.147   2.332  1.3718 -0.8310 -0.1885
 3596SOL    HW222422   1.368   4.062   2.409  0.0301  0.4376 -3.1137
 3597SOL     OW22423   2.054   0.860   6.559 -0.0668 -0.0742 -0.0482
 3597SOL    HW122424   2.058   0.765   6.556  0.5133 -0.0689  0.4200
 3597SOL    HW222425   2.114   0.880   6.488  2.1334 -0.0805  1.8120
 3598SOL     OW22426   2.301   1.904  11.792 -0.4788 -0.0290  0.7466
 3598SOL    HW122427   2.288   1.994  11.819 -0.4812  0.0079  0.6247
 3598SOL    HW222428   2.341   1.908  11.705 -3.0662  1.7814 -0.3599
 3599SOL     OW22429   1.045   2.427   4.803 -0.0964 -0.0672  0.1750
 3599SOL    HW122430   1.064   2.367   4.730 -3.2118 -1.5832  0.6225
 3599SOL    HW222431   1.112   2.399   4.865 -0.9788 -3.0499 -0.1906
 3600SOL     OW22432   2.577   3.823   0.287 -0.3660  0.0092  0.6451
 3600SOL    HW122433   2.636   3.896   0.274  0.9991 -1.0448  0.9071
 3600SOL    HW222434   2.526   3.841   0.366 -3.4729  0.0508 -1.3679
 3601SOL     OW22435   3.314   1.032   8.481  0.4916 -0.1004 -0.9565
 3601SOL    HW122436   3.262   1.112   8.489  1.2838  0.2072  0.9761
 3601SOL    HW222437   3.295   1.000   8.569  2.0322  1.0009 -0.2327
 3602SOL     OW22438   0.659   2.358   6.398 -0.2023 -0.1453 -0.2641
 3602SOL    HW122439   0.616   2.428   6.349  1.3737  0.3660 -0.9158
 3602SOL    HW222440   0.751   2.379   6.383  0.1196  0.0295  1.9342
 3603SOL     OW22441   4.555   3.964   6.178  0.1823 -0.3142 -0.2594
 3603SOL    HW122442   4.643   4.003   6.170 -0.1731  0.2245 -1.5494
 3603SOL    HW222443   4.508   4.042   6.204  1.4709  0.8712 -1.4930
 3604SOL     OW22444   0.751   0.546  13.053 -0.2554  0.1299  0.7364
 3604SOL    HW122445   0.730   0.453  13.054  1.6485 -0.3174 -0.0563
 3604SOL    HW222446   0.671   0.582  13.015 -0.4242  0.4792  1.4352
 3605SOL     OW22447   2.789   1.981  12.989 -0.0943  0.0583 -0.1403
 3605SOL    HW122448   2.816   1.950  12.902 -0.5589 -0.6194 -0.0452
 3605SOL    HW222449   2.755   1.903  13.032  0.6310 -0.4508 -0.5032
 3606SOL     OW22450   2.486   3.740   6.738  0.8935  0.3728 -0.0081
 3606SOL    HW122451   2.394   3.745   6.764  0.7359 -0.6807 -0.3428
 3606SOL    HW222452   2.509   3.831   6.719  3.7537 -0.8836 -2.5813
 3607SOL     OW22453   3.405   0.932  13.366 -0.4102 -0.1902 -0.6167
 3607SOL    HW122454   3.387   0.994  13.296  0.7828  1.7982  0.8643
 3607SOL    HW222455   3.317   0.914  13.399  0.2948  0.5434  1.6752
 3608SOL     OW22456   3.991   1.631   2.993 -0.0837 -0.2386 -0.0114
 3608SOL    HW122457   4.071   1.627   2.941 -0.0532  0.4606 -0.0215
 3608SOL    HW222458   4.026   1.650   3.080 -2.0317  0.7525  0.5600
 3609SOL     OW22459   0.574   0.992  16.078  0.2201  0.4404  0.3169
 3609SOL    HW122460   0.584   0.993  15.983  1.4542  0.6595  0.4448
 3609SOL    HW222461   0.488   1.032  16.085 -1.4694 -2.8110 -1.8520
 3610SOL     OW22462   4.635   3.444   4.004  0.1978 -0.6812  0.6303
 3610SOL    HW122463   4.727   3.461   4.024  0.2691 -2.0052  1.4772
 3610SOL    HW222464   4.589   3.496   4.071  2.8650  2.0342  0.3173
 3611SOL     OW22465   3.845   4.082   9.932  0.2170  0.1215  0.2916
 3611SOL    HW122466   3.828   4.126   9.849 -0.0672  0.2134  0.4010
 3611SOL    HW222467   3.835   4.156   9.991 -0.0212 -0.5849  1.1417
 3612SOL     OW22468   1.750   4.590   9.847 -0.3830 -0.1970  0.3617
 3612SOL    HW122469   1.839   4.622   9.862 -0.3360 -0.8246  1.4735
 3612SOL    HW222470   1.755   4.494   9.851 -0.3052 -0.1691  1.0313
 3613SOL     OW22471   2.218   1.541   5.173 -0.3405 -0.3485  0.1016
 3613SOL    HW122472   2.309   1.517   5.153 -1.1488 -2.6451 -0.8004
 3613SOL    HW222473   2.228   1.567   5.265 -0.3931  1.7709 -0.4999
 3614SOL     OW22474   0.365   0.203   5.924 -0.1585  0.2355  0.3431
 3614SOL    HW122475   0.280   0.182   5.885 -0.3454 -0.6540  1.2365
 3614SOL    HW222476   0.413   0.175   5.846  2.3375 -1.3219  2.4270
 3615SOL     OW22477   0.016   4.049   4.834  0.3704  0.3022 -0.9768
 3615SOL    HW122478   0.005   4.010   4.748 -1.3557  0.6349 -0.8993
 3615SOL    HW222479   0.098   4.010   4.866 -0.4101  0.2139  0.9001
 3616SOL     OW22480   3.395   2.496  14.476  0.3206  0.3876  0.1159
 3616SOL    HW122481   3.316   2.548  14.491 -0.5403 -0.9370  0.0718
 3616SOL    HW222482   3.459   2.563  14.450  2.8818 -2.1222 -0.0651
 3617SOL     OW22483   1.596   3.756  12.706  0.2164 -0.0185  0.1565
 3617SOL    HW122484   1.656   3.818  12.664 -0.0099  0.0283 -0.0976
 3617SOL    HW222485   1.656   3.717  12.770 -0.0736 -1.0819 -0.2232
 3618SOL     OW22486   2.866   0.497  11.722  0.4832  0.0121  0.1775
 3618SOL    HW122487   2.827   0.579  11.752 -0.5074 -0.7392  0.9725
 3618SOL    HW222488   2.913   0.525  11.644 -0.7762 -1.2986 -1.0565
 3619SOL     OW22489   1.352   2.580   3.295  0.1009 -0.3891  0.1309
 3619SOL    HW122490   1.264   2.546   3.309 -0.4944  0.8199 -0.6556
 3619SOL    HW222491   1.402   2.500   3.313  0.8323  0.2421  0.8910
 3620SOL     OW22492   2.827   3.347   8.022 -0.0458 -0.0942 -0.2186
 3620SOL    HW122493   2.775   3.273   8.053 -1.6990  0.5097 -1.5202
 3620SOL    HW222494   2.902   3.300   7.987  1.7631  1.4407  1.6033
 3621SOL     OW22495   1.964   4.528   6.855  0.3588 -0.0032  0.0351
 3621SOL    HW122496   1.939   4.538   6.763  0.0335  0.1386  0.1420
 3621SOL    HW222497   2.011   4.444   6.850 -1.7076 -1.0699 -1.2051
 3622SOL     OW22498   2.820   0.533   2.303 -0.0894  0.0117  0.0651
 3622SOL    HW122499   2.764   0.493   2.369 -0.0051  1.3978  0.9777
 3622SOL    HW222500   2.761   0.595   2.261 -0.7679 -0.1701  0.7399
 3623SOL     OW22501   1.470   1.234   7.730 -0.2199  0.1975 -0.1182
 3623SOL    HW122502   1.444   1.194   7.648  0.9933 -0.3529 -0.2333
 3623SOL    HW222503   1.388   1.279   7.750 -1.0610  0.1439 -3.4460
 3624SOL     OW22504   3.303   2.840   9.533  0.3935  0.6145 -0.1178
 3624SOL    HW122505   3.208   2.837   9.540  0.3639 -0.7952 -1.1569
 3624SOL    HW222506   3.306   2.817   9.440 -1.5335  0.2692 -0.0815
 3625SOL     OW22507   1.002   4.154   6.680  0.4675 -0.0109 -0.4550
 3625SOL    HW122508   0.971   4.206   6.606  1.8346  1.7208  0.1772
 3625SOL    HW222509   1.095   4.177   6.689  0.2131  0.8002  0.0527
 3626SOL     OW22510   4.271   2.089   1.812 -0.7021  0.4721 -0.0602
 3626SOL    HW122511   4.318   2.042   1.743  0.1120 -0.1339  0.9124
 3626SOL    HW222512   4.342   2.135   1.857 -0.7812  1.3754 -0.8520
 3627SOL     OW22513   1.845   1.375   5.118  0.3560 -0.3049  0.2892
 3627SOL    HW122514   1.782   1.442   5.142 -0.1902 -0.3783 -0.9126
 3627SOL    HW222515   1.917   1.429   5.087 -0.6595 -0.2180 -1.9238
 3628SOL     OW22516   2.885   0.385  17.324 -0.0698  0.4450 -0.6553
 3628SOL    HW122517   2.854   0.316  17.265 -1.6483  0.3937  0.2487
 3628SOL    HW222518   2.967   0.355  17.364 -0.4686  0.0559 -0.1275
 3629SOL     OW22519   2.669   4.520   8.127  0.3239  0.0127 -0.2393
 3629SOL    HW122520   2.668   4.555   8.038 -1.4521  1.0449  0.1946
 3629SOL    HW222521   2.651   4.596   8.182 -1.5337  0.1491 -1.0416
 3630SOL     OW22522   3.065   0.286   7.294  0.1192 -0.1445 -0.9890
 3630SOL    HW122523   3.087   0.302   7.386 -0.7766 -0.7956 -0.6635
 3630SOL    HW222524   3.153   0.283   7.255 -0.0048  1.2949 -1.3822
 3631SOL     OW22525   4.331   1.143   5.749  0.4814 -0.6863 -0.3586
 3631SOL    HW122526   4.284   1.065   5.778  2.0487 -1.3355  0.4471
 3631SOL    HW222527   4.419   1.134   5.788 -1.3833 -0.6883  3.8834
 3632SOL     OW22528   2.782   1.149   2.675  0.1224  0.0773 -0.0136
 3632SOL    HW122529   2.867   1.182   2.643  1.3576 -2.7263  0.4149
 3632SOL    HW222530   2.807   1.105   2.756  1.0598  4.2268  1.9450
 3633SOL     OW22531   2.676   0.714   5.401 -0.0420  0.0140  0.5305
 3633SOL    HW122532   2.747   0.776   5.419 -1.9324  1.6603  2.3900
 3633SOL    HW222533   2.606   0.769   5.436  0.6054  0.9474  0.3757
 3634SOL     OW22534   2.776   1.001  14.280 -0.2885  0.2710 -0.4408
 3634SOL    HW122535   2.761   1.095  14.280  0.5303  0.4173 -2.9148
 3634SOL    HW222536   2.750   0.975  14.191  0.0809 -1.2248 -0.1180
 3635SOL     OW22537   4.477   4.308  15.916  0.4639 -0.2644 -0.5328
 3635SOL    HW122538   4.460   4.399  15.943  0.7007 -0.3012 -0.2691
 3635SOL    HW222539   4.570   4.293  15.927  0.6289  0.3533 -1.0768
 3636SOL     OW22540   0.631   4.140  10.067  0.2236  0.3892 -0.2609
 3636SOL    HW122541   0.723   4.122  10.047  0.6311  1.8859  0.2828
 3636SOL    HW222542   0.588   4.076  10.010 -2.1400  1.4338  0.3127
 3637SOL     OW22543   3.902   1.425   9.984 -0.5819  0.5722  0.2191
 3637SOL    HW122544   3.930   1.492   9.921 -1.2417 -1.0365 -1.7886
 3637SOL    HW222545   3.987   1.400  10.020  0.0561 -0.0008 -1.6431
 3638SOL     OW22546   2.128   2.794  10.393 -0.3859  0.2451  0.2882
 3638SOL    HW122547   2.149   2.706  10.423  2.8964 -0.1943 -3.2942
 3638SOL    HW222548   2.204   2.813  10.337 -0.5348 -1.2927 -0.4306
 3639SOL     OW22549   1.289   2.599   9.355  0.0188  0.2100 -0.1551
 3639SOL    HW122550   1.328   2.544   9.423 -1.3312  0.5497  0.9021
 3639SOL    HW222551   1.196   2.612   9.376  0.3497  0.8746  0.8683
 3640SOL     OW22552   0.566   1.590   7.507 -0.4644  0.2405 -0.5037
 3640SOL    HW122553   0.634   1.657   7.505 -1.2554  1.1061  2.3897
 3640SOL    HW222554   0.617   1.509   7.499 -2.3991 -1.1604  1.5547
 3641SOL     OW22555   0.719   1.257   7.166 -0.6278 -0.4349 -0.6865
 3641SOL    HW122556   0.692   1.176   7.122 -0.6125 -0.6644 -0.2735
 3641SOL    HW222557   0.802   1.287   7.131  0.0683  0.0310  1.3938
 3642SOL     OW22558   2.098   1.326  12.569 -0.0848 -0.0422  0.3623
 3642SOL    HW122559   2.002   1.333  12.573 -0.2483 -2.9804  1.7609
 3642SOL    HW222560   2.129   1.363  12.652 -2.2451 -1.5081  1.8229
 3643SOL     OW22561   2.598   1.892  12.581  0.3018  0.7861  0.1050
 3643SOL    HW122562   2.622   1.817  12.525  2.4124  1.7587 -0.2942
 3643SOL    HW222563   2.520   1.926  12.538 -2.2049 -1.6180  2.7393
 3644SOL     OW22564   3.635   1.932   7.660 -0.0128 -0.3364 -0.1111
 3644SOL    HW122565   3.542   1.937   7.638 -0.4942 -0.8869  1.7800
 3644SOL    HW222566   3.659   2.020   7.689 -0.7204 -0.5712  1.1718
 3645SOL     OW22567   4.452   2.223   5.581  0.3287  0.2991 -0.2751
 3645SOL    HW122568   4.507   2.157   5.539  0.9130  0.4258  0.2778
 3645SOL    HW222569   4.482   2.302   5.535  1.3943  0.2663  0.3518
 3646SOL     OW22570   0.452   0.507   4.893 -0.1008 -0.4381 -0.2814
 3646SOL    HW122571   0.399   0.450   4.949  1.4555 -1.6374 -0.0285
 3646SOL    HW222572   0.388   0.567   4.856 -0.2303  0.6476  1.6682
 3647SOL     OW22573   0.268   0.895   0.914 -0.1818  0.0620  0.5894
 3647SOL    HW122574   0.347   0.869   0.867 -1.5988 -0.9280 -1.2459
 3647SOL    HW222575   0.299   0.951   0.985  0.5897  0.7795 -0.3358
 3648SOL     OW22576   3.071   2.374   7.984  0.0521 -0.0192 -0.1136
 3648SOL    HW122577   3.048   2.448   7.926  0.0863 -0.5389 -0.7956
 3648SOL    HW222578   3.106   2.308   7.924 -0.8035  0.0381 -0.6759
 3649SOL     OW22579   3.572   0.495   8.082 -0.6972  0.7969  0.7766
 3649SOL    HW122580   3.536   0.507   7.994 -0.6933 -3.3468  0.1919
 3649SOL    HW222581   3.650   0.446   8.054 -0.4393  2.1046 -0.8393
 3650SOL     OW22582   3.967   1.151  17.183  0.2223  0.2785  0.1300
 3650SOL    HW122583   4.060   1.143  17.160  0.8233  0.2096  2.5090
 3650SOL    HW222584   3.933   1.096  17.112  1.4053 -1.7083  1.0803
 3651SOL     OW22585   3.497   3.558  15.467 -0.5237 -0.5157 -0.0432
 3651SOL    HW122586   3.470   3.607  15.544  2.1225  2.7397 -1.1367
 3651SOL    HW222587   3.543   3.626  15.416 -2.3022  2.8782  2.9066
 3652SOL     OW22588   3.348   1.911   2.701  0.6271 -0.0442 -0.3491
 3652SOL    HW122589   3.363   1.822   2.669  0.2570 -0.5179  0.7803
 3652SOL    HW222590   3.313   1.943   2.618  1.1835 -0.3282 -0.6979
 3653SOL     OW22591   0.394   1.649   5.656 -0.2630 -0.2534  0.1208
 3653SOL    HW122592   0.349   1.731   5.632 -0.2644 -0.2298  0.2043
 3653SOL    HW222593   0.484   1.666   5.627 -0.0426 -0.0348  0.9358
 3654SOL     OW22594   1.343   0.169   7.806  0.1965 -0.1966 -0.0409
 3654SOL    HW122595   1.268   0.210   7.850 -0.7082 -0.6623 -1.1581
 3654SOL    HW222596   1.353   0.083   7.848  0.6846  1.0116  2.3003
 3655SOL     OW22597   0.632   2.095   6.737 -0.1374 -0.4080 -0.0272
 3655SOL    HW122598   0.587   2.178   6.720 -3.0497 -1.5896  1.8041
 3655SOL    HW222599   0.634   2.062   6.647 -3.0663  1.6558 -0.8507
 3656SOL     OW22600   3.123   2.609   6.677  0.1229  0.4396  0.5793
 3656SOL    HW122601   3.211   2.609   6.639  0.9236  0.2048  2.4064
 3656SOL    HW222602   3.136   2.643   6.766 -1.3424  1.1127  0.5303
 3657SOL     OW22603   4.123   1.772   5.238 -0.7723 -0.3306 -0.5431
 3657SOL    HW122604   4.031   1.777   5.264 -0.4206  1.5223  0.3308
 3657SOL    HW222605   4.126   1.774   5.142 -1.0097  0.2613 -0.5400
 3658SOL     OW22606   0.899   0.111   6.139 -0.0078 -0.3040 -0.2356
 3658SOL    HW122607   0.815   0.065   6.146  0.6188 -1.5256 -0.9165
 3658SOL    HW222608   0.955   0.043   6.103 -0.6565 -0.3112 -1.2459
 3659SOL     OW22609   3.455   2.145   7.144  0.9398  0.7358 -0.3331
 3659SOL    HW122610   3.432   2.114   7.056 -0.8443 -0.3268  0.4955
 3659SOL    HW222611   3.529   2.200   7.119  2.1355 -1.4223 -1.5355
 3660SOL     OW22612   4.348   3.355  17.410 -0.3366 -0.3458  0.5056
 3660SOL    HW122613   4.378   3.445  17.417  1.6626 -0.7863 -2.1544
 3660SOL    HW222614   4.431   3.308  17.398  0.3125  0.2196  2.8616
 3661SOL     OW22615   1.131   1.843   9.649 -0.2789  0.5917  0.5107
 3661SOL    HW122616   1.167   1.884   9.570 -0.3444  0.2604  0.3088
 3661SOL    HW222617   1.078   1.916   9.680 -0.2851  0.2768  1.2145
 3662SOL     OW22618   0.357   1.629   9.845 -0.8445  0.0301  0.1699
 3662SOL    HW122619   0.407   1.575   9.785  0.1264 -0.2175  1.2127
 3662SOL    HW222620   0.326   1.690   9.777 -0.6324  0.0938  0.1308
 3663SOL     OW22621   4.406   2.109   7.006  0.7695  0.2135 -0.7656
 3663SOL    HW122622   4.368   2.021   7.000 -0.8859  0.8824 -0.1836
 3663SOL    HW222623   4.483   2.103   7.063  0.5516 -0.8689 -0.5817
 3664SOL     OW22624   2.108   1.366   3.859  0.2337 -0.1580 -0.3160
 3664SOL    HW122625   2.096   1.311   3.781 -0.8217 -0.0336 -0.2510
 3664SOL    HW222626   2.158   1.312   3.920  2.6660  2.0149 -0.3835
 3665SOL     OW22627   3.441   1.531   7.458  0.3213  0.5766 -0.3479
 3665SOL    HW122628   3.433   1.555   7.365 -2.1537 -1.0877 -0.5591
 3665SOL    HW222629   3.487   1.608   7.490  2.6318 -1.8674  2.1642
 3666SOL     OW22630   3.999   4.302   2.784  0.5403 -0.4325 -0.5501
 3666SOL    HW122631   4.084   4.344   2.773 -0.9250  2.0503 -2.3433
 3666SOL    HW222632   3.945   4.379   2.803  1.1783 -0.6890  2.2652
 3667SOL     OW22633   3.959   1.437  13.162  0.1737  0.4984 -0.1690
 3667SOL    HW122634   3.926   1.382  13.090 -1.0034  1.9125 -0.7069
 3667SOL    HW222635   3.939   1.525  13.131 -0.3351  0.1270 -0.8914
 3668SOL     OW22636   1.391   0.203   4.118 -0.3112 -0.3173 -0.1763
 3668SOL    HW122637   1.345   0.286   4.126  0.7012  0.3567 -1.4200
 3668SOL    HW222638   1.483   0.220   4.101  0.2050 -1.1543  1.8052
 3669SOL     OW22639   3.074   0.399   2.022 -0.1520  0.1680 -0.6862
 3669SOL    HW122640   3.035   0.337   1.960  0.2337 -0.9038  0.1365
 3669SOL    HW222641   3.013   0.472   2.028  1.2331  1.1471  1.3646
 3670SOL     OW22642   4.569   1.377  17.530  0.4311 -0.2712 -0.2476
 3670SOL    HW122643   4.629   1.396  17.457  1.2516 -0.8362  0.2747
 3670SOL    HW222644   4.634   1.341  17.591  2.1645 -2.7426 -3.5157
 3671SOL     OW22645   0.960   3.332   2.643 -0.4629 -0.0434  0.5092
 3671SOL    HW122646   0.942   3.239   2.654  2.0646 -0.5259  0.3554
 3671SOL    HW222647   0.982   3.338   2.550  0.4283 -0.7322  0.6831
 3672SOL     OW22648   0.008   4.634   4.061  0.3747 -0.0351 -0.4284
 3672SOL    HW122649   4.679   4.680   4.006  0.3560  2.3710  1.6414
 3672SOL    HW222650   0.061   4.594   3.993 -0.9627 -2.8362  0.1446
 3673SOL     OW22651   4.535   1.196  12.336  0.0780 -0.4366  0.8323
 3673SOL    HW122652   4.578   1.281  12.342  1.3232 -1.1479  2.0249
 3673SOL    HW222653   4.451   1.214  12.378 -1.1198 -3.8092 -0.1591
 3674SOL     OW22654   4.136   2.699   3.305  0.3579  0.0744 -0.1940
 3674SOL    HW122655   4.047   2.706   3.272 -0.1827 -1.3315  0.9507
 3674SOL    HW222656   4.182   2.781   3.286  0.8516 -0.5623 -1.7510
 3675SOL     OW22657   3.932   1.355  12.600  0.1147  0.0401 -0.5590
 3675SOL    HW122658   3.884   1.284  12.643 -2.6673  0.5595 -2.8309
 3675SOL    HW222659   3.956   1.317  12.516  0.8834  2.3573 -1.4009
 3676SOL     OW22660   3.698   0.989   0.889  0.1874 -0.2612 -0.4212
 3676SOL    HW122661   3.766   0.923   0.904  0.2041  0.2163  1.5713
 3676SOL    HW222662   3.715   1.025   0.802  0.1181 -0.5197 -0.5399
 3677SOL     OW22663   3.150   3.065  11.478  0.0930  0.6862  0.2241
 3677SOL    HW122664   3.152   3.131  11.548 -2.4887  0.5784  0.4113
 3677SOL    HW222665   3.206   2.996  11.514 -1.5549 -0.2053  1.0661
 3678SOL     OW22666   0.021   2.574   8.954  0.2746 -0.5889  0.3707
 3678SOL    HW122667   4.706   2.647   8.918 -1.2848 -1.3585  0.9727
 3678SOL    HW222668   4.682   2.514   8.964 -0.1770  0.1031  1.1037
 3679SOL     OW22669   1.573   4.133   8.498  0.2766  0.1788  0.6418
 3679SOL    HW122670   1.600   4.121   8.589 -0.9806 -2.6782  0.6493
 3679SOL    HW222671   1.620   4.214   8.480  2.5780 -1.1800  0.3928
 3680SOL     OW22672   3.080   3.807   6.832  0.1524 -0.3601  0.1271
 3680SOL    HW122673   3.171   3.778   6.822  0.1785 -0.1819 -0.1373
 3680SOL    HW222674   3.089   3.893   6.790 -0.3760  0.5684  1.9241
 3681SOL     OW22675   3.945   3.846   2.912  0.1962  0.1257  0.0636
 3681SOL    HW122676   3.870   3.901   2.934 -0.2489  0.2484 -1.7968
 3681SOL    HW222677   4.004   3.898   2.857  0.6818 -1.7450 -1.1758
 3682SOL     OW22678   3.704   0.730   4.594 -0.1649 -0.8206  0.2927
 3682SOL    HW122679   3.618   0.699   4.565 -1.5439  3.5637 -0.3264
 3682SOL    HW222680   3.760   0.662   4.555  1.1553  1.0239 -1.0708
 3683SOL     OW22681   2.930   2.785   3.904 -0.8393 -0.4703 -0.3016
 3683SOL    HW122682   2.912   2.879   3.899 -0.5073 -0.2748  1.9889
 3683SOL    HW222683   2.852   2.738   3.875  0.4053 -1.4554 -2.0719
 3684SOL     OW22684   4.624   2.782   4.329  0.6673  0.0092  0.1248
 3684SOL    HW122685   4.599   2.734   4.250 -1.0020 -0.0728  0.6951
 3684SOL    HW222686   4.556   2.748   4.387  1.7920  0.6857  1.8537
 3685SOL     OW22687   3.478   3.700   6.018 -0.2110 -0.0207  0.4805
 3685SOL    HW122688   3.453   3.610   5.998 -0.2322 -0.2572  1.5820
 3685SOL    HW222689   3.404   3.751   5.987 -0.1437  0.3158  0.8677
 3686SOL     OW22690   4.299   2.013   6.423  0.2824  0.4734  0.0431
 3686SOL    HW122691   4.310   2.103   6.391 -0.9479  0.9573  1.0141
 3686SOL    HW222692   4.262   2.035   6.508  2.3525 -0.2392  1.1479
 3687SOL     OW22693   2.861   1.318   1.621  0.1156  0.0873  0.5360
 3687SOL    HW122694   2.889   1.272   1.700 -0.7311 -1.4554 -0.0575
 3687SOL    HW222695   2.911   1.398   1.606  0.7886 -0.1882  1.3185
 3688SOL     OW22696   0.500   3.552   4.860  0.0560 -0.1184  0.4410
 3688SOL    HW122697   0.592   3.527   4.850 -0.0103  0.1591 -0.8482
 3688SOL    HW222698   0.479   3.590   4.775 -0.8193 -1.0064  0.2625
 3689SOL     OW22699   0.824   2.785  15.246 -0.3907  0.1327  0.2594
 3689SOL    HW122700   0.812   2.792  15.340 -1.9014  0.7550  0.0403
 3689SOL    HW222701   0.891   2.719  15.257  0.1673  0.7836  0.7257
 3690SOL     OW22702   0.968   1.500   8.503 -0.1077  0.3878 -0.0042
 3690SOL    HW122703   1.030   1.432   8.530 -0.4668 -1.0734 -2.8594
 3690SOL    HW222704   0.902   1.502   8.572 -0.6193  0.9510 -0.5127
 3691SOL     OW22705   4.246   1.766   4.119  0.1205 -0.3363  0.1961
 3691SOL    HW122706   4.322   1.707   4.122  1.5335  1.4893 -0.1302
 3691SOL    HW222707   4.267   1.832   4.184  1.5572  0.8229 -1.4216
 3692SOL     OW22708   2.088   1.880   3.527  0.0348  0.2334  0.0033
 3692SOL    HW122709   2.137   1.884   3.610  0.0379  1.0867 -0.0414
 3692SOL    HW222710   2.138   1.823   3.470 -2.3506 -1.8441 -0.0012
 3693SOL     OW22711   2.540   0.847   8.645  0.2162 -0.3784  0.0183
 3693SOL    HW122712   2.451   0.879   8.662  1.8317  3.8394  0.6306
 3693SOL    HW222713   2.567   0.864   8.735  0.3795  3.4526 -0.7609
 3694SOL     OW22714   0.248   2.071   8.553  0.3511  0.2110  0.3148
 3694SOL    HW122715   0.229   2.111   8.468 -1.2465 -0.1704  0.4990
 3694SOL    HW222716   0.206   2.126   8.619 -0.6415 -1.9109  1.4462
 3695SOL     OW22717   2.082   3.654  15.523  0.2929 -0.4573 -0.0430
 3695SOL    HW122718   2.090   3.596  15.599  0.6218  1.4417  1.3598
 3695SOL    HW222719   2.134   3.614  15.453  1.3845  2.5277 -0.9459
 3696SOL     OW22720   4.344   2.532   8.346 -0.0086  0.0593  0.2544
 3696SOL    HW122721   4.435   2.517   8.370 -0.1093 -0.1068  0.5417
 3696SOL    HW222722   4.346   2.533   8.251  0.7092 -0.7159  0.2663
 3697SOL     OW22723   3.149   4.363   5.537 -0.1892 -0.4523  0.2340
 3697SOL    HW122724   3.054   4.355   5.526 -0.0279  0.4510 -1.8142
 3697SOL    HW222725   3.165   4.276   5.572  0.1476 -0.7378 -0.6381
 3698SOL     OW22726   4.498   0.963  11.602 -0.1174  0.2259 -0.1488
 3698SOL    HW122727   4.457   0.997  11.681 -0.3277 -2.0789  0.7272
 3698SOL    HW222728   4.563   1.033  11.593 -1.0044  1.3851  2.5075
 3699SOL     OW22729   3.708   2.570  14.609  0.5875 -0.7667  0.3237
 3699SOL    HW122730   3.679   2.480  14.592 -1.0672 -0.2658  0.5081
 3699SOL    HW222731   3.683   2.587  14.700  0.6116  0.6138  0.0700
 3700SOL     OW22732   4.703   1.842   8.877 -0.2263 -0.2258  0.2103
 3700SOL    HW122733   4.733   1.752   8.866 -1.2572 -0.5513  0.0154
 3700SOL    HW222734   0.046   1.881   8.915  0.2272  0.3485 -1.3229
 3701SOL     OW22735   0.664   0.509   1.407 -0.2082 -0.6993  0.8284
 3701SOL    HW122736   0.602   0.448   1.448 -1.2750 -0.4408 -0.4090
 3701SOL    HW222737   0.710   0.451   1.347 -3.4163 -2.3359 -0.0309
 3702SOL     OW22738   1.870   1.710   4.859  0.0253 -0.2483  0.0968
 3702SOL    HW122739   1.931   1.754   4.800 -1.6837  0.0885 -1.4356
 3702SOL    HW222740   1.919   1.635   4.894  1.2918  0.3605 -0.3772
 3703SOL     OW22741   3.797   2.155   7.714 -0.3339 -0.8618  0.0046
 3703SOL    HW122742   3.811   2.249   7.705 -0.3821 -0.6537  2.0449
 3703SOL    HW222743   3.874   2.126   7.665  0.4243  0.6395  0.3019
 3704SOL     OW22744   4.115   0.720   5.967 -0.2734  0.1313  0.4722
 3704SOL    HW122745   4.057   0.702   6.041 -1.1724 -2.2328 -0.8062
 3704SOL    HW222746   4.133   0.630   5.940 -0.5486  0.5724 -1.1571
 3705SOL     OW22747   1.262   0.121   5.010  0.8904 -0.3896 -0.0339
 3705SOL    HW122748   1.210   0.196   4.979  1.0733 -0.5842 -0.8305
 3705SOL    HW222749   1.189   0.067   5.040  0.5158  1.5762  2.6057
 3706SOL     OW22750   3.650   0.316   3.234  0.2770  0.3722  0.2004
 3706SOL    HW122751   3.614   0.250   3.175  0.6832  1.0911 -0.8655
 3706SOL    HW222752   3.667   0.267   3.314  0.9892  0.3072  0.0091
 3707SOL     OW22753   0.304   0.350   7.908  0.1656  0.9686 -0.1331
 3707SOL    HW122754   0.302   0.414   7.837  1.8832  0.7972 -0.3420
 3707SOL    HW222755   0.280   0.267   7.867 -1.0544 -0.1312  2.7662
 3708SOL     OW22756   1.175   4.360   9.342 -0.3069  0.2303 -0.1905
 3708SOL    HW122757   1.234   4.332   9.412  2.2126 -0.0117 -2.4247
 3708SOL    HW222758   1.101   4.390   9.395 -0.8996 -0.1583 -0.8074
 3709SOL     OW22759   0.388   2.429   3.708  0.6357 -0.0714  0.4158
 3709SOL    HW122760   0.384   2.333   3.705  0.8188 -0.0652 -0.1479
 3709SOL    HW222761   0.340   2.460   3.631  1.7115  0.5481 -0.0208
 3710SOL     OW22762   2.332   2.743   7.052 -0.4366  0.0339 -0.0715
 3710SOL    HW122763   2.323   2.824   7.103 -0.5890  0.6045 -1.0182
 3710SOL    HW222764   2.428   2.747   7.047 -0.3609  0.1894  1.3470
 3711SOL     OW22765   4.449   0.890  16.406  0.1314  0.3196  0.2584
 3711SOL    HW122766   4.523   0.873  16.347 -1.4863  1.0553 -1.9913
 3711SOL    HW222767   4.489   0.924  16.486  0.7062 -1.0896  0.5608
 3712SOL     OW22768   1.352   3.255   5.110  0.0443  0.1258  0.0174
 3712SOL    HW122769   1.344   3.309   5.031 -0.1051  0.9343  0.5803
 3712SOL    HW222770   1.401   3.181   5.076 -0.7263 -0.9458  1.2454
 3713SOL     OW22771   0.192   1.499   5.767  0.3558  0.1612  0.1107
 3713SOL    HW122772   0.126   1.540   5.711  0.8771  1.2994  0.3540
 3713SOL    HW222773   0.270   1.542   5.733  1.3906  1.1853  3.8610
 3714SOL     OW22774   4.337   0.397   7.189 -0.0735 -0.4190  0.3434
 3714SOL    HW122775   4.330   0.476   7.242 -0.7730 -0.3780  0.1901
 3714SOL    HW222776   4.374   0.336   7.253 -0.4293 -0.2456  0.7156
 3715SOL     OW22777   0.818   0.903   5.637 -0.4581 -0.0744  0.5612
 3715SOL    HW122778   0.753   0.936   5.575 -1.5436 -2.7612  0.2998
 3715SOL    HW222779   0.798   0.810   5.640  0.2109 -0.2223  0.4280
 3716SOL     OW22780   3.345   3.993   3.525 -0.4966 -0.2315  0.6825
 3716SOL    HW122781   3.374   4.028   3.441 -0.0158 -1.5805  0.2801
 3716SOL    HW222782   3.338   4.072   3.577 -2.0215 -0.8516  1.4152
 3717SOL     OW22783   4.489   3.056  13.852  0.1930 -0.2767 -0.3841
 3717SOL    HW122784   4.423   3.087  13.914  1.5215 -0.4354  1.0847
 3717SOL    HW222785   4.510   2.969  13.885  0.6073  0.5360  1.4614
 3718SOL     OW22786   4.146   3.396  11.185 -0.0396 -0.1881  0.3122
 3718SOL    HW122787   4.219   3.412  11.245  0.5156 -1.6011  0.0286
 3718SOL    HW222788   4.154   3.463  11.117  2.5367  0.0763  0.8990
 3719SOL     OW22789   4.465   1.552   3.492  0.3784 -0.1325  0.1478
 3719SOL    HW122790   4.432   1.635   3.525  0.4840  0.0746 -0.2649
 3719SOL    HW222791   4.474   1.562   3.397  0.1672  0.6927  0.2199
 3720SOL     OW22792   1.506   4.532  11.016  0.0004 -0.3832 -0.4586
 3720SOL    HW122793   1.589   4.493  11.043  0.8920  0.8896 -1.3862
 3720SOL    HW222794   1.463   4.457  10.975  0.9794 -1.9598  1.4031
 3721SOL     OW22795   3.934   0.739   1.792  0.2593 -0.2319  0.3047
 3721SOL    HW122796   3.878   0.672   1.831 -4.1892  3.1155 -0.3654
 3721SOL    HW222797   3.884   0.810   1.832 -0.5857  0.6647 -2.3439
 3722SOL     OW22798   1.182   0.292   3.587 -0.3079 -0.2875  0.1252
 3722SOL    HW122799   1.188   0.198   3.601  3.6802 -0.4002 -2.2385
 3722SOL    HW222800   1.273   0.323   3.586 -1.0085  1.8268  1.0985
 3723SOL     OW22801   3.808   1.551   0.438 -0.6333 -0.3418 -0.2224
 3723SOL    HW122802   3.876   1.585   0.379  0.0588 -0.7441  0.3319
 3723SOL    HW222803   3.734   1.546   0.379 -2.0093 -1.9848  1.6504
 3724SOL     OW22804   1.177   2.204   7.632  0.3580  0.0466 -0.5510
 3724SOL    HW122805   1.140   2.208   7.720  1.6370 -1.7724  0.0646
 3724SOL    HW222806   1.132   2.280   7.595 -1.4011 -0.1221  1.2350
 3725SOL     OW22807   1.833   4.036   5.674 -0.0019 -0.3054  0.2920
 3725SOL    HW122808   1.867   4.108   5.622 -0.4731  0.3057  0.8224
 3725SOL    HW222809   1.845   3.961   5.616 -0.3149  1.0570 -1.5415
 3726SOL     OW22810   0.995   0.931  11.475 -0.3337  0.2826  0.0417
 3726SOL    HW122811   1.013   0.894  11.389 -0.7619 -1.2133  0.5876
 3726SOL    HW222812   0.915   0.885  11.502  1.0680 -1.1053  1.7679
 3727SOL     OW22813   1.056   0.739   3.754 -0.3833 -0.2777 -0.2206
 3727SOL    HW122814   0.979   0.697   3.715 -0.0066 -1.7123  0.5502
 3727SOL    HW222815   1.028   0.767   3.841 -2.1420 -2.7654  0.0131
 3728SOL     OW22816   2.015   2.253   0.176 -0.0280 -0.6747  0.3753
 3728SOL    HW122817   1.941   2.252   0.116 -0.8094 -0.5595  1.3528
 3728SOL    HW222818   2.086   2.272   0.115  0.9571 -0.1061  1.7002
 3729SOL     OW22819   1.573   4.360   2.980 -0.0656 -0.2721 -0.3887
 3729SOL    HW122820   1.646   4.363   2.918 -0.5952  2.3571 -0.8862
 3729SOL    HW222821   1.516   4.318   2.916 -0.8991  2.6205 -1.5813
 3730SOL     OW22822   1.577   0.469  16.842  0.7086 -0.1278 -0.1275
 3730SOL    HW122823   1.624   0.550  16.826  0.2546  0.2334  0.3887
 3730SOL    HW222824   1.554   0.449  16.751 -2.4177 -2.1167  1.0841
 3731SOL     OW22825   1.601   0.276   8.033  0.1859 -0.0661 -0.5311
 3731SOL    HW122826   1.554   0.344   7.985  0.0253  0.2896  0.1228
 3731SOL    HW222827   1.618   0.213   7.963 -0.0290  0.2469 -0.8658
 3732SOL     OW22828   4.259   0.153  12.658 -0.3999  0.0183 -0.1774
 3732SOL    HW122829   4.222   0.158  12.746 -0.0525  0.6237 -0.0689
 3732SOL    HW222830   4.344   0.116  12.683 -1.0530 -0.2868  1.5770
 3733SOL     OW22831   4.629   3.271   6.973  0.1580  0.7804 -0.4930
 3733SOL    HW122832   4.617   3.194   6.918 -0.4354  0.7066 -0.2634
 3733SOL    HW222833   4.691   3.232   7.033 -0.6051  0.2367 -0.0544
 3734SOL     OW22834   1.839   0.797   4.716 -0.4613 -0.7492 -0.0823
 3734SOL    HW122835   1.837   0.708   4.751 -0.5068  0.1803  2.2505
 3734SOL    HW222836   1.850   0.853   4.793 -0.2868  0.7671 -1.1924
 3735SOL     OW22837   1.612   4.423   5.449 -0.2005 -0.2357  0.3127
 3735SOL    HW122838   1.701   4.391   5.464  0.6044  2.3049  1.0349
 3735SOL    HW222839   1.604   4.501   5.504 -3.8452  0.0568 -0.5954
 3736SOL     OW22840   3.118   2.769  11.119  0.5415 -0.4946 -0.1454
 3736SOL    HW122841   3.076   2.788  11.202 -0.7200  1.9445 -1.3264
 3736SOL    HW222842   3.082   2.683  11.097  2.2285 -0.7567 -1.8811
 3737SOL     OW22843   2.780   0.816  17.701 -0.2349  0.0636  0.0322
 3737SOL    HW122844   2.686   0.807  17.714 -0.1741 -0.1722  0.3089
 3737SOL    HW222845   2.795   0.752  17.631 -0.1815 -1.1294  1.1390
 3738SOL     OW22846   0.642   1.548   9.742  0.6715 -0.4286 -0.1431
 3738SOL    HW122847   0.687   1.629   9.765 -0.4801 -0.1294  1.0341
 3738SOL    HW222848   0.656   1.504   9.826  0.4092 -1.1144 -0.4581
 3739SOL     OW22849   2.194   2.977  12.239 -0.0298 -0.3341  0.7281
 3739SOL    HW122850   2.160   2.980  12.329 -1.3629 -2.0425  0.2956
 3739SOL    HW222851   2.117   2.983  12.182  0.2709 -0.3199  0.3234
 3740SOL     OW22852   4.543   4.572  10.552 -0.6063  0.3893 -0.0866
 3740SOL    HW122853   4.621   4.622  10.528 -1.2783  0.9681 -1.0474
 3740SOL    HW222854   4.500   4.553  10.469 -4.8911  2.4117  1.6355
 3741SOL     OW22855   1.789   0.277   3.822  0.1118 -0.0548  0.6404
 3741SOL    HW122856   1.791   0.346   3.889 -0.0481  1.1853 -0.6317
 3741SOL    HW222857   1.870   0.233   3.848 -0.6061 -1.5463  0.3484
 3742SOL     OW22858   0.888   1.942   3.200  0.0372  0.1986 -0.4597
 3742SOL    HW122859   0.915   1.915   3.113  0.8612 -0.9355  0.1601
 3742SOL    HW222860   0.903   2.033   3.176 -2.8011  0.4954 -1.1924
 3743SOL     OW22861   0.312   0.390   9.379  0.0395  0.0808 -0.2774
 3743SOL    HW122862   0.331   0.480   9.354  3.4765 -0.1458  1.6466
 3743SOL    HW222863   0.386   0.358   9.431 -0.7350 -2.1352 -0.5059
 3744SOL     OW22864   4.086   2.775   3.668 -0.2351  0.4477  0.0731
 3744SOL    HW122865   4.159   2.733   3.622  1.0349 -1.2830  3.6983
 3744SOL    HW222866   4.077   2.716   3.743 -1.1996  0.7913  0.2250
 3745SOL     OW22867   1.710   2.546   7.498  0.5837  0.4495 -0.0923
 3745SOL    HW122868   1.756   2.500   7.568  0.2716  0.2715 -0.0048
 3745SOL    HW222869   1.623   2.518   7.525  0.7300 -0.7781 -0.8666
 3746SOL     OW22870   3.097   0.626  17.312 -0.7110 -0.0531 -0.0602
 3746SOL    HW122871   3.125   0.557  17.372  0.5532  0.2658 -0.2837
 3746SOL    HW222872   3.007   0.601  17.291 -1.0478  0.9671  0.1765
 3747SOL     OW22873   2.010   0.155   3.915  0.2476  0.2554  0.3914
 3747SOL    HW122874   2.076   0.119   3.856 -0.2917  0.3862 -0.2964
 3747SOL    HW222875   2.016   0.100   3.993  1.1556  1.3187  1.0592
 3748SOL     OW22876   0.916   4.085  10.030 -0.1467  0.0788  0.0875
 3748SOL    HW122877   0.959   4.166  10.057 -1.3760  1.5033 -2.2769
 3748SOL    HW222878   0.903   4.052  10.119  0.6321 -1.4073 -0.3510
 3749SOL     OW22879   0.428   4.420   2.213 -0.1199  0.1496 -0.5192
 3749SOL    HW122880   0.450   4.428   2.305 -1.1154 -0.0526 -0.2576
 3749SOL    HW222881   0.378   4.338   2.210  2.7511 -1.6055  0.0248
 3750SOL     OW22882   3.223   3.518  16.450  0.3954 -0.2912 -0.0032
 3750SOL    HW122883   3.234   3.478  16.363  2.4395  0.0093  0.1223
 3750SOL    HW222884   3.306   3.499  16.494 -0.5445  1.0204  2.3090
 3751SOL     OW22885   4.177   0.148  10.163 -0.4780 -0.3826  0.1599
 3751SOL    HW122886   4.157   0.153  10.256  1.2555  1.3365  0.4296
 3751SOL    HW222887   4.258   0.098  10.164 -1.3989 -1.9121 -1.0365
 3752SOL     OW22888   1.487   4.661   6.084 -0.1234  0.5077 -0.4984
 3752SOL    HW122889   1.503   0.020   6.081  2.1909  0.0897 -1.5414
 3752SOL    HW222890   1.394   4.674   6.104 -0.1338 -0.8398  0.3284
 3753SOL     OW22891   4.659   2.130   3.830 -0.1151  0.3136  0.1721
 3753SOL    HW122892   4.608   2.197   3.784 -0.7552 -0.8413 -0.7777
 3753SOL    HW222893   4.597   2.099   3.895  0.6527 -1.3832  0.0852
 3754SOL     OW22894   3.338   2.701   2.459  0.1402 -0.1008  0.0815
 3754SOL    HW122895   3.356   2.778   2.513 -2.1919 -0.6126  1.5835
 3754SOL    HW222896   3.396   2.635   2.497  0.3297  0.5243  0.8993
 3755SOL     OW22897   1.793   0.010  13.402 -0.0223  0.0292  0.1577
 3755SOL    HW122898   1.825   4.670  13.452 -2.4515  0.0206  1.6618
 3755SOL    HW222899   1.749   4.699  13.330  0.1500 -0.4470  0.3607
 3756SOL     OW22900   0.398   1.295   7.003  0.1303 -0.3080  0.1241
 3756SOL    HW122901   0.422   1.348   6.927  0.4282 -0.3548  0.1851
 3756SOL    HW222902   0.382   1.215   6.952  0.2491  0.2778 -0.8232
 3757SOL     OW22903   0.164   0.389  12.985  0.3366  0.5580 -0.4181
 3757SOL    HW122904   0.259   0.380  12.992  0.2608 -1.3431 -2.0210
 3757SOL    HW222905   0.131   0.317  13.038  1.7227  0.2314  0.0206
 3758SOL     OW22906   3.354   4.214   3.343 -0.0255 -0.3919  0.1014
 3758SOL    HW122907   3.307   4.294   3.365  1.3269  0.1060  1.1669
 3758SOL    HW222908   3.412   4.244   3.273  0.6153 -0.6374  0.5246
 3759SOL     OW22909   4.266   4.266   7.295  0.0581  0.4892  0.0756
 3759SOL    HW122910   4.264   4.227   7.207 -1.0973  1.5846 -0.3775
 3759SOL    HW222911   4.273   4.359   7.276  0.2553  0.5179  0.2875
 3760SOL     OW22912   1.449   0.043   3.860  0.5090 -0.1459  0.2207
 3760SOL    HW122913   1.396   0.022   3.938  2.1016  3.0762  2.1666
 3760SOL    HW222914   1.519   4.713   3.861  0.6328 -0.0140 -0.8967
 3761SOL     OW22915   4.465   4.405  14.719  0.3013 -0.1919  0.0683
 3761SOL    HW122916   4.499   4.451  14.796  2.8280 -0.2079 -1.0551
 3761SOL    HW222917   4.491   4.314  14.729  4.9390  1.4336  2.7217
 3762SOL     OW22918   3.472   3.794  15.702  0.0642 -0.2533 -0.4001
 3762SOL    HW122919   3.403   3.840  15.750  2.0638  1.7944  0.5309
 3762SOL    HW222920   3.512   3.735  15.766 -0.9362 -1.8636 -1.2472
 3763SOL     OW22921   4.234   0.716  11.373  0.3646 -0.5080 -0.1253
 3763SOL    HW122922   4.201   0.641  11.323 -2.5740 -0.0630  1.1299
 3763SOL    HW222923   4.163   0.737  11.434  1.4189  0.4609  0.7587
 3764SOL     OW22924   2.838   2.979   0.488  0.3732  0.2672 -0.3627
 3764SOL    HW122925   2.858   2.889   0.464  0.0889  0.1835 -0.2761
 3764SOL    HW222926   2.893   2.988   0.565  1.0949  0.6081 -0.9136
 3765SOL     OW22927   4.313   0.012   2.141  0.1089 -0.7302 -0.2293
 3765SOL    HW122928   4.240   0.070   2.116  0.0381 -1.0082 -0.6572
 3765SOL    HW222929   4.274   4.661   2.155 -1.5331 -0.4410 -2.9520
 3766SOL     OW22930   1.674   4.590   8.783 -0.1901 -0.8823 -1.0160
 3766SOL    HW122931   1.596   4.625   8.738  0.2288 -0.4635 -1.4149
 3766SOL    HW222932   1.726   4.669   8.767 -1.5092  0.4682  1.2421
 3767SOL     OW22933   3.076   0.337   1.563 -0.4141 -0.2143  0.1050
 3767SOL    HW122934   3.042   0.425   1.583 -1.4411 -0.4301 -0.6993
 3767SOL    HW222935   2.994   0.291   1.578 -0.2150 -0.6302 -0.0995
 3768SOL     OW22936   1.671   4.044   2.109  0.4648  0.3988  0.0406
 3768SOL    HW122937   1.578   4.028   2.127  0.6283 -0.4831  0.0813
 3768SOL    HW222938   1.669   4.121   2.053  1.6457  0.9588  0.7700
 3769SOL     OW22939   3.796   4.556   1.901  0.3661 -0.3152 -0.7018
 3769SOL    HW122940   3.798   4.537   1.995 -0.5525  0.2901 -0.5606
 3769SOL    HW222941   3.733   4.628   1.894  1.2126  0.5037  0.0390
 3770SOL     OW22942   3.360   0.239   5.655 -0.1562 -0.0253  0.6765
 3770SOL    HW122943   3.393   0.329   5.666  1.0822  0.0413 -3.4309
 3770SOL    HW222944   3.273   0.237   5.695  0.4167 -0.8930  1.8567
 3771SOL     OW22945   0.195   2.667   4.814  0.0349 -0.1032 -0.7395
 3771SOL    HW122946   0.175   2.680   4.721  0.4121  0.3826 -0.7537
 3771SOL    HW222947   0.170   2.750   4.854 -1.0220 -0.5814 -0.4129
 3772SOL     OW22948   3.735   0.345   5.386 -0.3259  0.0628  0.0572
 3772SOL    HW122949   3.810   0.287   5.375 -0.0145  0.1565  1.7341
 3772SOL    HW222950   3.685   0.337   5.304 -1.2697 -0.6129  0.6985
 3773SOL     OW22951   4.217   2.209   5.705 -0.9184 -0.0305  0.6368
 3773SOL    HW122952   4.301   2.244   5.675 -2.4599  2.8412 -0.3585
 3773SOL    HW222953   4.246   2.157   5.780  1.8690  1.8351  0.8506
 3774SOL     OW22954   0.244   1.328   4.430 -0.1915 -0.3727  0.5168
 3774SOL    HW122955   0.284   1.407   4.464 -1.5530  0.0886  1.0303
 3774SOL    HW222956   0.268   1.339   4.338 -0.5562 -1.8539  0.2353
 3775SOL     OW22957   0.137   1.538   9.172  0.1960  0.1948  0.1170
 3775SOL    HW122958   0.077   1.612   9.164 -2.2163 -1.9953 -2.5479
 3775SOL    HW222959   0.225   1.568   9.150  0.1651  0.0817 -0.1705
 3776SOL     OW22960   0.940   2.895   5.559  0.0943 -0.2979 -0.2874
 3776SOL    HW122961   0.918   2.945   5.481  0.7789  1.0589  0.3974
 3776SOL    HW222962   0.869   2.831   5.561 -2.0344  2.2075  2.8637
 3777SOL     OW22963   0.326   4.548   3.064 -0.4500  0.3354 -0.2035
 3777SOL    HW122964   0.344   4.513   2.976 -0.8237  1.2421 -0.6339
 3777SOL    HW222965   0.291   4.633   3.038 -0.6931  0.5605  0.8783
 3778SOL     OW22966   3.985   3.967   7.529 -1.0924 -0.0537 -0.0193
 3778SOL    HW122967   4.068   4.012   7.511  0.9985 -3.7351  0.5510
 3778SOL    HW222968   3.913   4.023   7.500 -1.4451  0.9162  2.7356
 3779SOL     OW22969   1.390   0.234   6.873  0.3626 -0.2030 -1.0851
 3779SOL    HW122970   1.484   0.222   6.887  0.2840  0.2773 -0.1843
 3779SOL    HW222971   1.350   0.236   6.960  0.8759  0.0278 -0.8535
 3780SOL     OW22972   3.010   0.493  14.285  0.7067 -0.2386  0.2201
 3780SOL    HW122973   2.963   0.516  14.205 -0.3222 -1.2223  0.5488
 3780SOL    HW222974   2.952   0.520  14.356 -0.5990 -0.9205 -0.5996
 3781SOL     OW22975   3.488   2.617   9.693 -0.3063  0.4061  0.1885
 3781SOL    HW122976   3.484   2.572   9.609 -1.7050 -0.8444  0.9214
 3781SOL    HW222977   3.445   2.697   9.662 -0.1133  0.7189  0.7405
 3782SOL     OW22978   3.977   1.311   8.858  0.0625  0.0822 -0.3079
 3782SOL    HW122979   3.898   1.351   8.823  0.9557  0.5339 -1.7913
 3782SOL    HW222980   4.046   1.375   8.841  0.6857 -0.5132 -0.0701
 3783SOL     OW22981   3.702   0.758   0.622 -0.0779  0.0147  0.0494
 3783SOL    HW122982   3.744   0.677   0.592  2.6700  0.8127  1.6885
 3783SOL    HW222983   3.618   0.763   0.576 -1.0669  3.4851  2.2048
 3784SOL     OW22984   3.796   3.109   5.257 -0.2666  0.6767  0.4321
 3784SOL    HW122985   3.887   3.104   5.227  0.5946  0.5563  3.1056
 3784SOL    HW222986   3.768   3.018   5.253 -0.2815  0.7136 -0.3028
 3785SOL     OW22987   2.141   0.597   6.883 -0.2342  0.0086 -0.2811
 3785SOL    HW122988   2.166   0.518   6.836  0.4309 -0.6149  1.1169
 3785SOL    HW222989   2.161   0.668   6.823  0.9178 -1.0831 -1.1864
 3786SOL     OW22990   0.175   3.746   2.835  0.1819 -0.1885 -0.1480
 3786SOL    HW122991   0.251   3.736   2.777 -0.0435  1.7383 -0.7837
 3786SOL    HW222992   0.220   3.786   2.910 -0.0245  0.0281 -0.1402
 3787SOL     OW22993   3.748   2.114   2.926  0.0461 -0.1234 -0.5089
 3787SOL    HW122994   3.694   2.072   2.860 -1.1445 -0.3554  0.6161
 3787SOL    HW222995   3.818   2.050   2.939 -0.3251 -0.4410 -0.0807
 3788SOL     OW22996   1.665   0.902   6.106 -0.5149 -0.5904 -0.2449
 3788SOL    HW122997   1.734   0.888   6.170  1.3806 -2.8804 -2.7312
 3788SOL    HW222998   1.671   0.827   6.047  3.1963 -0.2952 -0.2234
 3789SOL     OW22999   1.755   4.051   3.916 -0.2666  0.2260  0.1546
 3789SOL    HW123000   1.685   4.012   3.863  0.0672  2.8072 -2.1560
 3789SOL    HW223001   1.733   4.011   4.001 -0.0619 -2.7576 -1.2066
 3790SOL     OW23002   4.313   2.646  14.039 -0.7967  0.2016  0.6705
 3790SOL    HW123003   4.354   2.562  14.020  0.9064  0.7493  2.0099
 3790SOL    HW223004   4.222   2.624  14.061 -0.8784 -0.1590 -0.0340
 3791SOL     OW23005   3.104   3.539   7.876  0.4021 -0.2341 -0.6910
 3791SOL    HW123006   3.124   3.619   7.924  3.0907 -0.8245 -0.8531
 3791SOL    HW223007   3.065   3.584   7.801 -2.4129 -1.4227  0.0553
 3792SOL     OW23008   1.139   3.311   5.638 -0.0537 -0.3388 -0.9445
 3792SOL    HW123009   1.047   3.313   5.665  0.2909 -1.0252  0.2894
 3792SOL    HW223010   1.125   3.268   5.554  0.9674 -1.4668 -0.5465
 3793SOL     OW23011   1.286   3.350  16.277 -0.4086 -0.0480 -0.1820
 3793SOL    HW123012   1.205   3.334  16.325  0.2192 -0.8251  0.6249
 3793SOL    HW223013   1.340   3.287  16.324  0.2375 -0.1456 -1.0507
 3794SOL     OW23014   4.114   0.151   9.331  0.3413 -0.5228  0.3555
 3794SOL    HW123015   4.128   0.195   9.247 -2.8505  0.4270  0.3437
 3794SOL    HW223016   4.104   0.226   9.390  0.6272  1.4447 -2.1073
 3795SOL     OW23017   0.568   3.444  14.967 -0.5027 -0.3354 -0.1193
 3795SOL    HW123018   0.595   3.427  14.877 -0.5428 -1.2309  0.0439
 3795SOL    HW223019   0.500   3.379  14.981 -1.3868  0.7088  0.4560
 3796SOL     OW23020   2.279   0.053   8.041 -0.0439 -0.5220  0.3277
 3796SOL    HW123021   2.225   4.715   8.012 -1.1048  0.6085 -0.5411
 3796SOL    HW223022   2.290   0.032   8.133 -0.3393 -0.7895  0.3013
 3797SOL     OW23023   0.465   4.390   4.419 -0.6953 -0.2972 -0.2541
 3797SOL    HW123024   0.414   4.313   4.445 -0.6598  0.2716  1.5590
 3797SOL    HW223025   0.407   4.419   4.349 -1.2117 -1.4936 -0.3272
 3798SOL     OW23026   0.519   3.492   3.309 -0.4991 -0.4886  0.3589
 3798SOL    HW123027   0.428   3.479   3.281 -0.9168  0.2555  1.3889
 3798SOL    HW223028   0.547   3.568   3.258  1.0730 -1.4901 -0.3009
 3799SOL     OW23029   3.269   1.167   5.078 -0.2507  0.2084  0.5831
 3799SOL    HW123030   3.320   1.086   5.085  1.8023  1.3821 -0.4248
 3799SOL    HW223031   3.234   1.167   4.989  1.8265  1.1778 -0.2489
 3800SOL     OW23032   4.089   3.347  10.507  0.1352  0.1496 -0.0736
 3800SOL    HW123033   4.046   3.389  10.432 -0.0036 -0.1798 -0.1777
 3800SOL    HW223034   4.051   3.260  10.507 -0.7993  0.5423 -2.1318
 3801SOL     OW23035   4.081   3.414   8.490 -0.1328  0.0617 -0.3505
 3801SOL    HW123036   4.052   3.505   8.497 -0.1809  0.0564 -0.4743
 3801SOL    HW223037   4.023   3.389   8.418  0.2308  2.6334 -1.5388
 3802SOL     OW23038   2.980   0.610  10.061  0.2392 -0.3841 -0.5953
 3802SOL    HW123039   3.035   0.542  10.100  1.0167 -1.3103 -3.2845
 3802SOL    HW223040   2.925   0.554  10.006 -0.0866  0.3173 -0.9752
 3803SOL     OW23041   3.748   2.940   6.976  0.1394 -0.0824 -0.0169
 3803SOL    HW123042   3.728   2.918   6.885  1.0217  0.5099 -0.3492
 3803SOL    HW223043   3.717   2.858   7.015  2.1743 -0.7715  0.1938
 3804SOL     OW23044   0.855   4.709   0.398  0.1660  0.4876  0.3599
 3804SOL    HW123045   0.835   0.066   0.380 -2.3370  0.0187  0.8326
 3804SOL    HW223046   0.772   4.675   0.429  1.2086 -2.5745 -0.2176
 3805SOL     OW23047   2.086   3.948   0.323  0.1285  0.0034  0.0657
 3805SOL    HW123048   2.146   3.903   0.382  0.0766  1.8850  1.5703
 3805SOL    HW223049   2.063   4.025   0.376  2.3110 -0.4765  1.6756
 3806SOL     OW23050   0.417   2.822   4.309  0.0430 -0.1748 -0.4635
 3806SOL    HW123051   0.333   2.810   4.353 -0.3340 -0.0466 -1.1579
 3806SOL    HW223052   0.400   2.884   4.238 -0.0387  0.1459 -0.1637
 3807SOL     OW23053   2.466   0.635   1.629  0.0678  0.2055 -0.0553
 3807SOL    HW123054   2.490   0.726   1.613  0.1095  0.1530 -0.2797
 3807SOL    HW223055   2.512   0.623   1.712 -3.0290 -2.0891  1.3293
 3808SOL     OW23056   2.368   1.467   2.589  0.3282  0.1212 -0.0849
 3808SOL    HW123057   2.342   1.555   2.562 -2.4820  0.1041  2.5613
 3808SOL    HW223058   2.309   1.460   2.665 -0.3888  0.2951 -0.6213
 3809SOL     OW23059   0.506   3.961   4.113 -0.0599 -0.2752 -0.5079
 3809SOL    HW123060   0.417   3.959   4.075  0.9377 -3.1224 -2.7048
 3809SOL    HW223061   0.514   3.871   4.143 -0.8374 -0.5212 -1.0248
 3810SOL     OW23062   1.026   0.172   2.117 -0.1764  0.1477 -0.0051
 3810SOL    HW123063   0.999   0.214   2.199 -0.8426 -0.1212 -0.0852
 3810SOL    HW223064   1.064   0.087   2.139  0.9477  0.2828 -1.4241
 3811SOL     OW23065   2.407   2.862   7.585  1.2806  0.2223  0.0046
 3811SOL    HW123066   2.320   2.848   7.546  2.0112  1.4484 -2.0537
 3811SOL    HW223067   2.429   2.775   7.620 -2.7258 -1.1878 -0.9614
 3812SOL     OW23068   2.156   3.372  12.318  0.0697 -0.1700 -0.0623
 3812SOL    HW123069   2.176   3.380  12.225  0.4844  0.5986  0.0947
 3812SOL    HW223070   2.210   3.298  12.347 -0.2480 -0.3087  0.1868
 3813SOL     OW23071   1.812   3.840   8.937 -0.0450  0.1472  0.0935
 3813SOL    HW123072   1.813   3.901   9.010  1.3579 -1.9171  1.7878
 3813SOL    HW223073   1.874   3.774   8.967  0.5303  0.4362 -0.4423
 3814SOL     OW23074   1.407   0.035  15.789 -0.2803 -0.3710  0.4278
 3814SOL    HW123075   1.501   0.039  15.774 -0.6196  1.2117 -1.3049
 3814SOL    HW223076   1.405   0.053  15.883  1.1258 -1.5796  0.6888
 3815SOL     OW23077   0.996   0.447   3.113 -0.0347  0.1485  0.5534
 3815SOL    HW123078   1.037   0.406   3.189 -0.7866 -0.7613  0.4789
 3815SOL    HW223079   1.056   0.514   3.082 -0.1645  0.2256  0.4656
 3816SOL     OW23080   1.434   1.790  16.519  0.2751  0.0952  0.0663
 3816SOL    HW123081   1.520   1.832  16.524 -0.9211  2.7265 -1.1373
 3816SOL    HW223082   1.388   1.825  16.594 -0.3173 -0.2271 -0.1483
 3817SOL     OW23083   3.137   0.967   8.670  0.2319  0.1363  0.2153
 3817SOL    HW123084   3.081   1.045   8.667  1.7238  1.2114  0.2809
 3817SOL    HW223085   3.116   0.932   8.757 -1.8841 -1.2099 -0.8503
 3818SOL     OW23086   2.178   1.408   3.294 -0.0920  0.4861 -0.1217
 3818SOL    HW123087   2.235   1.338   3.326 -0.2836 -0.1136 -1.1041
 3818SOL    HW223088   2.091   1.375   3.315  0.2510 -0.6332 -0.4280
 3819SOL     OW23089   0.849   0.519   0.716 -0.2630 -0.2862  0.3169
 3819SOL    HW123090   0.828   0.428   0.695 -0.0788 -0.0872 -0.7223
 3819SOL    HW223091   0.926   0.502   0.770 -1.0634 -0.0276  1.5540
 3820SOL     OW23092   2.586   2.880   6.975  0.0436 -0.1469  0.5613
 3820SOL    HW123093   2.642   2.816   6.931 -0.0091  0.4061 -0.3126
 3820SOL    HW223094   2.581   2.957   6.919 -1.8973 -2.5726 -2.6201
 3821SOL     OW23095   3.526   4.030   4.824  0.7967 -0.3666 -0.0533
 3821SOL    HW123096   3.564   4.058   4.908 -0.6100  3.2570 -0.6021
 3821SOL    HW223097   3.534   4.109   4.771  1.1434 -0.5840 -0.3219
 3822SOL     OW23098   3.300   4.161   6.929 -0.1655 -0.4091  0.3014
 3822SOL    HW123099   3.220   4.151   6.980 -0.3107  2.3075  0.6326
 3822SOL    HW223100   3.369   4.124   6.984  0.7944 -1.7577 -1.7977
 3823SOL     OW23101   4.105   3.076   4.931  0.1838 -0.0597 -1.1256
 3823SOL    HW123102   4.013   3.077   4.904 -0.0589 -1.3017 -0.3768
 3823SOL    HW223103   4.143   3.081   4.844 -1.2200  1.4600 -1.6492
 3824SOL     OW23104   1.720   0.129   2.288 -0.2503  0.3330  0.7102
 3824SOL    HW123105   1.682   0.063   2.347 -1.2547 -0.5871 -0.9626
 3824SOL    HW223106   1.650   0.193   2.290 -1.4219 -0.9864  1.9288
 3825SOL     OW23107   4.250   3.179   2.889 -0.3323  0.2764  0.3554
 3825SOL    HW123108   4.187   3.234   2.936 -1.7594 -1.9454  1.0855
 3825SOL    HW223109   4.188   3.115   2.855  1.6161 -1.7433  0.6310
 3826SOL     OW23110   2.604   1.502   3.797  0.2536 -0.3078  0.3750
 3826SOL    HW123111   2.539   1.436   3.773  0.7090 -0.6900  0.1803
 3826SOL    HW223112   2.533   1.560   3.822 -1.1385 -0.9198 -2.2196
 3827SOL     OW23113   4.322   2.417   7.760  0.0858  0.0343  0.7039
 3827SOL    HW123114   4.299   2.444   7.849 -1.4127 -0.3662  0.4548
 3827SOL    HW223115   4.302   2.497   7.711 -1.4634 -0.1671  0.9891
 3828SOL     OW23116   0.357   1.383   0.328 -0.3296 -0.0308 -0.2896
 3828SOL    HW123117   0.285   1.364   0.268  1.3499 -0.2489 -2.2505
 3828SOL    HW223118   0.338   1.474   0.353  1.8620 -0.0750  1.5053
 3829SOL     OW23119   2.537   0.976   8.415 -0.4050  0.3916  0.0792
 3829SOL    HW123120   2.540   0.931   8.500 -0.5118  2.1401  0.9954
 3829SOL    HW223121   2.458   0.938   8.376  0.7109 -1.6085 -0.2774
 3830SOL     OW23122   4.402   0.030  10.682 -0.2635  0.2439 -0.1654
 3830SOL    HW123123   4.488   0.034  10.723 -0.6763  1.7174  0.5562
 3830SOL    HW223124   4.420   4.718  10.600 -0.7944  1.1616 -0.8175
 3831SOL     OW23125   1.726   2.101  15.138 -0.2005  0.0896  0.1725
 3831SOL    HW123126   1.726   2.016  15.183  3.5909 -0.7012 -1.2796
 3831SOL    HW223127   1.787   2.079  15.068 -0.6079 -1.1604  0.2035
 3832SOL     OW23128   1.925   2.283   7.512 -0.0461  0.2935  0.0208
 3832SOL    HW123129   2.016   2.295   7.540 -0.0382 -0.2837  0.2424
 3832SOL    HW223130   1.870   2.301   7.588 -0.3713 -1.4589  0.2118
 3833SOL     OW23131   4.149   3.728   7.594 -0.0832 -0.6438  0.4003
 3833SOL    HW123132   4.077   3.788   7.576 -2.1209 -2.3888  2.7249
 3833SOL    HW223133   4.130   3.718   7.687  0.2410  0.5369  0.5862
 3834SOL     OW23134   1.085   1.243   5.815  0.4411 -0.0875 -0.6902
 3834SOL    HW123135   1.120   1.265   5.729  1.0901  0.2785 -0.3336
 3834SOL    HW223136   1.064   1.151   5.803  0.0393 -0.1385  0.3902
 3835SOL     OW23137   2.833   0.989   5.850  0.3758  0.7385 -1.0829
 3835SOL    HW123138   2.836   1.083   5.869 -1.4560  0.9425 -1.8214
 3835SOL    HW223139   2.922   0.966   5.875 -0.2882 -0.8795 -0.1497
 3836SOL     OW23140   2.156   2.488  12.738 -0.7467 -0.3576  0.1089
 3836SOL    HW123141   2.159   2.420  12.670  2.3134  0.3115 -0.4047
 3836SOL    HW223142   2.171   2.567  12.687 -2.2099 -2.3309 -3.3682
 3837SOL     OW23143   3.630   3.959   2.276  0.1337  0.1475 -0.0020
 3837SOL    HW123144   3.545   3.976   2.235  0.3773  2.8640  0.6269
 3837SOL    HW223145   3.604   3.904   2.350  1.9878 -1.1369 -0.3030
 3838SOL     OW23146   3.034   4.706   2.863  0.4880 -0.0476  0.3653
 3838SOL    HW123147   2.966   4.700   2.795 -0.0605 -0.6022  0.9628
 3838SOL    HW223148   3.032   4.613   2.883  1.5521 -0.3123 -0.7754
 3839SOL     OW23149   0.001   2.803  10.331  0.1570  0.0524 -0.1837
 3839SOL    HW123150   4.719   2.734  10.394 -0.4109  0.9301  0.6243
 3839SOL    HW223151   4.649   2.840  10.319  0.4561  1.5082  2.0865
 3840SOL     OW23152   0.444   1.154   4.217 -0.0062 -0.1241 -0.3812
 3840SOL    HW123153   0.471   1.223   4.278 -1.7721 -0.4083  0.7014
 3840SOL    HW223154   0.472   1.189   4.132 -1.3225 -1.4523 -1.3635
 3841SOL     OW23155   4.129   2.188   9.779  0.2315 -0.3006  0.7554
 3841SOL    HW123156   4.064   2.257   9.791  1.2113  0.6836  0.4473
 3841SOL    HW223157   4.207   2.244   9.787  0.1650 -0.2865  1.2755
 3842SOL     OW23158   0.537   1.950   3.316 -0.6318 -0.2700 -1.3354
 3842SOL    HW123159   0.531   1.975   3.223 -0.6666 -0.6980 -1.4463
 3842SOL    HW223160   0.469   1.883   3.313  1.2881 -2.2052 -2.1974
 3843SOL     OW23161   1.038   3.320   2.404  0.2339 -0.3820 -0.4209
 3843SOL    HW123162   1.126   3.350   2.427 -0.4402  1.0030  0.3450
 3843SOL    HW223163   1.060   3.246   2.348  3.6784 -0.8577  1.5676
 3844SOL     OW23164   2.775   4.036   6.181  0.2214  0.1093  0.5621
 3844SOL    HW123165   2.703   4.084   6.222 -1.5178 -0.1235 -2.2109
 3844SOL    HW223166   2.721   3.958   6.163  3.5400 -2.1263  0.2994
 3845SOL     OW23167   0.018   2.675   5.752  0.0812 -0.1345 -0.0164
 3845SOL    HW123168   0.018   2.698   5.845 -2.4082  0.4963 -0.1651
 3845SOL    HW223169   0.074   2.745   5.720  1.3950 -2.6633 -3.3014
 3846SOL     OW23170   2.369   1.031   0.832  0.0898 -0.2637  0.4208
 3846SOL    HW123171   2.301   0.967   0.810 -0.3336  1.3749 -3.1801
 3846SOL    HW223172   2.315   1.110   0.828  1.7436  0.9462  2.3488
 3847SOL     OW23173   2.869   1.627  12.986  0.0148 -0.1299  0.5198
 3847SOL    HW123174   2.777   1.648  13.005  0.2536  0.2001  1.3366
 3847SOL    HW223175   2.879   1.673  12.903 -2.2779 -0.2117  0.1998
 3848SOL     OW23176   3.588   2.295  13.710 -0.0916  0.0902 -0.0194
 3848SOL    HW123177   3.642   2.356  13.659 -2.8763  2.5521 -0.0694
 3848SOL    HW223178   3.568   2.341  13.792  0.7500 -0.1942  0.3418
 3849SOL     OW23179   4.429   0.837  17.496  0.1996  0.0689  0.4519
 3849SOL    HW123180   4.443   0.841  17.402 -0.8557 -0.8803  0.2558
 3849SOL    HW223181   4.441   0.929  17.518  3.3316 -0.5550  1.4482
 3850SOL     OW23182   3.669   0.749   7.084  0.0164  0.0051 -0.0405
 3850SOL    HW123183   3.587   0.699   7.092 -0.2084  0.8386  2.6292
 3850SOL    HW223184   3.702   0.733   6.995  0.0679 -1.4649  0.2410
 3851SOL     OW23185   1.845   4.365   3.560 -0.3879  0.1691 -0.2208
 3851SOL    HW123186   1.765   4.321   3.589 -0.3183 -0.2328 -0.6184
 3851SOL    HW223187   1.802   4.442   3.524  0.8057  1.2888  0.7575
 3852SOL     OW23188   3.141   2.652  17.581 -0.3754  0.4743 -0.0480
 3852SOL    HW123189   3.079   2.580  17.569  0.6742 -0.7024  1.5037
 3852SOL    HW223190   3.096   2.723  17.535  2.9266  1.1508 -2.2051
 3853SOL     OW23191   2.368   3.750   3.540  0.3771  0.6551 -0.1247
 3853SOL    HW123192   2.306   3.799   3.593  0.2496 -1.5802  1.8146
 3853SOL    HW223193   2.440   3.743   3.604 -1.2160  1.4698  1.7467
 3854SOL     OW23194   0.276   0.117  12.865 -0.3839 -0.4444  0.1322
 3854SOL    HW123195   0.308   0.192  12.814  1.2692 -0.6182  0.9142
 3854SOL    HW223196   0.346   0.053  12.854  0.2977  0.3186  0.0364
 3855SOL     OW23197   1.663   3.812   4.498 -0.0145  0.0472  0.1766
 3855SOL    HW123198   1.581   3.805   4.448 -0.4721  3.2645  0.5316
 3855SOL    HW223199   1.629   3.772   4.578 -1.1638  0.0441 -0.3099
 3856SOL     OW23200   1.011   0.518   1.157  0.0684  0.1852 -0.5175
 3856SOL    HW123201   0.925   0.537   1.195  0.5551  0.0672  0.6498
 3856SOL    HW223202   1.076   0.530   1.226  0.0652 -0.9370 -0.3193
 3857SOL     OW23203   2.789   3.703  12.272 -0.4889 -0.1577  0.0145
 3857SOL    HW123204   2.810   3.714  12.180  2.4301  0.5160  0.7682
 3857SOL    HW223205   2.731   3.778  12.285 -0.9431 -0.2012 -1.8065
 3858SOL     OW23206   2.933   1.976   6.521  0.0295 -0.3783  0.3810
 3858SOL    HW123207   2.845   2.011   6.531  0.3800  0.1854  1.3914
 3858SOL    HW223208   2.978   2.021   6.591  0.0794 -0.6899  0.5498
 3859SOL     OW23209   0.763   4.175   5.077 -0.0696  0.2101 -0.0911
 3859SOL    HW123210   0.821   4.249   5.094 -1.3395  1.3662 -0.7783
 3859SOL    HW223211   0.678   4.218   5.063  0.7548  1.8325 -0.0206
 3860SOL     OW23212   3.944   0.254   7.563 -0.3249 -0.2819  0.3683
 3860SOL    HW123213   4.003   0.205   7.506 -1.0263 -2.2540  1.3346
 3860SOL    HW223214   3.863   0.243   7.514  0.4107 -0.5096 -0.7835
 3861SOL     OW23215   1.586   2.459  11.408 -0.1908  0.1053 -0.2400
 3861SOL    HW123216   1.625   2.529  11.460  1.1041 -0.2333 -0.7741
 3861SOL    HW223217   1.500   2.500  11.402  0.0745  0.6396 -0.3511
 3862SOL     OW23218   0.189   4.047  14.759  0.3472 -0.5407  0.6150
 3862SOL    HW123219   0.222   3.969  14.715  0.5107 -0.3337  0.3705
 3862SOL    HW223220   0.158   4.095  14.683  1.8326  1.2531  1.1344
 3863SOL     OW23221   4.381   3.262   7.737  0.0382  0.1459 -0.2769
 3863SOL    HW123222   4.323   3.330   7.771 -2.2170 -0.9687 -1.8509
 3863SOL    HW223223   4.412   3.312   7.661  3.2474  0.0129  0.9747
 3864SOL     OW23224   3.832   3.130   5.754 -0.0248  0.6368  0.0129
 3864SOL    HW123225   3.866   3.146   5.666 -0.9117 -2.1968 -0.8318
 3864SOL    HW223226   3.856   3.038   5.757 -2.0342  0.1562  0.9401
 3865SOL     OW23227   3.541   2.370   7.394  0.5753  0.3906  0.3131
 3865SOL    HW123228   3.623   2.372   7.345 -0.1231 -0.2020 -0.8747
 3865SOL    HW223229   3.499   2.288   7.369  0.6458  0.5327 -0.2831
 3866SOL     OW23230   4.314   2.841   5.121 -0.0237  0.4637  0.0962
 3866SOL    HW123231   4.355   2.831   5.207  0.2474 -0.3450 -0.1308
 3866SOL    HW223232   4.224   2.810   5.132 -0.2363  0.5191 -1.5460
 3867SOL     OW23233   0.239   1.881   6.083  0.4552  0.1186 -0.7327
 3867SOL    HW123234   0.158   1.848   6.045  0.0927  3.1119 -2.5347
 3867SOL    HW223235   0.278   1.794   6.084  0.2305  0.0208 -0.5390
 3868SOL     OW23236   2.999   4.441   9.352  0.0981 -0.0015  0.5284
 3868SOL    HW123237   2.957   4.524   9.374  1.0636  0.5674  0.2334
 3868SOL    HW223238   3.009   4.410   9.442 -0.7903  1.0598  0.9976
 3869SOL     OW23239   3.486   3.752   3.392  0.7114  0.0960 -0.2472
 3869SOL    HW123240   3.418   3.810   3.425  1.6514 -0.1076  2.0665
 3869SOL    HW223241   3.448   3.665   3.405  0.1759  0.5240  0.9707
 3870SOL     OW23242   0.885   4.403   7.724 -0.0635  0.2238  0.3178
 3870SOL    HW123243   0.947   4.476   7.720  2.5726 -1.8766  2.0256
 3870SOL    HW223244   0.869   4.387   7.817 -1.5615  0.2661  0.0548
 3871SOL     OW23245   3.603   2.791   9.448  0.3237 -0.6690 -0.3003
 3871SOL    HW123246   3.686   2.744   9.439  1.8623  1.6201  2.0040
 3871SOL    HW223247   3.583   2.804   9.355 -1.3728  1.8195  0.4153
 3872SOL     OW23248   4.524   4.465   9.613 -0.0979  0.1315  0.2096
 3872SOL    HW123249   4.492   4.442   9.526  0.6133 -1.1495  0.2838
 3872SOL    HW223250   4.440   4.479   9.657  0.6024  0.1945  1.5442
 3873SOL     OW23251   0.741   3.648   6.883  0.7809  0.0815 -0.5810
 3873SOL    HW123252   0.720   3.581   6.948  1.6738  0.5302  0.1693
 3873SOL    HW223253   0.706   3.617   6.800  0.9120 -1.2023 -0.1550
 3874SOL     OW23254   0.714   1.402   9.989 -0.5098 -0.3066  0.0467
 3874SOL    HW123255   0.632   1.423  10.034 -1.1483  0.1529 -1.3074
 3874SOL    HW223256   0.773   1.406  10.064 -0.3070  2.3472 -0.2631
 3875SOL     OW23257   0.974   1.546   9.360 -0.1744  0.2660 -0.7880
 3875SOL    HW123258   0.940   1.465   9.398  0.7417 -0.0816 -0.7120
 3875SOL    HW223259   0.915   1.612   9.398  0.6659  1.6407 -1.8465
 3876SOL     OW23260   3.219   3.265   2.480  0.6684 -0.4968  0.1920
 3876SOL    HW123261   3.153   3.309   2.533 -0.3232  0.7092 -2.0781
 3876SOL    HW223262   3.301   3.285   2.525  0.6564 -0.0116 -0.0045
 3877SOL     OW23263   1.891   4.635   0.144 -0.2200  0.5701  0.2013
 3877SOL    HW123264   1.915   4.597   0.059 -0.3638  0.3811  0.2466
 3877SOL    HW223265   1.918   4.561   0.197 -1.1171 -0.2944 -0.5442
 3878SOL     OW23266   4.195   4.598   9.345  0.2165 -0.1518  0.0861
 3878SOL    HW123267   4.179   4.608   9.251 -1.3284  0.3686  0.4061
 3878SOL    HW223268   4.176   4.690   9.365  1.5211  0.3301 -0.8368
 3879SOL     OW23269   2.890   0.228   6.259  0.1838 -0.2240 -0.5652
 3879SOL    HW123270   2.969   0.181   6.235  0.4265  0.4789 -1.1497
 3879SOL    HW223271   2.877   0.286   6.184  0.7817 -0.0848 -0.5601
 3880SOL     OW23272   2.652   1.460   7.535  0.4380 -0.1940  0.3386
 3880SOL    HW123273   2.668   1.524   7.604 -2.4336 -0.1684  0.9600
 3880SOL    HW223274   2.657   1.510   7.454  1.7139  1.4816  1.4758
 3881SOL     OW23275   2.221   2.894   3.644 -0.1470 -0.3805 -0.1641
 3881SOL    HW123276   2.244   2.808   3.678 -2.0417 -0.1730  1.7054
 3881SOL    HW223277   2.152   2.871   3.582  0.3842 -1.4680 -0.3379
 3882SOL     OW23278   4.239   1.941   3.796 -0.1352  0.6555 -0.4002
 3882SOL    HW123279   4.168   1.921   3.857 -0.7732 -0.0785 -1.3987
 3882SOL    HW223280   4.308   1.879   3.821 -3.1616 -2.4445  0.1318
 3883SOL     OW23281   3.501   4.495   8.523  0.8638  0.0066  0.9627
 3883SOL    HW123282   3.584   4.454   8.499 -0.9078 -2.4864 -0.9184
 3883SOL    HW223283   3.511   4.576   8.474  0.9980 -1.1154 -0.8514
 3884SOL     OW23284   3.745   1.964   5.020  0.3263 -0.3464  0.5580
 3884SOL    HW123285   3.706   1.958   4.933  0.6940 -3.9117  0.6427
 3884SOL    HW223286   3.725   2.053   5.049 -0.7031 -0.5318  0.4080
 3885SOL     OW23287   4.271   3.288   7.207 -0.4166 -0.2442  0.6966
 3885SOL    HW123288   4.243   3.364   7.259 -2.3395 -1.2846  1.2067
 3885SOL    HW223289   4.308   3.337   7.135  1.7731 -1.5648  0.9185
 3886SOL     OW23290   0.917   4.428  15.885  0.6819  0.1892 -0.1385
 3886SOL    HW123291   0.966   4.375  15.949 -0.8137 -0.5093  0.4314
 3886SOL    HW223292   0.907   4.370  15.809  0.6289 -1.4061  1.0741
 3887SOL     OW23293   4.414   3.964   7.297 -0.0462  0.0322  0.7351
 3887SOL    HW123294   4.474   4.037   7.311 -1.5148  1.6205 -1.2902
 3887SOL    HW223295   4.346   4.006   7.246  2.4473  0.8138 -1.9464
 3888SOL     OW23296   1.483   3.880   9.612  0.5767  0.0943 -0.3314
 3888SOL    HW123297   1.399   3.855   9.651  1.1913 -1.6528 -0.1132
 3888SOL    HW223298   1.519   3.793   9.595 -0.9271 -0.3663 -1.2036
 3889SOL     OW23299   2.812   3.688   6.565  0.0714  0.1360 -0.3494
 3889SOL    HW123300   2.814   3.621   6.634  0.2672  0.9487  0.4408
 3889SOL    HW223301   2.725   3.678   6.527 -0.9978  0.5788  1.9647
 3890SOL     OW23302   1.577   3.835   6.364  0.0428 -0.3763  0.3987
 3890SOL    HW123303   1.601   3.746   6.388 -3.9844 -1.6247 -0.3835
 3890SOL    HW223304   1.559   3.817   6.272 -0.4622 -1.0255  0.6283
 3891SOL     OW23305   2.561   4.546   6.851  0.0125  0.5190 -0.9579
 3891SOL    HW123306   2.612   4.517   6.776  0.7943 -0.0780 -0.1898
 3891SOL    HW223307   2.476   4.509   6.824  0.3161 -1.7107  1.1494
 3892SOL     OW23308   3.571   0.122   8.052  0.4683  0.2360 -0.2874
 3892SOL    HW123309   3.527   0.161   8.128  1.7233  0.9307  0.0911
 3892SOL    HW223310   3.609   0.039   8.082 -0.7382  0.2358  1.2304
 3893SOL     OW23311   4.242   2.134   7.764 -0.3017  0.0623  0.2985
 3893SOL    HW123312   4.289   2.076   7.823 -1.4947 -1.3028 -0.1009
 3893SOL    HW223313   4.286   2.219   7.770  1.4142 -0.7903 -0.5247
 3894SOL     OW23314   4.050   1.606   4.247  0.4323 -0.9073 -0.2340
 3894SOL    HW123315   4.033   1.698   4.270  0.2169 -0.5556 -1.8304
 3894SOL    HW223316   4.100   1.623   4.167  1.8939  2.7879  1.4395
 3895SOL     OW23317   1.709   0.994  15.821 -0.0183  0.6727  0.0680
 3895SOL    HW123318   1.732   1.017  15.731 -1.3813 -2.5857 -1.1387
 3895SOL    HW223319   1.614   1.007  15.824 -0.4069 -2.3795  0.8008
 3896SOL     OW23320   0.336   4.574   5.557 -0.0172  0.3456  0.3665
 3896SOL    HW123321   0.336   4.567   5.652 -0.2398 -0.6944  0.2901
 3896SOL    HW223322   0.242   4.587   5.543  0.0684 -1.4316 -1.8652
 3897SOL     OW23323   4.595   4.042  16.097  0.1866  0.0634 -0.0928
 3897SOL    HW123324   4.654   4.105  16.056  0.8639 -0.0169  0.7606
 3897SOL    HW223325   4.586   3.967  16.039  1.8620 -1.9520  2.2651
 3898SOL     OW23326   2.300   0.289  11.044 -0.1224 -0.0558 -0.2748
 3898SOL    HW123327   2.266   0.277  11.133 -2.9843 -1.3674 -1.5357
 3898SOL    HW223328   2.298   0.195  11.024 -0.6063 -0.5288  1.8994
 3899SOL     OW23329   2.425   2.928   0.646  0.0534 -0.2908  0.2078
 3899SOL    HW123330   2.466   3.015   0.646  1.6521 -1.0645 -1.0265
 3899SOL    HW223331   2.499   2.868   0.636  1.5669  1.3592  1.4839
 3900SOL     OW23332   4.386   3.952   6.942 -0.1200 -0.2694  0.3832
 3900SOL    HW123333   4.394   3.905   7.025 -3.1238  1.9275  1.9395
 3900SOL    HW223334   4.395   3.883   6.876  3.3240 -0.6567  1.2847
 3901SOL     OW23335   3.645   0.989   5.816 -0.2706  0.1164  0.2584
 3901SOL    HW123336   3.651   0.904   5.861 -1.2914  0.8019  1.6961
 3901SOL    HW223337   3.622   0.956   5.729 -1.6812  1.8024  0.0061
 3902SOL     OW23338   0.051   2.969   9.076 -0.3812  0.3694 -0.3294
 3902SOL    HW123339   0.063   3.063   9.060  0.2306  0.1773 -0.9900
 3902SOL    HW223340   4.705   2.950   9.029  0.7574 -0.8629 -1.7974
 3903SOL     OW23341   4.286   4.090  17.659 -0.0641  0.0675 -0.3874
 3903SOL    HW123342   4.225   4.093  17.586 -0.4859  1.7670  0.0235
 3903SOL    HW223343   4.241   4.026  17.715  0.4530  1.4312  1.6019
 3904SOL     OW23344   0.366   2.024   4.945 -0.5680  0.2289 -0.1131
 3904SOL    HW123345   0.380   2.050   5.036 -0.7916 -1.1888  0.3229
 3904SOL    HW223346   0.454   1.992   4.926  0.1468  1.3645  1.2652
 3905SOL     OW23347   4.002   3.987   1.772  0.4869 -0.4349 -0.1010
 3905SOL    HW123348   4.067   3.947   1.829  1.3241  2.5339  1.0231
 3905SOL    HW223349   3.946   4.021   1.842 -1.3611 -1.2500 -1.1745
 3906SOL     OW23350   0.045   2.301   0.224  0.2894 -0.2351 -0.7575
 3906SOL    HW123351   4.705   2.253   0.188 -1.2401  0.8417  0.9711
 3906SOL    HW223352   0.050   2.376   0.165  0.1030 -0.3918 -0.9726
 3907SOL     OW23353   0.031   0.790   2.031  0.0383  0.3494  0.4907
 3907SOL    HW123354   4.723   0.814   2.113  0.9431  1.0824  0.7506
 3907SOL    HW223355   4.701   0.784   1.960 -1.7189 -0.4847  2.1842
 3908SOL     OW23356   0.940   0.753   3.471 -0.4696 -0.2903  0.5408
 3908SOL    HW123357   0.873   0.792   3.415  1.0770  1.3900 -0.1575
 3908SOL    HW223358   0.904   0.668   3.494 -2.6532  0.0611 -1.5303
 3909SOL     OW23359   1.727   0.943   9.682 -0.4779 -0.4892  0.1722
 3909SOL    HW123360   1.776   0.860   9.676  2.2587  1.1083  0.2910
 3909SOL    HW223361   1.735   0.968   9.774 -0.8120  3.0941 -0.7975
 3910SOL     OW23362   4.405   3.689   9.279  0.0852 -0.2873 -0.3278
 3910SOL    HW123363   4.496   3.664   9.298  0.1656 -0.4088 -0.8632
 3910SOL    HW223364   4.388   3.718   9.369 -0.1577 -0.7602 -0.2172
 3911SOL     OW23365   2.252   2.471   2.904 -0.5382  0.0738 -0.0716
 3911SOL    HW123366   2.271   2.398   2.964  0.7257 -0.4124 -1.0820
 3911SOL    HW223367   2.314   2.535   2.940  0.2156 -0.4406 -0.4634
 3912SOL     OW23368   4.658   1.582   2.240  0.3949 -0.5707 -0.5597
 3912SOL    HW123369   4.675   1.672   2.270 -0.2557 -0.1385 -1.5045
 3912SOL    HW223370   0.008   1.561   2.201  0.6726  1.4328 -1.0432
 3913SOL     OW23371   0.389   0.473   3.694  0.4232 -0.5074 -1.0399
 3913SOL    HW123372   0.326   0.409   3.727  0.9947 -0.1949  0.6255
 3913SOL    HW223373   0.463   0.413   3.688 -0.0336 -1.2525  1.0199
 3914SOL     OW23374   1.627   0.935   3.499 -0.1855  0.3045 -0.4393
 3914SOL    HW123375   1.629   0.989   3.579  0.7818 -1.5838  0.8037
 3914SOL    HW223376   1.721   0.934   3.485  0.2577 -1.8763  2.6897
 3915SOL     OW23377   2.277   1.497  11.880  0.5992  0.1123  0.2054
 3915SOL    HW123378   2.354   1.501  11.937  1.8325 -1.3479 -1.3462
 3915SOL    HW223379   2.287   1.408  11.846  0.9169 -0.1751  1.0513
 3916SOL     OW23380   2.515   1.908   3.001  0.1084 -0.0575 -0.7775
 3916SOL    HW123381   2.477   1.909   3.089  1.7733  1.2929 -0.0653
 3916SOL    HW223382   2.443   1.931   2.942 -0.3177  2.1017  0.5668
 3917SOL     OW23383   0.716   3.272  12.572 -0.1069 -0.3983  0.1584
 3917SOL    HW123384   0.756   3.349  12.612 -0.1328  0.8244 -2.1520
 3917SOL    HW223385   0.681   3.317  12.495  0.2638 -1.0894 -0.4155
 3918SOL     OW23386   3.348   3.730  13.705 -0.0398  0.0650  0.3334
 3918SOL    HW123387   3.265   3.775  13.720 -0.8807 -1.9882  1.6807
 3918SOL    HW223388   3.399   3.760  13.781  2.3722  0.4260 -1.4258
 3919SOL     OW23389   3.265   3.758   7.163 -0.2745 -0.0440  0.2106
 3919SOL    HW123390   3.324   3.829   7.140 -0.6715 -0.2931 -1.5864
 3919SOL    HW223391   3.185   3.787   7.119 -0.7502 -1.4627  0.1283
 3920SOL     OW23392   1.795   1.659   9.033 -0.3821 -0.1959  0.1733
 3920SOL    HW123393   1.802   1.699   9.119 -0.2164  0.6861 -0.2512
 3920SOL    HW223394   1.809   1.566   9.048 -1.1066 -0.3567 -0.1365
 3921SOL     OW23395   1.855   3.019  14.541 -0.7772  0.0196  0.1795
 3921SOL    HW123396   1.831   3.073  14.466  0.1755  0.4117  0.1562
 3921SOL    HW223397   1.944   3.052  14.555 -0.0709 -2.1225  0.8482
 3922SOL     OW23398   3.440   2.210   5.920  0.3710 -0.3024  0.3960
 3922SOL    HW123399   3.471   2.121   5.935 -0.0969 -0.5659 -0.2004
 3922SOL    HW223400   3.476   2.253   5.997  0.7740 -0.2238  0.1637
 3923SOL     OW23401   4.614   3.713   4.777 -0.4859  0.3136  0.0179
 3923SOL    HW123402   4.614   3.729   4.683 -1.6988  0.4968  0.0555
 3923SOL    HW223403   4.625   3.618   4.784  2.5082  0.5324 -2.0574
 3924SOL     OW23404   2.814   1.114   5.469  0.0533  0.0130  0.0153
 3924SOL    HW123405   2.774   1.139   5.386  1.3263 -1.6635 -1.0815
 3924SOL    HW223406   2.741   1.132   5.529 -0.7647  3.3037 -1.9178
 3925SOL     OW23407   0.492   2.085   2.507 -0.0480 -0.5023 -0.3147
 3925SOL    HW123408   0.552   2.041   2.567 -0.0514 -0.6712 -0.4344
 3925SOL    HW223409   0.527   2.058   2.422 -1.7048 -0.5003 -1.0063
 3926SOL     OW23410   4.574   3.348   7.374  0.1797  0.0991 -0.2089
 3926SOL    HW123411   4.595   3.401   7.297  2.0705 -0.9659 -0.4156
 3926SOL    HW223412   4.627   3.270   7.357  0.6436 -0.1142  2.2965
 3927SOL     OW23413   4.565   4.688   0.342 -0.1822  0.2302  0.4845
 3927SOL    HW123414   4.489   4.635   0.317  1.3532 -0.8827 -1.8371
 3927SOL    HW223415   4.623   4.630   0.293  2.5153  1.1054  2.6595
 3928SOL     OW23416   0.497   4.641   8.741  0.1055  0.0975  0.0450
 3928SOL    HW123417   0.444   4.646   8.821 -0.0663 -1.9349  0.0607
 3928SOL    HW223418   0.549   4.562   8.754  0.3916  0.4619  1.0917
 3929SOL     OW23419   1.187   4.102   9.957  0.1966 -0.5558 -0.5888
 3929SOL    HW123420   1.190   4.099   9.862 -1.3774 -0.4908 -0.6500
 3929SOL    HW223421   1.100   4.064   9.969 -0.9689  2.4296  0.5274
 3930SOL     OW23422   1.076   4.205   2.220  0.0188 -0.1837  0.5257
 3930SOL    HW123423   1.037   4.203   2.133  1.8968 -0.4026 -0.3060
 3930SOL    HW223424   1.144   4.270   2.202 -0.7231  0.3196 -0.4176
 3931SOL     OW23425   2.146   0.691  14.472  0.0120  0.5591 -0.1149
 3931SOL    HW123426   2.080   0.727  14.413 -0.7943 -2.5787 -1.1431
 3931SOL    HW223427   2.167   0.603  14.442 -2.2792 -0.2008  0.5202
 3932SOL     OW23428   0.045   2.439   1.919 -0.0199 -0.0505  0.1481
 3932SOL    HW123429   4.699   2.485   1.898  0.1259  1.9384  3.9319
 3932SOL    HW223430   0.061   2.460   2.011 -1.8722 -1.2700  0.7509
 3933SOL     OW23431   3.664   0.332   2.859 -0.1381 -0.6374  0.5491
 3933SOL    HW123432   3.642   0.279   2.935  0.7906  1.0125  1.9856
 3933SOL    HW223433   3.636   0.413   2.902 -1.0064  0.8893 -2.8306
 3934SOL     OW23434   4.333   1.368   6.027 -0.3450  0.3823  0.4935
 3934SOL    HW123435   4.338   1.328   5.940  0.8527 -0.5766  1.0037
 3934SOL    HW223436   4.253   1.326   6.060  0.6145 -1.5697  0.3493
 3935SOL     OW23437   4.243   3.609   3.566  0.2448  0.2185  0.6461
 3935SOL    HW123438   4.196   3.645   3.641  1.1852  0.0958  1.2919
 3935SOL    HW223439   4.176   3.598   3.498  1.9857  0.6649 -1.1340
 3936SOL     OW23440   3.400   1.222   0.280  0.6074  0.1195 -0.4333
 3936SOL    HW123441   3.330   1.287   0.271 -0.8778 -1.2943  0.9273
 3936SOL    HW223442   3.459   1.260   0.216 -0.0852 -0.1539 -1.2301
 3937SOL     OW23443   3.731   0.053   4.297  0.3464  0.1402  0.4939
 3937SOL    HW123444   3.688   0.117   4.241 -0.7351 -2.0845 -1.2721
 3937SOL    HW223445   3.822   0.049   4.267 -0.6754  1.6508 -2.8425
 3938SOL     OW23446   2.960   3.872  17.188  0.3401 -0.3773  0.3479
 3938SOL    HW123447   3.005   3.795  17.224 -1.5506 -0.4445  2.5720
 3938SOL    HW223448   2.870   3.842  17.201  0.1144 -0.4651 -1.4448
 3939SOL     OW23449   4.138   4.653   7.964 -0.2647 -0.2855  0.0702
 3939SOL    HW123450   4.095   4.705   7.896 -1.1776  0.8435  1.5077
 3939SOL    HW223451   4.104   4.697   8.042  2.6004 -0.1313  1.2296
 3940SOL     OW23452   1.295   4.258   8.233  0.1276 -0.0441 -0.2550
 3940SOL    HW123453   1.321   4.326   8.295  2.5178 -0.4491 -0.7941
 3940SOL    HW223454   1.200   4.257   8.234  0.1148  0.3900 -0.6112
 3941SOL     OW23455   4.139   0.144   4.469  0.2634 -0.3792  0.7374
 3941SOL    HW123456   4.054   0.187   4.469  1.2252  1.4857 -0.7823
 3941SOL    HW223457   4.148   0.089   4.548  0.0413  0.0092  1.0307
 3942SOL     OW23458   4.122   3.189   6.471  0.0668  0.1473  0.5193
 3942SOL    HW123459   4.060   3.135   6.421  1.4613 -0.3537 -0.6463
 3942SOL    HW223460   4.065   3.251   6.516 -0.7061  0.1891 -0.4988
 3943SOL     OW23461   1.578   4.024   3.340  0.0009  0.4328  0.5781
 3943SOL    HW123462   1.585   4.119   3.332  0.2326  0.2837 -0.8908
 3943SOL    HW223463   1.525   4.021   3.420 -0.7007 -0.7033  0.0675
 3944SOL     OW23464   3.914   0.315   8.215 -0.5986 -0.5711  0.2217
 3944SOL    HW123465   3.887   0.407   8.227 -0.9654 -0.8270  1.3221
 3944SOL    HW223466   3.851   0.287   8.148 -0.5626 -0.9272  0.3369
 3945SOL     OW23467   4.717   1.156   2.315 -0.3240 -0.0410  0.5845
 3945SOL    HW123468   4.699   1.173   2.407  0.5111  0.5867  0.6283
 3945SOL    HW223469   4.646   1.206   2.275 -1.0355  0.0859  2.0256
 3946SOL     OW23470   0.382   1.139   8.019 -0.0077 -0.2598 -0.1539
 3946SOL    HW123471   0.321   1.212   8.032  2.2854  1.8670 -1.3456
 3946SOL    HW223472   0.468   1.162   8.054  0.0513 -0.8246  0.0756
 3947SOL     OW23473   3.311   1.412  16.777  0.5126 -0.3447 -0.1953
 3947SOL    HW123474   3.363   1.411  16.857 -0.0860  2.0465  0.2185
 3947SOL    HW223475   3.325   1.504  16.758 -0.4817 -0.1683 -0.0401
 3948SOL     OW23476   1.626   1.274   3.061 -0.8844  0.3462  0.5429
 3948SOL    HW123477   1.599   1.313   2.978  2.4868  1.1025 -0.2018
 3948SOL    HW223478   1.546   1.278   3.113 -0.6086  0.2045  0.9738
 3949SOL     OW23479   0.333   1.971  12.392 -0.2808  0.1561 -0.2580
 3949SOL    HW123480   0.352   2.052  12.344  0.9215  0.4095  0.6591
 3949SOL    HW223481   0.237   1.975  12.391 -0.2978 -0.3614 -1.2127
 3950SOL     OW23482   2.525   2.789   5.991 -0.5675  0.0981  0.3877
 3950SOL    HW123483   2.483   2.777   5.906 -1.0846 -2.0425  0.9440
 3950SOL    HW223484   2.585   2.714   5.982 -0.2245  0.2809  1.1085
 3951SOL     OW23485   1.797   3.731   7.599  0.3936 -0.0577 -0.3868
 3951SOL    HW123486   1.738   3.674   7.648 -0.4568  0.8200 -0.3869
 3951SOL    HW223487   1.741   3.794   7.554  0.2621 -0.5776 -0.9466
 3952SOL     OW23488   1.582   4.118   6.395 -0.2567 -0.1450  0.1745
 3952SOL    HW123489   1.488   4.136   6.393 -0.1541  0.7486  3.5436
 3952SOL    HW223490   1.589   4.060   6.319 -0.9037 -2.2316  1.7104
 3953SOL     OW23491   3.355   2.573   6.485  0.4119 -0.4455 -0.2922
 3953SOL    HW123492   3.443   2.537   6.480  0.5033 -0.1077 -0.9865
 3953SOL    HW223493   3.313   2.521   6.417  0.3021 -2.2360  1.1295
 3954SOL     OW23494   4.623   0.174   4.542  0.1984  0.0102  0.0493
 3954SOL    HW123495   4.581   0.136   4.465 -1.1562 -1.0664  1.3135
 3954SOL    HW223496   4.559   0.244   4.555  0.9049  0.2221  2.3313
 3955SOL     OW23497   3.932   4.034   2.685 -0.4222  0.5131 -0.4491
 3955SOL    HW123498   3.869   4.055   2.754 -0.4182  2.5377 -1.0801
 3955SOL    HW223499   3.969   4.122   2.681 -1.4216  0.9218 -0.4637
 3956SOL     OW23500   0.993   1.022   6.162 -0.2261 -0.3966  0.7811
 3956SOL    HW123501   0.951   0.938   6.180  1.3808 -0.9353  1.9844
 3956SOL    HW223502   0.921   1.053   6.106 -0.0353 -0.9017  0.2457
 3957SOL     OW23503   0.383   3.773   7.533 -0.0584  0.0495 -0.0334
 3957SOL    HW123504   0.427   3.757   7.449 -1.6178  0.4295 -0.9233
 3957SOL    HW223505   0.373   3.684   7.568 -1.2624  0.1887 -0.0008
 3958SOL     OW23506   3.662   1.255  14.534 -0.4689 -0.0496 -0.5888
 3958SOL    HW123507   3.708   1.238  14.452 -1.9879  0.8579 -1.6240
 3958SOL    HW223508   3.574   1.267  14.497  0.1926  0.3702 -2.0140
 3959SOL     OW23509   1.496   3.743  10.355  0.2215  0.0958  0.4326
 3959SOL    HW123510   1.452   3.826  10.338  2.0020  0.8707 -0.3683
 3959SOL    HW223511   1.584   3.769  10.383  0.6899 -0.8848 -0.1195
 3960SOL     OW23512   0.101   2.216   4.274 -0.3613 -0.4735  0.2099
 3960SOL    HW123513   0.131   2.129   4.302 -2.5863 -1.1183  0.6193
 3960SOL    HW223514   0.161   2.272   4.323  1.8762 -1.9977 -0.8216
 3961SOL     OW23515   0.006   4.640   6.824 -0.4540 -0.0407  0.3475
 3961SOL    HW123516   0.026   4.547   6.840  2.2429  0.4606  0.0097
 3961SOL    HW223517   4.692   4.666   6.901 -1.0361 -2.2583  0.7395
 3962SOL     OW23518   1.884   0.009  17.484  0.0701 -0.4004 -0.2370
 3962SOL    HW123519   1.817   4.679  17.506 -0.9465  1.6804  2.8337
 3962SOL    HW223520   1.943   0.009  17.559 -0.6763 -1.7475  0.3484
 3963SOL     OW23521   4.633   1.293  13.884 -0.0907  0.0803 -0.1706
 3963SOL    HW123522   4.635   1.389  13.888 -1.8604  0.1514 -1.1027
 3963SOL    HW223523   4.540   1.276  13.900  0.1147 -2.2886 -1.5372
 3964SOL     OW23524   3.667   1.622  16.646 -0.6996  0.5510  0.8353
 3964SOL    HW123525   3.745   1.664  16.683  0.7518 -1.6411  0.2446
 3964SOL    HW223526   3.687   1.635  16.553 -1.9932 -0.6341  0.3947
 3965SOL     OW23527   1.031   0.125   7.022  0.1414  0.3580 -0.1690
 3965SOL    HW123528   1.121   0.149   7.044  0.8888 -1.6188 -1.1205
 3965SOL    HW223529   0.989   0.118   7.107 -0.4540  0.6449 -0.4385
 3966SOL     OW23530   3.124   0.172   5.810 -0.0246 -0.0847  0.2099
 3966SOL    HW123531   3.046   0.223   5.789 -0.2275 -0.2397  0.5865
 3966SOL    HW223532   3.116   0.107   5.740 -1.0393  0.5906 -0.2950
 3967SOL     OW23533   0.784   1.142   3.180 -0.4191  0.0812 -0.1435
 3967SOL    HW123534   0.716   1.090   3.138 -1.7660  3.0062 -1.5902
 3967SOL    HW223535   0.743   1.227   3.165  0.6189  0.7357  0.7506
 3968SOL     OW23536   4.225   4.546  10.137  0.4918  0.1073 -0.3102
 3968SOL    HW123537   4.161   4.608  10.172  1.2686  0.9505 -0.3806
 3968SOL    HW223538   4.175   4.467  10.117 -0.0434  0.1135  1.0373
 3969SOL     OW23539   1.965   3.381   7.816  0.0000 -0.5790  0.0066
 3969SOL    HW123540   2.035   3.350   7.873  0.0710 -3.3762 -1.6045
 3969SOL    HW223541   1.901   3.410   7.881  0.4284 -1.3623  0.7861
 3970SOL     OW23542   1.157   3.223   6.310  0.3951  0.1897  0.1869
 3970SOL    HW123543   1.106   3.293   6.352  0.5637 -0.0256  0.7481
 3970SOL    HW223544   1.214   3.272   6.251 -0.3822 -0.9483 -1.5087
 3971SOL     OW23545   4.482   4.531   8.445 -0.1092  0.1138  0.2809
 3971SOL    HW123546   4.389   4.535   8.469 -0.4594  0.1737 -1.1031
 3971SOL    HW223547   4.477   4.438   8.427 -0.8898  0.4697 -1.3002
 3972SOL     OW23548   3.251   4.443   1.685  0.4728 -0.1485 -0.4330
 3972SOL    HW123549   3.221   4.435   1.594 -2.4084 -0.2040  0.5272
 3972SOL    HW223550   3.268   4.357   1.723 -0.4293  0.5662  1.5618
 3973SOL     OW23551   4.131   3.930   2.207  0.0222 -0.3956  0.0033
 3973SOL    HW123552   4.143   3.974   2.292  3.4922 -0.8100 -0.2723
 3973SOL    HW223553   4.037   3.916   2.199  0.0481 -0.5276 -0.0684
 3974SOL     OW23554   1.541   2.059   4.604  0.1195  0.4360 -0.4004
 3974SOL    HW123555   1.584   2.008   4.672 -1.1433 -0.8219 -0.5497
 3974SOL    HW223556   1.452   2.026   4.620 -0.1094  1.3469  0.1875
 3975SOL     OW23557   1.275   4.448   3.904  0.1816 -0.5144 -0.3124
 3975SOL    HW123558   1.288   4.541   3.921 -0.5865 -0.2614 -1.0828
 3975SOL    HW223559   1.339   4.413   3.966 -0.4061  1.0214  1.1831
 3976SOL     OW23560   4.712   4.497   8.165  0.1416  0.4645 -0.5354
 3976SOL    HW123561   4.681   4.568   8.222  1.7815  0.5780  0.2132
 3976SOL    HW223562   4.710   4.537   8.078 -0.2980  0.6874 -0.4252
 3977SOL     OW23563   1.176   1.240   8.952 -0.3459 -0.3224  0.1826
 3977SOL    HW123564   1.137   1.309   8.897 -2.5251 -0.6178  1.3554
 3977SOL    HW223565   1.236   1.212   8.883  0.0378  0.8076  0.0598
 3978SOL     OW23566   3.410   0.718  15.566 -0.3700 -0.1861 -0.0919
 3978SOL    HW123567   3.348   0.646  15.575 -1.0530 -0.0987 -4.1159
 3978SOL    HW223568   3.386   0.745  15.478  1.1544 -0.6526 -0.6499
 3979SOL     OW23569   1.785   0.073  13.999 -0.1577 -0.0043 -0.0278
 3979SOL    HW123570   1.708   0.100  13.949  1.1097  0.1075 -1.9511
 3979SOL    HW223571   1.806   0.161  14.030 -1.0020 -0.7736  2.6788
 3980SOL     OW23572   0.430   4.088   0.218  0.1940 -0.0621  0.1447
 3980SOL    HW123573   0.424   4.117   0.309  2.2917 -0.5020  0.4134
 3980SOL    HW223574   0.342   4.056   0.199 -0.5160  1.8286  0.2584
 3981SOL     OW23575   3.155   0.909   6.309 -0.0904 -0.1762 -0.5275
 3981SOL    HW123576   3.208   0.987   6.320 -1.1235  0.2842  1.1908
 3981SOL    HW223577   3.171   0.856   6.388  0.8651 -0.0932 -0.6686
 3982SOL     OW23578   2.390   4.721   4.469  0.0999  0.8137  0.3582
 3982SOL    HW123579   2.374   4.629   4.448 -0.1070  1.3073 -1.6767
 3982SOL    HW223580   2.301   0.016   4.486  1.1520  2.6242  2.5395
 3983SOL     OW23581   0.522   1.681   3.727  0.3292  0.3604 -0.3640
 3983SOL    HW123582   0.568   1.734   3.662 -1.3496  1.1700 -0.9068
 3983SOL    HW223583   0.565   1.598   3.709 -0.2690 -0.2942  1.2209
 3984SOL     OW23584   1.990   3.186   6.570 -0.0988  0.3415 -0.8820
 3984SOL    HW123585   2.025   3.131   6.640 -1.4034  1.3832  0.5598
 3984SOL    HW223586   1.925   3.125   6.537 -0.8639  1.4723 -1.4731
 3985SOL     OW23587   3.081   3.600  10.058  0.1428 -0.1985 -0.3122
 3985SOL    HW123588   3.162   3.555  10.083  0.1451  0.1102  0.2284
 3985SOL    HW223589   3.030   3.595  10.138  1.2238 -1.2788  0.3057
 3986SOL     OW23590   4.735   2.932   4.092 -0.0328  0.0091  0.8802
 3986SOL    HW123591   4.666   2.875   4.058 -0.5253  1.1351 -0.0180
 3986SOL    HW223592   0.056   2.875   4.144 -1.0132 -0.4856  1.3948
 3987SOL     OW23593   2.902   4.718   6.564  0.1596 -0.2163 -0.1316
 3987SOL    HW123594   2.916   4.682   6.476 -0.8242 -1.5376  0.2487
 3987SOL    HW223595   2.815   4.680   6.575  0.3238 -0.3985  0.5458
 3988SOL     OW23596   4.133   1.903  12.609  0.3509 -0.3486 -0.0453
 3988SOL    HW123597   4.203   1.955  12.647  1.3696 -0.0882 -2.2824
 3988SOL    HW223598   4.171   1.846  12.543 -0.0943 -1.3245  0.5422
 3989SOL     OW23599   0.902   2.455   4.317  0.2846  0.1121  0.2516
 3989SOL    HW123600   0.969   2.388   4.302  1.5631  1.0952  1.5271
 3989SOL    HW223601   0.836   2.412   4.263  0.7532  0.2525 -0.4296
 3990SOL     OW23602   2.139   1.270  15.361 -0.1827 -0.0361 -0.4354
 3990SOL    HW123603   2.160   1.181  15.332  0.5748 -0.2804  0.9052
 3990SOL    HW223604   2.228   1.286  15.392  0.5086  0.6154 -2.7057
 3991SOL     OW23605   0.097   2.922  13.841 -0.5010 -0.1956 -0.2008
 3991SOL    HW123606   0.073   2.995  13.898 -0.4490  0.9344 -1.6259
 3991SOL    HW223607   0.040   2.853  13.875 -1.4347  0.2972 -0.7753
 3992SOL     OW23608   1.451   3.551   8.433  0.5292  0.6597 -0.1671
 3992SOL    HW123609   1.408   3.498   8.499  0.0104  0.4486 -0.6730
 3992SOL    HW223610   1.383   3.616   8.413 -0.4650 -0.5247 -0.6064
 3993SOL     OW23611   4.558   1.747   8.561 -0.5324 -0.2782  0.2227
 3993SOL    HW123612   4.649   1.752   8.529 -0.8825 -2.1694 -1.1141
 3993SOL    HW223613   4.508   1.747   8.479  0.2306  1.8443 -0.2615
 3994SOL     OW23614   3.501   0.985   6.158 -0.1079 -0.1125  0.1114
 3994SOL    HW123615   3.484   0.987   6.064 -2.1018  2.2200  0.5245
 3994SOL    HW223616   3.505   0.892   6.181 -1.2148 -0.1667  0.0694
 3995SOL     OW23617   4.402   4.528  15.293  0.0561 -0.2449  0.2319
 3995SOL    HW123618   4.407   4.444  15.247  0.8109  0.9395 -1.9004
 3995SOL    HW223619   4.443   4.580  15.223 -2.4073 -2.0590 -2.5885
 3996SOL     OW23620   3.119   1.031   7.448 -0.2609 -0.6394  0.1862
 3996SOL    HW123621   3.057   1.018   7.376 -0.4527 -0.7737  0.3744
 3996SOL    HW223622   3.132   1.126   7.448 -1.4123 -0.4799  1.0828
 3997SOL     OW23623   3.965   2.173  16.342  0.1035  0.1804 -0.1180
 3997SOL    HW123624   3.875   2.195  16.364  0.3283  0.9077  0.0789
 3997SOL    HW223625   3.979   2.221  16.261  0.9194  0.0957 -0.0285
 3998SOL     OW23626   2.589   1.879   1.259 -0.1440  0.3401 -0.2411
 3998SOL    HW123627   2.562   1.789   1.277  2.9379 -0.5876 -0.3105
 3998SOL    HW223628   2.521   1.928   1.306  0.6161 -0.5357  1.8057
 3999SOL     OW23629   1.212   0.168   3.057  0.3305  0.3843 -0.0476
 3999SOL    HW123630   1.190   0.080   3.087  1.2369 -0.7644 -2.7832
 3999SOL    HW223631   1.215   0.225   3.134 -0.2099  0.6157 -0.1929
 4000SOL     OW23632   4.461   3.509   4.387 -0.0597  0.6485 -0.3069
 4000SOL    HW123633   4.402   3.528   4.460 -1.1189 -1.3069 -0.6570
 4000SOL    HW223634   4.493   3.422   4.411 -0.7305  0.8501  1.3260
 4001SOL     OW23635   1.172   1.752  10.643 -0.1403  0.6338  0.3015
 4001SOL    HW123636   1.097   1.695  10.626 -0.7021  0.9236  1.7674
 4001SOL    HW223637   1.243   1.695  10.613 -0.1802  0.2765  0.8802
 4002SOL     OW23638   0.681   0.421   5.286  0.3069 -0.0752 -0.0398
 4002SOL    HW123639   0.667   0.429   5.191  1.6196  0.6238 -0.1827
 4002SOL    HW223640   0.768   0.382   5.287  0.6086  0.5747 -0.2628
 4003SOL     OW23641   1.118   0.011   5.730 -0.3903 -0.3154 -0.1761
 4003SOL    HW123642   1.126   0.055   5.646  1.3000 -0.4169 -0.0699
 4003SOL    HW223643   1.028   4.715   5.729 -1.0682  1.4125  4.2491
 4004SOL     OW23644   4.359   2.212   3.258  0.0665  0.2803  0.4623
 4004SOL    HW123645   4.452   2.211   3.277  0.6157  2.0012 -2.1823
 4004SOL    HW223646   4.333   2.123   3.282 -1.3047  1.1673  2.2773
 4005SOL     OW23647   2.970   2.717   1.252  0.0567 -0.0199  0.2269
 4005SOL    HW123648   2.956   2.810   1.272 -0.1997 -0.3538  1.6232
 4005SOL    HW223649   3.011   2.718   1.166  1.8298  3.3055  1.0550
 4006SOL     OW23650   2.706   4.664   6.040  0.3993  0.0653  0.0135
 4006SOL    HW123651   2.666   0.007   6.002  0.9279  0.0518 -0.5863
 4006SOL    HW223652   2.799   4.685   6.052 -0.3344  3.6167 -0.6470
 4007SOL     OW23653   2.536   0.453  10.127 -0.6504  0.2068 -0.6541
 4007SOL    HW123654   2.592   0.408  10.191 -0.0667 -0.9268 -1.9810
 4007SOL    HW223655   2.509   0.516  10.194  1.3805  1.5775 -1.1469
 4008SOL     OW23656   3.618   4.456   9.766 -0.2741 -0.6235  0.6265
 4008SOL    HW123657   3.572   4.413   9.838  0.3171 -1.1491  0.6870
 4008SOL    HW223658   3.547   4.457   9.701  0.5069 -0.0813 -0.2112
 4009SOL     OW23659   2.153   4.181   7.911 -0.1879  0.2885  0.0793
 4009SOL    HW123660   2.126   4.265   7.874 -0.0492  0.0172 -0.6313
 4009SOL    HW223661   2.213   4.212   7.979 -0.9086 -0.7433  1.1834
 4010SOL     OW23662   3.585   0.177  16.781  0.2792 -0.0339 -0.1098
 4010SOL    HW123663   3.648   0.226  16.833 -1.3743  1.5807  0.3930
 4010SOL    HW223664   3.637   0.109  16.739  2.0214  0.2914  1.5164
 4011SOL     OW23665   1.852   4.480   7.559 -0.3238 -0.0595 -0.0235
 4011SOL    HW123666   1.783   4.496   7.494  0.8115  1.1616 -0.9164
 4011SOL    HW223667   1.921   4.436   7.510  1.8644  1.1848  1.9684
 4012SOL     OW23668   0.799   2.164  17.055  0.0473  0.1821 -0.2508
 4012SOL    HW123669   0.868   2.139  16.993 -0.4192 -0.1362 -0.6412
 4012SOL    HW223670   0.771   2.083  17.097  0.2013 -0.5289 -1.4940
 4013SOL     OW23671   4.441   1.186  16.887  0.0675 -0.1365  0.5355
 4013SOL    HW123672   4.512   1.139  16.930 -1.2916  0.1934  3.1300
 4013SOL    HW223673   4.465   1.162  16.797 -0.1691 -0.6917  0.6184
 4014SOL     OW23674   4.469   2.247   8.838  0.2886 -0.3662 -0.0617
 4014SOL    HW123675   4.510   2.179   8.785  0.2219 -0.2589 -0.2513
 4014SOL    HW223676   4.426   2.299   8.770  1.4580  0.6914  0.0044
 4015SOL     OW23677   4.650   1.701   9.149 -0.6222 -0.1431  0.0036
 4015SOL    HW123678   4.592   1.643   9.099  3.0736 -1.1477 -3.0654
 4015SOL    HW223679   4.591   1.720   9.222 -0.2517  1.4559 -0.1109
 4016SOL     OW23680   2.541   1.807   0.278 -0.2432 -0.7296  0.1355
 4016SOL    HW123681   2.525   1.742   0.209 -3.8694  1.1265 -0.7953
 4016SOL    HW223682   2.448   1.833   0.274  0.2020  1.1775  1.9568
 4017SOL     OW23683   2.547   2.417   3.849 -0.3290  0.3237 -0.2548
 4017SOL    HW123684   2.595   2.344   3.887  0.3271  1.1578  0.5292
 4017SOL    HW223685   2.461   2.381   3.828 -0.3311 -0.6248  1.4430
 4018SOL     OW23686   4.506   2.050  11.217  0.4495  0.5855 -0.0568
 4018SOL    HW123687   4.596   2.065  11.243 -0.2511  2.4755  1.2670
 4018SOL    HW223688   4.447   2.108  11.264  0.1081  0.0581  0.1714
 4019SOL     OW23689   1.869   4.254   8.816 -0.3326 -0.1659 -0.0251
 4019SOL    HW123690   1.882   4.347   8.796 -2.0758  0.5530  2.1689
 4019SOL    HW223691   1.948   4.217   8.777 -0.7690  0.0576 -1.1381
 4020SOL     OW23692   3.255   4.465   3.398 -0.0494  0.2270  0.0364
 4020SOL    HW123693   3.193   4.469   3.471  1.7628  0.1384  1.5803
 4020SOL    HW223694   3.198   4.483   3.324  0.4823 -1.0357 -0.6699
 4021SOL     OW23695   0.293   3.804   8.093 -0.0662 -0.0756  0.0002
 4021SOL    HW123696   0.323   3.713   8.098 -0.7021 -0.1763  1.9033
 4021SOL    HW223697   0.198   3.795   8.102 -0.3577  0.9482 -1.9877
 4022SOL     OW23698   2.081   2.298  17.238 -0.0715  0.2732  0.3565
 4022SOL    HW123699   2.037   2.382  17.247 -1.3623 -0.3458 -0.1451
 4022SOL    HW223700   2.159   2.311  17.292  0.1997  0.4206 -0.0656
 4023SOL     OW23701   3.178   3.811   2.609  0.0873  0.3499  0.3594
 4023SOL    HW123702   3.229   3.883   2.648  0.0485 -0.9261  2.7569
 4023SOL    HW223703   3.224   3.814   2.526 -3.0441 -2.8642 -1.4560
 4024SOL     OW23704   0.921   3.925   2.720 -0.0708 -0.2923  0.3909
 4024SOL    HW123705   1.004   3.887   2.690  0.0691 -2.2152  3.2985
 4024SOL    HW223706   0.911   3.875   2.801  1.5643  2.5380  2.3547
 4025SOL     OW23707   3.842   0.921   7.804  0.0174 -0.2641 -0.1365
 4025SOL    HW123708   3.925   0.918   7.756  0.2190  0.4353  0.1605
 4025SOL    HW223709   3.805   0.834   7.791  0.0973 -0.3811  0.3936
 4026SOL     OW23710   4.539   0.732   1.870 -0.3632 -0.3179 -0.0748
 4026SOL    HW123711   4.473   0.798   1.893 -0.5432 -1.5230  2.8747
 4026SOL    HW223712   4.511   0.694   1.787 -1.4273 -0.7128  0.4675
 4027SOL     OW23713   3.333   3.785   6.849  0.1686 -0.4933 -0.0888
 4027SOL    HW123714   3.414   3.738   6.831 -0.2285 -0.4759 -1.8921
 4027SOL    HW223715   3.367   3.821   6.931 -0.7714 -1.3260  0.6741
 4028SOL     OW23716   3.384   0.041  15.806  0.6503 -0.7708  0.0163
 4028SOL    HW123717   3.347   0.118  15.849  0.1409 -2.8387  3.2924
 4028SOL    HW223718   3.297   0.004  15.787  0.4506 -0.6386  0.6932
 4029SOL     OW23719   2.024   4.004   3.858 -0.0189 -0.0163  0.6272
 4029SOL    HW123720   2.038   4.097   3.844  1.0510 -0.1631  0.7627
 4029SOL    HW223721   1.929   4.011   3.863  0.1198  0.6016  2.1176
 4030SOL     OW23722   0.450   1.567   3.968  0.6015  0.2452  0.2089
 4030SOL    HW123723   0.506   1.601   3.897  1.5255  2.1117  1.8224
 4030SOL    HW223724   0.368   1.586   3.923  0.6509  1.0270  0.4481
 4031SOL     OW23725   1.719   3.865  13.138  0.1743  0.2941 -0.2523
 4031SOL    HW123726   1.741   3.785  13.090  1.7360  1.6215 -1.7569
 4031SOL    HW223727   1.702   3.819  13.220  0.6954  0.2475 -0.1667
 4032SOL     OW23728   0.123   3.259   9.079  0.1459  0.3667 -0.0953
 4032SOL    HW123729   0.160   3.291   8.997 -0.8398 -0.0971 -0.7212
 4032SOL    HW223730   0.044   3.311   9.093  0.3171  0.1036  1.8879
 4033SOL     OW23731   4.611   0.582  16.112  0.6648 -0.4085  0.0425
 4033SOL    HW123732   4.643   0.599  16.024  2.6861  1.2899  1.1199
 4033SOL    HW223733   4.520   0.554  16.103  0.5512 -0.2495  0.6703
 4034SOL     OW23734   3.361   2.604  12.289  0.5986 -0.5209  0.0981
 4034SOL    HW123735   3.284   2.660  12.290  1.7300  1.0560 -0.2785
 4034SOL    HW223736   3.396   2.642  12.370 -1.2832 -1.2777  1.2753
 4035SOL     OW23737   3.263   2.911  15.024  0.2085  0.0774 -0.2446
 4035SOL    HW123738   3.315   2.852  14.970 -0.0140 -0.0224 -0.3501
 4035SOL    HW223739   3.175   2.900  14.990  0.1904 -0.0294 -0.1626
 4036SOL     OW23740   3.818   2.226   8.992 -0.3933  0.4454  0.3659
 4036SOL    HW123741   3.842   2.308   9.035  1.8766 -0.0264 -0.0302
 4036SOL    HW223742   3.886   2.213   8.926 -0.4280 -0.4055  0.5076
 4037SOL     OW23743   1.264   1.442   9.566  0.1748  0.0554  0.1856
 4037SOL    HW123744   1.292   1.531   9.542  3.6926 -0.7886  1.1050
 4037SOL    HW223745   1.326   1.428   9.638  1.9051  0.0070 -1.3391
 4038SOL     OW23746   0.900   3.430   3.604  0.2174  0.0438  0.4526
 4038SOL    HW123747   0.903   3.335   3.591  1.9546 -0.1252  2.2021
 4038SOL    HW223748   0.909   3.460   3.513 -0.8869  0.4940  0.4983
 4039SOL     OW23749   0.142   4.577   1.770  0.0841 -0.0217  0.0249
 4039SOL    HW123750   0.189   4.596   1.689 -0.7813  0.7211 -0.3050
 4039SOL    HW223751   0.149   4.483   1.790  1.6952 -0.0195 -0.5573
 4040SOL     OW23752   0.910   2.416   6.345  0.1726 -0.6939 -0.8395
 4040SOL    HW123753   0.927   2.409   6.251  0.9730  1.5626 -0.8629
 4040SOL    HW223754   0.967   2.487   6.373  1.3623 -1.8103 -0.4006
 4041SOL     OW23755   3.927   1.187  17.702  0.5982 -0.6868 -0.4590
 4041SOL    HW123756   3.991   1.128   0.002  0.7870 -0.3622 -0.2754
 4041SOL    HW223757   3.893   1.130  17.634  0.6478  0.9649 -1.8832
 4042SOL     OW23758   4.672   2.474   4.664  0.5790 -0.1136 -0.5494
 4042SOL    HW123759   4.672   2.568   4.683  1.1844 -0.4507  1.1432
 4042SOL    HW223760   4.578   2.455   4.672  0.7420 -0.8604 -0.4709
 4043SOL     OW23761   1.224   0.875   5.364  0.2381  0.2163 -0.4601
 4043SOL    HW123762   1.147   0.819   5.363 -0.6786  1.4857  0.0524
 4043SOL    HW223763   1.196   0.956   5.320  0.8375  1.7429  1.9945
 4044SOL     OW23764   0.840   3.984  12.535 -0.5569 -0.6981  0.1984
 4044SOL    HW123765   0.911   3.949  12.589 -1.2764  0.8286  2.1310
 4044SOL    HW223766   0.771   3.919  12.548 -0.4864 -0.5131  1.5201
 4045SOL     OW23767   4.299   2.661   6.560 -0.0275 -0.7396 -0.7073
 4045SOL    HW123768   4.216   2.688   6.599 -0.4778 -0.8993 -1.5575
 4045SOL    HW223769   4.317   2.574   6.596  1.4185 -0.6223 -1.1208
 4046SOL     OW23770   3.009   1.641   2.780  0.1858 -0.1837  0.0623
 4046SOL    HW123771   3.051   1.702   2.840 -0.1854 -0.9878  1.1297
 4046SOL    HW223772   2.965   1.704   2.723 -1.1288 -2.4183 -1.4294
 4047SOL     OW23773   3.511   0.166   3.028 -0.1075  0.2437  0.0581
 4047SOL    HW123774   3.488   0.109   2.954  0.5408  0.2516 -0.1499
 4047SOL    HW223775   3.425   0.194   3.058 -0.9352 -1.7693 -0.4226
 4048SOL     OW23776   2.615   1.050   1.858 -0.0054 -0.6306 -0.2563
 4048SOL    HW123777   2.656   1.136   1.871 -2.7121  0.8024 -1.1245
 4048SOL    HW223778   2.525   1.075   1.877 -0.0122  0.1705 -1.2576
 4049SOL     OW23779   0.731   1.402   3.100  0.0214 -0.5349 -0.2438
 4049SOL    HW123780   0.682   1.383   3.020 -2.9478  1.7116  1.0210
 4049SOL    HW223781   0.741   1.497   3.088  0.7358 -0.7873 -1.6575
 4050SOL     OW23782   4.223   2.102   9.056 -0.0492  0.0114  0.0272
 4050SOL    HW123783   4.304   2.050   9.058 -0.0078  0.0762  0.0358
 4050SOL    HW223784   4.216   2.120   9.149 -1.2317  0.9031 -0.2367
 4051SOL     OW23785   4.491   3.848   9.073  0.0900 -0.2393  0.6874
 4051SOL    HW123786   4.546   3.771   9.056  0.4940 -0.2442  2.0303
 4051SOL    HW223787   4.440   3.808   9.144 -0.2362 -0.2914  0.4254
 4052SOL     OW23788   4.613   0.757   4.896 -0.6234 -0.0751  0.2460
 4052SOL    HW123789   4.518   0.764   4.891 -0.8701 -3.0058  0.8402
 4052SOL    HW223790   4.608   0.674   4.942  0.7221 -0.7624 -0.8402
 4053SOL     OW23791   3.107   1.538   7.364  0.1068  0.1700 -0.2862
 4053SOL    HW123792   3.178   1.603   7.364  0.7178 -0.4970 -0.7290
 4053SOL    HW223793   3.105   1.508   7.273  3.0174 -0.7888 -0.0454
 4054SOL     OW23794   0.464   3.409   6.935  0.4601 -0.5928 -0.2452
 4054SOL    HW123795   0.554   3.417   6.966  0.1520 -1.1007  0.7891
 4054SOL    HW223796   0.426   3.495   6.954 -1.5562 -1.5608  0.1396
 4055SOL     OW23797   3.117   2.931   3.665  0.5112  0.6877 -0.1068
 4055SOL    HW123798   3.096   3.001   3.728  0.6992  1.3800 -0.8101
 4055SOL    HW223799   3.028   2.907   3.637  0.1648  0.6374  1.0473
 4056SOL     OW23800   3.356   3.428   5.313  0.5751 -0.1646 -0.6959
 4056SOL    HW123801   3.275   3.396   5.272  0.9769 -2.7633  0.5560
 4056SOL    HW223802   3.419   3.386   5.254 -0.4074 -2.1516 -0.3591
 4057SOL     OW23803   2.123   0.731   1.753 -0.1879  0.1391 -0.5047
 4057SOL    HW123804   2.189   0.801   1.758  1.3426 -1.3671  0.5718
 4057SOL    HW223805   2.145   0.691   1.837  2.2589 -1.5333 -1.9328
 4058SOL     OW23806   4.020   1.054   6.494  0.1936  0.2042 -0.4000
 4058SOL    HW123807   3.955   1.118   6.526 -2.0099 -2.0237 -0.4081
 4058SOL    HW223808   4.064   1.097   6.421  2.3332 -1.3528 -0.0018
 4059SOL     OW23809   3.143   3.130   5.216 -0.3843 -0.3673 -0.8460
 4059SOL    HW123810   3.134   3.217   5.178 -1.0301  0.4838  1.2658
 4059SOL    HW223811   3.238   3.123   5.228 -0.2235  2.5683 -0.5725
 4060SOL     OW23812   0.816   2.378   7.409  0.0943 -0.2075 -0.2340
 4060SOL    HW123813   0.876   2.396   7.337  0.7933 -0.6318  0.2449
 4060SOL    HW223814   0.818   2.282   7.404  1.6733 -0.2568  1.1634
 4061SOL     OW23815   2.034   0.351   9.328 -0.3525 -0.1691  0.3717
 4061SOL    HW123816   1.941   0.350   9.308 -0.3029  2.1510  0.0122
 4061SOL    HW223817   2.049   0.279   9.389 -2.1981 -0.4106  0.5254
 4062SOL     OW23818   4.001   2.062   3.934 -0.3295 -0.0333  0.0509
 4062SOL    HW123819   3.972   2.029   3.848  0.1113  1.4864 -0.6820
 4062SOL    HW223820   3.944   2.016   3.996 -0.0859  1.4044  1.3449
 4063SOL     OW23821   2.260   0.407   3.355 -0.4320  0.4460  0.1199
 4063SOL    HW123822   2.295   0.476   3.412  1.4807  0.6124 -1.2753
 4063SOL    HW223823   2.304   0.408   3.270 -1.3947 -0.8224 -0.3927
 4064SOL     OW23824   0.931   0.441   6.804  0.2533  0.1117 -0.0250
 4064SOL    HW123825   0.862   0.398   6.752 -1.1798  0.2499  1.7389
 4064SOL    HW223826   0.996   0.371   6.800 -0.3103 -0.5975  2.7030
 4065SOL     OW23827   3.573   0.022   6.645 -0.1192 -0.8288 -0.0041
 4065SOL    HW123828   3.624   0.076   6.704 -1.3205 -0.1250  0.3905
 4065SOL    HW223829   3.580   4.678   6.698 -0.8846 -1.6109 -1.0661
 4066SOL     OW23830   0.138   1.092   9.437  0.0162  0.2540 -0.0380
 4066SOL    HW123831   0.195   1.057   9.368 -0.8075 -0.2025 -0.4917
 4066SOL    HW223832   0.148   1.186   9.420 -0.1721  0.1660 -0.6305
 4067SOL     OW23833   0.198   2.170   3.791  0.0896 -0.1550 -0.4903
 4067SOL    HW123834   0.109   2.158   3.824  0.2683 -0.8763 -0.2825
 4067SOL    HW223835   0.206   2.107   3.719 -0.6188 -0.0556 -0.6654
 4068SOL     OW23836   2.850   0.455   3.635  0.1630  0.1414  0.1222
 4068SOL    HW123837   2.841   0.361   3.648  0.5091  0.3938  2.1079
 4068SOL    HW223838   2.804   0.494   3.709  0.8227  0.4389  0.3744
 4069SOL     OW23839   4.161   1.730   2.496  0.7651 -0.0955  0.2897
 4069SOL    HW123840   4.180   1.761   2.407  3.2219  2.1452  1.5935
 4069SOL    HW223841   4.244   1.721   2.544  0.6420 -4.0042 -0.2430
 4070SOL     OW23842   1.072   2.413   5.354  0.1511  0.2727  0.2465
 4070SOL    HW123843   1.123   2.436   5.431 -0.1004  1.5657  0.0286
 4070SOL    HW223844   1.097   2.324   5.329 -1.2152 -0.2205  0.6015
 4071SOL     OW23845   0.456   1.560   2.888  0.4191 -0.1992  0.0249
 4071SOL    HW123846   0.526   1.597   2.835 -0.6600 -0.4035 -1.5424
 4071SOL    HW223847   0.483   1.468   2.894  0.5766 -0.2933 -1.9151
 4072SOL     OW23848   0.466   3.971  10.786 -0.3779  0.7154  0.4795
 4072SOL    HW123849   0.424   4.056  10.802  1.9425  1.9086  0.1767
 4072SOL    HW223850   0.438   3.918  10.860 -1.0943 -0.1065 -0.3812
 4073SOL     OW23851   0.376   4.275  12.875 -0.2671 -0.0979  0.0564
 4073SOL    HW123852   0.397   4.234  12.791 -0.6288  0.3363 -0.2426
 4073SOL    HW223853   0.286   4.302  12.856  0.9202  3.5825 -0.3584
 4074SOL     OW23854   2.182   1.974  16.614 -0.1258  0.6274 -0.4860
 4074SOL    HW123855   2.185   2.013  16.701 -0.3414  0.7275 -0.5238
 4074SOL    HW223856   2.276   1.962  16.602 -0.1464 -1.2348  1.1588
 4075SOL     OW23857   2.585   3.392   4.508 -0.1274 -0.7919 -0.8336
 4075SOL    HW123858   2.617   3.417   4.594 -2.4368 -1.3476  0.1911
 4075SOL    HW223859   2.656   3.435   4.461 -0.5015  1.8933  1.0482
 4076SOL     OW23860   3.734   4.068   3.331  0.3338 -0.0270  0.5982
 4076SOL    HW123861   3.709   4.003   3.266 -0.1820 -0.5114  1.2838
 4076SOL    HW223862   3.813   4.038   3.376  1.5389  0.0864 -1.4228
 4077SOL     OW23863   1.428   4.384   6.088  0.1768  0.4689  0.5900
 4077SOL    HW123864   1.385   4.450   6.034  0.4794  0.4625  0.3439
 4077SOL    HW223865   1.509   4.372   6.038 -1.2439  0.1735 -1.6622
 4078SOL     OW23866   0.864   4.660   5.689 -0.2758 -0.3437  0.1129
 4078SOL    HW123867   0.843   4.623   5.604  0.4737  1.5788 -0.9002
 4078SOL    HW223868   0.814   4.603   5.748  0.8173 -1.0897  0.3292
 4079SOL     OW23869   4.234   4.098   4.282  0.6392  0.3792  0.0409
 4079SOL    HW123870   4.239   4.154   4.205 -0.8171  0.1738 -0.1911
 4079SOL    HW223871   4.279   4.019   4.253 -0.1639  0.0677 -0.3359
 4080SOL     OW23872   3.982   2.002   6.934  0.3549  0.4987 -0.4051
 4080SOL    HW123873   3.955   1.927   6.881  2.0308  1.1391 -2.1515
 4080SOL    HW223874   3.963   1.975   7.024 -0.8940 -0.7969 -1.0587
 4081SOL     OW23875   4.260   1.380   3.506 -0.3392  0.1841 -0.2095
 4081SOL    HW123876   4.342   1.423   3.528 -0.2867 -1.0874  2.1150
 4081SOL    HW223877   4.205   1.404   3.581 -1.1961  0.0086 -0.7876
 4082SOL     OW23878   2.616   2.232   5.399  0.0680 -0.1836 -0.0422
 4082SOL    HW123879   2.641   2.144   5.370 -1.6626 -0.7412  0.1588
 4082SOL    HW223880   2.527   2.236   5.366 -0.3653  0.6616  1.2191
 4083SOL     OW23881   2.151   1.937  11.039  0.0980 -0.1858  0.3883
 4083SOL    HW123882   2.100   1.857  11.031 -0.2354  0.0162  0.4861
 4083SOL    HW223883   2.213   1.922  11.110 -2.1698  2.1337  2.8565
 4084SOL     OW23884   0.752   3.420  17.254 -0.6628 -0.1177  0.4998
 4084SOL    HW123885   0.774   3.454  17.341  4.7389  0.4921 -1.1343
 4084SOL    HW223886   0.720   3.333  17.278  0.6834 -0.3872  1.3367
 4085SOL     OW23887   1.632   3.282   6.373 -0.3005  0.7359 -0.3665
 4085SOL    HW123888   1.568   3.216   6.402  0.5332 -0.8167 -2.0568
 4085SOL    HW223889   1.714   3.234   6.367 -1.1850 -0.6387 -1.3952
 4086SOL     OW23890   1.952   3.137   1.720  0.0952 -0.3589 -0.1935
 4086SOL    HW123891   2.000   3.157   1.639 -0.1593  0.1203 -0.2243
 4086SOL    HW223892   2.003   3.192   1.779 -0.7400 -0.7326  0.8647
 4087SOL     OW23893   1.339   3.815  13.468  0.0291  0.5809 -0.2730
 4087SOL    HW123894   1.406   3.875  13.500  0.8745 -0.3028 -0.3831
 4087SOL    HW223895   1.354   3.737  13.522  0.8914  1.8434  1.2826
 4088SOL     OW23896   0.453   1.899  16.787 -0.0395  0.0525  0.1567
 4088SOL    HW123897   0.440   1.826  16.847  0.4561  0.0126  0.2180
 4088SOL    HW223898   0.394   1.964  16.824 -1.3701 -0.2520 -1.4314
 4089SOL     OW23899   3.995   3.458   6.444  0.8388  0.0568 -0.3282
 4089SOL    HW123900   3.963   3.539   6.403  1.5564  0.2183 -0.5666
 4089SOL    HW223901   4.016   3.487   6.533 -0.5215  0.1290 -0.0321
 4090SOL     OW23902   4.598   4.330   9.096 -0.0395 -0.7071  0.1059
 4090SOL    HW123903   4.607   4.292   9.009 -3.2240  0.3645 -0.7132
 4090SOL    HW223904   4.513   4.374   9.096 -0.7946 -2.1811 -1.7554
 4091SOL     OW23905   3.624   2.594  10.053 -0.1492 -0.5882 -0.0602
 4091SOL    HW123906   3.553   2.540  10.088 -0.1382 -0.9736 -0.6291
 4091SOL    HW223907   3.701   2.539  10.065 -0.6329 -1.4838 -1.1153
 4092SOL     OW23908   3.112   3.216  12.198 -0.1674  0.1552  0.1320
 4092SOL    HW123909   3.171   3.285  12.229  0.7803 -0.8887  0.6251
 4092SOL    HW223910   3.127   3.138  12.252  1.0602  1.2691  1.3976
 4093SOL     OW23911   0.794   2.605  11.763  0.3652  0.2650 -0.4374
 4093SOL    HW123912   0.857   2.586  11.693  1.2321 -2.0390  0.9756
 4093SOL    HW223913   0.806   2.699  11.774 -2.4157  0.8892 -2.6866
 4094SOL     OW23914   0.999   0.799  12.543  0.1052 -0.5114  0.0107
 4094SOL    HW123915   1.026   0.825  12.632 -1.2932  0.5316  0.1323
 4094SOL    HW223916   1.035   0.710  12.537 -0.2806 -0.6921  0.3686
 4095SOL     OW23917   2.551   4.426   2.772 -0.1965 -0.4198  0.2414
 4095SOL    HW123918   2.613   4.361   2.806 -1.2163 -0.8361  1.3069
 4095SOL    HW223919   2.564   4.498   2.833 -2.4441 -0.1264  0.3922
 4096SOL     OW23920   0.951   1.713   5.768 -0.5452 -0.3282 -0.4080
 4096SOL    HW123921   0.909   1.631   5.741 -2.3508  0.6553 -0.6344
 4096SOL    HW223922   0.900   1.728   5.848 -0.0764  0.5292 -0.2693
 4097SOL     OW23923   2.512   2.074   7.248 -0.0264 -0.2591  0.4528
 4097SOL    HW123924   2.427   2.069   7.205  0.0302 -2.8607  0.6148
 4097SOL    HW223925   2.486   2.062   7.340  1.7814  0.5597  1.0654
 4098SOL     OW23926   3.545   0.081   5.044 -0.5084 -0.3154  0.5109
 4098SOL    HW123927   3.456   0.109   5.023 -0.6187 -1.1199 -0.0858
 4098SOL    HW223928   3.587   0.102   4.961  1.1339 -1.6717  0.9852
 4099SOL     OW23929   2.925   3.312  12.655  0.6438  0.4529  0.8270
 4099SOL    HW123930   2.889   3.225  12.672 -0.2352  0.2416 -2.0520
 4099SOL    HW223931   2.869   3.345  12.585  0.1258 -2.4731 -0.1824
 4100SOL     OW23932   3.933   1.304   9.257  0.0234  1.1840  0.1682
 4100SOL    HW123933   3.926   1.259   9.173 -3.9314  3.1273 -0.5060
 4100SOL    HW223934   3.906   1.232   9.314 -0.3642  1.5250  0.4123
 4101SOL     OW23935   4.000   4.708   1.689 -0.0396 -0.1221 -0.1849
 4101SOL    HW123936   4.024   4.623   1.726 -0.5415  0.1681  0.7887
 4101SOL    HW223937   4.074   4.720   1.630  1.4675 -0.2574  1.6838
 4102SOL     OW23938   3.252   0.902   8.235 -0.3497  0.0091  0.2201
 4102SOL    HW123939   3.299   0.952   8.302  0.5948 -2.2839  1.2413
 4102SOL    HW223940   3.189   0.970   8.211  0.4676  1.1172  1.1830
 4103SOL     OW23941   4.191   4.589  10.490  0.3179  0.2945  0.0870
 4103SOL    HW123942   4.119   4.528  10.470  1.7819 -2.0651  1.9951
 4103SOL    HW223943   4.221   4.573  10.580 -0.0022  0.3547  0.2053
 4104SOL     OW23944   0.137   0.389   6.020  0.3827  0.0481  0.6506
 4104SOL    HW123945   0.063   0.425   6.070 -0.7894  1.0063 -1.7796
 4104SOL    HW223946   0.187   0.362   6.097  0.7717 -0.1062  0.3413
 4105SOL     OW23947   0.064   0.158   7.653 -0.5533  0.1063  0.3484
 4105SOL    HW123948   0.135   0.161   7.589  1.5375  1.7880  2.7215
 4105SOL    HW223949   0.103   0.120   7.732 -0.8685 -0.2918  0.3114
 4106SOL     OW23950   0.280   0.206  14.160 -0.0378  0.5911 -0.2827
 4106SOL    HW123951   0.216   0.246  14.101 -0.5459  0.1954 -0.0017
 4106SOL    HW223952   0.324   0.284  14.195 -1.1882  0.7267  0.8569
 4107SOL     OW23953   2.053   2.134   5.804 -0.7638 -0.1714 -0.1727
 4107SOL    HW123954   2.147   2.137   5.822 -0.6311 -0.3466 -0.8448
 4107SOL    HW223955   2.059   2.124   5.709  0.8421  0.0860 -0.1004
 4108SOL     OW23956   2.468   1.463   5.125  0.0909  0.4086  0.5655
 4108SOL    HW123957   2.490   1.418   5.206 -1.1303 -2.3171 -0.6372
 4108SOL    HW223958   2.515   1.409   5.062  2.6547 -0.7933  3.5125
 4109SOL     OW23959   3.234   0.337  12.926 -0.7377 -0.3094 -0.3995
 4109SOL    HW123960   3.320   0.379  12.928 -0.9873  0.1298  1.4138
 4109SOL    HW223961   3.269   0.251  12.949  3.3340  1.1884 -1.0490
 4110SOL     OW23962   3.238   4.573  11.133  0.0900  0.2955  0.7575
 4110SOL    HW123963   3.219   4.662  11.102  2.0804  0.8072  0.9425
 4110SOL    HW223964   3.179   4.544  11.202  2.2304 -0.2805  2.3658
 4111SOL     OW23965   2.129   4.425   6.512 -0.1120  0.5506  0.1675
 4111SOL    HW123966   2.186   4.499   6.490  0.1339  1.0517  2.5161
 4111SOL    HW223967   2.052   4.481   6.520 -0.3399  0.1545  0.7151
 4112SOL     OW23968   0.459   1.425   4.754  0.4902  0.0960  0.5240
 4112SOL    HW123969   0.460   1.349   4.696  2.2509  0.4158  0.1261
 4112SOL    HW223970   0.472   1.382   4.838 -1.4977 -2.6892 -0.5821
 4113SOL     OW23971   1.951   2.451   4.185 -0.1652  0.2263  0.4608
 4113SOL    HW123972   2.006   2.394   4.131 -0.9700  0.0744 -0.2001
 4113SOL    HW223973   1.874   2.463   4.130  0.2305  0.4169 -0.0442
 4114SOL     OW23974   1.264   2.865   4.620 -0.2383  0.3954  0.5945
 4114SOL    HW123975   1.288   2.778   4.652  0.6113  1.3550  2.5491
 4114SOL    HW223976   1.332   2.921   4.658 -2.3297  2.2818  1.5642
 4115SOL     OW23977   1.391   0.277   4.679 -0.7380 -0.1019  0.0633
 4115SOL    HW123978   1.300   0.245   4.677 -0.8570  0.3404 -1.1506
 4115SOL    HW223979   1.390   0.336   4.754  0.3612  0.1176 -0.1088
 4116SOL     OW23980   1.008   2.614   7.912  0.0375  0.4467  0.1411
 4116SOL    HW123981   0.964   2.610   7.827 -0.8132  1.9234  0.5169
 4116SOL    HW223982   0.940   2.636   7.976 -2.0603  0.4903 -2.1240
 4117SOL     OW23983   2.550   0.737  15.426 -0.1467  0.2763  0.4160
 4117SOL    HW123984   2.503   0.721  15.344 -0.6116 -1.4873  1.0335
 4117SOL    HW223985   2.588   0.824  15.410 -0.7690  0.3088 -0.8520
 4118SOL     OW23986   1.493   0.260   8.276  0.0369 -0.2821  0.1898
 4118SOL    HW123987   1.536   0.270   8.191 -1.7819 -0.2853 -0.7342
 4118SOL    HW223988   1.400   0.270   8.260 -0.0207 -2.3660 -0.7387
 4119SOL     OW23989   2.435   2.411   1.805  0.2326 -0.3355  0.1415
 4119SOL    HW123990   2.527   2.437   1.806  0.2862 -0.5177 -0.0723
 4119SOL    HW223991   2.393   2.474   1.746  2.6393  0.5185 -0.6491
 4120SOL     OW23992   2.032   0.427   8.406 -0.3578  0.0560  0.3471
 4120SOL    HW123993   2.040   0.397   8.496 -0.5788 -0.1984  0.2834
 4120SOL    HW223994   1.937   0.414   8.402 -0.6489  2.0733  0.3383
 4121SOL     OW23995   0.335   2.023   1.121  0.1358 -0.5061 -0.1665
 4121SOL    HW123996   0.379   1.958   1.177 -0.8671 -1.2605 -0.2570
 4121SOL    HW223997   0.379   2.006   1.038  1.7170  0.7144  0.4248
 4122SOL     OW23998   4.549   2.794   6.515 -0.2383 -0.3804  0.2313
 4122SOL    HW123999   4.515   2.879   6.488 -0.1871 -0.1501  0.8918
 4122SOL    HW224000   4.473   2.738   6.531 -0.3434 -0.2202  0.2893
 4123SOL     OW24001   3.811   4.649  16.061 -0.5931 -0.7358  0.1580
 4123SOL    HW124002   3.734   4.677  16.013 -0.0230  1.9014  0.7718
 4123SOL    HW224003   3.801   4.691  16.147 -2.2201 -0.0842 -0.3637
 4124SOL     OW24004   3.852   3.884   3.612  0.4136 -0.2059 -0.5607
 4124SOL    HW124005   3.776   3.930   3.648  0.5113 -0.8705  0.4851
 4124SOL    HW224006   3.835   3.798   3.649  2.4954 -0.2160  0.3622
 4125SOL     OW24007   1.082   4.162   5.255 -0.2449 -0.0204  0.6009
 4125SOL    HW124008   0.996   4.131   5.284 -1.4345  2.1455 -0.6359
 4125SOL    HW224009   1.059   4.254   5.243  0.0455  0.0419  0.5148
 4126SOL     OW24010   3.224   2.868   4.944  0.7006  0.1282  0.1512
 4126SOL    HW124011   3.193   2.950   4.907 -2.2436 -0.9174  0.3142
 4126SOL    HW224012   3.313   2.896   4.964  0.8791 -1.2772  1.3970
 4127SOL     OW24013   2.235   0.837   7.741  0.1308  0.0387 -0.7046
 4127SOL    HW124014   2.325   0.811   7.761 -0.1101 -0.8555 -0.8036
 4127SOL    HW224015   2.252   0.887   7.661 -0.2958 -0.2476 -0.9692
 4128SOL     OW24016   0.044   0.869   1.512  0.3966  0.3821 -0.1495
 4128SOL    HW124017   0.140   0.868   1.512  0.3989  0.5308 -0.4737
 4128SOL    HW224018   0.035   0.780   1.546 -1.3183  1.1881  1.5112
 4129SOL     OW24019   4.408   0.298  11.248  0.2778 -0.1570 -0.3223
 4129SOL    HW124020   4.456   0.251  11.180 -0.5968 -0.9306 -0.3930
 4129SOL    HW224021   4.341   0.341  11.195 -0.7075 -0.4474  0.7064
 4130SOL     OW24022   2.942   0.075  17.333  0.9162 -0.2064  0.1466
 4130SOL    HW124023   2.993   4.730  17.333  2.4930  0.7759  0.8286
 4130SOL    HW224024   3.008   0.132  17.292 -2.1230  0.5784 -3.6422
 4131SOL     OW24025   3.783   1.570   6.600  0.7429 -0.6627  0.6209
 4131SOL    HW124026   3.720   1.501   6.625  0.3167 -0.4551  0.1361
 4131SOL    HW224027   3.816   1.538   6.516 -0.1471 -1.0204  0.4055
 4132SOL     OW24028   2.518   1.683   8.231 -0.0552 -0.1917  0.1145
 4132SOL    HW124029   2.438   1.645   8.268  0.0185  1.1811  1.7100
 4132SOL    HW224030   2.584   1.622   8.263  0.1845 -0.1447 -0.2867
 4133SOL     OW24031   3.613   2.486   6.542  0.1924 -0.3295  0.3712
 4133SOL    HW124032   3.666   2.519   6.470 -0.3403 -0.4581 -0.0836
 4133SOL    HW224033   3.669   2.412   6.567  0.6310 -0.5060 -1.0846
 4134SOL     OW24034   0.727   0.374   2.267  0.1048  0.2306  0.3433
 4134SOL    HW124035   0.790   0.431   2.222 -0.3632  1.5671  1.3842
 4134SOL    HW224036   0.726   0.295   2.214 -0.4601 -0.2019  1.0049
 4135SOL     OW24037   2.397   1.609   7.112 -0.2868 -0.4995 -0.1031
 4135SOL    HW124038   2.334   1.622   7.041 -2.7685 -1.2188  1.9854
 4135SOL    HW224039   2.352   1.652   7.185 -0.7792 -1.2048  0.0066
 4136SOL     OW24040   4.027   2.889  17.485  0.3122 -0.1601 -0.4147
 4136SOL    HW124041   4.087   2.925  17.551  0.7902 -0.0062 -0.9333
 4136SOL    HW224042   4.007   2.958  17.422  0.0625 -0.7380 -0.9679
 4137SOL     OW24043   4.026   1.260   6.094 -0.3627 -0.1271 -0.2493
 4137SOL    HW124044   3.984   1.337   6.056 -2.7611 -0.1358  2.3852
 4137SOL    HW224045   3.989   1.194   6.036  1.4332  0.6626 -2.2802
 4138SOL     OW24046   2.740   4.249   2.831 -0.4566  0.6365 -0.3850
 4138SOL    HW124047   2.685   4.219   2.904 -0.0384  0.9489  0.0556
 4138SOL    HW224048   2.745   4.160   2.797 -0.7462 -0.0739  1.4166
 4139SOL     OW24049   4.128   4.274   4.904  0.3444  0.6059  0.1358
 4139SOL    HW124050   4.180   4.344   4.943 -0.5481  0.8243  0.9420
 4139SOL    HW224051   4.200   4.214   4.886 -0.5443 -0.5743  0.5032
 4140SOL     OW24052   0.418   2.755   8.232  0.3428 -0.2254 -0.2463
 4140SOL    HW124053   0.404   2.731   8.324 -0.3426  0.1388 -0.2584
 4140SOL    HW224054   0.508   2.787   8.242  0.6621 -1.2456  0.2162
 4141SOL     OW24055   4.445   4.578   6.380  0.4757 -0.1057  0.2259
 4141SOL    HW124056   4.509   4.644   6.406  0.1777  0.4553 -0.4932
 4141SOL    HW224057   4.464   4.521   6.455  2.4116  0.7920  0.4135
 4142SOL     OW24058   2.672   0.592  12.172 -0.2254 -0.1324 -0.7075
 4142SOL    HW124059   2.609   0.623  12.237 -0.8835 -0.2777 -1.2672
 4142SOL    HW224060   2.621   0.558  12.098  0.6859  0.2623 -1.5059
 4143SOL     OW24061   2.855   2.385  11.696 -0.1268 -0.7004  0.5268
 4143SOL    HW124062   2.768   2.382  11.657 -0.9564 -0.4492  2.3236
 4143SOL    HW224063   2.835   2.389  11.790  1.1283  0.0971  0.7530
 4144SOL     OW24064   1.268   0.456   8.520  0.1190  0.3471 -0.1136
 4144SOL    HW124065   1.348   0.508   8.510  0.2241  0.3768  0.8980
 4144SOL    HW224066   1.228   0.505   8.592  2.2555 -1.0158  2.0053
 4145SOL     OW24067   3.889   3.175   6.016 -0.3398  0.3678  0.3598
 4145SOL    HW124068   3.859   3.086   6.035 -2.5039  0.9735 -0.2470
 4145SOL    HW224069   3.871   3.183   5.922 -0.4265  0.3384  0.3741
 4146SOL     OW24070   0.516   0.611   3.302  0.4009 -0.1048 -0.1223
 4146SOL    HW124071   0.587   0.608   3.365 -0.6991  0.4348  1.1363
 4146SOL    HW224072   0.447   0.625   3.366 -0.7029 -0.6818 -1.1775
 4147SOL     OW24073   0.457   4.281   1.718  0.1321 -0.3341 -0.3171
 4147SOL    HW124074   0.517   4.355   1.706 -1.1930  0.6437 -0.8034
 4147SOL    HW224075   0.515   4.205   1.722  1.8224  0.8858 -1.4031
 4148SOL     OW24076   3.939   0.310   6.751  0.1657  0.2133  0.0116
 4148SOL    HW124077   3.852   0.338   6.779 -0.4157 -0.4645 -1.1001
 4148SOL    HW224078   4.006   0.365   6.790 -1.8890  3.1094 -0.5470
 4149SOL     OW24079   0.615   1.221   8.140 -0.6938 -0.9311 -0.1487
 4149SOL    HW124080   0.650   1.243   8.227  0.8439 -0.2675 -0.9461
 4149SOL    HW224081   0.671   1.146   8.124 -2.0617 -2.0411  0.2552
 4150SOL     OW24082   4.190   2.415  15.422  0.3817  0.0756  0.7407
 4150SOL    HW124083   4.126   2.346  15.405  1.0374 -0.6671  1.3523
 4150SOL    HW224084   4.145   2.500  15.417 -1.7710 -0.9943  1.9943
 4151SOL     OW24085   1.755   0.357   8.351 -0.0276 -0.4683 -0.7912
 4151SOL    HW124086   1.672   0.310   8.343 -2.9022  4.3166  0.4876
 4151SOL    HW224087   1.718   0.441   8.381 -2.6120 -1.2795 -1.6927
 4152SOL     OW24088   2.567   4.524  12.858  0.3288  0.7092 -0.1315
 4152SOL    HW124089   2.639   4.564  12.810  0.7970  2.4511  2.0452
 4152SOL    HW224090   2.592   4.432  12.864 -2.5207 -0.1076 -0.6447
 4153SOL     OW24091   3.651   0.709   2.158 -0.2973  0.1344 -0.0708
 4153SOL    HW124092   3.605   0.701   2.241  1.2877 -1.8098  0.6209
 4153SOL    HW224093   3.658   0.805   2.153  0.2860  0.0264 -1.2870
 4154SOL     OW24094   1.789   2.735  16.811  0.4583  0.5031  0.4639
 4154SOL    HW124095   1.777   2.779  16.896 -0.9022 -1.1521  1.1294
 4154SOL    HW224096   1.749   2.651  16.835 -0.6559  0.8152 -0.2823
 4155SOL     OW24097   1.053   1.009  10.155  0.7584 -0.9866  0.5040
 4155SOL    HW124098   1.046   0.985  10.247  0.0775  1.5205  1.1207
 4155SOL    HW224099   1.016   1.098  10.157 -0.1058 -1.2980 -1.4887
 4156SOL     OW24100   1.427   1.500   9.922 -0.0587  0.3117 -0.1183
 4156SOL    HW124101   1.496   1.513   9.988 -1.4976 -0.5509  1.5455
 4156SOL    HW224102   1.373   1.577   9.940 -1.0865 -1.2043  3.2260
 4157SOL     OW24103   3.580   2.097   6.527 -0.4804  0.2621 -0.4535
 4157SOL    HW124104   3.663   2.137   6.500 -0.2295 -0.7488 -1.1969
 4157SOL    HW224105   3.609   2.070   6.614 -0.3350  0.8027 -0.3296
 4158SOL     OW24106   1.645   0.711   6.964  0.3690  0.2594 -0.6072
 4158SOL    HW124107   1.594   0.688   7.042 -1.7126  3.4589 -1.0162
 4158SOL    HW224108   1.720   0.654   6.982 -0.8227 -1.3051 -0.5397
 4159SOL     OW24109   2.190   0.282  10.251  0.0647 -0.7097  0.2095
 4159SOL    HW124110   2.114   0.237  10.288  0.0535 -0.3746  0.6033
 4159SOL    HW224111   2.156   0.372  10.255  0.9974 -0.2722 -1.7514
 4160SOL     OW24112   2.276   0.424   5.404 -0.2520 -0.4373 -0.5684
 4160SOL    HW124113   2.291   0.363   5.332 -0.5761 -1.2073  0.0044
 4160SOL    HW224114   2.223   0.365   5.459 -0.1292 -0.4894 -0.5053
 4161SOL     OW24115   1.996   0.437  17.486  0.1906  0.4408 -0.2146
 4161SOL    HW124116   1.943   0.421  17.563 -0.4609 -0.0458 -0.7689
 4161SOL    HW224117   1.931   0.483  17.433  0.3019  1.6701  0.7072
 4162SOL     OW24118   3.910   2.365   9.859  0.0938  0.0756  0.0791
 4162SOL    HW124119   3.816   2.366   9.844 -0.1596 -0.3461  1.5659
 4162SOL    HW224120   3.936   2.403   9.943 -2.0758 -1.2461  1.3648
 4163SOL     OW24121   4.077   1.874   8.389  0.1260 -0.4620 -0.2076
 4163SOL    HW124122   4.058   1.889   8.482  1.6033  2.0194 -0.2806
 4163SOL    HW224123   4.078   1.779   8.390 -1.8396 -0.4798  1.5785
 4164SOL     OW24124   1.463   0.161  14.629 -0.0924  0.0823 -0.0629
 4164SOL    HW124125   1.386   0.185  14.680 -0.7797 -1.6742 -0.2862
 4164SOL    HW224126   1.533   0.200  14.681  1.6775 -1.0711 -1.5789
 4165SOL     OW24127   1.846   1.190  15.181 -0.0855 -0.7418 -0.2883
 4165SOL    HW124128   1.889   1.123  15.128  0.4508 -1.5364  1.1389
 4165SOL    HW224129   1.839   1.138  15.262  0.9512 -1.1045 -0.4211
 4166SOL     OW24130   2.949   1.908   2.042  0.0749 -0.0421  0.0100
 4166SOL    HW124131   2.901   1.858   2.108  2.0098 -0.1110  1.3662
 4166SOL    HW224132   2.939   1.846   1.969  1.6716  3.3708 -3.1004
 4167SOL     OW24133   1.620   3.294   0.070 -0.5587  0.1381  0.0857
 4167SOL    HW124134   1.668   3.229   0.122  0.7386 -0.5108 -1.9342
 4167SOL    HW224135   1.547   3.240   0.038 -0.3045 -0.7361  0.9612
 4168SOL     OW24136   3.060   2.756   4.145 -0.8173  0.1665  0.2852
 4168SOL    HW124137   3.017   2.754   4.059  1.2615 -2.4424 -0.7128
 4168SOL    HW224138   3.111   2.836   4.136 -1.2226  0.2526 -1.3885
 4169SOL     OW24139   3.541   0.427   1.780 -0.1336  0.5191  0.1683
 4169SOL    HW124140   3.463   0.463   1.737 -0.3347  0.3869  0.4208
 4169SOL    HW224141   3.550   0.344   1.733 -2.6753  0.4835 -0.2495
 4170SOL     OW24142   0.212   3.414   4.090  0.2853  0.1344 -0.1666
 4170SOL    HW124143   0.282   3.410   4.025  0.7069  0.6412  0.2550
 4170SOL    HW224144   0.248   3.484   4.145 -0.4344  1.3718 -1.2721
 4171SOL     OW24145   0.616   0.565   8.435  0.0394 -0.0156  0.4977
 4171SOL    HW124146   0.685   0.541   8.373  1.0190  3.5662  0.2286
 4171SOL    HW224147   0.613   0.492   8.497 -1.3664 -1.6434 -1.4869
 4172SOL     OW24148   0.849   4.302   5.424 -0.3773 -0.6897  0.0930
 4172SOL    HW124149   0.818   4.221   5.383  0.3156 -1.0739  0.3321
 4172SOL    HW224150   0.869   4.266   5.510 -0.6152 -0.1170  0.3937
 4173SOL     OW24151   1.562   3.599   9.607  0.3016  0.7313  0.3433
 4173SOL    HW124152   1.630   3.548   9.563 -0.5883 -0.7548  0.7048
 4173SOL    HW224153   1.609   3.607   9.690  3.2249  1.7736 -1.4117
 4174SOL     OW24154   3.987   0.348   8.572 -0.5272  0.2349 -0.4564
 4174SOL    HW124155   4.068   0.300   8.584 -1.0357  0.4373  3.5869
 4174SOL    HW224156   4.028   0.427   8.536 -1.4554  1.0628  0.2922
 4175SOL     OW24157   3.987   0.682  15.481  0.4451 -0.1288 -0.3330
 4175SOL    HW124158   3.974   0.608  15.422 -1.2270  0.9328 -1.2937
 4175SOL    HW224159   3.895   0.707  15.492  0.1908 -1.2923  0.1476
 4176SOL     OW24160   0.564   4.489  11.503 -0.6810  0.2454 -0.0838
 4176SOL    HW124161   0.498   4.451  11.561 -1.2568  0.3646 -0.6665
 4176SOL    HW224162   0.528   4.469  11.417  0.0279 -1.4524  0.0261
 4177SOL     OW24163   3.691   4.238  15.584  0.2688 -0.5889 -0.2992
 4177SOL    HW124164   3.650   4.155  15.559 -0.0921 -0.0972 -1.3476
 4177SOL    HW224165   3.770   4.238  15.530  0.9006  0.2869  0.6092
 4178SOL     OW24166   2.962   4.734   6.027  0.1461 -0.1321  0.2552
 4178SOL    HW124167   3.049   0.038   6.023  0.6870 -1.2943  0.6913
 4178SOL    HW224168   2.949   4.706   5.936  1.0627  1.4524 -0.3611
 4179SOL     OW24169   3.763   2.332   4.571 -0.5198  0.7835  0.4795
 4179SOL    HW124170   3.830   2.347   4.638  1.9318 -1.7725 -1.4195
 4179SOL    HW224171   3.805   2.381   4.500 -0.9837 -0.5528 -0.7178
 4180SOL     OW24172   1.959   0.540   3.904 -0.1711  0.0117  0.3577
 4180SOL    HW124173   2.036   0.583   3.942 -0.6337  1.6637 -0.6084
 4180SOL    HW224174   1.885   0.599   3.916  0.6384  0.9793  0.5850
 4181SOL     OW24175   2.473   1.029  15.661  0.2761  0.1676  0.6597
 4181SOL    HW124176   2.401   1.040  15.722  0.0568  0.1592  0.4027
 4181SOL    HW224177   2.503   0.940  15.680  0.3525  0.3557  1.3832
 4182SOL     OW24178   1.476   2.280   7.837  0.2398 -0.0837 -0.3711
 4182SOL    HW124179   1.447   2.190   7.827  2.3061 -0.5507 -2.0529
 4182SOL    HW224180   1.415   2.302   7.907 -1.6983 -2.6128 -1.2651
 4183SOL     OW24181   4.250   0.999  12.533  0.2354  0.0201 -0.3559
 4183SOL    HW124182   4.214   0.910  12.532  1.6840 -0.5651 -0.5596
 4183SOL    HW224183   4.291   0.992  12.446 -1.7582  2.1536 -1.4516
 4184SOL     OW24184   1.603   1.066  12.948 -0.3077 -0.5239  0.0516
 4184SOL    HW124185   1.533   1.131  12.949 -1.3502 -1.6264 -1.6355
 4184SOL    HW224186   1.673   1.114  12.903 -0.2060 -0.4909  0.2478
 4185SOL     OW24187   0.001   1.009   4.946  0.0134  0.4780 -0.1073
 4185SOL    HW124188   4.707   0.921   4.922  0.0831  0.2841  0.5340
 4185SOL    HW224189   0.074   1.006   5.008 -0.2387  0.9849  0.2145
 4186SOL     OW24190   1.851   0.149   8.088 -0.2742  0.5689  0.2750
 4186SOL    HW124191   1.780   0.211   8.104 -0.0712  0.7803  0.3610
 4186SOL    HW224192   1.818   0.066   8.122  1.3938  0.8347  2.5226
 4187SOL     OW24193   2.458   1.398   8.145 -0.0312  0.2613  0.5476
 4187SOL    HW124194   2.513   1.423   8.220  0.7718  0.3630 -0.0796
 4187SOL    HW224195   2.405   1.476   8.130  0.1457  0.2615 -0.0686
 4188SOL     OW24196   0.126   2.255   4.684  0.0621 -0.5756 -0.4177
 4188SOL    HW124197   0.084   2.295   4.760 -0.0146  0.8131 -1.1897
 4188SOL    HW224198   0.113   2.324   4.619  0.3512  0.1287  0.2637
 4189SOL     OW24199   2.780   4.350   3.421 -0.4200  0.5441  0.0982
 4189SOL    HW124200   2.716   4.399   3.472 -1.1630 -0.8471  0.5062
 4189SOL    HW224201   2.853   4.384   3.472  0.5494 -2.1190  0.4811
 4190SOL     OW24202   3.270   0.593   4.761  0.1882  0.7774  0.3231
 4190SOL    HW124203   3.180   0.582   4.729 -0.1714  0.0331  1.5712
 4190SOL    HW224204   3.236   0.656   4.825 -0.7935 -1.0067  1.5292
 4191SOL     OW24205   3.443   3.284   0.621 -0.0537  0.4139  0.4249
 4191SOL    HW124206   3.538   3.278   0.630  0.1238  1.0673 -1.0195
 4191SOL    HW224207   3.429   3.376   0.602 -1.3152  0.4066  1.3161
 4192SOL     OW24208   4.250   2.937  12.006 -0.3302 -0.6009 -0.3720
 4192SOL    HW124209   4.235   3.023  12.045 -1.5727  0.1500 -2.5310
 4192SOL    HW224210   4.191   2.876  12.050 -0.4199  1.3547  2.1786
 4193SOL     OW24211   1.252   1.618   4.961  0.5447  0.2196  0.3665
 4193SOL    HW124212   1.191   1.562   5.009 -0.1549  1.3165  0.7596
 4193SOL    HW224213   1.322   1.561   4.929  1.2424  0.5934  1.2190
 4194SOL     OW24214   2.230   3.463   3.732  0.0282 -0.3600 -0.4463
 4194SOL    HW124215   2.144   3.435   3.763 -0.9686  1.4565 -1.5454
 4194SOL    HW224216   2.205   3.521   3.660 -0.3587 -1.4051 -1.1530
 4195SOL     OW24217   4.004   1.137   1.986  0.5068 -0.4173 -0.6157
 4195SOL    HW124218   3.967   1.076   1.922 -1.9227  1.6786 -1.1927
 4195SOL    HW224219   3.944   1.133   2.060  1.1206  0.7500 -0.0538
 4196SOL     OW24220   2.018   3.669  11.262 -0.5156  0.3702  0.1321
 4196SOL    HW124221   2.007   3.613  11.339 -0.5529  2.8650  1.9879
 4196SOL    HW224222   2.069   3.733  11.312 -1.5505  0.5158  1.0227
 4197SOL     OW24223   0.856   3.190   3.404 -0.5046 -0.5940 -0.4517
 4197SOL    HW124224   0.846   3.099   3.432 -1.4632 -0.3541 -0.0207
 4197SOL    HW224225   0.938   3.189   3.355 -0.3420 -0.8392 -0.1757
 4198SOL     OW24226   1.951   1.185  10.293 -0.5864 -0.0730 -0.3035
 4198SOL    HW124227   1.988   1.153  10.376 -0.3909  0.9124 -0.0119
 4198SOL    HW224228   1.874   1.129  10.289 -1.0335  0.5001  0.4337
 4199SOL     OW24229   4.279   1.317   2.639  0.4306  0.0205  0.2273
 4199SOL    HW124230   4.213   1.248   2.637  2.2551 -1.6413 -2.1807
 4199SOL    HW224231   4.348   1.285   2.581 -0.5519  0.1343 -0.9956
 4200SOL     OW24232   3.517   1.954  17.313 -0.7907 -0.5775  0.2237
 4200SOL    HW124233   3.490   2.045  17.302 -0.9076 -0.6057  0.2837
 4200SOL    HW224234   3.611   1.958  17.294 -0.7964  0.2603  0.4032
 4201SOL     OW24235   1.596   2.348  10.759 -0.1438  0.2648  0.6351
 4201SOL    HW124236   1.570   2.423  10.705 -1.2438  0.5382  1.5479
 4201SOL    HW224237   1.637   2.294  10.691  0.2837  0.6958  0.5499
 4202SOL     OW24238   3.912   4.483   6.714 -0.4506 -1.0464  0.4285
 4202SOL    HW124239   3.818   4.470   6.706 -0.9099  0.8774  2.7984
 4202SOL    HW224240   3.944   4.459   6.627  0.0769  2.0908 -0.2580
 4203SOL     OW24241   4.323   1.690  16.318 -0.4020  0.4795  0.3406
 4203SOL    HW124242   4.260   1.701  16.247 -2.2487 -0.7213  1.8032
 4203SOL    HW224243   4.378   1.768  16.321 -0.4004  0.4537  1.0558
 4204SOL     OW24244   2.758   3.595   5.459 -0.2439 -0.6950  0.2550
 4204SOL    HW124245   2.686   3.635   5.507  2.1968  2.7792  1.0718
 4204SOL    HW224246   2.729   3.507   5.436 -0.4922 -0.9386  1.5259
 4205SOL     OW24247   1.515   3.843   3.059 -0.1516 -0.0496 -0.3508
 4205SOL    HW124248   1.476   3.922   3.021  1.2911 -0.0629 -1.8341
 4205SOL    HW224249   1.592   3.823   3.006 -0.8556 -0.8221 -1.0683
 4206SOL     OW24250   1.241   4.469   8.946 -0.2668  0.6238  0.6893
 4206SOL    HW124251   1.254   4.457   9.040  2.2973  0.9026  0.3796
 4206SOL    HW224252   1.267   4.382   8.914 -1.5708  0.5076 -0.0504
 4207SOL     OW24253   1.550   4.412   1.150  0.0816 -0.3319 -0.0083
 4207SOL    HW124254   1.535   4.324   1.113 -1.4291  0.5862 -1.5669
 4207SOL    HW224255   1.504   4.416   1.234  1.5365 -2.3097  0.8841
 4208SOL     OW24256   2.308   3.737  13.018 -0.3262  0.1297  0.2187
 4208SOL    HW124257   2.342   3.818  12.981 -2.2428  1.9400  2.4741
 4208SOL    HW224258   2.345   3.731  13.106  0.2552 -3.5332 -0.2765
 4209SOL     OW24259   3.366   3.450   2.850 -0.5385  0.1960 -0.2164
 4209SOL    HW124260   3.314   3.508   2.906 -1.2200  0.0127 -0.6603
 4209SOL    HW224261   3.308   3.374   2.853 -0.1940 -0.0962 -1.0601
 4210SOL     OW24262   2.074   0.540  10.305 -0.3339 -0.2749 -0.5991
 4210SOL    HW124263   2.003   0.527  10.368  0.7116 -0.4986  0.5386
 4210SOL    HW224264   2.016   0.540  10.228  1.5647 -0.5966 -2.0176
 4211SOL     OW24265   2.718   2.705   5.230 -0.1405 -0.2380  0.2187
 4211SOL    HW124266   2.753   2.777   5.283 -1.1159 -0.6126  1.3727
 4211SOL    HW224267   2.714   2.634   5.293  0.2900 -0.2623  0.2213
 4212SOL     OW24268   3.916   1.955   2.447  0.1288 -0.1962  0.5830
 4212SOL    HW124269   3.844   1.898   2.476  2.0438 -1.3936  2.9874
 4212SOL    HW224270   3.900   1.969   2.354  0.9913 -0.4665  0.3994
 4213SOL     OW24271   3.240   3.530  17.291 -0.4302  0.4366  0.6875
 4213SOL    HW124272   3.217   3.481  17.212 -0.5718 -0.0918  1.0560
 4213SOL    HW224273   3.202   3.485  17.367  0.0299 -1.4189 -0.1866
 4214SOL     OW24274   4.328   2.726  13.761  0.9100  0.3896 -0.1622
 4214SOL    HW124275   4.343   2.715  13.855 -2.2628  0.6270  0.3925
 4214SOL    HW224276   4.247   2.676  13.745  2.0287 -0.5805 -2.8925
 4215SOL     OW24277   3.135   0.181  10.751  0.4588 -0.0793  0.0649
 4215SOL    HW124278   3.198   0.172  10.680 -1.8503  0.0854 -1.9767
 4215SOL    HW224279   3.188   0.155  10.827  0.4310 -0.1705  0.0532
 4216SOL     OW24280   1.374   2.166   4.359 -0.8874 -0.1922 -0.1299
 4216SOL    HW124281   1.381   2.158   4.264  1.5154  0.9746 -0.0436
 4216SOL    HW224282   1.285   2.138   4.378 -0.3671 -1.3103  0.6308
 4217SOL     OW24283   0.454   4.046   7.008 -0.3603  0.1214  0.1748
 4217SOL    HW124284   0.531   4.070   7.059 -0.9983 -0.9634  1.6811
 4217SOL    HW224285   0.382   4.072   7.066  1.2801  0.4048  2.0750
 4218SOL     OW24286   0.878   0.553  10.523 -0.2894  0.1388  0.2125
 4218SOL    HW124287   0.873   0.462  10.496  0.8173 -0.0431  0.5926
 4218SOL    HW224288   0.971   0.575  10.527 -0.3279 -0.1110  2.5549
 4219SOL     OW24289   3.853   2.055   4.592  0.5123 -0.1465  0.4174
 4219SOL    HW124290   3.817   2.006   4.666 -0.8460 -0.3080 -0.3580
 4219SOL    HW224291   3.797   2.133   4.595  0.9094  0.1128  1.0919
 4220SOL     OW24292   2.815   3.550   9.037 -0.1843 -0.3951  0.0060
 4220SOL    HW124293   2.795   3.541   9.130 -0.2364 -0.3435 -0.0001
 4220SOL    HW224294   2.755   3.624   9.028  1.0452  0.9122  2.5237
 4221SOL     OW24295   2.930   2.325   8.306 -0.9301 -0.6900 -0.1060
 4221SOL    HW124296   2.998   2.260   8.288 -1.6000 -1.0498 -1.3471
 4221SOL    HW224297   2.979   2.391   8.355  0.6971 -2.1612  0.2464
 4222SOL     OW24298   1.088   2.006   8.227  0.1724  0.4441  0.1436
 4222SOL    HW124299   1.015   2.068   8.235 -0.6292 -0.6016  0.9676
 4222SOL    HW224300   1.161   2.055   8.264 -2.1563  2.2670  2.2653
 4223SOL     OW24301   1.196   3.333   8.329 -0.5181  0.5303  0.0800
 4223SOL    HW124302   1.206   3.355   8.421 -0.5685  3.8954 -0.7323
 4223SOL    HW224303   1.101   3.340   8.318 -0.3526  1.8437 -0.5623
 4224SOL     OW24304   4.661   3.991   4.229  0.2214  0.1038 -0.3868
 4224SOL    HW124305   4.619   4.065   4.185  1.3281  0.1785 -1.2988
 4224SOL    HW224306   4.586   3.941   4.263 -0.4287 -0.2454 -2.3647
 4225SOL     OW24307   0.183   4.492  11.387 -0.2149  0.3340  0.1033
 4225SOL    HW124308   0.139   4.562  11.435 -1.0379  0.9000 -1.4839
 4225SOL    HW224309   0.114   4.438  11.349  1.0100  0.6951 -2.6167
 4226SOL     OW24310   0.249   3.259   6.532  0.5114 -0.0696 -0.0102
 4226SOL    HW124311   0.284   3.224   6.614  1.8738  0.3019 -0.4337
 4226SOL    HW224312   0.259   3.190   6.467  0.0306 -1.4731  1.4203
 4227SOL     OW24313   2.726   2.043   4.327 -0.1481 -0.2713  0.0799
 4227SOL    HW124314   2.653   1.988   4.297 -0.6697  0.6594 -0.3564
 4227SOL    HW224315   2.689   2.093   4.400  0.8576 -0.6078  0.8051
 4228SOL     OW24316   1.654   1.601   9.477  0.1914  0.6993  0.1996
 4228SOL    HW124317   1.643   1.690   9.511  0.4449 -0.0281  2.1712
 4228SOL    HW224318   1.618   1.558   9.555 -1.1809  0.7115 -0.4276
 4229SOL     OW24319   1.601   2.288   6.232 -0.3529  0.1236 -0.1812
 4229SOL    HW124320   1.544   2.360   6.261  1.2100  1.6112 -0.7615
 4229SOL    HW224321   1.596   2.237   6.312 -1.0953 -2.0868 -1.6523
 4230SOL     OW24322   0.276   2.516   6.774  0.3387 -0.6684 -0.0654
 4230SOL    HW124323   0.281   2.441   6.716  2.1012 -0.7629  0.1826
 4230SOL    HW224324   0.202   2.562   6.736  0.9868  2.2063  2.1434
 4231SOL     OW24325   3.722   1.595  16.280  0.0680  0.0258  0.4493
 4231SOL    HW124326   3.740   1.513  16.235 -1.5656 -0.0436 -0.1004
 4231SOL    HW224327   3.627   1.591  16.269  0.2897  0.0829 -1.3519
 4232SOL     OW24328   1.672   1.926   2.903  0.0216 -0.0111  0.1348
 4232SOL    HW124329   1.740   1.954   2.964 -1.5304  2.5352  0.6745
 4232SOL    HW224330   1.599   1.979   2.935  0.2408 -0.0263  0.6596
 4233SOL     OW24331   2.538   4.258  15.455 -0.6104 -0.1336  0.2335
 4233SOL    HW124332   2.581   4.337  15.489 -0.2454 -0.9698  1.7166
 4233SOL    HW224333   2.557   4.187  15.516  3.7874  1.4138  0.7047
 4234SOL     OW24334   0.730   1.457   4.113 -0.0148 -0.2093 -0.1132
 4234SOL    HW124335   0.691   1.373   4.136 -1.2655  1.1024  2.5547
 4234SOL    HW224336   0.653   1.506   4.085  1.1094  2.0360  0.7178
 4235SOL     OW24337   2.638   1.265   3.453 -0.0724 -0.1630 -0.0326
 4235SOL    HW124338   2.693   1.340   3.478  0.2601 -0.0553 -1.1003
 4235SOL    HW224339   2.602   1.297   3.370 -1.0216 -1.2944 -0.0458
 4236SOL     OW24340   3.264   1.203   3.053  0.3961 -0.2807 -0.4525
 4236SOL    HW124341   3.173   1.217   3.076  0.4774  1.0215 -0.8627
 4236SOL    HW224342   3.289   1.293   3.030 -0.8471 -0.0440 -0.8456
 4237SOL     OW24343   3.970   1.226  12.977 -0.1375 -0.3019  0.6266
 4237SOL    HW124344   3.919   1.155  13.017 -1.0250  0.9699  1.7763
 4237SOL    HW224345   4.046   1.221  13.034  1.0279  0.4162 -0.8658
 4238SOL     OW24346   1.472   1.435  10.692 -0.4084  0.2450 -0.3970
 4238SOL    HW124347   1.474   1.523  10.657 -0.7610 -0.4636 -2.1952
 4238SOL    HW224348   1.558   1.447  10.731  0.3585 -2.4307 -1.2156
 4239SOL     OW24349   2.721   0.741  11.755 -0.2932  0.4314 -0.6690
 4239SOL    HW124350   2.759   0.824  11.783  2.1866 -1.2316  0.8799
 4239SOL    HW224351   2.662   0.764  11.683 -1.9251 -2.5166 -0.2392
 4240SOL     OW24352   4.649   3.094  11.958 -0.5517  0.3196 -0.1511
 4240SOL    HW124353   4.613   3.048  11.883  2.2696 -2.5415  0.2232
 4240SOL    HW224354   4.728   3.042  11.973 -0.4443 -0.0862 -2.2223
 4241SOL     OW24355   1.188   3.658   3.391  0.1517  0.0002 -0.1132
 4241SOL    HW124356   1.258   3.629   3.332  2.0981  3.5242  0.4552
 4241SOL    HW224357   1.216   3.734   3.442  0.4620 -1.7430  2.3130
 4242SOL     OW24358   4.132   3.944  10.878  0.4864 -0.1961  0.0636
 4242SOL    HW124359   4.222   3.951  10.847  1.0552 -1.7822  1.3585
 4242SOL    HW224360   4.136   3.933  10.973 -0.3288  1.9235  0.3371
 4243SOL     OW24361   2.022   3.394   3.411 -0.2670  0.1764  0.3173
 4243SOL    HW124362   1.954   3.398   3.344  1.4785 -2.6495 -1.6448
 4243SOL    HW224363   2.069   3.465   3.366 -0.7696 -0.6780 -1.5633
 4244SOL     OW24364   2.881   3.420  11.885 -0.1923  0.9253 -0.5378
 4244SOL    HW124365   2.961   3.465  11.914  0.2031  0.4712 -0.9382
 4244SOL    HW224366   2.847   3.500  11.845 -1.2588  0.2138 -1.0388
 4245SOL     OW24367   2.308   2.916   6.290  0.3542 -0.1742 -0.0543
 4245SOL    HW124368   2.246   2.910   6.362 -0.4035  1.1446 -0.5989
 4245SOL    HW224369   2.385   2.907   6.345  1.6709  1.0651 -1.7032
 4246SOL     OW24370   2.065   1.560   6.071 -0.0614  0.7760 -0.3671
 4246SOL    HW124371   2.035   1.498   6.137 -1.9280  0.5091 -1.4845
 4246SOL    HW224372   2.009   1.548   5.995 -1.5333  1.0014  0.6957
 4247SOL     OW24373   1.754   2.258  12.600 -0.2819  0.1706 -0.1868
 4247SOL    HW124374   1.810   2.283  12.526  0.0292 -1.6154 -0.5573
 4247SOL    HW224375   1.790   2.172  12.624 -2.8716 -0.0009  3.1579
 4248SOL     OW24376   3.476   3.064  15.826  0.1080 -0.3214  0.1293
 4248SOL    HW124377   3.393   3.053  15.780  0.5674  2.6173 -1.4240
 4248SOL    HW224378   3.454   3.013  15.903  0.7956  0.0856  0.5956
 4249SOL     OW24379   1.174   1.663   6.051 -0.2483  0.2506  0.1198
 4249SOL    HW124380   1.126   1.694   5.975  1.0776  2.0922  0.0518
 4249SOL    HW224381   1.160   1.568   6.049  0.9881  0.0666  0.0981
 4250SOL     OW24382   1.538   4.336   7.387 -0.3354  0.0271 -0.1317
 4250SOL    HW124383   1.489   4.361   7.464  1.1295  0.6320  0.6087
 4250SOL    HW224384   1.477   4.289   7.330 -1.5440  0.4233  0.8555
 4251SOL     OW24385   0.537   3.719   0.024  0.2009 -0.4074  0.2586
 4251SOL    HW124386   0.525   3.782  17.693 -2.4183 -1.1813  0.0118
 4251SOL    HW224387   0.603   3.760   0.079  1.0240 -0.5151 -0.6458
 4252SOL     OW24388   2.013   4.368  16.332  0.7338  0.3064 -0.6981
 4252SOL    HW124389   2.077   4.398  16.396 -0.1120  0.5974  0.0093
 4252SOL    HW224390   2.067   4.302  16.288  1.2394 -0.1143  0.5482
 4253SOL     OW24391   0.255   4.644   3.456 -0.2134  0.2684  0.9332
 4253SOL    HW124392   0.349   4.649   3.438 -0.5663  0.8449 -0.7781
 4253SOL    HW224393   0.256   4.705   3.529 -0.1150 -0.4809  1.5583
 4254SOL     OW24394   4.422   0.727   2.255  0.0448  0.0502  0.2485
 4254SOL    HW124395   4.488   0.790   2.280 -0.0674 -0.1937  1.1616
 4254SOL    HW224396   4.404   0.755   2.166 -1.1497  2.6403  1.3174
 4255SOL     OW24397   2.440   3.357  10.152 -0.5037  0.2794 -0.4369
 4255SOL    HW124398   2.449   3.371  10.246 -0.2391 -3.2650  0.0712
 4255SOL    HW224399   2.351   3.324  10.148 -0.5369  0.6732 -2.9107
 4256SOL     OW24400   2.528   0.766   8.241  0.1418 -0.8367  0.3059
 4256SOL    HW124401   2.570   0.775   8.155 -0.2305 -0.1027  0.1985
 4256SOL    HW224402   2.604   0.753   8.297  1.5618  1.8136 -1.0225
 4257SOL     OW24403   1.091   0.019   5.201  0.0022 -0.2204 -0.5389
 4257SOL    HW124404   1.126   4.665   5.198  1.3035  0.2675  0.4562
 4257SOL    HW224405   1.004   0.008   5.241 -1.1807  0.6530 -2.8417
 4258SOL     OW24406   2.622   3.182   8.126 -0.0448  0.2980 -0.2198
 4258SOL    HW124407   2.548   3.166   8.067 -0.7479  2.8426 -0.0258
 4258SOL    HW224408   2.602   3.260   8.177  2.1221  0.1473  0.8329
 4259SOL     OW24409   0.799   2.774   7.701  0.0696  0.4821 -0.0571
 4259SOL    HW124410   0.732   2.755   7.766 -0.2533 -0.4526 -0.6697
 4259SOL    HW224411   0.771   2.725   7.624 -0.9716  1.4188 -0.2741
 4260SOL     OW24412   1.246   2.154   6.092 -0.3246  0.4094 -0.0182
 4260SOL    HW124413   1.328   2.115   6.062 -0.0762 -0.3295  1.5698
 4260SOL    HW224414   1.198   2.145   6.010  0.6151 -2.4626 -0.2580
 4261SOL     OW24415   1.394   2.386   4.542  0.0007 -0.5611  0.1955
 4261SOL    HW124416   1.421   2.447   4.473  0.0918  0.6126  1.2810
 4261SOL    HW224417   1.388   2.309   4.485  0.9126 -0.1498 -0.4710
 4262SOL     OW24418   2.844   2.918  11.136 -0.0445  0.2888 -0.1399
 4262SOL    HW124419   2.865   2.894  11.226  0.7858 -1.1123 -0.7025
 4262SOL    HW224420   2.748   2.908  11.131 -0.4129  2.7377  2.1136
 4263SOL     OW24421   3.724   4.140   4.967 -0.5268 -0.1593  0.0670
 4263SOL    HW124422   3.764   4.149   5.054  2.0182  0.0407 -1.1234
 4263SOL    HW224423   3.795   4.101   4.917 -1.5292 -1.9189  0.0427
 4264SOL     OW24424   3.264   3.192   1.634 -0.0929 -0.0700  0.0337
 4264SOL    HW124425   3.190   3.136   1.659 -0.5877  1.3807  1.7980
 4264SOL    HW224426   3.302   3.135   1.566 -3.0314 -1.5241 -0.3901
 4265SOL     OW24427   1.690   3.490   0.235  0.1359  0.3159 -0.0706
 4265SOL    HW124428   1.666   3.422   0.171  0.3683 -0.2061  0.3955
 4265SOL    HW224429   1.599   3.521   0.236  0.2670  0.6890  0.2582
 4266SOL     OW24430   3.886   3.545  13.903  0.3357  0.2010  0.3562
 4266SOL    HW124431   3.905   3.451  13.910  1.1264  0.3087 -0.2861
 4266SOL    HW224432   3.976   3.577  13.903  0.1212  0.7902  0.9351
 4267SOL     OW24433   3.160   4.537   9.110  0.5707  0.3484  0.2231
 4267SOL    HW124434   3.104   4.547   9.186  2.4043 -0.6656  1.6911
 4267SOL    HW224435   3.233   4.488   9.146  1.2750  1.0522 -0.2307
 4268SOL     OW24436   2.005   2.781   3.921 -0.1361 -0.6750  1.0266
 4268SOL    HW124437   1.968   2.861   3.884 -1.6099 -1.2888  1.1992
 4268SOL    HW224438   1.963   2.719   3.862 -1.7112 -0.1793  1.6328
 4269SOL     OW24439   4.632   2.078   5.413  0.2186 -0.4730  0.5578
 4269SOL    HW124440   4.711   2.029   5.392 -0.6402 -2.5810  2.3657
 4269SOL    HW224441   4.667   2.157   5.372 -1.2607 -0.3803 -0.5111
 4270SOL     OW24442   3.584   3.676   4.097  0.0127 -0.5087 -0.0865
 4270SOL    HW124443   3.614   3.684   4.188  2.2812  0.3515 -0.8977
 4270SOL    HW224444   3.494   3.708   4.099  0.4931  0.7442  1.3468
 4271SOL     OW24445   0.337   1.066   1.878 -0.1776  0.1808  0.2478
 4271SOL    HW124446   0.249   1.064   1.915 -0.2216  1.7305  0.2096
 4271SOL    HW224447   0.369   0.978   1.900  1.9222  1.1482  1.0639
 4272SOL     OW24448   0.555   3.807   9.635  0.1060 -0.3449 -0.0203
 4272SOL    HW124449   0.576   3.847   9.720 -0.4177 -1.0413  0.4420
 4272SOL    HW224450   0.467   3.842   9.623 -0.2835 -1.5328 -0.5776
 4273SOL     OW24451   1.145   0.716   2.561  0.0651  0.5808  0.0465
 4273SOL    HW124452   1.170   0.668   2.640  0.0692  1.7252  0.7394
 4273SOL    HW224453   1.205   0.699   2.489 -0.8950 -0.6375 -0.4699
 4274SOL     OW24454   4.424   0.602  17.133 -0.1787 -0.3596 -0.4747
 4274SOL    HW124455   4.505   0.645  17.162 -0.3098 -0.2661 -0.2554
 4274SOL    HW224456   4.468   0.537  17.077 -1.2861 -2.8404  1.5301
 4275SOL     OW24457   2.251   2.968  11.504  0.4029 -0.0447 -0.1059
 4275SOL    HW124458   2.158   2.989  11.514 -0.4253 -2.7610 -2.0465
 4275SOL    HW224459   2.265   2.984  11.598  0.9411 -0.0838 -0.1801
 4276SOL     OW24460   4.147   0.080  14.662 -0.0578  0.3025 -0.2563
 4276SOL    HW124461   4.182   4.734  14.698 -2.4954 -1.4213 -1.8762
 4276SOL    HW224462   4.215   0.097  14.597  0.6640  0.4791  0.5377
 4277SOL     OW24463   4.723   2.594  15.695  0.3774 -0.3400 -0.1118
 4277SOL    HW124464   0.050   2.521  15.694 -1.1854 -1.6641 -0.0694
 4277SOL    HW224465   4.725   2.621  15.603 -0.9283 -0.1619 -0.0922
 4278SOL     OW24466   1.730   0.826  17.740  0.7493 -0.0428 -0.3118
 4278SOL    HW124467   1.730   0.731   0.014  1.9534  0.2203  1.3588
 4278SOL    HW224468   1.670   0.836  17.666 -1.5362  2.5058  1.8781
 4279SOL     OW24469   3.037   1.007  16.421 -0.7750  0.0636  0.1737
 4279SOL    HW124470   2.996   0.993  16.336  0.1323 -1.5430 -0.0056
 4279SOL    HW224471   3.130   0.988  16.411 -0.5518  0.2069  1.9247
 4280SOL     OW24472   2.827   2.820   6.809 -0.2069 -0.5052 -0.3376
 4280SOL    HW124473   2.880   2.823   6.889 -0.5789  0.0183 -0.1164
 4280SOL    HW224474   2.825   2.911   6.781  0.6933 -0.8485 -1.5498
 4281SOL     OW24475   3.395   3.036   0.777 -0.0853  0.5454 -0.6441
 4281SOL    HW124476   3.395   3.130   0.759 -2.2379  0.4169 -1.2199
 4281SOL    HW224477   3.477   3.040   0.826  0.6511  0.2352 -1.8525
 4282SOL     OW24478   2.485   0.616   5.733 -0.4995 -0.1184  0.7579
 4282SOL    HW124479   2.560   0.670   5.756 -1.1405  1.4912 -0.8673
 4282SOL    HW224480   2.412   0.665   5.772 -0.7874 -0.6106  0.8419
 4283SOL     OW24481   2.641   4.229   2.462  0.0605  0.4007  0.3907
 4283SOL    HW124482   2.546   4.224   2.455  0.0526  0.6567  0.3072
 4283SOL    HW224483   2.673   4.230   2.371 -1.2322  2.6190 -0.0354
 4284SOL     OW24484   1.644   4.679   0.040 -0.1835 -0.2535 -0.1227
 4284SOL    HW124485   1.726   4.679   0.089  0.0418 -1.9941 -0.4859
 4284SOL    HW224486   1.615   4.588   0.033  2.4310 -1.2508  1.9741
 4285SOL     OW24487   3.844   4.125   1.949  0.1879 -0.0260 -0.4304
 4285SOL    HW124488   3.755   4.153   1.970  1.5524  4.3003 -0.5386
 4285SOL    HW224489   3.897   4.204   1.952  0.0296  0.0058  1.4875
 4286SOL     OW24490   4.543   0.341   9.195  0.3780  0.4500  0.0219
 4286SOL    HW124491   4.520   0.274   9.131  1.1616  0.6712 -0.4931
 4286SOL    HW224492   4.540   0.302   9.283  1.1069  2.5044  0.9673
 4287SOL     OW24493   0.886   2.157  11.257  0.3098  0.3104 -0.3674
 4287SOL    HW124494   0.878   2.140  11.163  0.4607 -1.0528 -0.1367
 4287SOL    HW224495   0.944   2.233  11.260 -1.6555  1.9310 -2.6129
 4288SOL     OW24496   2.533   0.345   8.207 -0.2789 -0.0951 -0.7701
 4288SOL    HW124497   2.441   0.370   8.215 -0.7112 -1.8710 -0.1307
 4288SOL    HW224498   2.570   0.383   8.286  0.8729 -0.4777 -1.1213
 4289SOL     OW24499   3.463   3.081   2.254  0.0845  0.3567 -0.4676
 4289SOL    HW124500   3.433   3.052   2.169 -0.5782 -2.3454  0.6856
 4289SOL    HW224501   3.454   3.176   2.250 -0.3760  0.4120  1.9861
 4290SOL     OW24502   4.410   1.287  12.954 -0.2072 -0.5182 -0.4456
 4290SOL    HW124503   4.369   1.373  12.949  0.9066 -0.0863 -1.9104
 4290SOL    HW224504   4.407   1.254  12.864 -1.7856 -0.7264 -0.3108
 4291SOL     OW24505   1.608   2.620   6.953  0.4727  0.0631  0.1348
 4291SOL    HW124506   1.551   2.544   6.963  1.2234 -0.2745  1.7970
 4291SOL    HW224507   1.693   2.581   6.934  0.3327 -1.5118  2.7465
 4292SOL     OW24508   1.696   4.536  14.071 -0.1716 -0.1952 -0.2421
 4292SOL    HW124509   1.744   4.617  14.056  0.1470 -0.1675  0.9831
 4292SOL    HW224510   1.695   4.535  14.166 -0.4767 -0.1876 -0.2457
 4293SOL     OW24511   1.094   3.692   9.349  0.7002  0.1788 -0.9337
 4293SOL    HW124512   1.042   3.727   9.421  2.2793  0.8980 -0.1524
 4293SOL    HW224513   1.046   3.609   9.352  1.5517 -0.2107  2.3073
 4294SOL     OW24514   0.232   4.096   6.857 -0.1925 -0.3035 -0.2249
 4294SOL    HW124515   0.303   4.049   6.900  2.4995  2.2143 -1.8888
 4294SOL    HW224516   0.229   4.061   6.768  1.6513  0.5994 -0.6323
 4295SOL     OW24517   1.932   4.317   2.351 -0.2669  0.4379  0.0962
 4295SOL    HW124518   1.935   4.411   2.368  0.7964  0.1571  1.4600
 4295SOL    HW224519   1.876   4.299   2.427 -2.4994  1.2190 -1.3660
 4296SOL     OW24520   1.323   4.172   6.741 -0.3874  0.0168 -0.2615
 4296SOL    HW124521   1.325   4.226   6.820 -2.8483 -1.3192  0.7443
 4296SOL    HW224522   1.345   4.241   6.678  2.1827 -2.2869 -1.8883
 4297SOL     OW24523   0.068   2.292  15.377  0.0096  0.5084 -0.2995
 4297SOL    HW124524   0.077   2.290  15.472 -0.3425  2.5306 -0.2188
 4297SOL    HW224525   4.708   2.302  15.374 -0.0636 -0.3125 -0.6449
 4298SOL     OW24526   2.317   4.431   5.383 -0.2060  0.7733 -0.1581
 4298SOL    HW124527   2.333   4.463   5.294  0.8539  1.4140  0.2574
 4298SOL    HW224528   2.368   4.352   5.401  1.5995  1.5721 -1.7342
 4299SOL     OW24529   0.651   2.611   3.254 -0.2840  0.1096 -0.1452
 4299SOL    HW124530   0.714   2.609   3.182  0.3296 -0.2115  0.3965
 4299SOL    HW224531   0.645   2.706   3.265  0.1447 -0.1457  2.2694
 4300SOL     OW24532   0.032   3.729   7.123 -0.1736 -0.2154  0.1557
 4300SOL    HW124533   0.127   3.717   7.133  0.3157  1.7455 -2.0438
 4300SOL    HW224534   0.019   3.812   7.076  0.7348 -1.1379 -1.7279
 4301SOL     OW24535   1.127   1.964   6.802 -0.4127  0.2353 -0.1458
 4301SOL    HW124536   1.068   1.911   6.749 -1.2465 -0.1517  1.1718
 4301SOL    HW224537   1.201   1.903   6.807 -0.0408  1.0244  3.7350
 4302SOL     OW24538   3.590   3.229  15.473  0.5455  0.1076  0.4061
 4302SOL    HW124539   3.504   3.269  15.465  0.8433  0.6864  0.0382
 4302SOL    HW224540   3.644   3.288  15.420 -1.5585  0.3816 -1.4210
 4303SOL     OW24541   2.369   2.585   1.630  0.2394 -0.4201  0.9413
 4303SOL    HW124542   2.339   2.676   1.619  1.9056  0.0865  0.6146
 4303SOL    HW224543   2.306   2.542   1.572  1.7395  0.1136 -1.0770
 4304SOL     OW24544   0.646   0.171   9.479  0.3843  0.2179 -0.2500
 4304SOL    HW124545   0.697   0.125   9.411  0.6893 -0.0097  0.1333
 4304SOL    HW224546   0.684   0.135   9.559 -0.1557 -1.1218 -0.5897
 4305SOL     OW24547   2.101   2.590   6.394  0.6102 -0.3667 -0.0720
 4305SOL    HW124548   2.182   2.560   6.352  1.5811  1.0605  0.7878
 4305SOL    HW224549   2.064   2.514   6.440  0.0920  0.6882  1.2384
 4306SOL     OW24550   2.100   1.863   0.514  0.2516  0.1166  0.2205
 4306SOL    HW124551   2.058   1.806   0.450  0.8398  1.5115 -1.3956
 4306SOL    HW224552   2.074   1.948   0.480 -1.7030 -1.0602 -1.2303
 4307SOL     OW24553   3.115   4.465   3.165 -1.0246 -0.4953  0.0109
 4307SOL    HW124554   3.057   4.391   3.152  1.9250 -2.9620  0.7966
 4307SOL    HW224555   3.186   4.443   3.105  2.0978  2.6182  2.4956
 4308SOL     OW24556   4.037   4.219   4.572  0.4341  0.0213  0.1630
 4308SOL    HW124557   4.123   4.242   4.537  0.3167 -1.0211 -0.8004
 4308SOL    HW224558   3.985   4.281   4.521 -1.4683 -0.2856  1.7651
 4309SOL     OW24559   0.900   0.288   9.244  0.1756  0.1034  0.3479
 4309SOL    HW124560   0.950   0.277   9.164  0.7177  0.0635  0.6945
 4309SOL    HW224561   0.834   0.219   9.251 -0.1769  0.5557  1.5404
 4310SOL     OW24562   3.557   3.067   1.504 -0.6674  0.6956 -0.1085
 4310SOL    HW124563   3.564   2.978   1.469 -4.1364  0.8141 -1.0148
 4310SOL    HW224564   3.488   3.100   1.448  0.8095 -1.1060 -2.9687
 4311SOL     OW24565   3.132   3.803   5.570 -0.1893  1.0248  0.5725
 4311SOL    HW124566   3.117   3.749   5.493  0.5543  1.6751 -0.0150
 4311SOL    HW224567   3.093   3.744   5.636 -0.0680 -0.9785 -1.1630
 4312SOL     OW24568   0.088   4.135   7.373 -0.1608  0.3020  0.3669
 4312SOL    HW124569   0.004   4.102   7.403 -0.2606  0.7231  0.5560
 4312SOL    HW224570   0.076   4.224   7.406  1.0568 -0.1258  2.0120
 4313SOL     OW24571   3.807   4.641   5.078  0.2827  0.2864  0.0363
 4313SOL    HW124572   3.844   4.568   5.029 -0.8685  2.0344 -3.3800
 4313SOL    HW224573   3.770   4.696   5.009  1.5788  2.3893  0.9968
 4314SOL     OW24574   1.326   3.442   2.391 -0.1566  0.4942 -0.1731
 4314SOL    HW124575   1.327   3.503   2.318 -1.6035  2.3224  1.3673
 4314SOL    HW224576   1.313   3.503   2.463  1.3276  1.6117 -0.8470
 4315SOL     OW24577   1.555   2.376   3.484  0.1204 -0.5797 -0.0774
 4315SOL    HW124578   1.631   2.319   3.474  1.4007  1.5359 -2.5225
 4315SOL    HW224579   1.499   2.305   3.514 -2.2388  1.1435 -0.3619
 4316SOL     OW24580   1.581   0.844   1.484 -0.1405  0.1654  0.6894
 4316SOL    HW124581   1.601   0.932   1.515 -2.5604  0.1929  2.0917
 4316SOL    HW224582   1.581   0.851   1.388  0.9589 -2.4399  0.4900
 4317SOL     OW24583   0.022   4.242  12.411  0.9148  0.1737 -0.2095
 4317SOL    HW124584   4.717   4.319  12.371  1.2754 -1.2506 -3.2714
 4317SOL    HW224585   4.713   4.248  12.496 -0.9394 -0.2927 -1.1323
 4318SOL     OW24586   3.680   3.709  15.354  0.6095 -0.1998 -0.3025
 4318SOL    HW124587   3.714   3.798  15.352  0.1840  0.0074  1.6315
 4318SOL    HW224588   3.702   3.681  15.265  1.6199  0.2958 -0.2154
 4319SOL     OW24589   1.279   1.776  16.241 -0.0129 -0.2922  0.4430
 4319SOL    HW124590   1.356   1.814  16.284  1.5123 -1.7363 -1.0055
 4319SOL    HW224591   1.314   1.693  16.208 -1.2143 -0.5081 -0.2763
 4320SOL     OW24592   1.236   3.913   6.771 -0.2381  0.4989  0.8761
 4320SOL    HW124593   1.150   3.922   6.813  0.4078 -0.0821  2.3061
 4320SOL    HW224594   1.286   3.995   6.777 -0.9134  0.9802 -0.0731
 4321SOL     OW24595   3.049   4.298  17.233  0.0996  0.5618 -0.3902
 4321SOL    HW124596   3.101   4.219  17.250  1.1694  1.0973 -1.1472
 4321SOL    HW224597   3.020   4.272  17.145 -0.7256 -0.5278  0.1997
 4322SOL     OW24598   4.248   2.140   4.872 -0.4770 -0.3639  0.2268
 4322SOL    HW124599   4.171   2.130   4.928  0.0322 -0.8363  0.8358
 4322SOL    HW224600   4.206   2.144   4.786  2.2600  1.1970 -1.0609
 4323SOL     OW24601   1.348   0.986  17.336 -0.2713 -0.3720  0.6628
 4323SOL    HW124602   1.330   1.069  17.292  0.8348 -0.3493  0.2560
 4323SOL    HW224603   1.367   0.921  17.268 -2.1024  1.1176 -1.2521
 4324SOL     OW24604   1.595   0.457   2.808  0.3521  0.8433  0.0832
 4324SOL    HW124605   1.647   0.427   2.734 -2.1416 -0.1719 -1.2375
 4324SOL    HW224606   1.645   0.425   2.883 -1.1162 -0.1519  0.6263
 4325SOL     OW24607   3.156   4.373  10.657  0.7142  0.1013 -0.1645
 4325SOL    HW124608   3.224   4.320  10.698 -0.1309 -1.9755 -1.4806
 4325SOL    HW224609   3.112   4.392  10.739 -0.6216 -1.9136 -0.4234
 4326SOL     OW24610   0.636   0.819  16.281 -0.5257  0.2009  0.0081
 4326SOL    HW124611   0.548   0.831  16.315  0.0365 -1.9691  2.3147
 4326SOL    HW224612   0.623   0.857  16.194  1.9287 -0.7837 -0.8068
 4327SOL     OW24613   0.817   4.118   9.211  0.0870 -0.6757  0.4657
 4327SOL    HW124614   0.755   4.141   9.142 -0.8196  0.6185  1.6957
 4327SOL    HW224615   0.787   4.032   9.243  0.4716 -0.8083  0.4703
 4328SOL     OW24616   0.962   1.655  11.489 -0.0419  0.1862 -0.7209
 4328SOL    HW124617   0.983   1.588  11.423 -0.9478 -0.1117 -0.6987
 4328SOL    HW224618   1.042   1.708  11.497  0.1932 -0.1930 -0.5267
 4329SOL     OW24619   0.953   0.728  14.713  0.0558 -0.4220  0.5778
 4329SOL    HW124620   0.980   0.783  14.640  1.2587 -0.2704  1.1334
 4329SOL    HW224621   0.999   0.781  14.779  0.6748  0.3921 -0.5148
 4330SOL     OW24622   1.643   4.584   7.407 -0.2676  0.2587  0.1643
 4330SOL    HW124623   1.577   4.614   7.470 -0.1367  0.7133  0.0874
 4330SOL    HW224624   1.588   4.513   7.373 -0.9445  0.0258  1.7354
 4331SOL     OW24625   3.035   2.249  11.093  0.0668 -0.6985  0.0134
 4331SOL    HW124626   3.081   2.333  11.095 -1.7162  0.3121 -1.6586
 4331SOL    HW224627   3.091   2.185  11.049  1.3223  1.2673 -1.2206
 4332SOL     OW24628   3.417   1.592  17.631  0.1637  0.3696  0.3234
 4332SOL    HW124629   3.466   1.673  17.617 -0.0679  0.1190 -1.9529
 4332SOL    HW224630   3.347   1.608  17.568  0.4426 -0.1770 -0.1301
 4333SOL     OW24631   4.129   0.687  12.254  0.0308 -0.0808  0.0600
 4333SOL    HW124632   4.047   0.734  12.270 -0.7534 -2.0958  1.9128
 4333SOL    HW224633   4.187   0.743  12.307  0.1919  0.1460 -0.3582
 4334SOL     OW24634   2.635   0.257  13.492 -0.5046 -0.1503  0.0693
 4334SOL    HW124635   2.634   0.170  13.532  1.4724 -0.6349 -0.9178
 4334SOL    HW224636   2.611   0.226  13.405  3.1655 -0.7461 -0.7328
 4335SOL     OW24637   2.090   4.601   9.620  0.1877 -0.0681  0.0645
 4335SOL    HW124638   2.071   4.614   9.713 -1.8236  1.0991 -0.5135
 4335SOL    HW224639   2.182   4.576   9.627  0.1402 -0.1783  0.2760
 4336SOL     OW24640   2.922   3.388   4.684  0.7317  0.3933  0.3324
 4336SOL    HW124641   2.845   3.419   4.731  1.3782  1.4498  0.7032
 4336SOL    HW224642   2.908   3.294   4.687 -0.8173  0.6873  2.4606
 4337SOL     OW24643   1.368   2.982   2.474  0.0832  0.2967  0.1171
 4337SOL    HW124644   1.373   2.962   2.381  2.1061 -2.6417  0.8692
 4337SOL    HW224645   1.412   3.067   2.475  1.0517 -0.1954 -0.7261
 4338SOL     OW24646   1.161   2.583   8.467 -0.1178 -0.8543  0.1267
 4338SOL    HW124647   1.083   2.576   8.521 -0.4905  0.3868 -0.2542
 4338SOL    HW224648   1.123   2.631   8.394 -0.5302  0.1133  0.9839
 4339SOL     OW24649   0.600   1.500   1.963  0.7136 -0.3502 -0.4696
 4339SOL    HW124650   0.671   1.504   2.028  1.4694 -0.0021 -1.3219
 4339SOL    HW224651   0.567   1.413   1.986 -1.0605  0.4901  0.2054
 4340SOL     OW24652   0.266   4.249  12.286  0.2848 -0.0394 -0.2828
 4340SOL    HW124653   0.190   4.224  12.337 -0.3062  3.2239  0.4522
 4340SOL    HW224654   0.244   4.228  12.195 -1.1315  0.5118 -0.0597
 4341SOL     OW24655   2.674   4.155   2.179 -0.6656  0.4629  0.3033
 4341SOL    HW124656   2.688   4.242   2.144 -1.6009  0.1172 -0.9262
 4341SOL    HW224657   2.607   4.121   2.119 -0.0319 -0.4801  0.1287
 4342SOL     OW24658   4.027   0.053  11.827 -0.1571 -0.0058 -0.2878
 4342SOL    HW124659   3.979   0.129  11.795 -0.0177  0.4400  0.5664
 4342SOL    HW224660   4.106   0.096  11.859  0.4001  0.5734 -2.3912
 4343SOL     OW24661   0.175   0.362   8.266 -0.2856 -0.0642 -0.2765
 4343SOL    HW124662   0.204   0.450   8.245  1.9664 -1.1026 -1.4169
 4343SOL    HW224663   0.246   0.326   8.320  0.2872  2.0082  0.3440
 4344SOL     OW24664   3.712   3.841   6.532 -0.5208  0.9781 -0.3033
 4344SOL    HW124665   3.629   3.873   6.498 -0.4237  1.3367 -0.1969
 4344SOL    HW224666   3.692   3.747   6.537 -1.3025  1.1376 -0.5945
 4345SOL     OW24667   4.087   1.784   1.172  0.5166 -0.3708 -0.2130
 4345SOL    HW124668   4.071   1.874   1.143  1.9569 -0.4748 -1.3459
 4345SOL    HW224669   4.183   1.780   1.166  0.6281  1.9542  0.1221
 4346SOL     OW24670   4.599   1.167  12.066 -0.3569  0.0584 -0.2652
 4346SOL    HW124671   4.675   1.226  12.068 -1.2232  1.2008 -0.6368
 4346SOL    HW224672   4.582   1.166  12.160 -0.9603  1.0372 -0.3592
 4347SOL     OW24673   2.227   2.368   7.885  0.1390 -0.0280 -0.9021
 4347SOL    HW124674   2.164   2.390   7.817 -1.5783  1.0041  1.0354
 4347SOL    HW224675   2.309   2.358   7.836  0.6154 -1.7205  0.2301
 4348SOL     OW24676   3.649   0.741   5.941  0.0235  0.2839 -0.2385
 4348SOL    HW124677   3.589   0.667   5.935 -0.2061  0.5333 -1.0279
 4348SOL    HW224678   3.651   0.763   6.034  0.0317  0.7066 -0.3374
 4349SOL     OW24679   1.591   4.674  15.289 -0.4260  0.0484 -0.5032
 4349SOL    HW124680   1.500   4.680  15.260 -0.6243  1.9486  0.4799
 4349SOL    HW224681   1.593   4.592  15.338 -1.0506  0.3413  0.0183
 4350SOL     OW24682   1.836   2.140   6.756 -0.7057 -0.2111 -0.7906
 4350SOL    HW124683   1.903   2.206   6.769  0.2325 -1.0696 -1.2797
 4350SOL    HW224684   1.883   2.061   6.729 -0.5644 -0.4501  0.1593
 4351SOL     OW24685   2.496   4.617   7.856 -0.4037 -0.4242  0.0594
 4351SOL    HW124686   2.529   4.537   7.815 -0.8729 -0.3033 -0.5410
 4351SOL    HW224687   2.418   4.597   7.907 -1.3259  0.3596 -1.0627
 4352SOL     OW24688   2.470   2.026   3.962  0.0048  0.5004  0.1387
 4352SOL    HW124689   2.501   2.047   3.874  2.5691 -3.7296  0.0387
 4352SOL    HW224690   2.555   1.990   3.989 -0.3727 -0.1023  0.5025
 4353SOL     OW24691   1.769   1.939  17.204  0.0641  0.4490 -0.4414
 4353SOL    HW124692   1.858   1.975  17.196  0.4466 -0.2254  0.8443
 4353SOL    HW224693   1.758   1.920  17.297 -1.1195  3.0402 -0.0548
 4354SOL     OW24694   2.810   1.085   8.898  0.4493 -0.2186 -0.3892
 4354SOL    HW124695   2.762   1.016   8.944 -3.1554  1.7124 -1.2961
 4354SOL    HW224696   2.734   1.112   8.847 -0.6213 -2.0301  0.2416
 4355SOL     OW24697   3.297   3.677  10.471 -0.6406  0.6857  0.4230
 4355SOL    HW124698   3.254   3.677  10.556  2.0796  0.4195  1.7653
 4355SOL    HW224699   3.361   3.747  10.486  0.6363 -0.4525  0.2265
 4356SOL     OW24700   2.637   4.729   0.853  0.1501  0.3740 -0.3449
 4356SOL    HW124701   2.667   0.062   0.793  1.3772  0.0323 -0.1206
 4356SOL    HW224702   2.551   4.704   0.820  0.4147  1.6903 -2.0227
 4357SOL     OW24703   0.116   0.943   3.250  0.2435  0.2914 -0.5591
 4357SOL    HW124704   0.182   0.913   3.188 -1.1540  1.5103 -2.6646
 4357SOL    HW224705   0.041   0.979   3.203 -0.8041  1.3757  1.9176
 4358SOL     OW24706   0.526   0.918   8.713  0.2659  0.0840 -0.1849
 4358SOL    HW124707   0.585   0.902   8.786  1.5138  1.6684 -0.8262
 4358SOL    HW224708   0.575   0.985   8.666 -0.0451 -0.6770 -1.6057
 4359SOL     OW24709   3.574   3.769   4.929  0.3891 -0.3752  0.2573
 4359SOL    HW124710   3.620   3.735   4.852 -0.1374  2.1636 -1.1623
 4359SOL    HW224711   3.564   3.860   4.902  0.9793 -0.5438 -0.5216
 4360SOL     OW24712   3.376   3.447   9.621 -0.3188  0.1673 -0.4181
 4360SOL    HW124713   3.290   3.405   9.609 -0.0436 -0.2650 -0.8776
 4360SOL    HW224714   3.351   3.535   9.594  0.6665  0.0209 -1.8194
 4361SOL     OW24715   2.394   4.324   5.911 -0.1146 -0.1007 -0.3106
 4361SOL    HW124716   2.383   4.266   5.987  0.9858  1.0763  0.7570
 4361SOL    HW224717   2.489   4.330   5.905  0.1433 -1.6805  2.1804
 4362SOL     OW24718   1.699   3.799   3.306  0.3558  0.0402 -0.0852
 4362SOL    HW124719   1.644   3.777   3.231 -2.4108 -1.1595  2.3041
 4362SOL    HW224720   1.657   3.882   3.329  1.3003  0.4253  0.2453
 4363SOL     OW24721   4.001   4.040   0.043 -0.3411 -0.2518 -0.1305
 4363SOL    HW124722   3.940   3.992   0.099 -0.4745  0.2694  0.1741
 4363SOL    HW224723   3.981   4.128   0.074 -2.0005 -1.3613  2.0113
 4364SOL     OW24724   0.619   4.683  14.710  0.1767  0.2651 -0.0120
 4364SOL    HW124725   0.658   4.599  14.736 -1.0885  0.6142  3.0461
 4364SOL    HW224726   0.540   4.650  14.667  0.6276  0.1285 -0.7424
 4365SOL     OW24727   2.865   4.716   3.095  0.5420  0.4250 -0.6494
 4365SOL    HW124728   2.939   4.735   3.037 -1.2225  1.4290 -2.5691
 4365SOL    HW224729   2.816   0.060   3.071  1.2355  0.8973 -0.5084
 4366SOL     OW24730   4.121   1.117   5.293 -1.1676  0.1353  0.3215
 4366SOL    HW124731   4.198   1.066   5.318 -0.7126  0.2046 -0.9380
 4366SOL    HW224732   4.071   1.115   5.374 -2.6065 -0.5084 -0.5781
 4367SOL     OW24733   0.818   1.481  10.242  0.2671 -0.5025 -0.1893
 4367SOL    HW124734   0.795   1.448  10.329  1.6768  0.2093  0.4589
 4367SOL    HW224735   0.746   1.544  10.232  1.9636  1.0701 -2.5150
 4368SOL     OW24736   0.347   4.604   1.590  0.2429 -0.5529  0.0039
 4368SOL    HW124737   0.396   4.638   1.664 -0.4792  0.6141 -0.0481
 4368SOL    HW224738   0.386   4.655   1.519 -0.5043 -1.5889 -1.1528
 4369SOL     OW24739   0.374   0.199   5.073  0.1201  0.1401  0.1092
 4369SOL    HW124740   0.454   0.150   5.094 -0.6793  0.0973  2.9900
 4369SOL    HW224741   0.327   0.140   5.014 -0.7281  1.2982 -0.3713
 4370SOL     OW24742   0.891   4.164  13.923  0.3687  0.1710  0.1212
 4370SOL    HW124743   0.822   4.115  13.879 -0.3822  2.1842 -0.9011
 4370SOL    HW224744   0.871   4.256  13.909  0.8575  0.3024  0.2674
 4371SOL     OW24745   1.207   0.032  11.271  0.9621 -0.2992  0.0884
 4371SOL    HW124746   1.255   0.092  11.328  0.1480  0.8008 -0.3811
 4371SOL    HW224747   1.252   0.056  11.190 -0.4815  1.3142 -0.2250
 4372SOL     OW24748   0.928   0.066   9.720 -0.1398 -0.3167  0.3397
 4372SOL    HW124749   1.018   0.035   9.717  0.0315  0.1987  0.0536
 4372SOL    HW224750   0.927   0.116   9.802 -3.8669 -0.2116  0.2453
 4373SOL     OW24751   2.366   3.099   2.520  0.3288  0.1884 -0.1070
 4373SOL    HW124752   2.399   3.188   2.533 -0.6473  0.7366 -1.4342
 4373SOL    HW224753   2.407   3.053   2.594  0.1581 -1.4360 -1.0370
 4374SOL     OW24754   3.575   0.681   4.270  0.2187 -0.4390  0.0528
 4374SOL    HW124755   3.611   0.654   4.186 -0.2864 -0.4714 -0.1546
 4374SOL    HW224756   3.525   0.603   4.291  0.8999 -1.3898 -1.9238
 4375SOL     OW24757   1.857   1.221   2.327  0.4819  0.6184 -0.4090
 4375SOL    HW124758   1.946   1.241   2.297  0.1169  3.8604  0.6748
 4375SOL    HW224759   1.828   1.310   2.345  1.5941  1.1043 -1.0344
 4376SOL     OW24760   3.337   3.622  11.181 -0.2558  0.5966 -0.1213
 4376SOL    HW124761   3.303   3.634  11.270  0.4131  1.2584  0.0482
 4376SOL    HW224762   3.281   3.554  11.145  0.2899 -0.2274  0.5780
 4377SOL     OW24763   0.924   3.513   5.459 -0.1105 -0.2197  0.1987
 4377SOL    HW124764   0.829   3.499   5.457 -0.1324  0.2099 -1.5924
 4377SOL    HW224765   0.930   3.588   5.519 -0.7015  0.2698 -0.3600
 4378SOL     OW24766   0.514   4.608   2.629 -0.2590 -0.3124  0.5370
 4378SOL    HW124767   0.575   4.538   2.603 -1.5532 -0.1714 -2.9700
 4378SOL    HW224768   0.576   4.678   2.649  0.4717 -0.7753 -0.0802
 4379SOL     OW24769   2.253   1.522   8.449  0.4574 -0.0150  0.1588
 4379SOL    HW124770   2.272   1.468   8.526 -0.9222 -0.5322  0.1364
 4379SOL    HW224771   2.206   1.460   8.394  1.1972  1.2364 -1.8755
 4380SOL     OW24772   3.034   2.139   0.780  0.0096 -0.1108  0.5500
 4380SOL    HW124773   3.083   2.073   0.730 -0.1041 -0.5202  0.9856
 4380SOL    HW224774   3.005   2.107   0.865 -0.5959 -1.0423 -0.0061
 4381SOL     OW24775   0.874   3.943  10.906 -0.8847  0.6464  0.0603
 4381SOL    HW124776   0.935   4.012  10.879 -0.7898  0.0269 -1.3271
 4381SOL    HW224777   0.932   3.868  10.915 -1.1562  0.3610 -0.5605
 4382SOL     OW24778   4.553   2.365   9.085 -0.0453  0.7791 -0.0942
 4382SOL    HW124779   4.562   2.305   9.160  2.3482  2.0486  0.6069
 4382SOL    HW224780   4.539   2.294   9.022  1.0675  0.1130  0.4157
 4383SOL     OW24781   3.580   3.002   4.522  0.3833 -0.4502  0.3935
 4383SOL    HW124782   3.498   3.031   4.562 -0.1374 -0.0541 -0.9447
 4383SOL    HW224783   3.576   3.044   4.435 -1.3233 -1.6346 -0.0989
 4384SOL     OW24784   1.432   2.547   4.330 -0.1511  0.6188 -0.1804
 4384SOL    HW124785   1.373   2.618   4.304 -2.4606 -1.2155  0.0818
 4384SOL    HW224786   1.456   2.519   4.241 -1.0402  0.5547 -0.3948
 4385SOL     OW24787   3.138   2.168   7.849 -0.5493 -0.2670 -0.1223
 4385SOL    HW124788   3.209   2.121   7.893  0.4597  1.5083  0.1620
 4385SOL    HW224789   3.082   2.105   7.805 -1.5223  1.5829 -1.5083
 4386SOL     OW24790   4.557   4.161  14.573 -0.3365  0.4489 -0.3499
 4386SOL    HW124791   4.602   4.078  14.556 -1.8546 -0.0880 -1.8422
 4386SOL    HW224792   4.465   4.133  14.572 -0.5397  1.0925  0.3477
 4387SOL     OW24793   4.305   0.199   2.418  0.0292 -0.7612  0.0172
 4387SOL    HW124794   4.374   0.206   2.352  0.2975 -2.0028  0.1666
 4387SOL    HW224795   4.307   0.280   2.468  1.1380 -1.2798  0.8141
 4388SOL     OW24796   1.192   0.692  11.559 -0.0109  0.0955  0.4805
 4388SOL    HW124797   1.170   0.768  11.507  3.3310  0.5145 -0.3245
 4388SOL    HW224798   1.157   0.716  11.645 -2.0535  2.3553 -1.0108
 4389SOL     OW24799   1.573   1.027   6.766 -0.0024 -0.2867 -0.7657
 4389SOL    HW124800   1.545   1.097   6.706 -1.1804  0.5992  0.8276
 4389SOL    HW224801   1.637   0.980   6.713 -0.7924  0.2540 -2.2273
 4390SOL     OW24802   0.459   3.216  12.860  0.4077 -0.0235 -0.4648
 4390SOL    HW124803   0.392   3.277  12.830  0.6515 -0.0474 -1.0558
 4390SOL    HW224804   0.527   3.274  12.894 -0.9865  2.0468 -1.2254
 4391SOL     OW24805   1.817   3.647   5.115  0.3934 -0.5750  0.0069
 4391SOL    HW124806   1.909   3.624   5.118  0.3319 -0.6512  1.0905
 4391SOL    HW224807   1.821   3.742   5.110  0.2510 -0.6785 -2.0256
 4392SOL     OW24808   1.898   3.576  10.587  0.1676  0.4295 -0.1753
 4392SOL    HW124809   1.953   3.516  10.639  0.9036  0.7783 -0.5460
 4392SOL    HW224810   1.866   3.515  10.521  1.4377 -0.5280  0.0771
 4393SOL     OW24811   4.067   1.940  16.475 -0.4973 -0.5453  0.3919
 4393SOL    HW124812   4.072   2.033  16.451 -0.3970 -0.3869  1.0077
 4393SOL    HW224813   4.051   1.908  16.387  1.6395 -1.9668  0.5144
 4394SOL     OW24814   0.114   3.245   7.380 -0.3938 -0.4851 -0.2690
 4394SOL    HW124815   0.077   3.158   7.394 -2.5422  0.2863 -1.2680
 4394SOL    HW224816   0.149   3.243   7.291  0.1301  1.1769 -0.1009
 4395SOL     OW24817   2.816   3.306  16.377  0.3556 -0.4351  0.2573
 4395SOL    HW124818   2.742   3.338  16.427 -0.3104  0.0849 -1.0556
 4395SOL    HW224819   2.883   3.374  16.386 -1.7939  1.1654  3.7541
 4396SOL     OW24820   2.484   0.598   7.086  0.1787 -0.0551 -0.2156
 4396SOL    HW124821   2.496   0.645   7.169 -1.7265  1.0664 -0.5754
 4396SOL    HW224822   2.566   0.618   7.042  1.1766 -1.3123  1.0861
 4397SOL     OW24823   4.197   1.447   4.588  0.2726 -0.4088 -0.1387
 4397SOL    HW124824   4.267   1.496   4.631  1.1128 -1.5603 -0.1822
 4397SOL    HW224825   4.228   1.434   4.498 -1.3660  0.9273 -0.8934
 4398SOL     OW24826   1.653   3.090   7.216 -0.0775 -0.0377  0.0667
 4398SOL    HW124827   1.715   3.055   7.152  0.1419 -0.6722  0.6243
 4398SOL    HW224828   1.700   3.068   7.297 -0.7776 -1.2349  0.1524
 4399SOL     OW24829   0.373   1.592   4.401  0.6133 -0.3535 -0.2171
 4399SOL    HW124830   0.440   1.653   4.433 -1.4595  2.4732 -1.2867
 4399SOL    HW224831   0.312   1.655   4.363 -0.1660 -2.6734 -2.7671
 4400SOL     OW24832   0.493   0.050   3.874  0.1301  0.0984 -0.2828
 4400SOL    HW124833   0.461   0.087   3.791  1.5736  1.6103 -0.1662
 4400SOL    HW224834   0.451   0.111   3.935 -2.2827 -2.4200  0.5437
 4401SOL     OW24835   0.534   1.338  14.953  0.1501 -0.5173  0.2555
 4401SOL    HW124836   0.462   1.385  14.912  1.4209  0.1114 -1.2551
 4401SOL    HW224837   0.478   1.282  15.007  0.9033  0.4150  2.0405
 4402SOL     OW24838   0.513   2.566  15.272 -0.1614  0.1271 -0.2965
 4402SOL    HW124839   0.533   2.635  15.336  1.3116 -3.2447  2.8801
 4402SOL    HW224840   0.419   2.552  15.280 -0.3805  1.8001  0.1084
 4403SOL     OW24841   4.480   4.734   5.111 -0.1850 -0.0532  0.0428
 4403SOL    HW124842   4.460   4.668   5.178 -1.2356  1.7945  1.5570
 4403SOL    HW224843   4.446   0.078   5.152 -1.5133 -1.1634  1.0831
 4404SOL     OW24844   4.607   2.145   5.039  0.1458 -0.2421  0.2926
 4404SOL    HW124845   4.694   2.178   5.017 -0.3958  0.5162 -0.6908
 4404SOL    HW224846   4.609   2.055   5.071  0.3778  0.0291  1.0467
 4405SOL     OW24847   4.445   3.731   3.408  0.4551 -0.4134 -1.0855
 4405SOL    HW124848   4.372   3.684   3.449  0.8233 -1.7484 -1.9632
 4405SOL    HW224849   4.457   3.676   3.331 -1.7715  0.1463 -1.8348
 4406SOL     OW24850   0.322   2.307   3.033  0.2672 -0.2111 -0.4780
 4406SOL    HW124851   0.321   2.361   2.954  0.8672  2.8325  1.5923
 4406SOL    HW224852   0.403   2.328   3.080  0.9515 -0.9288 -1.3422
 4407SOL     OW24853   3.646   4.388   6.699  0.1934 -0.6627  1.1006
 4407SOL    HW124854   3.557   4.423   6.704 -0.2322 -1.7527  1.2104
 4407SOL    HW224855   3.633   4.339   6.618  0.0116 -0.4931  1.0293
 4408SOL     OW24856   0.698   0.867   5.350 -0.1116 -0.2560 -0.1758
 4408SOL    HW124857   0.655   0.916   5.280 -2.0897 -0.3410  0.9689
 4408SOL    HW224858   0.645   0.787   5.357  0.8585 -0.7511  1.5201
 4409SOL     OW24859   4.593   2.569  11.531  0.0725  0.0903 -0.1219
 4409SOL    HW124860   4.628   2.480  11.535 -0.3500 -0.0815 -0.1806
 4409SOL    HW224861   4.511   2.560  11.581 -1.5544 -2.2330 -3.1833
 4410SOL     OW24862   1.492   4.516  13.895  0.8000 -0.5437 -0.3547
 4410SOL    HW124863   1.424   4.466  13.941 -0.0328 -0.1632 -1.1803
 4410SOL    HW224864   1.569   4.521  13.952  1.0833  0.6046 -0.8578
 4411SOL     OW24865   3.071   1.658   4.468  0.0990  0.7928  1.0142
 4411SOL    HW124866   3.029   1.736   4.431 -0.2824  0.0931 -0.0299
 4411SOL    HW224867   3.120   1.641   4.388  0.6918  0.7665  1.3845
 4412SOL     OW24868   1.782   3.022   6.486 -0.4108  0.1522 -0.0932
 4412SOL    HW124869   1.695   3.047   6.515 -0.1345  0.5476  0.4107
 4412SOL    HW224870   1.797   2.947   6.545 -0.5053  0.2323  0.0313
 4413SOL     OW24871   1.064   3.202   5.359  0.2185  0.2229  0.1765
 4413SOL    HW124872   0.988   3.182   5.304 -0.0412 -0.7131  0.8738
 4413SOL    HW224873   1.107   3.120   5.337 -1.6030 -0.7350  0.2128
 4414SOL     OW24874   2.592   0.423  11.939  0.3299  0.1179 -0.0445
 4414SOL    HW124875   2.534   0.364  11.988  0.0200  0.1266 -0.4042
 4414SOL    HW224876   2.557   0.401  11.853  1.4024 -2.1903  0.0947
 4415SOL     OW24877   1.708   1.227   5.372 -0.3629 -0.4037 -0.3405
 4415SOL    HW124878   1.638   1.266   5.320 -0.6970 -0.0954  0.3422
 4415SOL    HW224879   1.784   1.285   5.369 -0.9539  0.3046 -1.3462
 4416SOL     OW24880   0.961   0.988   7.182 -0.8673  0.5439  0.2248
 4416SOL    HW124881   0.971   1.001   7.088  2.0372 -3.4229 -0.0495
 4416SOL    HW224882   0.939   0.895   7.188 -0.6791  0.4631 -0.2998
 4417SOL     OW24883   0.570   3.898   3.019  0.0919 -0.4590 -0.0309
 4417SOL    HW124884   0.553   3.971   2.959 -0.7230 -0.3766  0.3035
 4417SOL    HW224885   0.487   3.851   3.026  1.0759 -1.9245  1.6202
 4418SOL     OW24886   1.106   2.351  15.133 -0.0416 -0.6589  0.2382
 4418SOL    HW124887   1.196   2.330  15.156  0.0495  2.5464  2.8024
 4418SOL    HW224888   1.102   2.366  15.038 -0.8868 -0.9030  0.2259
 4419SOL     OW24889   4.013   1.189   6.920  0.3845 -0.5628 -0.3950
 4419SOL    HW124890   4.035   1.119   6.859  1.2230 -1.1036  0.5325
 4419SOL    HW224891   4.080   1.179   6.987  0.1542  1.2147  0.0987
 4420SOL     OW24892   3.900   4.227   3.159  0.4126 -0.2906  0.5657
 4420SOL    HW124893   3.846   4.222   3.238  0.0811  4.2001  0.6568
 4420SOL    HW224894   3.964   4.296   3.174 -0.2002  0.1233  1.3115
 4421SOL     OW24895   2.111   0.634   7.497  0.1984 -0.0210 -0.5152
 4421SOL    HW124896   2.097   0.589   7.580 -0.5118  0.5887 -0.3104
 4421SOL    HW224897   2.169   0.567   7.460 -0.0937 -0.9911  0.7654
 4422SOL     OW24898   2.117   3.874   4.965 -0.2619 -0.9982 -0.0985
 4422SOL    HW124899   2.189   3.822   4.929  0.5315  0.5696 -0.7856
 4422SOL    HW224900   2.161   3.959   4.976  1.1158 -1.1519 -4.5769
 4423SOL     OW24901   3.517   4.027   8.715 -0.3704 -0.0054 -0.4251
 4423SOL    HW124902   3.492   3.993   8.801  0.9620 -0.9945 -0.4386
 4423SOL    HW224903   3.587   4.089   8.729 -0.9562  1.1519 -2.4842
 4424SOL     OW24904   3.422   1.198  10.070 -0.0644 -0.2109 -0.7282
 4424SOL    HW124905   3.409   1.115  10.025 -0.1343 -0.3450 -0.4567
 4424SOL    HW224906   3.516   1.215  10.063  0.3193 -1.6428  1.0662
 4425SOL     OW24907   1.325   2.945   6.346  0.1043  0.0504  0.0309
 4425SOL    HW124908   1.342   2.936   6.252  1.7574 -0.4060  0.3631
 4425SOL    HW224909   1.309   2.852   6.361 -1.0570  0.6645  2.5204
 4426SOL     OW24910   0.961   3.799   3.777 -0.3827 -0.0705  1.0813
 4426SOL    HW124911   0.932   3.837   3.860  0.0711 -0.7327  1.5493
 4426SOL    HW224912   0.920   3.854   3.710  2.8373  2.0206  0.8403
 4427SOL     OW24913   1.779   1.787   8.761 -0.1717 -0.3550 -0.2642
 4427SOL    HW124914   1.771   1.751   8.849 -3.3132  0.6492 -0.1346
 4427SOL    HW224915   1.869   1.764   8.738  0.4414  1.1292  0.7003
 4428SOL     OW24916   1.860   3.054  13.305  0.1249 -0.4924 -0.2078
 4428SOL    HW124917   1.789   2.994  13.329 -1.2076  1.5248  0.8284
 4428SOL    HW224918   1.870   3.038  13.211  0.7486 -0.1743 -0.1955
 4429SOL     OW24919   1.354   3.381   8.938  0.2890  0.0150  0.1581
 4429SOL    HW124920   1.277   3.437   8.948  0.5274  0.4936 -0.7400
 4429SOL    HW224921   1.352   3.329   9.019 -0.9379  1.4685  1.0627
 4430SOL     OW24922   3.473   4.324  12.450  0.3414  0.0298 -0.4169
 4430SOL    HW124923   3.502   4.236  12.425 -0.4450 -0.0127 -1.1607
 4430SOL    HW224924   3.380   4.306  12.464  0.0166  1.4049 -0.7794
 4431SOL     OW24925   2.597   4.638   1.797  0.0042 -0.2687 -0.3365
 4431SOL    HW124926   2.678   4.601   1.833 -1.3684 -2.2871  0.6484
 4431SOL    HW224927   2.543   4.561   1.813 -0.2971  0.2784  1.2721
 4432SOL     OW24928   0.725   3.679   8.496 -0.1386 -0.0596 -0.6331
 4432SOL    HW124929   0.762   3.715   8.576  0.3797  0.7513 -1.2296
 4432SOL    HW224930   0.638   3.650   8.522 -0.8088  2.2956 -0.2317
 4433SOL     OW24931   1.774   0.002   3.235 -0.3516 -0.3154 -0.0068
 4433SOL    HW124932   1.762   0.096   3.236 -0.6824 -0.3852  2.0660
 4433SOL    HW224933   1.695   4.703   3.193 -2.2975  2.9713  0.9876
 4434SOL     OW24934   1.273   1.151   7.068  0.0487 -0.3871 -0.2722
 4434SOL    HW124935   1.268   1.174   7.161 -1.8625 -0.3763 -0.3866
 4434SOL    HW224936   1.358   1.107   7.067  0.3622  0.1611  2.5684
 4435SOL     OW24937   3.254   4.550   4.118 -0.5030  0.8275 -0.3550
 4435SOL    HW124938   3.185   4.572   4.181 -0.1328  1.3011 -0.1164
 4435SOL    HW224939   3.212   4.475   4.076 -0.8667 -0.2798  2.0076
 4436SOL     OW24940   3.704   0.926   9.976  0.0832  0.1752  0.0392
 4436SOL    HW124941   3.793   0.916   9.942  0.3869  1.2035  0.5253
 4436SOL    HW224942   3.657   0.942   9.894 -1.8962  0.7354  1.2896
 4437SOL     OW24943   4.061   0.892   3.200 -0.6507 -0.1209 -0.1882
 4437SOL    HW124944   3.996   0.953   3.166  1.0437  1.7878  0.0230
 4437SOL    HW224945   4.134   0.954   3.201 -1.8008  1.1921  2.6613
 4438SOL     OW24946   2.360   1.479   3.526  0.2538 -0.1707  0.4454
 4438SOL    HW124947   2.297   1.438   3.467 -1.3998  3.1387 -0.0919
 4438SOL    HW224948   2.396   1.409   3.581  0.6507 -2.2844 -2.5426
 4439SOL     OW24949   3.175   2.696   2.238 -0.0650  0.0148 -0.3544
 4439SOL    HW124950   3.207   2.684   2.328 -1.6801  1.2328  0.3753
 4439SOL    HW224951   3.130   2.612   2.229 -0.7352  0.2225  1.0064
 4440SOL     OW24952   1.845   2.916  10.223 -0.3828  0.0922 -0.4378
 4440SOL    HW124953   1.799   2.895  10.142 -0.1164  0.7176 -0.7493
 4440SOL    HW224954   1.930   2.871  10.219  0.8033  2.1861  1.1113
 4441SOL     OW24955   3.715   1.336  16.758  1.0480 -0.1294  0.6983
 4441SOL    HW124956   3.809   1.324  16.740  1.2873  0.7199  1.4161
 4441SOL    HW224957   3.686   1.419  16.719 -1.1492 -0.3599  1.8314
 4442SOL     OW24958   1.818   1.191  14.249  0.2044 -0.0262  0.5034
 4442SOL    HW124959   1.760   1.266  14.257 -0.9776 -0.8834 -0.0630
 4442SOL    HW224960   1.764   1.113  14.239 -0.5494  0.2187  2.6661
 4443SOL     OW24961   4.638   3.222   9.814  0.1363 -0.3026  0.2064
 4443SOL    HW124962   4.555   3.249   9.775 -0.1730 -0.8231  0.5057
 4443SOL    HW224963   4.610   3.146   9.865 -0.0076 -0.5921 -0.3087
 4444SOL     OW24964   2.273   2.095   8.173 -0.4449  0.2397 -0.0297
 4444SOL    HW124965   2.209   2.143   8.122 -2.4149 -2.3189 -0.0019
 4444SOL    HW224966   2.213   2.048   8.231  0.2934  0.4319  0.8822
 4445SOL     OW24967   1.204   3.553   6.627 -0.0516  0.3555  0.0457
 4445SOL    HW124968   1.245   3.531   6.711  0.9674  0.5058 -0.4040
 4445SOL    HW224969   1.145   3.626   6.645 -0.0809  0.1130  0.9094
 4446SOL     OW24970   3.875   1.270   7.582 -0.0051  0.2662 -0.1365
 4446SOL    HW124971   3.847   1.344   7.636  0.9537  0.0666  0.6287
 4446SOL    HW224972   3.932   1.232   7.649 -0.6041 -0.4961 -0.0686
 4447SOL     OW24973   4.304   1.598   6.897  0.6022  0.3489 -0.2808
 4447SOL    HW124974   4.375   1.534   6.890 -0.4157 -0.8714  0.6249
 4447SOL    HW224975   4.236   1.532   6.907  3.2914 -2.6547 -1.9420
 4448SOL     OW24976   1.923   3.715   0.400 -0.3464  0.3610  0.0876
 4448SOL    HW124977   1.959   3.802   0.380 -0.3387  0.8055  2.0158
 4448SOL    HW224978   1.935   3.668   0.318  0.7964 -0.4485  0.7244
 4449SOL     OW24979   2.469   3.829   3.043  0.0637  0.2697 -0.1908
 4449SOL    HW124980   2.469   3.888   3.119  1.9128  0.9857 -0.7343
 4449SOL    HW224981   2.419   3.754   3.075 -0.3455 -0.2311 -2.0568
 4450SOL     OW24982   4.565   2.048  12.357  0.0529 -0.2658 -0.4778
 4450SOL    HW124983   4.524   2.121  12.403 -0.0307  0.3454 -1.5430
 4450SOL    HW224984   4.641   2.102  12.335 -1.4396  2.1414  0.3447
 4451SOL     OW24985   3.746   0.311   9.328 -0.1723 -0.7148 -0.6344
 4451SOL    HW124986   3.732   0.321   9.422  1.7173 -1.5762 -0.2548
 4451SOL    HW224987   3.723   0.218   9.323  1.0850 -1.0274 -0.5535
 4452SOL     OW24988   1.028   3.021   8.317 -0.2199 -0.2980  0.3368
 4452SOL    HW124989   1.094   2.985   8.376 -0.8833  2.2942  2.6613
 4452SOL    HW224990   0.999   2.947   8.263 -0.6407  1.9975 -2.6267
 4453SOL     OW24991   3.392   0.307   6.950 -0.2905 -0.0561  0.0561
 4453SOL    HW124992   3.338   0.279   6.875 -1.9545  0.3381  1.0942
 4453SOL    HW224993   3.347   0.266   7.024 -0.6877 -1.7809 -1.1512
 4454SOL     OW24994   3.311   4.494   8.758  0.2090  0.4148  0.6431
 4454SOL    HW124995   3.333   4.530   8.672 -2.1344  1.0613  0.2959
 4454SOL    HW224996   3.219   4.467   8.748  0.5645  0.1900 -1.9538
 4455SOL     OW24997   4.666   0.296   3.796 -0.2886 -0.3569 -0.0071
 4455SOL    HW124998   4.664   0.351   3.874 -1.5882  1.0551 -1.0218
 4455SOL    HW224999   4.632   0.349   3.724 -0.7596 -0.4740  0.1263
 4456SOL     OW25000   2.142   1.218   0.777 -0.4457 -0.3428 -0.3188
 4456SOL    HW125001   2.114   1.188   0.690  0.9454 -0.9742 -0.5525
 4456SOL    HW225002   2.137   1.312   0.761  2.5183 -0.5181 -2.3083
 4457SOL     OW25003   2.074   0.774   6.142 -0.1420 -0.3225  0.2587
 4457SOL    HW125004   2.141   0.771   6.211  0.7713 -0.9281 -0.6517
 4457SOL    HW225005   1.993   0.741   6.180 -0.8941 -0.3546 -1.3843
 4458SOL     OW25006   2.166   3.460   9.409  0.3904 -0.1924  0.1842
 4458SOL    HW125007   2.163   3.370   9.443  1.1111 -1.2329 -2.4724
 4458SOL    HW225008   2.150   3.444   9.316 -1.9872 -0.5457  0.6514
 4459SOL     OW25009   3.563   0.288  10.228 -0.2003  0.5177 -0.2239
 4459SOL    HW125010   3.512   0.369  10.218 -1.4962 -0.2549  0.2588
 4459SOL    HW225011   3.652   0.323  10.238  0.7958 -1.8541 -0.7565
 4460SOL     OW25012   2.311   0.577   3.080 -0.6547 -0.0277  0.5276
 4460SOL    HW125013   2.347   0.663   3.057 -1.0760 -0.0630 -0.2812
 4460SOL    HW225014   2.250   0.558   3.009  2.4761 -0.3731 -2.0314
 4461SOL     OW25015   0.430   4.361   1.422 -0.3687 -0.1299 -0.1842
 4461SOL    HW125016   0.416   4.366   1.516  1.8323 -1.2815  0.1960
 4461SOL    HW225017   0.413   4.455   1.413 -0.4313 -0.0979  0.2924
 4462SOL     OW25018   2.314   3.031   2.259  0.4113 -0.3778  0.1881
 4462SOL    HW125019   2.323   3.064   2.348 -1.3131  0.4793  0.0467
 4462SOL    HW225020   2.393   2.976   2.253  0.8827  0.2764  0.4792
 4463SOL     OW25021   1.799   4.139   6.067 -0.0620 -0.1915 -0.0845
 4463SOL    HW125022   1.876   4.109   6.018 -0.1542 -1.7498  0.7182
 4463SOL    HW225023   1.833   4.217   6.111  1.1952  0.2239 -1.7690
 4464SOL     OW25024   3.391   3.874   4.314  0.1317 -0.0018  0.1192
 4464SOL    HW125025   3.302   3.862   4.347 -0.8917 -0.8339 -3.0371
 4464SOL    HW225026   3.369   3.907   4.227 -0.4412 -0.3312  0.1406
 4465SOL     OW25027   2.739   2.560   5.646 -0.4872 -0.0636  0.5925
 4465SOL    HW125028   2.731   2.557   5.742  0.7168 -1.3499  0.6632
 4465SOL    HW225029   2.805   2.629   5.637 -1.8655  1.4255  2.0349
 4466SOL     OW25030   0.252   2.733   3.860  0.2209 -0.2827 -0.0818
 4466SOL    HW125031   0.300   2.789   3.800  0.3136 -0.8965 -0.5820
 4466SOL    HW225032   0.161   2.753   3.837  0.9508 -0.2636 -2.9297
 4467SOL     OW25033   2.952   0.898  12.313 -0.0289 -0.2946  0.2010
 4467SOL    HW125034   2.867   0.938  12.295 -0.3815 -0.9149  0.4951
 4467SOL    HW225035   2.927   0.840  12.385 -1.2225  2.0516  1.6909
 4468SOL     OW25036   1.836   1.173   2.718 -0.3390 -0.3237  0.3403
 4468SOL    HW125037   1.766   1.235   2.735 -1.1184 -1.4281  1.1246
 4468SOL    HW225038   1.797   1.129   2.643  0.4548 -0.9032  0.2642
 4469SOL     OW25039   0.880   3.621  12.143  0.0822  0.2475 -0.0381
 4469SOL    HW125040   0.830   3.699  12.121  0.5504  0.7776  0.8065
 4469SOL    HW225041   0.908   3.591  12.056  1.9490  0.6337  0.4416
 4470SOL     OW25042   2.267   0.897   7.478  0.0385 -0.2470 -0.1676
 4470SOL    HW125043   2.213   0.954   7.422  0.2458 -1.1271 -1.2624
 4470SOL    HW225044   2.211   0.819   7.479 -1.2177  0.6416 -0.4489
 4471SOL     OW25045   1.937   0.813  10.861 -0.2414  0.1195 -0.3325
 4471SOL    HW125046   1.947   0.731  10.814 -0.8792  0.0084 -0.2765
 4471SOL    HW225047   2.027   0.837  10.885  0.0325 -0.4912 -0.7532
 4472SOL     OW25048   0.043   1.582   8.852 -0.2073  0.0638 -0.7990
 4472SOL    HW125049   0.099   1.513   8.888  0.1480  1.5758  1.5576
 4472SOL    HW225050   0.005   1.544   8.773 -0.2072  0.6852 -1.0977
 4473SOL     OW25051   2.507   1.228   0.941 -0.0322 -0.0072 -0.3773
 4473SOL    HW125052   2.594   1.217   0.902 -0.8080 -2.1265 -1.5122
 4473SOL    HW225053   2.471   1.148   0.901  0.0341 -0.8431  1.2040
 4474SOL     OW25054   3.865   4.704   9.386 -0.8819  0.8189  0.2768
 4474SOL    HW125055   3.923   0.045   9.383 -2.7339  2.1265 -2.7661
 4474SOL    HW225056   3.928   4.636   9.409  0.9007  2.1912 -0.4868
 4475SOL     OW25057   2.312   2.472   8.787  0.0516 -0.0955 -0.0826
 4475SOL    HW125058   2.386   2.473   8.726 -0.3941 -0.0622 -0.6220
 4475SOL    HW225059   2.315   2.567   8.801  0.7382 -0.3295  1.2965
 4476SOL     OW25060   1.959   2.695   7.622 -0.7326  0.4416 -0.0168
 4476SOL    HW125061   1.872   2.661   7.644 -0.4583  0.9363  1.8288
 4476SOL    HW225062   1.963   2.739   7.707 -0.8363  0.3322  0.0451
 4477SOL     OW25063   2.967   4.332   9.877 -0.1784 -0.0795  0.5186
 4477SOL    HW125064   3.013   4.346   9.960  2.6361 -0.4561 -0.9492
 4477SOL    HW225065   2.936   4.418   9.851  0.8671  0.4017  0.8760
 4478SOL     OW25066   0.859   3.563  13.747  0.6938 -0.3154  0.1982
 4478SOL    HW125067   0.896   3.497  13.806  2.6163 -0.5944 -1.3498
 4478SOL    HW225068   0.930   3.626  13.735  0.6481  0.2598  2.8900
 4479SOL     OW25069   3.155   0.805   6.558  0.3821 -0.2639 -0.7184
 4479SOL    HW125070   3.134   0.714   6.578  1.9737 -0.5983 -0.5500
 4479SOL    HW225071   3.090   0.854   6.608  1.8571  1.2899 -0.2994
 4480SOL     OW25072   4.574   4.305   2.302  0.6839  0.2171  0.1114
 4480SOL    HW125073   4.622   4.359   2.239 -0.8009 -0.8192 -1.9169
 4480SOL    HW225074   4.619   4.326   2.383 -0.8725 -0.8606  1.2688
 4481SOL     OW25075   4.563   3.238   4.406  0.4734  0.2052 -0.1717
 4481SOL    HW125076   4.598   3.195   4.484 -0.8630 -1.3118 -0.4226
 4481SOL    HW225077   4.635   3.232   4.344 -1.5462  0.2706 -2.4829
 4482SOL     OW25078   1.691   1.851  16.587  0.2486 -0.0608 -0.3375
 4482SOL    HW125079   1.728   1.932  16.622 -0.5732  0.0438  0.2815
 4482SOL    HW225080   1.767   1.792  16.587 -0.9960 -1.6581  2.0298
 4483SOL     OW25081   1.365   4.359   9.793  0.0965 -0.0246 -0.0273
 4483SOL    HW125082   1.302   4.291   9.819  1.0927 -0.5477  1.0080
 4483SOL    HW225083   1.446   4.309   9.800 -0.1406 -0.2495  1.1107
 4484SOL     OW25084   4.632   3.735   0.884 -0.3129 -0.7133 -0.3054
 4484SOL    HW125085   4.624   3.826   0.915 -1.2422 -0.4575 -1.3036
 4484SOL    HW225086   4.649   3.748   0.791 -1.4756  1.3642 -0.2435
 4485SOL     OW25087   4.418   4.129   4.512 -0.1744  0.0594 -0.7556
 4485SOL    HW125088   4.350   4.134   4.445 -0.5960 -0.9103 -0.3974
 4485SOL    HW225089   4.427   4.222   4.533  0.5502 -0.2091  0.0995
 4486SOL     OW25090   0.486   2.211   7.668  0.1159  0.2336 -0.0877
 4486SOL    HW125091   0.394   2.207   7.643 -0.6930  0.4263  2.8245
 4486SOL    HW225092   0.526   2.139   7.619  1.0873 -1.5331  3.2398
 4487SOL     OW25093   3.609   2.603   8.995  0.9692 -0.4233  0.2149
 4487SOL    HW125094   3.696   2.567   8.978  0.2596 -2.7380  1.4434
 4487SOL    HW225095   3.561   2.539   8.941 -1.5687 -1.9105  4.2457
 4488SOL     OW25096   1.374   1.017  14.881  0.0322  0.3100 -0.4247
 4488SOL    HW125097   1.375   1.084  14.949 -0.2064 -0.2094  0.0908
 4488SOL    HW225098   1.335   1.061  14.806 -0.2548  1.2856  0.2982
 4489SOL     OW25099   3.835   4.150   8.936 -0.3740  0.1231  0.0857
 4489SOL    HW125100   3.897   4.083   8.963  0.5941  1.2475  0.6607
 4489SOL    HW225101   3.902   4.217   8.920 -1.6818  0.8937 -2.2290
 4490SOL     OW25102   3.565   0.776   8.508 -0.0263 -0.1001  0.5374
 4490SOL    HW125103   3.584   0.737   8.423  1.1626  0.5648  0.4988
 4490SOL    HW225104   3.576   0.870   8.496  0.1374 -0.2135 -0.2027
 4491SOL     OW25105   1.028   3.418   4.057 -0.2853  0.4584  0.2129
 4491SOL    HW125106   0.963   3.462   4.003  0.9971  2.1252  0.0098
 4491SOL    HW225107   1.009   3.467   4.138  0.2384  1.5634 -0.3286
 4492SOL     OW25108   0.514   3.126   9.269 -0.5140 -0.0042  0.1195
 4492SOL    HW125109   0.443   3.152   9.328 -1.1209  1.1372 -1.1295
 4492SOL    HW225110   0.527   3.204   9.215  0.9300 -0.4949 -0.2489
 4493SOL     OW25111   0.315   3.126  16.251 -0.0934 -0.4845  0.6757
 4493SOL    HW125112   0.379   3.056  16.239  1.5300  1.3511 -1.2917
 4493SOL    HW225113   0.363   3.201  16.217 -2.2180  0.6273  0.1457
 4494SOL     OW25114   1.920   0.942  14.945 -0.3497  0.2602  0.1346
 4494SOL    HW125115   2.011   0.968  14.929 -0.6632  0.2392 -1.7218
 4494SOL    HW225116   1.875   0.991  14.876  0.7380 -0.8898 -1.4077
 4495SOL     OW25117   1.379   3.585   9.229 -0.1448 -0.0287 -0.3493
 4495SOL    HW125118   1.347   3.566   9.317 -1.0954  0.3596 -0.6116
 4495SOL    HW225119   1.356   3.504   9.183  0.4530  0.2154 -1.0745
 4496SOL     OW25120   0.689   0.867   8.920 -0.2597  0.1343  0.0669
 4496SOL    HW125121   0.669   0.828   9.005  2.9396 -0.5951  0.4758
 4496SOL    HW225122   0.723   0.951   8.951 -0.5279 -0.4907  2.0576
 4497SOL     OW25123   3.388   4.124  14.548  0.2896  0.4566  0.4226
 4497SOL    HW125124   3.373   4.120  14.453  1.5314 -1.2593  0.3019
 4497SOL    HW225125   3.393   4.219  14.557  1.0776  0.3780  0.7751
 4498SOL     OW25126   1.864   4.707  14.911 -0.1669  0.7180  0.1165
 4498SOL    HW125127   1.863   4.718  15.006  2.2366  1.5393  0.0503
 4498SOL    HW225128   1.772   4.705  14.887 -0.7881 -2.2598  2.7665
 4499SOL     OW25129   2.963   4.408   2.845  0.2947 -0.2795  0.3008
 4499SOL    HW125130   3.022   4.344   2.882  1.6802  0.3617 -0.7819
 4499SOL    HW225131   2.888   4.349   2.846 -0.6171  0.8588 -0.2749
 4500SOL     OW25132   3.180   0.479   0.926  0.1094 -0.1750 -0.2716
 4500SOL    HW125133   3.206   0.567   0.899 -1.2917  1.0335  2.4326
 4500SOL    HW225134   3.261   0.428   0.935  0.0156 -0.4228 -0.8201
 4501SOL     OW25135   1.921   3.691   4.005  0.6787  0.5415 -0.3289
 4501SOL    HW125136   1.942   3.614   4.057  1.3576  1.0916  0.1996
 4501SOL    HW225137   1.865   3.650   3.939 -0.5288 -0.3359  1.2457
 4502SOL     OW25138   1.462   4.084   5.027  1.0598 -0.2698 -0.3355
 4502SOL    HW125139   1.427   4.039   5.104  1.3773  1.2422  0.6798
 4502SOL    HW225140   1.401   4.068   4.954  0.3544 -1.4262  0.5200
 4503SOL     OW25141   4.421   1.593   9.021  0.0081  0.0360  0.2251
 4503SOL    HW125142   4.406   1.498   9.024  1.2587 -0.1963 -1.2200
 4503SOL    HW225143   4.419   1.613   8.928 -1.8505  0.0371  0.2656
 4504SOL     OW25144   0.796   2.379   2.624  0.3370  0.0724 -0.3565
 4504SOL    HW125145   0.723   2.365   2.565 -0.3170  1.3927  0.1363
 4504SOL    HW225146   0.808   2.474   2.621 -0.2647  0.1238 -0.9586
 4505SOL     OW25147   3.443   4.507  12.718 -0.4924  0.4340  0.0010
 4505SOL    HW125148   3.417   4.486  12.629  2.4536 -1.0458 -0.5200
 4505SOL    HW225149   3.363   4.470  12.754 -0.2852  0.8203  0.8627
 4506SOL     OW25150   1.544   2.001   8.704 -0.1614  0.7031 -0.1159
 4506SOL    HW125151   1.629   1.956   8.704  1.1141  3.1357  1.5432
 4506SOL    HW225152   1.494   1.950   8.640 -1.6797  0.3808  1.3481
 4507SOL     OW25153   4.658   4.302   1.907 -0.5533 -0.3416  0.5286
 4507SOL    HW125154   0.001   4.293   1.852 -0.8108  1.0658 -0.0667
 4507SOL    HW225155   4.639   4.394   1.894  0.4310 -0.4063 -1.3865
 4508SOL     OW25156   3.933   2.688   7.423  0.1813 -0.2384  0.0766
 4508SOL    HW125157   3.949   2.676   7.330  1.3036 -1.2938  0.4078
 4508SOL    HW225158   3.922   2.782   7.438 -0.1030 -0.3194  0.3699
 4509SOL     OW25159   2.646   0.588   5.165  0.0844 -0.1182  0.4747
 4509SOL    HW125160   2.633   0.669   5.115 -2.5149 -1.9094 -1.7825
 4509SOL    HW225161   2.651   0.626   5.253  2.0027  0.1526  0.2318
 4510SOL     OW25162   2.027   1.507   4.964 -0.1122 -0.2197 -0.1540
 4510SOL    HW125163   2.090   1.435   4.952  0.0373 -0.1529  0.2337
 4510SOL    HW225164   2.077   1.553   5.031 -0.9176  0.2032  0.1476
 4511SOL     OW25165   0.273   1.119   1.624  0.6167  0.3949  0.0130
 4511SOL    HW125166   0.317   1.101   1.708  0.8715 -1.4552 -0.5133
 4511SOL    HW225167   0.199   1.172   1.653 -0.5472 -1.3003  0.1421
 4512SOL     OW25168   3.548   0.064  15.561 -0.1192 -0.5914 -0.2476
 4512SOL    HW125169   3.633   0.030  15.532 -1.3391 -2.6562 -1.3904
 4512SOL    HW225170   3.513   0.005  15.628  3.3413 -1.6238  0.6569
 4513SOL     OW25171   4.549   4.386   4.491  0.6839 -0.1746  0.5018
 4513SOL    HW125172   4.567   4.472   4.454 -0.9843 -0.3931 -0.7863
 4513SOL    HW225173   4.554   4.400   4.586  0.0862 -1.3142  0.6984
 4514SOL     OW25174   1.406   1.572   7.764  0.7367  1.3691 -0.0761
 4514SOL    HW125175   1.342   1.501   7.772  2.3626  0.0662  1.4704
 4514SOL    HW225176   1.461   1.550   7.840  0.9075 -0.2373 -0.6779
 4515SOL     OW25177   2.871   4.115   8.981 -0.3229  0.0180  0.5954
 4515SOL    HW125178   2.929   4.140   8.909 -0.4160 -0.3323  0.3991
 4515SOL    HW225179   2.874   4.189   9.042  0.4583 -1.0657  1.8875
 4516SOL     OW25180   3.044   3.568   5.781  0.4964 -0.2831  0.0093
 4516SOL    HW125181   3.018   3.604   5.866  0.2775  1.0662 -0.6271
 4516SOL    HW225182   2.983   3.496   5.767  1.2534 -0.3685 -2.9234
 4517SOL     OW25183   2.763   4.467   0.137  0.3205 -0.3784  0.0332
 4517SOL    HW125184   2.856   4.484   0.121  0.2637  0.9934  1.1774
 4517SOL    HW225185   2.717   4.547   0.112 -0.0175 -0.7040 -0.3792
 4518SOL     OW25186   0.275   3.520   8.085  0.2994  0.2220  0.3240
 4518SOL    HW125187   0.267   3.474   8.169 -1.8421 -1.0901 -0.6055
 4518SOL    HW225188   0.181   3.525   8.071  0.2872  0.4647  0.4975
 4519SOL     OW25189   2.354   2.830   8.195  0.2371 -0.5284  0.5032
 4519SOL    HW125190   2.422   2.762   8.201  0.7868  0.1542  2.0023
 4519SOL    HW225191   2.340   2.841   8.101 -1.4976 -0.4749  0.7755
 4520SOL     OW25192   4.699   3.931   2.207 -0.4026 -0.2349  0.0601
 4520SOL    HW125193   4.606   3.944   2.226 -0.3454  0.4579 -0.1306
 4520SOL    HW225194   4.697   3.875   2.129 -2.3010 -1.8418  1.2396
 4521SOL     OW25195   3.203   2.669   6.927 -0.6113 -0.0842  0.6519
 4521SOL    HW125196   3.149   2.674   7.006 -1.8970 -1.3201 -0.1501
 4521SOL    HW225197   3.280   2.627   6.967 -0.5127 -0.1898  0.3486
 4522SOL     OW25198   4.609   2.637   5.230  0.6072  0.4833 -0.2337
 4522SOL    HW125199   4.573   2.719   5.264  1.2166  0.5611  0.2449
 4522SOL    HW225200   4.585   2.635   5.138 -1.2890  0.8729  0.2565
 4523SOL     OW25201   2.243   3.546   8.839 -0.6847  0.0332  0.0421
 4523SOL    HW125202   2.265   3.602   8.765  0.6730 -1.8946 -1.0069
 4523SOL    HW225203   2.286   3.595   8.909 -0.3619  0.6091 -0.5709
 4524SOL     OW25204   0.196   3.076   3.605 -0.9132  0.5503 -0.1061
 4524SOL    HW125205   0.112   3.122   3.598 -1.2295 -0.4600 -2.7398
 4524SOL    HW225206   0.206   3.088   3.699  0.2403 -0.5565 -0.0920
 4525SOL     OW25207   1.180   3.322  16.625  0.2443  0.0667  0.2350
 4525SOL    HW125208   1.147   3.240  16.589 -1.5904 -0.1840  2.5215
 4525SOL    HW225209   1.106   3.327  16.684  1.5586  1.9602  1.7327
 4526SOL     OW25210   0.270   0.073   7.156 -0.9340  0.1675  0.5903
 4526SOL    HW125211   0.279   4.720   7.120  2.7914  0.2674  1.2807
 4526SOL    HW225212   0.235   0.111   7.075 -2.0748 -1.7184  0.1944
 4527SOL     OW25213   1.436   0.271   1.046 -0.6362  0.0205 -0.1998
 4527SOL    HW125214   1.388   0.342   1.090  0.0730  1.4335 -1.7208
 4527SOL    HW225215   1.527   0.300   1.041 -0.6140  0.0488  0.3714
 4528SOL     OW25216   2.128   2.714   4.156  0.5159  0.0320 -0.0178
 4528SOL    HW125217   2.097   2.775   4.089  1.9511  2.9518  1.9867
 4528SOL    HW225218   2.048   2.665   4.178  0.3459  0.4267  0.2453
 4529SOL     OW25219   4.457   3.817  14.620 -0.4579 -0.6450 -0.4438
 4529SOL    HW125220   4.443   3.886  14.684  2.0202  1.0669 -1.7368
 4529SOL    HW225221   4.530   3.854  14.570  0.1708  0.1511  1.0632
 4530SOL     OW25222   1.735   0.742   3.894 -0.5478  0.2102 -0.3548
 4530SOL    HW125223   1.785   0.809   3.847  0.5854  0.7261  1.5815
 4530SOL    HW225224   1.659   0.722   3.840 -0.4623 -1.9772  0.3183
 4531SOL     OW25225   2.908   3.886   4.917  0.4623  0.2079 -0.0844
 4531SOL    HW125226   2.914   3.811   4.858 -1.8088  0.1673 -0.2594
 4531SOL    HW225227   2.865   3.840   4.989 -0.2669  0.0324 -0.6360
 4532SOL     OW25228   3.881   0.163  16.707 -0.5096  0.0693 -0.8024
 4532SOL    HW125229   3.835   0.079  16.711 -0.0414 -0.2038 -1.2299
 4532SOL    HW225230   3.859   0.208  16.789 -1.4971  0.8823 -1.5180
 4533SOL     OW25231   2.738   1.560   8.095 -0.0247  0.3725  0.2720
 4533SOL    HW125232   2.825   1.571   8.133  0.9227 -0.6962 -1.6556
 4533SOL    HW225233   2.712   1.484   8.146 -1.4502  0.4164 -0.3849
 4534SOL     OW25234   1.688   0.504   4.352 -0.6237  0.2662 -0.3692
 4534SOL    HW125235   1.688   0.475   4.443  0.5024  1.1343 -0.0972
 4534SOL    HW225236   1.617   0.568   4.360 -0.3008  0.8456 -2.0441
 4535SOL     OW25237   2.926   4.149   0.861 -0.5448 -0.1967 -0.0722
 4535SOL    HW125238   3.008   4.122   0.820  0.1067  2.5456 -0.6084
 4535SOL    HW225239   2.910   4.239   0.831 -3.2072  0.0028  1.8815
 4536SOL     OW25240   3.945   3.799   2.529  0.3379 -0.1456 -1.0784
 4536SOL    HW125241   3.960   3.890   2.556 -0.4465  0.8174 -3.9284
 4536SOL    HW225242   4.031   3.790   2.488  0.1105 -2.3274 -1.0377
 4537SOL     OW25243   4.461   1.315   6.541  0.6202  0.1365  0.4346
 4537SOL    HW125244   4.542   1.268   6.523  0.3457 -0.0301 -0.4019
 4537SOL    HW225245   4.443   1.359   6.457 -3.4198 -1.4996  0.4298
 4538SOL     OW25246   3.295   3.470   6.587  0.7438 -0.1790  0.4944
 4538SOL    HW125247   3.354   3.545   6.589 -0.3674  0.7247 -1.5122
 4538SOL    HW225248   3.220   3.504   6.636  1.1290  0.9796  0.2564
 4539SOL     OW25249   2.240   3.671   7.971  0.1476 -0.3864  0.1575
 4539SOL    HW125250   2.294   3.749   7.957  1.0133 -0.8955  0.7018
 4539SOL    HW225251   2.302   3.599   7.961  0.4731 -0.0687 -0.1709
 4540SOL     OW25252   0.498   0.450   5.924  0.0550  0.4173 -0.1657
 4540SOL    HW125253   0.566   0.432   5.988  0.7098  3.1052 -0.1056
 4540SOL    HW225254   0.435   0.378   5.925  2.5869 -1.7742 -0.9161
 4541SOL     OW25255   3.185   0.068   5.237 -0.0804 -0.2541 -0.6438
 4541SOL    HW125256   3.269   0.044   5.275 -0.4067  1.0935  0.9107
 4541SOL    HW225257   3.138   0.109   5.310  0.0927 -1.4545  0.1468
 4542SOL     OW25258   2.780   1.233   0.758 -0.4101 -0.4520  0.0012
 4542SOL    HW125259   2.795   1.299   0.826 -0.2850 -0.0009 -0.4663
 4542SOL    HW225260   2.774   1.293   0.684 -0.4754  1.0207  1.1865
 4543SOL     OW25261   2.251   0.289   3.054 -0.2059  0.4191  0.5941
 4543SOL    HW125262   2.251   0.196   3.032 -1.0625  0.8430 -1.1739
 4543SOL    HW225263   2.157   0.301   3.065 -0.4769 -0.4361 -0.7656
 4544SOL     OW25264   1.389   1.902   7.064 -0.1408  0.1523 -0.4393
 4544SOL    HW125265   1.438   1.860   6.993  2.3220  0.4110  1.0933
 4544SOL    HW225266   1.437   1.879   7.144 -2.1762  2.9327  1.6023
 4545SOL     OW25267   2.787   1.449  12.278 -0.6937  0.1150 -0.4158
 4545SOL    HW125268   2.790   1.387  12.351  1.0650  0.5872 -0.0707
 4545SOL    HW225269   2.763   1.406  12.196  0.4013 -0.1755 -0.5836
 4546SOL     OW25270   0.681   4.481   3.958  0.7338 -0.4142  0.4773
 4546SOL    HW125271   0.624   4.518   4.025 -0.5839  0.4082 -1.1121
 4546SOL    HW225272   0.746   4.551   3.956  0.0320  0.1696 -1.4602
 4547SOL     OW25273   1.799   1.140   3.963  0.6701 -0.0948 -0.7365
 4547SOL    HW125274   1.794   1.097   4.048 -0.2185 -2.2940 -1.9167
 4547SOL    HW225275   1.798   1.229   3.997 -0.5294 -0.9912  1.5370
 4548SOL     OW25276   0.891   1.075   9.554  0.4256  0.3882 -0.3407
 4548SOL    HW125277   0.889   1.051   9.647  0.5157  0.5770 -0.2903
 4548SOL    HW225278   0.910   1.169   9.559 -0.5004  0.6366 -1.5591
 4549SOL     OW25279   3.090   2.538   8.421 -0.4542 -0.7840 -0.3800
 4549SOL    HW125280   3.075   2.632   8.435  1.9837 -0.0004 -2.8246
 4549SOL    HW225281   3.121   2.538   8.330 -0.9501 -1.3518 -0.5452
 4550SOL     OW25282   2.181   4.496   2.551 -0.0381  0.1816  0.0393
 4550SOL    HW125283   2.190   4.451   2.635 -0.7292  0.9593  0.5320
 4550SOL    HW225284   2.245   4.444   2.501  0.6610 -0.4007  1.5588
 4551SOL     OW25285   3.302   1.499   3.082  0.1586 -0.5059  0.2688
 4551SOL    HW125286   3.317   1.592   3.100 -0.2390 -0.4440  0.2780
 4551SOL    HW225287   3.330   1.466   3.167  1.6073  1.6358  0.6350
 4552SOL     OW25288   4.555   4.194   7.262 -0.0828 -0.5251 -0.3853
 4552SOL    HW125289   4.572   4.288   7.258  4.5844 -1.2888  0.6085
 4552SOL    HW225290   4.615   4.162   7.194 -0.3747  1.6909 -1.6876
 4553SOL     OW25291   2.722   2.200   0.726 -0.1966  0.5310 -0.5016
 4553SOL    HW125292   2.779   2.196   0.650 -1.6718 -1.0128 -1.5195
 4553SOL    HW225293   2.699   2.108   0.742 -1.9088  1.3833  1.9504
 4554SOL     OW25294   0.954   3.925   6.485  0.1252  0.3856  0.3703
 4554SOL    HW125295   0.993   4.010   6.465 -2.0198  1.5026  0.9320
 4554SOL    HW225296   0.863   3.953   6.471 -0.1416 -0.4278  0.4628
 4555SOL     OW25297   4.054   1.696   3.883 -0.3089 -0.2218 -0.1343
 4555SOL    HW125298   3.963   1.721   3.870 -0.0157  1.6597  1.3763
 4555SOL    HW225299   4.076   1.750   3.959 -2.5032 -1.1300  1.1350
 4556SOL     OW25300   4.620   1.188  15.835 -0.6469  0.3748  0.9170
 4556SOL    HW125301   4.524   1.184  15.829 -0.5711 -2.0939  1.6004
 4556SOL    HW225302   4.644   1.225  15.750 -3.3122 -2.0098 -0.8445
 4557SOL     OW25303   1.692   0.589   8.657  0.4755 -0.6262  0.5310
 4557SOL    HW125304   1.656   0.612   8.743 -3.6982 -0.7985 -1.1514
 4557SOL    HW225305   1.767   0.649   8.659 -0.7819  0.9551  0.3460
 4558SOL     OW25306   3.101   0.552   2.358  0.1933  0.1902 -0.4903
 4558SOL    HW125307   3.022   0.554   2.304  0.9066 -0.7988 -1.5701
 4558SOL    HW225308   3.096   0.461   2.387  1.1230  0.3248  0.0899
 4559SOL     OW25309   1.543   0.619   9.923  0.0415 -0.5164 -0.4917
 4559SOL    HW125310   1.561   0.683   9.991  2.0410 -1.4281 -0.1760
 4559SOL    HW225311   1.451   0.643   9.910  0.8425  1.7039 -2.0581
 4560SOL     OW25312   1.182   0.475   7.764  0.2943 -0.5075  0.2477
 4560SOL    HW125313   1.150   0.471   7.855  1.4732  1.0923  0.7183
 4560SOL    HW225314   1.262   0.525   7.779 -0.9887  1.0936  1.7985
 4561SOL     OW25315   3.916   3.380  12.968 -0.7023  0.4785 -0.0180
 4561SOL    HW125316   3.873   3.423  12.895 -1.5404  0.2834  0.3668
 4561SOL    HW225317   3.974   3.316  12.926 -1.4375  1.0984 -1.9534
 4562SOL     OW25318   3.000   3.819   7.090 -0.0873 -0.3363 -0.0237
 4562SOL    HW125319   3.016   3.799   6.998  2.6538 -0.9880  0.5830
 4562SOL    HW225320   2.910   3.791   7.104 -0.6159  0.7739 -1.2659
 4563SOL     OW25321   1.144   4.360  10.371  0.0804  0.4889  0.1732
 4563SOL    HW125322   1.135   4.453  10.388  0.5973  0.5715 -0.0257
 4563SOL    HW225323   1.171   4.344  10.462 -2.1557 -2.0069  0.4100
 4564SOL     OW25324   1.761   3.208   9.301  0.1464  0.4740  0.2758
 4564SOL    HW125325   1.682   3.157   9.283 -0.0263  1.0028 -0.4650
 4564SOL    HW225326   1.817   3.131   9.292 -0.1543  0.2453  0.3626
 4565SOL     OW25327   1.575   1.736   5.762 -0.1777 -0.1889  0.3320
 4565SOL    HW125328   1.604   1.644   5.764  2.1580  0.5299 -1.0745
 4565SOL    HW225329   1.634   1.776   5.699  0.5521  1.1394  1.8489
 4566SOL     OW25330   0.100   1.028   7.494 -0.0289  0.2392 -0.0967
 4566SOL    HW125331   0.035   0.987   7.438  0.2415 -1.6034  0.9596
 4566SOL    HW225332   0.124   1.105   7.442 -3.1962  1.5612  0.4119
 4567SOL     OW25333   2.810   3.852   2.334  0.3905  0.3687  0.3973
 4567SOL    HW125334   2.861   3.926   2.300  1.5458 -1.8493 -2.6686
 4567SOL    HW225335   2.857   3.813   2.407 -0.5935 -0.3199  0.6699
 4568SOL     OW25336   2.674   4.693   1.514  0.3158  0.4500  0.2658
 4568SOL    HW125337   2.603   0.022   1.503  1.6206  2.0308  1.2274
 4568SOL    HW225338   2.653   4.651   1.598 -1.0742  1.3828  0.3866
 4569SOL     OW25339   1.312   2.303   8.092  0.3463  0.0869 -1.1545
 4569SOL    HW125340   1.388   2.264   8.136  2.6463  2.8146 -2.7091
 4569SOL    HW225341   1.244   2.303   8.159  1.7107  0.2026  0.2392
 4570SOL     OW25342   0.720   1.010   4.296  0.4244  0.5682  0.2471
 4570SOL    HW125343   0.659   0.997   4.369 -0.8342 -0.6911 -1.0331
 4570SOL    HW225344   0.667   1.048   4.226  2.4913  1.3422 -0.8857
 4571SOL     OW25345   3.345   0.200   9.315  0.1461  0.4437 -0.0867
 4571SOL    HW125346   3.270   0.142   9.334 -0.2009  1.1215  0.5870
 4571SOL    HW225347   3.369   0.190   9.223 -0.9929  0.1710 -0.3643
 4572SOL     OW25348   2.736   1.609   0.116  0.1699  0.2919  0.5225
 4572SOL    HW125349   2.771   1.697   0.124 -2.1083  1.3282 -0.8544
 4572SOL    HW225350   2.662   1.612   0.055  1.1457 -0.6183 -0.7116
 4573SOL     OW25351   3.726   3.744   6.081 -0.5819 -0.4830  0.2725
 4573SOL    HW125352   3.638   3.715   6.057 -0.4874  1.2999 -2.2229
 4573SOL    HW225353   3.716   3.816   6.143 -2.7892  0.3889 -1.1210
 4574SOL     OW25354   2.034   3.530  12.733  0.2597 -0.5899  0.1653
 4574SOL    HW125355   1.975   3.507  12.661 -0.6202 -1.9730  1.3366
 4574SOL    HW225356   2.112   3.484  12.702  0.6719  0.4139 -0.2956
 4575SOL     OW25357   2.349   3.542   1.849 -0.2819  0.1311  0.1190
 4575SOL    HW125358   2.390   3.615   1.804  0.9534 -0.1486  0.7951
 4575SOL    HW225359   2.278   3.529   1.787 -1.7549  0.7687  1.6713
 4576SOL     OW25360   1.334   1.315   4.706 -0.5471 -0.0331  0.6211
 4576SOL    HW125361   1.250   1.352   4.678 -0.3665 -0.4598 -0.4566
 4576SOL    HW225362   1.391   1.330   4.631 -0.4807 -1.5070  0.3831
 4577SOL     OW25363   0.519   3.914  12.994  0.8390 -0.3488  0.1874
 4577SOL    HW125364   0.599   3.875  13.028 -0.1693 -0.8056  2.0657
 4577SOL    HW225365   0.555   3.990  12.950  3.4144 -0.2652  2.4861
 4578SOL     OW25366   4.147   0.969   6.226 -0.3589  0.1240 -0.9060
 4578SOL    HW125367   4.058   0.989   6.257 -0.0671 -2.5837  1.7434
 4578SOL    HW225368   4.145   0.985   6.132 -2.3701 -0.4477 -0.9738
 4579SOL     OW25369   1.121   3.784  13.295 -0.0283 -0.3858 -0.9329
 4579SOL    HW125370   1.105   3.865  13.246  2.3867  0.8859  0.3617
 4579SOL    HW225371   1.172   3.815  13.370  1.3545  0.2992 -2.1660
 4580SOL     OW25372   4.501   3.638  11.111  0.0448 -0.0449  0.0002
 4580SOL    HW125373   4.423   3.656  11.058  0.4064 -1.2236 -0.9294
 4580SOL    HW225374   4.547   3.721  11.125 -0.1961  0.1406 -0.2881
 4581SOL     OW25375   1.456   4.634  12.413  0.4258 -0.6702  0.0711
 4581SOL    HW125376   1.546   4.604  12.402  1.3538  2.3134 -0.5847
 4581SOL    HW225377   1.472   4.723  12.444 -4.0476  0.5849 -1.2003
 4582SOL     OW25378   4.249   1.122  17.101  0.1393  0.9745 -0.1850
 4582SOL    HW125379   4.293   1.121  17.017  1.2044 -1.3977  0.4288
 4582SOL    HW225380   4.319   1.165  17.149 -1.5372  0.6999  2.5430
 4583SOL     OW25381   3.938   1.654   7.268  0.5483  0.0842  0.1537
 4583SOL    HW125382   3.934   1.685   7.358 -1.1034  0.9834 -0.2292
 4583SOL    HW225383   4.019   1.602   7.268  1.7743  1.9959  0.9219
 4584SOL     OW25384   0.345   2.272  17.560  0.7127 -0.1313 -0.2739
 4584SOL    HW125385   0.312   2.309  17.479 -0.5276  1.0758  0.7819
 4584SOL    HW225386   0.403   2.202  17.529 -0.1103 -0.6741 -0.5843
 4585SOL     OW25387   4.036   0.880   3.472 -0.0835 -0.5238 -0.2883
 4585SOL    HW125388   4.038   0.869   3.377 -1.2502  1.1945 -0.5247
 4585SOL    HW225389   4.083   0.964   3.470  0.4249 -0.9014 -4.2340
 4586SOL     OW25390   0.598   4.045   2.623 -0.2762  0.4076  0.4533
 4586SOL    HW125391   0.613   4.060   2.529  0.3980 -1.0647  0.3243
 4586SOL    HW225392   0.658   3.974   2.647 -1.0412 -0.4754 -0.2345
 4587SOL     OW25393   2.185   1.867   7.902 -0.0619 -0.0102 -0.0862
 4587SOL    HW125394   2.148   1.955   7.888  1.1821  0.7118  1.1342
 4587SOL    HW225395   2.171   1.854   7.996  0.0720  1.4419  0.1490
 4588SOL     OW25396   1.451   0.317   3.803  0.0166  0.7125  0.0481
 4588SOL    HW125397   1.466   0.225   3.824 -0.0016  1.2513  2.4085
 4588SOL    HW225398   1.537   0.347   3.830  0.6159 -1.5463  0.6170
 4589SOL     OW25399   3.379   1.649   2.649  0.1293  0.2094 -0.2389
 4589SOL    HW125400   3.462   1.624   2.689 -0.5268 -1.1636  0.2684
 4589SOL    HW225401   3.313   1.596   2.694 -0.4756  1.8177  0.7542
 4590SOL     OW25402   0.519   2.860   8.478  0.5369  0.6559  0.1759
 4590SOL    HW125403   0.484   2.949   8.466  0.2260  0.3566 -1.1185
 4590SOL    HW225404   0.610   2.886   8.496  0.1314  3.5012 -1.7393
 4591SOL     OW25405   2.647   2.582   8.540 -0.5682 -0.2477  0.1604
 4591SOL    HW125406   2.705   2.508   8.521  3.6112  2.8417  0.7336
 4591SOL    HW225407   2.636   2.623   8.454 -3.6146 -1.0154  0.1976
 4592SOL     OW25408   3.892   0.677   8.531  0.6066  0.3736  0.0968
 4592SOL    HW125409   3.860   0.765   8.552  1.5363  0.8178 -0.3232
 4592SOL    HW225410   3.919   0.652   8.619  0.9890 -0.0249 -0.1310
 4593SOL     OW25411   2.852   2.447  14.232  0.3711  0.0673  0.1366
 4593SOL    HW125412   2.887   2.459  14.144 -0.4833 -0.4956 -0.2733
 4593SOL    HW225413   2.807   2.530  14.248 -1.4809 -0.4502 -2.5414
 4594SOL     OW25414   0.122   0.545   4.379  0.0270  0.3340 -0.1569
 4594SOL    HW125415   0.043   0.598   4.378 -0.3771 -0.2749 -0.2167
 4594SOL    HW225416   0.190   0.596   4.423  0.1830 -1.6480  1.9503
 4595SOL     OW25417   3.092   0.517   9.424  0.2163 -0.1299  0.6215
 4595SOL    HW125418   3.156   0.568   9.474  0.7551  0.8968 -1.1333
 4595SOL    HW225419   3.076   0.574   9.349  0.0360 -1.7846 -0.5750
 4596SOL     OW25420   0.348   1.196  15.393 -0.2264 -0.0969 -0.6223
 4596SOL    HW125421   0.312   1.280  15.421  1.1860  0.8728 -1.7266
 4596SOL    HW225422   0.391   1.212  15.309 -0.0531  2.9929  0.0351
 4597SOL     OW25423   1.613   3.482   5.160 -0.3651  0.3809  0.0948
 4597SOL    HW125424   1.655   3.409   5.115 -0.5973  0.9259 -0.9976
 4597SOL    HW225425   1.686   3.543   5.170 -0.1149  0.1371 -0.2240
 4598SOL     OW25426   3.588   1.233   3.213  0.2796  0.3932 -0.0888
 4598SOL    HW125427   3.669   1.194   3.246  0.1145  0.1852  0.0671
 4598SOL    HW225428   3.513   1.180   3.241  0.4328  0.1586 -0.1226
 4599SOL     OW25429   3.229   1.833   5.488 -0.5193  0.1481 -0.4982
 4599SOL    HW125430   3.228   1.819   5.583 -0.8149  0.0460 -0.5183
 4599SOL    HW225431   3.222   1.928   5.483 -0.0869  0.1811 -0.4912
 4600SOL     OW25432   3.111   2.436  11.639 -0.7473  0.4531 -0.8046
 4600SOL    HW125433   3.154   2.460  11.721 -0.0179 -0.3707 -0.9440
 4600SOL    HW225434   3.021   2.441  11.670 -0.4509 -1.9910  0.4070
 4601SOL     OW25435   0.868   1.346   6.138  0.1256 -0.2379 -0.5977
 4601SOL    HW125436   0.828   1.262   6.114 -0.0975 -0.3434  0.1190
 4601SOL    HW225437   0.797   1.409   6.132  1.0700  0.7681 -1.1010
 4602SOL     OW25438   1.836   0.677   1.878 -0.4589  0.3074  0.8089
 4602SOL    HW125439   1.830   0.668   1.783  2.2932  0.2608  0.6415
 4602SOL    HW225440   1.811   0.770   1.882  3.4473  1.4336 -0.8010
 4603SOL     OW25441   4.036   0.079   8.156 -0.2826 -0.7511 -0.2635
 4603SOL    HW125442   4.022   0.051   8.246 -3.0006  0.0803 -0.4346
 4603SOL    HW225443   4.016   0.172   8.165 -0.7651 -0.8910  0.0875
 4604SOL     OW25444   2.623   2.704  12.787  0.5921 -0.1124  0.0143
 4604SOL    HW125445   2.590   2.724  12.874 -1.9659  0.8954 -1.1849
 4604SOL    HW225446   2.571   2.626  12.766 -0.7985  0.6878  0.4731
 4605SOL     OW25447   0.352   4.500  12.584  0.5757 -0.3641 -0.4407
 4605SOL    HW125448   0.276   4.479  12.639  0.1750 -1.8352 -1.5740
 4605SOL    HW225449   0.422   4.519  12.646  0.5223 -0.1478 -0.4456
 4606SOL     OW25450   2.900   3.140   5.836  0.2177 -0.0730  0.1147
 4606SOL    HW125451   2.825   3.107   5.885 -0.2282  2.2425  0.9865
 4606SOL    HW225452   2.940   3.057   5.811  1.0167  0.1968  0.4871
 4607SOL     OW25453   0.419   1.735  16.037  0.3222 -0.1458  0.3372
 4607SOL    HW125454   0.501   1.752  15.991 -0.3563  1.3678 -0.3066
 4607SOL    HW225455   0.449   1.747  16.127 -1.9380 -0.2566  1.1127
 4608SOL     OW25456   3.485   3.142   7.112  0.2066  0.1091  0.0924
 4608SOL    HW125457   3.565   3.133   7.060 -0.4921  2.1114 -1.3010
 4608SOL    HW225458   3.426   3.176   7.045 -0.4920 -0.4139  0.4358
 4609SOL     OW25459   3.866   1.506   2.253 -0.1121 -0.3611  0.2452
 4609SOL    HW125460   3.870   1.556   2.334  1.5712 -0.3415  0.1369
 4609SOL    HW225461   3.788   1.450   2.260 -1.1281  1.1051  0.6477
 4610SOL     OW25462   2.442   3.930   3.329  0.3285  0.0602  0.5960
 4610SOL    HW125463   2.397   4.006   3.367 -0.1601  1.8483 -3.4872
 4610SOL    HW225464   2.401   3.856   3.373  1.3822 -0.1469  1.2250
 4611SOL     OW25465   3.626   1.389   6.212 -0.1993  0.3701 -0.1860
 4611SOL    HW125466   3.605   1.415   6.301  0.9028  2.2812 -0.5012
 4611SOL    HW225467   3.721   1.380   6.208 -0.1090  0.4963  2.0120
 4612SOL     OW25468   1.114   0.224   6.756 -0.1730  0.0457  0.1929
 4612SOL    HW125469   1.081   0.183   6.836  1.5144 -1.2135  0.2466
 4612SOL    HW225470   1.205   0.218   6.785  0.4616 -0.1509 -1.8189
 4613SOL     OW25471   3.547   0.907  10.844  0.0510 -0.3079 -0.0143
 4613SOL    HW125472   3.516   0.891  10.933  1.6083 -1.8951  0.2486
 4613SOL    HW225473   3.640   0.924  10.863  0.1890  1.7522 -2.3926
 4614SOL     OW25474   1.900   3.314  13.359 -0.3790 -0.0382 -0.2380
 4614SOL    HW125475   1.910   3.223  13.331 -0.2707  0.4410 -1.7492
 4614SOL    HW225476   1.806   3.320  13.343 -0.3278  0.5959 -0.3184
 4615SOL     OW25477   2.903   4.367  15.960 -0.3279 -0.2773  0.5223
 4615SOL    HW125478   2.918   4.388  15.868 -0.0024 -0.6497  0.4901
 4615SOL    HW225479   2.808   4.379  15.961 -0.3017  0.0969 -1.8570
 4616SOL     OW25480   1.734   2.257  13.277 -0.7833 -0.5298 -0.2074
 4616SOL    HW125481   1.810   2.277  13.222 -1.1572  1.5185  0.0354
 4616SOL    HW225482   1.673   2.245  13.205 -1.4896 -0.6005  0.4002
 4617SOL     OW25483   2.932   1.823   4.183  0.7673  0.3377  0.2863
 4617SOL    HW125484   2.998   1.865   4.128  0.2686 -0.3808 -0.8681
 4617SOL    HW225485   2.937   1.873   4.264  2.0366  0.8056 -0.0804
 4618SOL     OW25486   1.408   4.022   3.590  0.0793 -0.0125  0.0109
 4618SOL    HW125487   1.328   3.970   3.591  0.0637  0.0400  0.8670
 4618SOL    HW225488   1.372   4.111   3.588 -0.0998 -0.0705  0.7670
 4619SOL     OW25489   3.369   1.520   8.921 -0.3084 -0.0628 -0.2526
 4619SOL    HW125490   3.405   1.462   8.989 -0.1952 -0.4464 -0.6358
 4619SOL    HW225491   3.446   1.533   8.865  0.7468  0.3550  1.3043
 4620SOL     OW25492   0.836   3.471   2.038  0.0929  0.1617  0.0651
 4620SOL    HW125493   0.771   3.422   2.088  1.1605 -1.2422  0.0949
 4620SOL    HW225494   0.779   3.515   1.974 -0.2952  0.9607  0.9685
 4621SOL     OW25495   3.617   4.105  12.367  0.4113 -0.3458 -0.0124
 4621SOL    HW125496   3.562   4.036  12.330  1.2240 -0.7826 -0.4056
 4621SOL    HW225497   3.669   4.053  12.428 -1.3625 -0.3421  1.5085
 4622SOL     OW25498   0.798   0.859   2.034  0.0447 -0.1582 -0.2324
 4622SOL    HW125499   0.832   0.838   1.947 -1.2442 -1.1480 -0.4986
 4622SOL    HW225500   0.821   0.777   2.079 -0.8810 -0.4203 -0.2388
 4623SOL     OW25501   3.872   2.987   8.802 -0.3663  0.5004 -0.1545
 4623SOL    HW125502   3.847   3.023   8.887  1.9470  0.8026  0.4061
 4623SOL    HW225503   3.955   2.944   8.821 -0.4880 -0.6018 -2.1516
 4624SOL     OW25504   2.768   1.804   7.967  0.7430 -0.1227 -0.4867
 4624SOL    HW125505   2.722   1.720   7.960 -0.4981  0.6918 -1.9844
 4624SOL    HW225506   2.796   1.777   8.054 -0.6936 -0.6198 -0.1695
 4625SOL     OW25507   2.007   0.164   9.523  0.0261 -0.1880  0.1338
 4625SOL    HW125508   1.923   0.128   9.495 -1.1451  2.1214  0.6797
 4625SOL    HW225509   2.061   0.088   9.548  1.8073  1.3846  1.0575
 4626SOL     OW25510   0.044   0.923   2.532 -0.0152  0.1470  0.0631
 4626SOL    HW125511   0.030   0.994   2.594 -2.0308  0.8190 -1.1763
 4626SOL    HW225512   0.138   0.911   2.540  0.1191  2.5012  1.8368
 4627SOL     OW25513   3.826   3.149   4.891 -0.1169 -0.8538  0.3872
 4627SOL    HW125514   3.752   3.209   4.904  1.7308  2.1939 -3.0754
 4627SOL    HW225515   3.809   3.125   4.801 -1.0502  0.5104  0.2000
 4628SOL     OW25516   3.726   0.318  17.220  0.1601  0.3577 -0.4609
 4628SOL    HW125517   3.741   0.412  17.211 -2.4375  0.7778 -0.2697
 4628SOL    HW225518   3.633   0.298  17.228  0.5222 -0.7712  1.0083
 4629SOL     OW25519   2.812   1.059  12.628  0.1540 -0.1263  0.7984
 4629SOL    HW125520   2.858   1.100  12.701  0.0966  0.1101  0.7055
 4629SOL    HW225521   2.739   1.004  12.654  1.3147 -0.4727  3.2559
 4630SOL     OW25522   2.056   1.207   6.091 -0.2562 -0.3328 -0.3724
 4630SOL    HW125523   2.147   1.236   6.099 -0.3662  0.1262 -0.7948
 4630SOL    HW225524   2.072   1.132   6.148 -0.0096 -0.1304 -0.1724
 4631SOL     OW25525   0.731   0.199   4.945  0.3375  0.5253  0.5077
 4631SOL    HW125526   0.706   0.289   4.965 -3.3039 -1.1198  3.2818
 4631SOL    HW225527   0.784   0.222   4.868  0.9599 -1.2907  0.3939
 4632SOL     OW25528   0.614   3.543   6.176 -0.2161  0.4552  0.1640
 4632SOL    HW125529   0.630   3.484   6.250 -0.8322  0.3055  0.1798
 4632SOL    HW225530   0.644   3.492   6.101 -1.0922  1.0453 -0.5988
 4633SOL     OW25531   1.746   0.149   7.239  0.2450 -0.0998 -0.4995
 4633SOL    HW125532   1.832   0.176   7.271  0.4857  0.2026 -1.4019
 4633SOL    HW225533   1.772   0.057   7.244  2.1389  0.3612 -2.0381
 4634SOL     OW25534   1.679   0.836   0.577 -0.1216 -0.4681 -0.2263
 4634SOL    HW125535   1.706   0.794   0.659 -2.0683  0.9417  1.1252
 4634SOL    HW225536   1.584   0.822   0.586 -0.5534  0.9321 -2.5533
 4635SOL     OW25537   2.438   1.304  17.656 -0.1511  0.1822  0.6659
 4635SOL    HW125538   2.434   1.209  17.662  2.8607 -0.0396 -1.0011
 4635SOL    HW225539   2.463   1.332   0.004  1.8166 -2.0190  0.8149
 4636SOL     OW25540   0.904   2.402   7.664 -0.0512  0.3981  0.2861
 4636SOL    HW125541   0.845   2.404   7.589 -0.4501  3.8459  0.6944
 4636SOL    HW225542   0.972   2.446   7.613 -1.5321  0.7662 -1.3440
 4637SOL     OW25543   1.423   2.011   7.871  0.0803  0.1899 -0.4770
 4637SOL    HW125544   1.459   1.963   7.796 -0.7630  0.6030 -1.1449
 4637SOL    HW225545   1.380   1.939   7.917  0.9455 -0.6184 -0.9195
 4638SOL     OW25546   2.086   4.451   1.003  0.3485 -0.4014  0.0809
 4638SOL    HW125547   2.071   4.545   0.988  1.1510 -0.2732  0.0997
 4638SOL    HW225548   2.000   4.414   1.022 -1.7120  3.0997 -2.3631
 4639SOL     OW25549   0.937   2.671   4.676  0.1158  0.2205 -0.2227
 4639SOL    HW125550   0.951   2.593   4.730 -0.4748 -2.0266 -3.3119
 4639SOL    HW225551   0.932   2.640   4.586  1.7215 -0.3613 -0.1211
 4640SOL     OW25552   1.143   3.915   2.552  0.0292 -0.4227  0.2847
 4640SOL    HW125553   1.132   3.994   2.500 -1.7202 -1.3624 -0.7817
 4640SOL    HW225554   1.209   3.927   2.621  0.7878 -0.3097 -0.4716
 4641SOL     OW25555   2.793   0.326   0.010 -0.2320 -0.3345 -0.5454
 4641SOL    HW125556   2.755   0.397  17.697 -0.6433  0.6153  1.0348
 4641SOL    HW225557   2.867   0.300  17.695 -0.9808 -0.8160 -1.3244
 4642SOL     OW25558   1.241   0.787  17.506  0.2480 -0.2072  0.0155
 4642SOL    HW125559   1.191   0.722  17.457  1.1998 -1.5854  0.8726
 4642SOL    HW225560   1.265   0.851  17.439  0.4926 -1.1328 -0.7809
 4643SOL     OW25561   0.368   0.970   3.951  0.2223 -1.0306  0.7082
 4643SOL    HW125562   0.332   1.054   3.982  2.9264  0.6060 -0.5603
 4643SOL    HW225563   0.305   0.948   3.883  1.9568  1.6789 -1.7983
 4644SOL     OW25564   1.839   4.631   3.917  0.3442  0.2738  0.1397
 4644SOL    HW125565   1.847   4.726   3.924 -0.9671  0.3537  0.4965
 4644SOL    HW225566   1.747   4.617   3.938  0.2266  0.9634  0.0629
 4645SOL     OW25567   0.071   4.668   6.549 -0.2251 -0.1880  0.2644
 4645SOL    HW125568   0.147   4.723   6.570  0.9627 -1.2842 -1.2230
 4645SOL    HW225569   0.066   4.619   6.631 -0.1286  1.8538  1.5141
 4646SOL     OW25570   3.685   0.472  14.703  0.2274  0.1303 -0.7590
 4646SOL    HW125571   3.727   0.455  14.787  2.4455  3.2174 -1.2112
 4646SOL    HW225572   3.701   0.567  14.701 -0.5203  0.2954  1.3180
 4647SOL     OW25573   2.850   2.906   3.624 -0.1966  0.7988  0.3982
 4647SOL    HW125574   2.824   2.914   3.532  0.7840  1.3451  0.1633
 4647SOL    HW225575   2.768   2.924   3.671 -0.2267  1.2207  0.1835
 4648SOL     OW25576   3.480   2.701   6.275  0.1274 -0.3729 -0.0245
 4648SOL    HW125577   3.456   2.784   6.234 -0.9284 -0.6589  0.0057
 4648SOL    HW225578   3.428   2.707   6.355  0.7509  1.6381  0.2226
 4649SOL     OW25579   0.859   3.516   8.009  0.4643  0.0409  0.0807
 4649SOL    HW125580   0.789   3.537   7.948  0.1434 -0.8390  0.1555
 4649SOL    HW225581   0.840   3.585   8.073 -0.3305  1.4639 -1.6888
 4650SOL     OW25582   2.108   3.451   9.775 -0.0173  0.0561 -0.1987
 4650SOL    HW125583   2.189   3.485   9.815  0.3401 -1.5779  0.4734
 4650SOL    HW225584   2.081   3.528   9.725  1.0738  1.5389  1.4649
 4651SOL     OW25585   2.080   4.409  11.104  0.8547 -0.3397 -0.1963
 4651SOL    HW125586   2.087   4.403  11.009  0.4092  1.1591 -0.3226
 4651SOL    HW225587   2.032   4.329  11.128  1.1565  0.3096  2.5993
 4652SOL     OW25588   3.894   2.192  16.008  0.4533  0.0384 -0.2299
 4652SOL    HW125589   3.954   2.173  15.936 -0.1051 -0.7326 -0.4886
 4652SOL    HW225590   3.942   2.265  16.047  1.7235 -0.7531 -0.3113
 4653SOL     OW25591   0.588   3.622   3.842 -0.6393 -0.0985  0.0647
 4653SOL    HW125592   0.599   3.693   3.779 -0.2553  0.6965  1.0244
 4653SOL    HW225593   0.663   3.578   3.801 -0.8691 -1.1857  0.7942
 4654SOL     OW25594   3.866   0.995  16.956  0.2025  0.0565 -0.2045
 4654SOL    HW125595   3.826   0.953  16.880  1.7738 -0.2581 -0.8381
 4654SOL    HW225596   3.948   0.947  16.965  0.1621  0.3326  1.5703
 4655SOL     OW25597   0.287   2.721   2.702 -0.4872 -0.0205 -0.6717
 4655SOL    HW125598   0.229   2.719   2.627 -1.4531 -2.3700  0.1471
 4655SOL    HW225599   0.254   2.795   2.753  1.5233  0.6337 -0.2764
 4656SOL     OW25600   4.144   1.557   0.565  0.6372 -0.7513  0.4648
 4656SOL    HW125601   4.094   1.476   0.559 -2.1970  1.1596 -2.0619
 4656SOL    HW225602   4.115   1.592   0.480  0.8419 -0.8864  0.3406
 4657SOL     OW25603   1.388   1.583  14.098  0.0657 -0.1443 -0.3258
 4657SOL    HW125604   1.297   1.559  14.081  0.0509 -2.4317  2.8957
 4657SOL    HW225605   1.383   1.677  14.117  1.3302  0.0653 -1.0050
 4658SOL     OW25606   3.973   1.359  15.084  0.0396 -0.4268 -0.3486
 4658SOL    HW125607   3.942   1.429  15.027 -1.2053 -0.9473 -0.3078
 4658SOL    HW225608   4.055   1.332  15.044 -0.6663 -0.8947 -1.4851
 4659SOL     OW25609   0.493   2.935  16.256 -0.3022 -0.3641 -0.0588
 4659SOL    HW125610   0.549   2.903  16.185  1.4808  1.1962  0.6446
 4659SOL    HW225611   0.509   2.869  16.323  2.4816  0.5964  0.2240
 4660SOL     OW25612   1.822   0.721   0.803 -0.5535 -0.2279  0.4287
 4660SOL    HW125613   1.876   0.719   0.724 -1.8183  1.3112 -0.4804
 4660SOL    HW225614   1.836   0.811   0.831 -1.5229 -0.2978  1.1289
 4661SOL     OW25615   4.258   2.201   4.025  0.5651 -0.2440 -0.2118
 4661SOL    HW125616   4.340   2.152   4.018 -0.0475 -1.1585 -0.9799
 4661SOL    HW225617   4.216   2.137   4.084  0.5977  1.1127  1.2726
 4662SOL     OW25618   2.598   3.009  13.491  0.1552 -0.2778 -0.3186
 4662SOL    HW125619   2.571   3.050  13.409 -0.5156  1.2089  0.6410
 4662SOL    HW225620   2.596   2.916  13.468  0.0708  0.0464 -1.6569
 4663SOL     OW25621   4.223   2.508   5.225  0.5400 -0.1075  0.2814
 4663SOL    HW125622   4.149   2.498   5.284 -0.3903 -0.1440 -0.8874
 4663SOL    HW225623   4.194   2.561   5.150  2.2398  2.0336  1.1070
 4664SOL     OW25624   4.616   0.418   4.033  0.4810 -1.5184  0.5101
 4664SOL    HW125625   4.579   0.461   4.110  0.0049 -0.4454 -0.3264
 4664SOL    HW225626   4.687   0.372   4.077  2.3652 -0.3024 -1.2571
 4665SOL     OW25627   0.436   2.379   9.107  0.1566  0.8201 -0.2290
 4665SOL    HW125628   0.432   2.367   9.013  0.9467 -0.9166 -0.0251
 4665SOL    HW225629   0.469   2.469   9.117  1.5187  0.1641  1.3055
 4666SOL     OW25630   0.237   1.696  13.493 -0.3413 -0.7263 -0.2260
 4666SOL    HW125631   0.151   1.739  13.497 -0.6250 -1.4890  1.7789
 4666SOL    HW225632   0.231   1.646  13.575  0.7246  0.8426  0.8217
 4667SOL     OW25633   0.187   3.404  15.206 -0.5830  0.1715  0.2241
 4667SOL    HW125634   0.137   3.420  15.286 -2.4004 -0.4272 -0.8013
 4667SOL    HW225635   0.115   3.384  15.146  0.7250 -4.8889  0.3621
 4668SOL     OW25636   0.534   2.556   4.321  0.0816  0.4696  0.1743
 4668SOL    HW125637   0.491   2.528   4.240  0.8575  0.8136 -0.3595
 4668SOL    HW225638   0.530   2.651   4.315  0.1973  0.3710 -1.6707
 4669SOL     OW25639   1.509   4.303   1.826 -0.0599 -0.1808 -0.6414
 4669SOL    HW125640   1.455   4.362   1.774  3.0509  2.7229 -0.6378
 4669SOL    HW225641   1.563   4.363   1.878 -2.3376  0.3882  1.0711
 4670SOL     OW25642   1.993   1.564   7.199 -0.0113  0.1717  0.4143
 4670SOL    HW125643   1.963   1.653   7.219  0.3119  0.6343 -1.0866
 4670SOL    HW225644   2.065   1.551   7.261 -0.4579  2.2250  1.3614
 4671SOL     OW25645   3.612   2.988   0.952  0.7589 -0.3861  0.0770
 4671SOL    HW125646   3.662   2.938   1.017  0.4925 -2.2021 -1.1190
 4671SOL    HW225647   3.576   3.048   1.017 -1.6484 -3.2516  1.3737
 4672SOL     OW25648   4.277   1.577   6.605  0.2786  0.2817  0.2266
 4672SOL    HW125649   4.308   1.491   6.575  0.4375  0.3784  0.1161
 4672SOL    HW225650   4.291   1.570   6.699  0.2446  2.8367  0.4250
 4673SOL     OW25651   0.006   4.143   7.032  0.4557  0.0268 -0.9712
 4673SOL    HW125652   0.017   4.059   6.988 -2.2087 -0.1385 -1.3038
 4673SOL    HW225653   0.084   4.153   7.086  0.1344  0.8058 -0.6405
 4674SOL     OW25654   2.804   1.803   1.117 -0.5318  0.0543 -0.5866
 4674SOL    HW125655   2.844   1.872   1.064 -0.2886  1.5560  1.5453
 4674SOL    HW225656   2.738   1.852   1.166 -0.0249 -0.9739  1.1478
 4675SOL     OW25657   4.280   4.359   4.557 -0.5040  0.0415 -0.8890
 4675SOL    HW125658   4.235   4.441   4.536  1.9839  2.0951  1.9154
 4675SOL    HW225659   4.364   4.386   4.520  0.6272 -2.1432  0.0831
 4676SOL     OW25660   0.839   4.599   6.348  0.1118  0.2485  0.3617
 4676SOL    HW125661   0.871   4.513   6.375 -0.9970  0.2451  1.6639
 4676SOL    HW225662   0.747   4.575   6.344  1.0694 -3.3867 -0.1283
 4677SOL     OW25663   2.152   1.070   4.083 -0.8148 -0.1076 -0.7882
 4677SOL    HW125664   2.076   1.123   4.106  0.1108  0.5046  0.8611
 4677SOL    HW225665   2.104   0.988   4.091 -1.5568  0.7498  3.5082
 4678SOL     OW25666   3.762   1.479  14.650  0.4793  0.4959  0.0732
 4678SOL    HW125667   3.735   1.387  14.642 -1.8269  1.2645 -1.0889
 4678SOL    HW225668   3.760   1.504  14.557 -1.3339 -1.6679 -0.4779
 4679SOL     OW25669   1.812   4.350   9.932  0.1618 -0.6311 -0.5731
 4679SOL    HW125670   1.732   4.311   9.969 -0.9246  0.4234 -1.8128
 4679SOL    HW225671   1.872   4.276   9.922 -0.6735 -1.3281 -0.4447
 4680SOL     OW25672   1.309   3.520   9.497  0.0632  0.0124  0.2308
 4680SOL    HW125673   1.259   3.597   9.524 -1.5857 -0.3608 -1.7294
 4680SOL    HW225674   1.391   3.541   9.542 -0.4554  1.7046  0.3849
 4681SOL     OW25675   0.624   0.754  11.897  0.2031  0.2900 -0.3675
 4681SOL    HW125676   0.653   0.664  11.885  0.0317  0.3193 -1.0233
 4681SOL    HW225677   0.581   0.764  11.812  2.1416 -0.5921 -1.4510
 4682SOL     OW25678   1.094   4.098   7.309  0.6405  0.0187 -0.2752
 4682SOL    HW125679   1.054   4.100   7.222  0.0249 -2.4152 -0.0326
 4682SOL    HW225680   1.067   4.011   7.339 -0.0950 -0.6163 -2.7664
 4683SOL     OW25681   1.990   2.033   9.890  0.5339  0.2488  0.0652
 4683SOL    HW125682   1.946   2.011   9.972  2.1340 -1.8701  0.3400
 4683SOL    HW225683   2.049   2.101   9.922 -0.5048  0.4778  1.4996
 4684SOL     OW25684   0.845   2.368   5.584  0.6623  0.0559 -0.0506
 4684SOL    HW125685   0.758   2.374   5.624  0.2729 -0.5634 -0.7742
 4684SOL    HW225686   0.902   2.378   5.660  1.0568  3.5474 -0.8142
 4685SOL     OW25687   3.023   0.427   5.121 -0.1925  0.3076 -0.5181
 4685SOL    HW125688   3.009   0.498   5.058 -1.1285  0.3915 -0.2236
 4685SOL    HW225689   2.990   0.353   5.069 -0.4440 -0.1705  0.3323
 4686SOL     OW25690   2.875   2.354  17.076 -0.4956 -0.4619 -0.1057
 4686SOL    HW125691   2.834   2.382  16.995 -1.0932 -1.2010 -0.0533
 4686SOL    HW225692   2.941   2.294  17.041 -0.7560 -0.4107 -0.6834
 4687SOL     OW25693   2.898   4.447   4.769  0.2731 -0.3593 -0.2691
 4687SOL    HW125694   2.843   4.370   4.756 -1.7971  1.0045  0.4352
 4687SOL    HW225695   2.988   4.416   4.770  0.1535 -0.6782  0.7024
 4688SOL     OW25696   1.034   2.690   6.340 -0.3165 -0.1430 -0.1734
 4688SOL    HW125697   0.981   2.755   6.386  0.6518  0.1031  0.5944
 4688SOL    HW225698   1.089   2.748   6.289  0.4546 -1.0102 -0.3333
 4689SOL     OW25699   3.368   4.667   1.780 -0.3484  0.2616 -0.0394
 4689SOL    HW125700   3.302   4.603   1.755 -0.5753  0.9687 -1.2375
 4689SOL    HW225701   3.318   0.013   1.769  0.5948  0.8411 -0.0904
 4690SOL     OW25702   2.531   1.659  16.387 -0.0279  0.2144  1.3153
 4690SOL    HW125703   2.571   1.733  16.340  0.2996 -0.0952  1.1109
 4690SOL    HW225704   2.562   1.666  16.477 -0.3619 -1.0775  1.5281
 4691SOL     OW25705   1.903   0.170   5.746  0.0381 -0.3162  0.0154
 4691SOL    HW125706   1.915   0.140   5.656 -0.2428  0.1251 -0.1706
 4691SOL    HW225707   1.953   0.252   5.747  0.8559 -0.8272  2.1164
 4692SOL     OW25708   1.096   1.567   1.923 -0.0154 -0.3192  0.0123
 4692SOL    HW125709   1.037   1.637   1.894 -0.8223 -1.4477 -1.0678
 4692SOL    HW225710   1.038   1.505   1.967  0.0931  1.0517  2.0513
 4693SOL     OW25711   0.935   3.601  11.879  0.3162  0.4436 -0.0994
 4693SOL    HW125712   0.932   3.662  11.805 -1.0114  1.8276  1.1037
 4693SOL    HW225713   0.989   3.530  11.846  1.4335 -0.0045  2.6753
 4694SOL     OW25714   0.907   2.720   4.246 -0.3677 -0.1882 -0.3381
 4694SOL    HW125715   0.906   2.628   4.272  1.9930 -0.0151  0.3386
 4694SOL    HW225716   0.817   2.732   4.215 -0.9240 -0.9721  0.9745
 4695SOL     OW25717   2.428   0.948   0.426 -0.4094 -0.3105 -0.0421
 4695SOL    HW125718   2.389   0.974   0.342 -1.3722 -0.6493  0.2981
 4695SOL    HW225719   2.484   1.023   0.447  0.5027 -0.5398 -1.7195
 4696SOL     OW25720   1.355   4.711  14.046 -0.2058  0.0431  0.3102
 4696SOL    HW125721   1.409   4.649  13.997  0.1106  0.1969  0.4650
 4696SOL    HW225722   1.277   4.713  13.990  1.7854 -1.0158 -2.5129
 4697SOL     OW25723   0.976   0.612   6.435 -0.1511  0.2082 -0.2086
 4697SOL    HW125724   1.063   0.651   6.447 -0.5480  1.6983 -2.1895
 4697SOL    HW225725   0.995   0.523   6.465  0.4617 -0.5271 -2.7580
 4698SOL     OW25726   1.114   3.605   7.244 -0.1370 -0.5978 -0.6246
 4698SOL    HW125727   1.194   3.592   7.192  0.4518  3.2780 -0.7135
 4698SOL    HW225728   1.041   3.609   7.182  0.1793 -0.3965 -0.9903
 4699SOL     OW25729   4.062   1.718  17.112 -0.4338 -0.4187  0.1851
 4699SOL    HW125730   4.000   1.751  17.047 -0.4291 -0.1951  0.2970
 4699SOL    HW225731   4.079   1.802  17.154 -1.8397  0.8844 -1.8149
 4700SOL     OW25732   1.181   3.501   4.530  0.1939 -0.2210  0.0141
 4700SOL    HW125733   1.232   3.505   4.611 -0.2416  3.0059  0.1483
 4700SOL    HW225734   1.169   3.407   4.517  0.3321 -0.3446  0.7602
 4701SOL     OW25735   2.711   4.174   3.968  0.2461 -0.0013 -1.1443
 4701SOL    HW125736   2.712   4.078   3.977  1.1384 -0.0763 -2.1217
 4701SOL    HW225737   2.733   4.190   3.877  0.0683  0.4359 -1.1110
 4702SOL     OW25738   4.224   3.852   2.586  0.2546 -0.1388 -0.6015
 4702SOL    HW125739   4.271   3.867   2.668  0.2997 -1.9439 -0.3098
 4702SOL    HW225740   4.213   3.942   2.555  0.2737 -0.0170 -0.2596
 4703SOL     OW25741   2.158   2.215  10.039 -0.0265 -0.4629  0.4723
 4703SOL    HW125742   2.248   2.244  10.025  0.6667 -2.9045 -0.0550
 4703SOL    HW225743   2.166   2.143  10.101  1.2671 -2.0998 -1.5979
 4704SOL     OW25744   2.149   4.706   2.311  0.5427 -0.5559  0.0605
 4704SOL    HW125745   2.149   4.647   2.387 -0.3826  0.0294  0.5168
 4704SOL    HW225746   2.089   4.656   2.255  0.1895  0.3670 -0.3735
 4705SOL     OW25747   2.935   3.239   7.804  0.0069 -0.0187  0.6870
 4705SOL    HW125748   2.956   3.301   7.735 -0.2879 -1.0835 -0.3671
 4705SOL    HW225749   2.845   3.209   7.789 -0.0782  0.1954  0.7819
 4706SOL     OW25750   0.845   0.675  11.194 -0.0863 -0.4779  0.6781
 4706SOL    HW125751   0.845   0.663  11.099 -0.2667  3.5593  0.1984
 4706SOL    HW225752   0.899   0.603  11.227 -0.3114 -0.6912  0.5852
 4707SOL     OW25753   1.495   2.969  13.913 -0.1101 -0.3327 -0.3674
 4707SOL    HW125754   1.545   3.035  13.962  0.4310 -1.6087  0.7774
 4707SOL    HW225755   1.413   3.015  13.895  0.0302  0.7058  1.5741
 4708SOL     OW25756   4.441   3.703   9.550  0.5491  0.0549  0.1342
 4708SOL    HW125757   4.509   3.767   9.569 -0.9140  1.5754  0.2499
 4708SOL    HW225758   4.485   3.620   9.566  0.4781  0.1128  0.6354
 4709SOL     OW25759   4.420   2.600   6.240  0.1970 -0.1977  0.0691
 4709SOL    HW125760   4.460   2.685   6.222 -0.2540  0.9689  4.4180
 4709SOL    HW225761   4.356   2.583   6.171  0.4009 -0.0273 -0.1572
 4710SOL     OW25762   4.010   2.463   6.600  0.0096 -0.3541  0.1901
 4710SOL    HW125763   4.012   2.558   6.589  0.8214 -0.7067 -2.6857
 4710SOL    HW225764   4.018   2.446   6.506  0.2328  1.4728 -0.1120
 4711SOL     OW25765   0.067   3.680  17.298  0.4903  0.0191 -0.5466
 4711SOL    HW125766   0.088   3.681  17.392 -0.8943 -0.9506 -0.2294
 4711SOL    HW225767   0.052   3.774  17.287 -1.1077 -0.0998  0.5529
 4712SOL     OW25768   1.689   0.542   7.591  0.4107  0.7290 -0.4802
 4712SOL    HW125769   1.759   0.563   7.529  0.5727  0.1843 -0.4854
 4712SOL    HW225770   1.695   0.446   7.599  0.2044  0.6305 -1.4904
 4713SOL     OW25771   0.295   1.658   8.258 -0.0746  0.0944 -0.2455
 4713SOL    HW125772   0.341   1.735   8.225 -0.1998 -0.0631 -0.7940
 4713SOL    HW225773   0.368   1.612   8.299 -0.0207  0.5197  0.1338
 4714SOL     OW25774   3.731   4.276   6.156 -0.3953  0.1847 -0.1458
 4714SOL    HW125775   3.806   4.314   6.110 -0.7692  0.9797 -0.0849
 4714SOL    HW225776   3.653   4.324   6.128 -0.2095  1.1680  1.0528
 4715SOL     OW25777   4.362   0.977   5.357  0.2724 -0.7375  0.1059
 4715SOL    HW125778   4.400   1.062   5.380 -0.0404 -1.2988  2.7705
 4715SOL    HW225779   4.425   0.941   5.295  1.8651  3.8404 -0.9271
 4716SOL     OW25780   1.445   0.369  12.812 -0.6914  0.4126 -0.1945
 4716SOL    HW125781   1.495   0.440  12.851 -0.7324 -0.1026  0.7800
 4716SOL    HW225782   1.404   0.337  12.892  0.9612 -1.9518 -0.2889
 4717SOL     OW25783   3.228   3.237   2.882 -0.1485 -0.4517 -0.2085
 4717SOL    HW125784   3.150   3.221   2.935 -0.7588 -0.3639 -1.0758
 4717SOL    HW225785   3.273   3.154   2.896  2.7688  1.2663  0.6311
 4718SOL     OW25786   1.976   0.667   8.267 -0.4696 -0.2217 -0.0919
 4718SOL    HW125787   1.983   0.579   8.305 -1.6970  0.8987  2.7274
 4718SOL    HW225788   2.068   0.682   8.243  0.3641 -1.3118  2.3862
 4719SOL     OW25789   2.816   3.577   6.928  0.1771  0.3196  0.0913
 4719SOL    HW125790   2.816   3.665   6.892  0.4543 -0.5038 -1.9295
 4719SOL    HW225791   2.751   3.532   6.873  1.4176 -0.9013 -0.3803
 4720SOL     OW25792   3.383   3.130   6.735 -0.3702 -0.0509  0.7392
 4720SOL    HW125793   3.327   3.073   6.789  0.1572  0.1223  1.4717
 4720SOL    HW225794   3.398   3.199   6.800  4.1911  0.2996 -0.7398
 4721SOL     OW25795   3.366   4.374   4.927 -0.2720 -0.3166  0.0880
 4721SOL    HW125796   3.357   4.413   5.014  1.6135 -0.3634  0.2989
 4721SOL    HW225797   3.458   4.371   4.901  0.4317  3.2265  2.1465
 4722SOL     OW25798   3.623   0.997  12.829 -0.1170 -0.3418 -0.3828
 4722SOL    HW125799   3.699   0.961  12.783 -0.0663  0.6310 -1.0430
 4722SOL    HW225800   3.570   1.037  12.761 -0.2050  0.1395 -0.0293
 4723SOL     OW25801   0.376   4.154   2.388  0.4474  0.2910 -0.0541
 4723SOL    HW125802   0.317   4.174   2.460  0.7369  2.6308 -0.4456
 4723SOL    HW225803   0.333   4.072   2.366  1.1907 -0.2959  0.7113
 4724SOL     OW25804   1.971   3.273   9.597 -0.3519  0.3156 -0.2803
 4724SOL    HW125805   2.036   3.233   9.539 -0.1891 -1.7281  1.2865
 4724SOL    HW225806   2.028   3.317   9.659  1.3966 -2.2632 -0.0397
 4725SOL     OW25807   2.711   2.444   1.455  0.3413  0.2765  0.1607
 4725SOL    HW125808   2.797   2.416   1.423  0.7826  0.5118  1.1390
 4725SOL    HW225809   2.698   2.520   1.399 -0.7247  0.3218  0.4709
 4726SOL     OW25810   3.021   4.184   8.097 -0.5964 -0.2425  0.0259
 4726SOL    HW125811   3.052   4.133   8.172  0.8804 -0.7284 -0.9217
 4726SOL    HW225812   3.012   4.271   8.136 -0.9968 -0.4213  0.3340
 4727SOL     OW25813   1.958   2.708   6.881  0.0780  0.1746  0.3904
 4727SOL    HW125814   2.047   2.709   6.845 -1.5524  2.9079 -3.4666
 4727SOL    HW225815   1.953   2.614   6.901 -0.0135  0.4256  1.5483
 4728SOL     OW25816   0.817   0.771   8.462  0.1420 -1.0780  0.3057
 4728SOL    HW125817   0.765   0.725   8.396  1.3435  1.2443 -2.2739
 4728SOL    HW225818   0.791   0.718   8.538 -2.6701  1.0875  0.8433
 4729SOL     OW25819   4.219   1.106   8.985 -0.7772 -0.0826  0.2674
 4729SOL    HW125820   4.248   1.019   9.011 -0.1821 -0.2250 -0.8914
 4729SOL    HW225821   4.133   1.111   9.027 -0.6268 -0.0777  0.5749
 4730SOL     OW25822   0.136   3.157  10.030 -0.5378  0.2642 -0.5028
 4730SOL    HW125823   0.085   3.144   9.950 -0.5738  1.4000 -0.6568
 4730SOL    HW225824   0.221   3.166   9.988  0.1479 -1.1940  0.5956
 4731SOL     OW25825   2.005   1.022   3.822 -0.3289 -0.0898  0.2131
 4731SOL    HW125826   1.954   1.074   3.885 -0.9034 -0.1145 -0.2369
 4731SOL    HW225827   1.992   1.072   3.741 -2.0128  0.6530  0.9256
 4732SOL     OW25828   4.058   3.166  11.296 -0.0011 -0.3962  0.1110
 4732SOL    HW125829   4.066   3.142  11.204 -0.6939  5.0555 -1.3699
 4732SOL    HW225830   4.068   3.261  11.292  1.2939 -0.4181  2.4633
 4733SOL     OW25831   4.403   0.037   6.961 -0.1151  0.0369 -0.1568
 4733SOL    HW125832   4.323   0.055   7.010  2.0957  0.8338  3.1795
 4733SOL    HW225833   4.386   4.680   6.940  1.2992 -0.3450  0.3922
 4734SOL     OW25834   3.662   4.728   6.910 -0.0957 -0.0908  0.7611
 4734SOL    HW125835   3.660   4.660   6.977 -2.1182 -0.3172  0.4733
 4734SOL    HW225836   3.674   0.071   6.964  1.9960  0.4632 -0.5071
 4735SOL     OW25837   2.141   0.807   4.271  0.3757 -0.2088 -0.0010
 4735SOL    HW125838   2.083   0.735   4.297 -1.7534  1.1962 -0.8592
 4735SOL    HW225839   2.113   0.867   4.339  0.0658  2.2570 -2.3205
 4736SOL     OW25840   2.885   4.659   0.933 -1.0722  0.2645  0.3050
 4736SOL    HW125841   2.864   4.716   1.008  0.2922 -0.6740  1.3943
 4736SOL    HW225842   2.807   4.683   0.883 -0.7865  1.5088  0.4404
 4737SOL     OW25843   0.593   3.851   1.363  0.8184 -0.1247 -0.2863
 4737SOL    HW125844   0.586   3.912   1.290 -3.6292 -0.1954  0.0961
 4737SOL    HW225845   0.551   3.776   1.321  0.1136 -0.0164  0.2208
 4738SOL     OW25846   3.053   0.997   2.424 -0.2705  0.5776  0.8343
 4738SOL    HW125847   2.960   0.982   2.441 -0.3917  1.5725  1.0689
 4738SOL    HW225848   3.088   0.909   2.409  0.2458  1.0964 -0.9158
 4739SOL     OW25849   3.627   1.481   3.100  0.1913  0.3961  0.2399
 4739SOL    HW125850   3.676   1.468   3.019 -0.8637 -0.1618 -0.2986
 4739SOL    HW225851   3.631   1.392   3.134  1.0710  0.7330  1.0283
 4740SOL     OW25852   4.346   3.844  11.327 -0.0175 -0.0520  0.2441
 4740SOL    HW125853   4.386   3.810  11.408  2.1932  3.2971  0.5421
 4740SOL    HW225854   4.418   3.867  11.268  0.4910 -2.2832 -0.0157
 4741SOL     OW25855   3.267   0.886  17.101 -0.0383  0.7021  0.1471
 4741SOL    HW125856   3.201   0.868  17.035  1.6946  2.8984 -2.2016
 4741SOL    HW225857   3.296   0.977  17.094  1.1024  0.4384  1.3202
 4742SOL     OW25858   0.614   3.490   3.571 -0.7709 -0.4399 -0.5036
 4742SOL    HW125859   0.598   3.498   3.477 -0.0486 -0.6863 -0.6481
 4742SOL    HW225860   0.709   3.481   3.578 -0.5306  1.6401 -1.0227
 4743SOL     OW25861   1.717   2.461  11.170  0.6425 -0.2132 -0.0114
 4743SOL    HW125862   1.692   2.463  11.263  0.9159  0.5420  0.0472
 4743SOL    HW225863   1.805   2.499  11.181  1.0744 -1.1485 -0.2363
 4744SOL     OW25864   2.716   4.382   6.666  0.1942  0.3998  0.1044
 4744SOL    HW125865   2.768   4.385   6.585 -1.6753 -0.5411 -1.1302
 4744SOL    HW225866   2.780   4.410   6.732 -3.3332 -0.8318  4.0493
 4745SOL     OW25867   1.717   0.398   9.926  0.8957  0.0045  0.1084
 4745SOL    HW125868   1.655   0.470   9.937  0.3703 -0.6541  1.3815
 4745SOL    HW225869   1.685   0.367   9.842 -0.8358  0.0184  0.7729
 4746SOL     OW25870   3.422   1.097   5.916 -0.1162  0.1931 -0.8057
 4746SOL    HW125871   3.385   1.095   5.828  1.0116 -2.8269 -1.2058
 4746SOL    HW225872   3.511   1.076   5.886 -0.3725 -3.0092  0.7558
 4747SOL     OW25873   4.142   3.839  11.160 -0.3080  0.4614 -0.5906
 4747SOL    HW125874   4.146   3.753  11.117 -1.8512 -0.0671  0.2958
 4747SOL    HW225875   4.210   3.837  11.227 -0.8580 -0.9950 -0.0558
 4748SOL     OW25876   2.912   2.510  16.637  0.1448 -0.3390  0.0323
 4748SOL    HW125877   2.853   2.450  16.682 -0.4182  0.4375  0.3260
 4748SOL    HW225878   2.982   2.447  16.620  0.3960 -0.4341  1.4550
 4749SOL     OW25879   0.020   0.204   8.776  0.0075 -0.3807  0.9246
 4749SOL    HW125880   0.092   0.188   8.837 -1.7275 -1.0024  2.8071
 4749SOL    HW225881   4.727   0.291   8.804  1.0712  0.0831  0.5683
 4750SOL     OW25882   1.497   2.411   7.597  0.4317  0.0836  0.2255
 4750SOL    HW125883   1.456   2.345   7.542 -1.9540  0.7435  1.2444
 4750SOL    HW225884   1.452   2.391   7.679  1.3347 -3.5244 -0.1673
 4751SOL     OW25885   3.833   1.854   3.208 -0.3458  0.0973 -0.6850
 4751SOL    HW125886   3.889   1.851   3.131  0.0852  2.2275 -0.4507
 4751SOL    HW225887   3.825   1.945   3.236  1.4779 -0.6070  2.1532
 4752SOL     OW25888   0.252   4.538   2.672 -0.0358 -0.7249 -0.2098
 4752SOL    HW125889   0.267   4.453   2.715  2.7011  0.4042  1.0791
 4752SOL    HW225890   0.342   4.571   2.667 -0.5725  1.1600  2.6813
 4753SOL     OW25891   0.392   3.003   3.013  0.3225 -0.0225  0.6376
 4753SOL    HW125892   0.415   3.055   3.089  1.2702  0.3125  0.1167
 4753SOL    HW225893   0.478   2.974   2.985  0.0138  0.0143 -0.3475
 4754SOL     OW25894   2.875   1.799  11.020 -0.2358  0.1960  0.3399
 4754SOL    HW125895   2.914   1.852  11.090  1.2641 -0.5639  0.0874
 4754SOL    HW225896   2.954   1.752  10.993 -0.6647 -0.3560  0.0400
 4755SOL     OW25897   1.403   0.194   2.394 -0.3653 -0.0385  0.0180
 4755SOL    HW125898   1.309   0.208   2.403  0.2774  4.4735 -0.2064
 4755SOL    HW225899   1.424   0.207   2.487 -0.7653 -0.4788  0.1684
 4756SOL     OW25900   0.558   0.885   2.437 -0.4409  0.2967  0.1594
 4756SOL    HW125901   0.639   0.900   2.487 -0.1437  0.8685 -0.4862
 4756SOL    HW225902   0.558   0.793   2.412 -0.4690  1.0887 -2.7617
 4757SOL     OW25903   4.642   1.717  16.713 -0.2038  0.7166 -0.0601
 4757SOL    HW125904   4.691   1.773  16.774  0.1453 -0.7030  0.9654
 4757SOL    HW225905   4.603   1.645  16.761 -2.1986  1.8610  0.0237
 4758SOL     OW25906   2.879   4.607   2.399 -0.5944  0.2515  0.4503
 4758SOL    HW125907   2.855   4.586   2.489  1.8226 -0.7037  0.8635
 4758SOL    HW225908   2.971   4.582   2.390 -0.5133  0.2252  1.3413
 4759SOL     OW25909   2.914   2.457   3.798 -0.1183  0.1585  0.2317
 4759SOL    HW125910   2.949   2.425   3.715  0.3896  0.2948  0.3918
 4759SOL    HW225911   2.914   2.375   3.846 -2.1737  0.2123  0.2948
 4760SOL     OW25912   4.361   0.818   4.819 -0.2394 -0.0677 -0.5867
 4760SOL    HW125913   4.380   0.900   4.865 -0.9714  1.2954 -2.7321
 4760SOL    HW225914   4.300   0.848   4.753 -1.8341  0.1762  0.9943
 4761SOL     OW25915   2.465   0.868  13.391 -0.0381 -0.2213  0.3857
 4761SOL    HW125916   2.391   0.863  13.451  0.1301  0.9483  0.6886
 4761SOL    HW225917   2.537   0.855  13.453  0.6149  0.6516 -0.1867
 4762SOL     OW25918   2.774   3.445   1.120 -0.0187  0.4655 -0.2452
 4762SOL    HW125919   2.714   3.451   1.193  0.3747  2.2960 -0.0904
 4762SOL    HW225920   2.711   3.453   1.048 -0.4411 -1.0820 -0.0430
 4763SOL     OW25921   4.266   0.566   0.529  0.3489  0.3549  0.6587
 4763SOL    HW125922   4.208   0.627   0.485  2.6299  1.5058 -0.7452
 4763SOL    HW225923   4.248   0.578   0.622  2.7162  2.5832  0.8373
 4764SOL     OW25924   0.802   0.766   0.807  0.3859 -0.5463  0.1688
 4764SOL    HW125925   0.827   0.684   0.765  2.5539  1.6463 -2.7455
 4764SOL    HW225926   0.710   0.740   0.811 -0.5364  2.7704  0.9065
 4765SOL     OW25927   0.219   2.630   6.509 -0.4138  0.0383  0.5724
 4765SOL    HW125928   0.309   2.631   6.477 -0.0231 -0.9812  1.6477
 4765SOL    HW225929   0.207   2.535   6.515 -0.2409 -0.1206 -1.6868
 4766SOL     OW25930   4.527   4.601   7.906 -1.1052  0.1100 -0.2182
 4766SOL    HW125931   4.548   4.575   7.817 -1.5135  2.0849 -0.9034
 4766SOL    HW225932   4.465   4.535   7.935  0.0764 -0.9508 -0.1016
 4767SOL     OW25933   0.630   3.686   3.174 -0.1384 -0.2773  0.6747
 4767SOL    HW125934   0.723   3.708   3.179 -0.1963 -0.2714  1.8213
 4767SOL    HW225935   0.600   3.751   3.111  1.0765  1.3292  1.7689
 4768SOL     OW25936   1.934   0.413   9.634  0.1302 -0.0537  0.3258
 4768SOL    HW125937   1.992   0.338   9.622  0.7951  0.4111  0.6302
 4768SOL    HW225938   1.858   0.370   9.673  1.1598 -2.7905 -0.7377
 4769SOL     OW25939   3.666   1.444  17.485 -0.3308 -0.2853 -0.1818
 4769SOL    HW125940   3.626   1.384  17.549 -0.2292  0.3093  0.4359
 4769SOL    HW225941   3.753   1.404  17.480  0.8715  2.1929  1.1400
 4770SOL     OW25942   2.900   1.418  15.592  0.2768  0.2238  0.1156
 4770SOL    HW125943   2.959   1.493  15.588 -1.9125  1.9475  0.2442
 4770SOL    HW225944   2.954   1.345  15.622 -0.2082 -0.5502 -0.8567
 4771SOL     OW25945   0.098   1.375   3.865  0.0058  0.1762  0.3582
 4771SOL    HW125946   0.107   1.470   3.865 -2.0846  0.3631  1.9946
 4771SOL    HW225947   0.082   1.357   3.772  2.3857 -0.9255  0.1567
 4772SOL     OW25948   1.455   2.566  10.285  0.1504  0.3569 -0.1823
 4772SOL    HW125949   1.528   2.543  10.227  0.4548 -1.0394  0.7484
 4772SOL    HW225950   1.473   2.660  10.280 -0.3111  0.6079  2.5778
 4773SOL     OW25951   0.148   3.627   2.255  0.1975 -0.5659  0.3017
 4773SOL    HW125952   0.068   3.583   2.283  1.4322 -2.6162  0.5651
 4773SOL    HW225953   0.159   3.678   2.335 -0.1821  1.5534 -1.0022
 4774SOL     OW25954   3.967   0.707   1.329 -0.1023  0.1481 -0.2747
 4774SOL    HW125955   3.896   0.740   1.275 -1.2606  0.5918  1.5129
 4774SOL    HW225956   3.958   0.614   1.306  0.3135 -0.2277  1.0462
 4775SOL     OW25957   2.056   1.020   5.616  0.7061  0.0288  0.2107
 4775SOL    HW125958   2.139   1.064   5.601 -0.5957  1.6374 -2.2685
 4775SOL    HW225959   2.009   1.102   5.637 -1.8746 -1.1736 -0.8341
 4776SOL     OW25960   3.857   1.995   6.131 -0.5217  0.1708 -0.6227
 4776SOL    HW125961   3.946   2.013   6.160  0.5275 -4.3923 -0.9933
 4776SOL    HW225962   3.872   1.939   6.055 -0.7560  1.8688 -1.9170
 4777SOL     OW25963   3.283   2.623   8.618 -0.6585  0.0762  0.0491
 4777SOL    HW125964   3.343   2.675   8.565 -2.0949 -0.1354 -1.8354
 4777SOL    HW225965   3.241   2.575   8.546  2.2901  0.0499 -1.6663
 4778SOL     OW25966   3.990   0.529  11.373  0.7802  0.0116 -0.1448
 4778SOL    HW125967   3.985   0.447  11.423  2.8850  0.2133  0.3717
 4778SOL    HW225968   3.935   0.584  11.429  0.2255 -1.6632  0.9561
 4779SOL     OW25969   3.373   3.867   5.683  0.2466  0.2951 -0.7802
 4779SOL    HW125970   3.440   3.861   5.615 -0.0160 -1.6942 -0.8691
 4779SOL    HW225971   3.296   3.838   5.634  0.2296  0.1242 -0.6540
 4780SOL     OW25972   1.879   1.164   5.756  0.0237  0.4308  0.5816
 4780SOL    HW125973   1.832   1.179   5.838  0.3642  0.1912  0.8176
 4780SOL    HW225974   1.801   1.143   5.703 -0.0149 -0.7105  1.0886
 4781SOL     OW25975   3.164   1.326   8.524 -0.2208  0.4036 -0.1133
 4781SOL    HW125976   3.179   1.289   8.610  1.9285  1.8286  0.1189
 4781SOL    HW225977   3.092   1.386   8.545 -1.3369  0.0636 -2.9271
 4782SOL     OW25978   2.043   1.640   2.195  0.3346  0.2405  0.3689
 4782SOL    HW125979   1.969   1.659   2.252  1.6520  2.4629  1.3519
 4782SOL    HW225980   2.110   1.703   2.221 -0.6682  1.1025  0.8309
 4783SOL     OW25981   4.572   1.627   6.269  0.2313 -0.0489  0.1866
 4783SOL    HW125982   4.606   1.607   6.356 -0.0089 -0.0127  0.2867
 4783SOL    HW225983   4.588   1.722   6.267  1.3021 -0.2419 -0.7719
 4784SOL     OW25984   0.520   1.372   4.342  0.4318 -0.1249 -0.5276
 4784SOL    HW125985   0.446   1.430   4.360  0.2101 -1.1667  2.0235
 4784SOL    HW225986   0.584   1.410   4.403 -0.5258 -0.7447  0.8664
 4785SOL     OW25987   1.171   2.976   3.529  0.2316 -0.8503 -0.1100
 4785SOL    HW125988   1.219   3.048   3.487 -0.0280 -1.1367 -0.9059
 4785SOL    HW225989   1.227   2.903   3.502  0.4935  0.1732 -2.3682
 4786SOL     OW25990   4.627   2.897   7.872 -0.0261 -0.3025 -0.1045
 4786SOL    HW125991   4.644   2.991   7.866  0.8311 -0.5093 -0.8735
 4786SOL    HW225992   4.535   2.903   7.846  0.4179 -3.3357 -2.3024
 4787SOL     OW25993   0.997   3.297   3.047  0.2169 -0.6380 -0.1387
 4787SOL    HW125994   0.938   3.367   3.075 -0.5447  0.4256 -4.4035
 4787SOL    HW225995   1.047   3.291   3.129  0.3117 -1.3401 -0.2524
 4788SOL     OW25996   1.833   1.859   7.943 -0.5112  0.4853 -0.5618
 4788SOL    HW125997   1.857   1.915   7.870  1.4687 -0.3005 -0.5365
 4788SOL    HW225998   1.793   1.923   8.002  2.7692  1.5655  0.4966
 4789SOL     OW25999   3.000   1.865   6.840 -0.5014  0.4495 -0.0635
 4789SOL    HW126000   2.933   1.910   6.893 -0.2472 -1.3702  1.8212
 4789SOL    HW226001   3.018   1.934   6.777 -2.0964 -2.0462 -3.2317
 4790SOL     OW26002   3.022   0.821   8.480 -0.5326  0.1879 -0.0149
 4790SOL    HW126003   3.055   0.875   8.551 -1.1799  0.7134 -0.1080
 4790SOL    HW226004   2.971   0.877   8.421 -0.6252  1.3527  1.1763
 4791SOL     OW26005   2.982   4.471  11.751 -0.1830 -0.0589 -0.0407
 4791SOL    HW126006   2.989   4.479  11.846  0.1329 -0.8654 -0.0017
 4791SOL    HW226007   3.059   4.415  11.742  0.5944  0.5751  2.6050
 4792SOL     OW26008   0.013   3.906   6.911  0.6848 -0.5604 -0.1172
 4792SOL    HW126009   4.677   3.880   6.853  1.0366 -1.5876 -0.1024
 4792SOL    HW226010   0.081   3.843   6.886 -0.0548 -1.1692 -0.5959
 4793SOL     OW26011   3.056   1.083   7.849  0.4853 -0.3590 -0.2109
 4793SOL    HW126012   3.139   1.127   7.867 -0.0381 -0.1344  1.7307
 4793SOL    HW226013   3.092   0.994   7.851  0.5433 -0.3303 -0.0051
 4794SOL     OW26014   0.743   4.631   5.088  0.0137 -0.0462  0.5947
 4794SOL    HW126015   0.710   4.605   5.002  0.0370  0.2101  0.5083
 4794SOL    HW226016   0.688   4.707   5.107 -0.8696  0.1091 -2.6036
 4795SOL     OW26017   2.898   0.087  10.880  0.1616 -0.1021  0.5453
 4795SOL    HW126018   2.971   0.135  10.842 -2.6825  2.7067 -1.3511
 4795SOL    HW226019   2.839   0.102  10.807 -0.3101 -0.2080  0.9058
 4796SOL     OW26020   0.913   2.632   7.034  0.8616  0.2765 -0.2734
 4796SOL    HW126021   0.879   2.661   7.119  1.9015  1.5771 -0.3068
 4796SOL    HW226022   0.936   2.542   7.061  0.1610 -0.2859 -1.5765
 4797SOL     OW26023   0.892   2.469   2.015 -0.0066 -0.1690  0.2642
 4797SOL    HW126024   0.837   2.546   2.027 -1.5632 -1.7440  3.0897
 4797SOL    HW226025   0.830   2.404   1.982 -1.9148  0.4477  2.6497
 4798SOL     OW26026   0.994   0.381   6.192 -0.0268 -0.2002 -0.4540
 4798SOL    HW126027   1.015   0.382   6.285  1.0322 -0.2065 -0.6892
 4798SOL    HW226028   0.965   0.290   6.189 -1.5779  0.2644  0.3626
 4799SOL     OW26029   3.541   2.006   3.169 -0.5805  0.0688 -0.2501
 4799SOL    HW126030   3.622   1.962   3.143 -0.6716 -0.0399 -0.3525
 4799SOL    HW226031   3.501   2.025   3.084 -1.2034 -0.1800 -0.0106
 4800SOL     OW26032   2.509   3.968   6.543 -0.1797 -0.1049 -0.1012
 4800SOL    HW126033   2.509   3.876   6.514  1.5545 -0.6292  1.4950
 4800SOL    HW226034   2.531   4.013   6.461 -1.3717  1.2621  0.3388
 4801SOL     OW26035   1.069   2.528   6.669  0.5288  0.4634 -0.1641
 4801SOL    HW126036   0.974   2.535   6.671  0.5813  0.4237  1.9486
 4801SOL    HW226037   1.076   2.440   6.705 -1.1348  0.0001 -0.9678
 4802SOL     OW26038   3.043   2.090   5.071 -0.4220 -0.2502  0.0406
 4802SOL    HW126039   3.059   2.089   5.165  0.3606  0.9438 -0.0784
 4802SOL    HW226040   3.113   2.145   5.037 -1.3493  0.7884 -0.1770
 4803SOL     OW26041   4.580   1.068   4.559 -0.1215 -0.0947  0.1674
 4803SOL    HW126042   4.584   0.984   4.606  0.4716 -0.3295 -0.3092
 4803SOL    HW226043   4.580   1.131   4.631  0.5991 -0.8936  0.8785
 4804SOL     OW26044   1.905   0.239   1.623  0.7136  0.0044  0.6674
 4804SOL    HW126045   1.962   0.252   1.699 -0.2606 -0.5439  1.4870
 4804SOL    HW226046   1.884   0.147   1.636 -2.2864  0.8573  1.9116
 4805SOL     OW26047   4.375   4.013   3.905  0.0532 -0.1076 -0.1390
 4805SOL    HW126048   4.373   4.103   3.871  0.0366  0.6214  1.8064
 4805SOL    HW226049   4.297   3.990   3.854 -0.3525 -0.1600  0.5116
 4806SOL     OW26050   4.407   3.205   8.465 -0.2742  0.0589  0.0527
 4806SOL    HW126051   4.378   3.295   8.449 -0.5567  0.1089  0.8071
 4806SOL    HW226052   4.324   3.156   8.465 -0.9525  1.2006  1.2612
 4807SOL     OW26053   1.331   4.708   9.327  0.3224  0.6115 -0.7681
 4807SOL    HW126054   1.394   0.034   9.366  1.5435 -0.8960 -0.4114
 4807SOL    HW226055   1.369   4.626   9.357 -0.7360  0.3172 -0.2131
 4808SOL     OW26056   3.134   1.181  15.437 -0.6833  0.2118 -0.0510
 4808SOL    HW126057   3.181   1.097  15.430  0.7522  1.0907 -0.9014
 4808SOL    HW226058   3.140   1.192  15.531 -0.1944 -0.1363 -0.0392
 4809SOL     OW26059   0.027   1.731   5.939 -0.4641 -0.6758  0.5136
 4809SOL    HW126060   0.026   1.672   5.863 -1.0147 -1.3491  1.0446
 4809SOL    HW226061   4.735   1.671   6.008  0.1463 -1.1725  0.3316
 4810SOL     OW26062   0.342   0.690  16.817  0.3070 -0.0564  0.8331
 4810SOL    HW126063   0.423   0.639  16.808  0.0753 -0.5554  1.5570
 4810SOL    HW226064   0.364   0.745  16.742 -1.4222  0.4682  0.7047
 4811SOL     OW26065   3.507   0.530   7.824  0.1411  0.2486  0.3791
 4811SOL    HW126066   3.537   0.461   7.765  2.2568  1.2110  0.3321
 4811SOL    HW226067   3.451   0.590   7.776  0.8469  0.0232 -0.7116
 4812SOL     OW26068   2.863   2.585   2.193  0.5410  0.2197 -0.2926
 4812SOL    HW126069   2.927   2.566   2.261  1.1022  0.0552 -0.8710
 4812SOL    HW226070   2.836   2.494   2.180 -0.9327  0.6301 -0.1466
 4813SOL     OW26071   2.609   0.390   4.988  0.2706  0.4481 -0.0900
 4813SOL    HW126072   2.614   0.450   5.063 -1.8063 -2.0357  2.0302
 4813SOL    HW226073   2.514   0.398   4.979  0.4416  1.5520 -0.9155
 4814SOL     OW26074   0.266   4.061   6.570 -0.0129  0.3532  0.4032
 4814SOL    HW126075   0.203   4.133   6.565 -0.3514  0.0323  0.0452
 4814SOL    HW226076   0.285   4.046   6.477  1.5472  1.4616  0.5477
 4815SOL     OW26077   3.490   4.040   5.430 -0.4522  0.2969  0.8767
 4815SOL    HW126078   3.480   3.957   5.383  0.6168  0.2788  0.7004
 4815SOL    HW226079   3.580   4.036   5.460  0.2169 -3.2297 -1.5835
 4816SOL     OW26080   1.348   2.277   9.316 -0.2161  0.4755 -0.0961
 4816SOL    HW126081   1.395   2.359   9.299  0.2407 -0.3601 -2.8522
 4816SOL    HW226082   1.257   2.305   9.306  0.2707  1.8447 -0.6887
 4817SOL     OW26083   2.756   3.529   7.668  0.4764 -0.2763  0.4580
 4817SOL    HW126084   2.834   3.584   7.664  0.7668 -0.6467  0.9155
 4817SOL    HW226085   2.705   3.586   7.725  0.1528  0.6513 -0.7719
 4818SOL     OW26086   2.771   2.914   3.386 -0.0273 -0.0385 -0.0642
 4818SOL    HW126087   2.783   2.822   3.360  1.5485  0.2257 -0.2776
 4818SOL    HW226088   2.759   2.957   3.302 -0.2490 -2.1843 -1.1389
 4819SOL     OW26089   3.371   1.267   6.149 -0.6973  0.4109  0.1014
 4819SOL    HW126090   3.463   1.283   6.170 -0.2974  0.5509 -1.7988
 4819SOL    HW226091   3.394   1.201   6.085  0.5110  2.5998 -1.7368
 4820SOL     OW26092   2.841   3.042  13.584  0.7118  0.0006 -0.0335
 4820SOL    HW126093   2.839   3.092  13.666 -0.5397 -0.1926  0.0630
 4820SOL    HW226094   2.747   3.027  13.569  1.1930 -1.1939 -1.7951
 4821SOL     OW26095   3.403   3.050  14.312 -0.4721  0.4833 -0.6273
 4821SOL    HW126096   3.400   2.991  14.236  2.5593  0.4196 -0.6894
 4821SOL    HW226097   3.323   3.099  14.293 -0.2360  1.5442  1.0493
 4822SOL     OW26098   3.898   1.493   5.150 -0.0100 -0.1010 -0.7875
 4822SOL    HW126099   3.816   1.455   5.183 -0.1578  1.5500  0.7761
 4822SOL    HW226100   3.941   1.517   5.232 -3.9590  1.1729  0.9204
 4823SOL     OW26101   2.939   3.533   3.539  0.5303  0.7173 -0.4278
 4823SOL    HW126102   2.850   3.564   3.553 -0.1303 -1.8573  0.9150
 4823SOL    HW226103   2.944   3.513   3.446  0.6965 -0.4981 -0.1621
 4824SOL     OW26104   4.303   3.442   6.399  0.8701  0.2302 -0.0860
 4824SOL    HW126105   4.268   3.358   6.369 -0.5619  0.3691  1.1755
 4824SOL    HW226106   4.229   3.466   6.455 -1.0167  2.8666 -3.7097
 4825SOL     OW26107   3.016   3.029   6.613  0.3373  0.3007 -0.4730
 4825SOL    HW126108   2.972   3.077   6.543 -0.9648  0.4842  0.4739
 4825SOL    HW226109   2.995   2.940   6.585  1.1881 -0.5726  1.6578
 4826SOL     OW26110   2.175   2.499   1.444 -0.4999 -0.0214 -0.4178
 4826SOL    HW126111   2.081   2.486   1.442 -0.0450 -3.4293  0.3739
 4826SOL    HW226112   2.177   2.575   1.385 -0.2118  0.3305  0.0421
 4827SOL     OW26113   3.014   3.204   3.046  0.3322  0.1087 -0.0729
 4827SOL    HW126114   2.935   3.249   3.019  0.0791  0.4138  1.1783
 4827SOL    HW226115   2.979   3.183   3.132  0.4752 -1.6130 -0.4300
 4828SOL     OW26116   4.603   0.198   1.988 -0.2384  0.3815  0.4792
 4828SOL    HW126117   4.674   0.257   2.012  0.4999 -0.0872 -0.5295
 4828SOL    HW226118   4.530   0.257   1.973 -1.0576 -0.2457  2.0217
 4829SOL     OW26119   0.658   1.892   7.233 -0.0413 -0.2503 -0.2270
 4829SOL    HW126120   0.706   1.864   7.155  1.8592  1.5489  0.2990
 4829SOL    HW226121   0.620   1.811   7.266  1.7349 -1.3109 -0.7825
 4830SOL     OW26122   1.647   1.400   2.786  0.0908 -0.0082  0.5650
 4830SOL    HW126123   1.613   1.457   2.717  2.3042  1.2409  0.4990
 4830SOL    HW226124   1.663   1.469   2.851  1.3541  3.2241 -3.2036
 4831SOL     OW26125   1.002   1.982   2.689  0.4672 -0.2568 -0.0165
 4831SOL    HW126126   1.070   1.979   2.757 -0.1170  0.2003  0.5950
 4831SOL    HW226127   1.025   2.057   2.633 -0.6825 -0.8596 -1.2930
 4832SOL     OW26128   0.816   4.628   0.768 -0.1625  0.5484  0.0933
 4832SOL    HW126129   0.735   4.606   0.723 -0.9227 -0.3105  1.8985
 4832SOL    HW226130   0.846   4.544   0.804  1.1377  1.6893  1.6874
 4833SOL     OW26131   3.673   1.578   6.021 -0.4784  0.4890 -0.5037
 4833SOL    HW126132   3.620   1.513   6.066 -0.4498  2.8071  2.8911
 4833SOL    HW226133   3.767   1.559   6.029 -0.9193 -2.6156 -2.5028
 4834SOL     OW26134   1.580   2.133  11.022 -0.7112 -0.4469  0.0871
 4834SOL    HW126135   1.620   2.048  11.038 -0.6152 -0.4998 -0.4531
 4834SOL    HW226136   1.513   2.123  10.954 -1.1170 -0.5564  0.5020
 4835SOL     OW26137   3.262   0.488   5.837  0.1332  0.0699  0.1351
 4835SOL    HW126138   3.187   0.490   5.778  1.0324  2.0034 -0.9578
 4835SOL    HW226139   3.216   0.511   5.917  1.7841  1.5395  0.6653
 4836SOL     OW26140   0.416   0.405   8.844  0.0681 -0.0836 -0.8875
 4836SOL    HW126141   0.456   0.349   8.778  0.2924 -0.1478 -0.6993
 4836SOL    HW226142   0.339   0.430   8.794  0.9085  1.1341 -1.5857
 4837SOL     OW26143   4.105   3.124   7.528  0.1362 -0.6002  0.4383
 4837SOL    HW126144   4.088   3.217   7.545  2.4763 -0.3565  1.5129
 4837SOL    HW226145   4.055   3.080   7.597 -3.8924  0.6052 -1.7132
 4838SOL     OW26146   2.977   2.025  11.403  0.0595  0.4123 -0.0735
 4838SOL    HW126147   2.999   1.995  11.315 -2.5195 -0.6566 -0.3763
 4838SOL    HW226148   2.889   2.056  11.381  0.1881 -0.2862 -1.6396
 4839SOL     OW26149   4.088   2.289   1.733 -0.2435  0.3112  0.1895
 4839SOL    HW126150   4.140   2.236   1.793 -0.8151 -0.3055  0.1352
 4839SOL    HW226151   4.054   2.360   1.788 -0.4161  0.3660  0.0105
 4840SOL     OW26152   0.062   3.193  16.182 -0.2132  0.1765  0.3048
 4840SOL    HW126153   0.128   3.132  16.215  0.3852 -0.5468 -2.2435
 4840SOL    HW226154   4.724   3.134  16.198  0.3703  0.4064  3.7901
 4841SOL     OW26155   0.993   4.390   2.389 -0.3524  0.4007  0.1846
 4841SOL    HW126156   1.010   4.322   2.324  0.6371  0.2464  0.5950
 4841SOL    HW226157   1.027   4.349   2.468 -1.2696 -2.0936 -0.7415
 4842SOL     OW26158   0.410   2.061   3.548 -0.2492 -0.0883 -0.3723
 4842SOL    HW126159   0.486   2.036   3.495  1.9896  0.8348  2.4254
 4842SOL    HW226160   0.357   2.108   3.484 -1.4115 -2.5418 -1.2039
 4843SOL     OW26161   2.418   1.831   0.860  0.2138 -0.2684 -0.0011
 4843SOL    HW126162   2.510   1.859   0.865  1.0453 -2.5941 -1.7607
 4843SOL    HW226163   2.403   1.857   0.769 -1.3296 -1.3494 -0.0526
 4844SOL     OW26164   1.900   1.113  10.960 -0.3746 -0.0732  0.2002
 4844SOL    HW126165   1.929   1.188  10.909  2.1773 -1.2588 -0.1157
 4844SOL    HW226166   1.805   1.114  10.951 -0.5413 -2.8137  1.4914
 4845SOL     OW26167   2.022   2.987   6.748 -0.0809 -0.6550 -0.1663
 4845SOL    HW126168   2.095   2.997   6.809  2.2414  0.3509 -3.1199
 4845SOL    HW226169   2.039   2.909   6.695  1.3912  0.6300 -1.5519
 4846SOL     OW26170   0.950   2.056   7.104 -0.0817 -0.5387  0.1697
 4846SOL    HW126171   0.928   1.969   7.072  4.2478 -1.5230 -0.0728
 4846SOL    HW226172   0.901   2.115   7.047  0.3226 -1.0711 -0.7252
 4847SOL     OW26173   2.838   2.273   2.810  0.4628  0.1325 -0.0009
 4847SOL    HW126174   2.834   2.363   2.778 -0.1066  0.3253  0.5954
 4847SOL    HW226175   2.913   2.279   2.870  0.9047  1.3542 -0.6674
 4848SOL     OW26176   2.895   1.457   6.198  0.5579  0.2857 -0.0319
 4848SOL    HW126177   2.931   1.502   6.121  1.8193  1.1316  1.0636
 4848SOL    HW226178   2.975   1.469   6.249 -0.3516 -1.7736  1.9022
 4849SOL     OW26179   1.255   0.473   9.473 -0.0479  0.1470  0.1315
 4849SOL    HW126180   1.196   0.426   9.531 -0.6729  0.3430 -0.3412
 4849SOL    HW226181   1.330   0.498   9.526 -0.0619  3.2140 -1.2919
 4850SOL     OW26182   4.453   3.747   7.133  0.1764  0.3581 -0.1207
 4850SOL    HW126183   4.537   3.705   7.150 -0.2048  0.5622  2.2100
 4850SOL    HW226184   4.433   3.790   7.216 -0.2404 -0.3642  0.1495
 4851SOL     OW26185   3.955   0.932  15.298  0.1024 -0.2726 -0.0086
 4851SOL    HW126186   4.045   0.963  15.307 -0.6173  2.0722 -0.6840
 4851SOL    HW226187   3.970   0.839  15.312  0.1447 -0.1479  0.8161
 4852SOL     OW26188   2.072   0.352   8.656 -0.0459 -0.5008 -0.5354
 4852SOL    HW126189   2.050   0.259   8.668 -2.0446  0.2024  1.2151
 4852SOL    HW226190   2.110   0.372   8.742 -1.3758  0.8726 -0.2682
 4853SOL     OW26191   3.393   2.399  10.570  0.2591  0.6277  0.3373
 4853SOL    HW126192   3.407   2.359  10.656  0.9799  0.1448 -0.0074
 4853SOL    HW226193   3.407   2.493  10.583 -0.5795  0.6973  0.7227
 4854SOL     OW26194   1.723   3.114   4.832  0.4396 -0.6303  0.8485
 4854SOL    HW126195   1.816   3.132   4.815  0.4896 -0.2170  1.5784
 4854SOL    HW226196   1.720   3.044   4.766  0.6167 -0.3111  0.5043
 4855SOL     OW26197   3.582   1.250  16.513  0.4881 -0.3613  0.2695
 4855SOL    HW126198   3.604   1.175  16.458  2.1823 -0.7418  1.4641
 4855SOL    HW226199   3.638   1.246  16.591  1.9541 -1.4287 -0.8473
 4856SOL     OW26200   3.297   2.431  12.104  0.2192 -0.2031 -1.1732
 4856SOL    HW126201   3.333   2.498  12.161  0.6766  0.3308 -2.0860
 4856SOL    HW226202   3.226   2.391  12.154  1.1618 -1.4256 -0.8048
 4857SOL     OW26203   2.134   3.384   9.129  0.4781  0.1466  0.2941
 4857SOL    HW126204   2.041   3.399   9.116  0.1790 -0.0605  2.2464
 4857SOL    HW226205   2.176   3.418   9.050 -1.9934 -0.5745 -1.2983
 4858SOL     OW26206   3.363   0.862  10.631  0.1555  0.5046  0.6366
 4858SOL    HW126207   3.414   0.886  10.709 -2.3088  2.7247  1.5160
 4858SOL    HW226208   3.413   0.901  10.560 -2.6879  1.0281 -1.0695
 4859SOL     OW26209   0.400   3.830   1.711 -0.5396 -0.0003  0.2929
 4859SOL    HW126210   0.422   3.842   1.803 -1.9729  0.5436  0.5538
 4859SOL    HW226211   0.312   3.866   1.718 -0.3124  0.0833  2.6073
 4860SOL     OW26212   0.390   0.527  11.936  0.4926 -0.9327  0.4779
 4860SOL    HW126213   0.341   0.476  12.002  0.2339  0.5896  1.4615
 4860SOL    HW226214   0.459   0.469  11.904  1.3746  0.4724 -0.1377
 4861SOL     OW26215   3.190   2.325   6.834 -0.0214  0.0508 -0.1066
 4861SOL    HW126216   3.241   2.347   6.756  0.0196 -0.8263 -0.3295
 4861SOL    HW226217   3.238   2.357   6.910  2.3879  0.1077 -1.6365
 4862SOL     OW26218   0.186   0.792  16.479 -0.7591 -0.3054  0.1559
 4862SOL    HW126219   0.255   0.829  16.533  0.1478  0.6724 -1.6594
 4862SOL    HW226220   0.150   0.721  16.531 -2.5706  1.0268  0.7311
 4863SOL     OW26221   2.475   1.804   7.527  0.7212  0.1618 -0.2949
 4863SOL    HW126222   2.507   1.746   7.597  2.2850  0.3272 -0.8639
 4863SOL    HW226223   2.447   1.881   7.575  1.7620 -0.4530  1.2765
 4864SOL     OW26224   3.264   3.546  13.113 -0.1915 -0.7799  0.1114
 4864SOL    HW126225   3.174   3.515  13.101  0.0369 -0.0988 -3.2665
 4864SOL    HW226226   3.296   3.557  13.023  1.7668 -3.0559  0.5299
 4865SOL     OW26227   2.395   1.637   3.933 -0.2856 -0.5267 -0.1158
 4865SOL    HW126228   2.368   1.699   4.002  0.6687  0.2877 -0.4814
 4865SOL    HW226229   2.310   1.602   3.905  0.0218 -0.4711 -1.1062
 4866SOL     OW26230   2.726   1.232   1.314 -0.7134 -0.1343  0.2394
 4866SOL    HW126231   2.794   1.193   1.258  0.1651 -2.9806  3.2697
 4866SOL    HW226232   2.673   1.271   1.245 -0.7416 -0.3758  0.1223
 4867SOL     OW26233   4.045   3.875   9.237 -0.4598 -0.4645  0.1971
 4867SOL    HW126234   4.039   3.930   9.315  1.5266 -0.4441  0.3398
 4867SOL    HW226235   3.958   3.851   9.207 -1.2436 -0.1390  2.2355
 4868SOL     OW26236   4.062   0.956  15.630  0.4525 -0.0026 -0.0717
 4868SOL    HW126237   3.973   0.929  15.606 -0.3254  0.7228  2.0693
 4868SOL    HW226238   4.082   1.020  15.561  0.3452  1.0255  0.8486
 4869SOL     OW26239   4.407   1.073   4.888 -0.4703 -0.0923 -0.3145
 4869SOL    HW126240   4.336   1.137   4.878 -2.9331 -2.3653  2.4331
 4869SOL    HW226241   4.475   1.122   4.842  1.3484 -0.1856  2.2800
 4870SOL     OW26242   1.571   2.912   4.159 -0.0759  0.1967 -0.6368
 4870SOL    HW126243   1.492   2.894   4.209 -0.0695  1.1154 -0.2841
 4870SOL    HW226244   1.562   3.003   4.131  1.2647  0.2560 -0.8797
 4871SOL     OW26245   0.286   4.677  16.532 -0.1259  0.6985 -0.5029
 4871SOL    HW126246   0.381   4.683  16.520 -0.3442  1.8819 -1.6454
 4871SOL    HW226247   0.260   0.032  16.513  2.1186  1.8553  1.9127
 4872SOL     OW26248   1.585   3.214   3.364 -0.4480  0.0121  0.5953
 4872SOL    HW126249   1.615   3.130   3.329 -1.1520 -0.1356  0.3364
 4872SOL    HW226250   1.534   3.247   3.289  2.4095 -1.1027 -1.8025
 4873SOL     OW26251   4.670   2.191  16.659 -0.1155 -0.0093 -0.6090
 4873SOL    HW126252   4.575   2.204  16.661  0.1524  1.0273  4.3075
 4873SOL    HW226253   4.678   2.110  16.608 -0.9088  0.4322 -1.4430
 4874SOL     OW26254   3.982   4.354   6.461  0.1499  0.1381  0.6857
 4874SOL    HW126255   3.968   4.409   6.384 -1.3357  1.6388  2.0451
 4874SOL    HW226256   4.049   4.300   6.419 -1.1421  0.3252 -1.6269
 4875SOL     OW26257   1.329   1.172   1.996  0.3750  0.0006  0.2746
 4875SOL    HW126258   1.363   1.119   1.924 -2.1207 -0.8552 -0.2796
 4875SOL    HW226259   1.250   1.207   1.955  2.0122  1.8633 -1.2806
 4876SOL     OW26260   1.908   2.648   5.499  0.4697  0.6010 -0.3838
 4876SOL    HW126261   1.820   2.643   5.537 -0.8182  1.3124 -3.2642
 4876SOL    HW226262   1.951   2.645   5.584 -1.7784 -3.2563  0.6622
 4877SOL     OW26263   4.474   1.785   5.274  0.2480 -0.7300 -0.4457
 4877SOL    HW126264   4.407   1.734   5.320 -0.9402  0.7877 -0.4932
 4877SOL    HW226265   4.425   1.850   5.225  1.3625  0.0300 -0.5434
 4878SOL     OW26266   0.450   3.016  16.953  0.0778 -0.0446 -0.1013
 4878SOL    HW126267   0.463   3.021  16.858  2.1503 -3.3328  0.0109
 4878SOL    HW226268   0.401   2.934  16.956  0.0650  0.0236  1.2803
 4879SOL     OW26269   0.039   2.595   2.872  0.6827 -0.0841 -0.9189
 4879SOL    HW126270   0.115   2.556   2.830  1.5453  1.0880 -0.4582
 4879SOL    HW226271   4.710   2.602   2.801 -0.3573 -1.1663 -0.0881
 4880SOL     OW26272   2.174   0.479   6.332  0.4794 -0.0415  0.0398
 4880SOL    HW126273   2.246   0.417   6.347 -2.8607 -4.0694 -0.5439
 4880SOL    HW226274   2.106   0.415   6.311 -0.5785  1.3393 -0.6815
 4881SOL     OW26275   3.264   4.175   9.991 -0.3234 -0.5983 -0.1620
 4881SOL    HW126276   3.230   4.088   9.969 -1.4185 -0.4909  1.1040
 4881SOL    HW226277   3.186   4.213  10.031  1.0653  2.2007 -0.1466
 4882SOL     OW26278   1.734   4.605  10.167 -0.1992  0.9779  0.1974
 4882SOL    HW126279   1.735   4.700  10.174  0.0904  1.0617 -0.9391
 4882SOL    HW226280   1.755   4.600  10.074 -2.9222 -1.7429 -0.2761
 4883SOL     OW26281   0.800   2.836   6.153  0.2641 -0.0658  0.3810
 4883SOL    HW126282   0.740   2.908   6.174 -0.4441 -0.1910 -1.1910
 4883SOL    HW226283   0.874   2.866   6.206 -0.3719  1.0347  0.6482
 4884SOL     OW26284   2.462   3.859   9.956 -0.0259 -0.5794  0.5501
 4884SOL    HW126285   2.420   3.893  10.034  0.6670 -1.8221  1.4612
 4884SOL    HW226286   2.486   3.770   9.983  1.9485  0.0352  0.7712
 4885SOL     OW26287   0.518   4.043   3.511 -0.6983  0.1123  0.9102
 4885SOL    HW126288   0.444   4.035   3.572 -2.9277  0.3163 -1.7404
 4885SOL    HW226289   0.490   3.985   3.440  0.6650 -1.1628  1.4145
 4886SOL     OW26290   1.101   4.670   0.772  0.4267  0.1323 -0.0782
 4886SOL    HW126291   1.014   4.644   0.743 -0.0502  0.6259  0.9233
 4886SOL    HW226292   1.151   4.651   0.693  2.7826 -0.4839  1.5593
 4887SOL     OW26293   1.761   0.404   0.251  0.0545 -0.2695 -0.2254
 4887SOL    HW126294   1.698   0.338   0.222 -1.2433  0.4450  0.9781
 4887SOL    HW226295   1.847   0.362   0.243  0.3181  0.5224 -1.5095
 4888SOL     OW26296   1.365   4.197  13.680  0.4305 -0.0042  0.2772
 4888SOL    HW126297   1.286   4.192  13.627  0.9790  0.7319 -0.6110
 4888SOL    HW226298   1.424   4.144  13.625 -0.7210 -0.5320 -0.4475
 4889SOL     OW26299   2.803   0.740   7.064 -0.2964 -0.8800 -0.1980
 4889SOL    HW126300   2.744   0.810   7.092  0.4891 -0.3531  0.1510
 4889SOL    HW226301   2.827   0.705   7.150 -1.7190  0.8945  0.9348
 4890SOL     OW26302   2.716   3.203   3.542  0.2672 -0.4292 -0.1290
 4890SOL    HW126303   2.690   3.218   3.633 -1.3030 -1.3595 -0.4342
 4890SOL    HW226304   2.712   3.109   3.523 -0.5768 -0.4417  0.1249
 4891SOL     OW26305   1.713   4.703   4.481 -0.1372 -0.1601 -0.1041
 4891SOL    HW126306   1.670   4.623   4.451  3.1814 -1.6891 -0.8079
 4891SOL    HW226307   1.639   0.028   4.491 -0.7677 -0.5497 -2.4102
 4892SOL     OW26308   4.157   0.590   5.238 -0.6669  0.5282  0.2020
 4892SOL    HW126309   4.095   0.524   5.210  2.4685 -1.6118 -1.6974
 4892SOL    HW226310   4.161   0.556   5.327  0.1711 -0.0556 -0.0562
 4893SOL     OW26311   4.734   0.236  11.779 -0.2587 -0.2907  0.5911
 4893SOL    HW126312   4.656   0.277  11.742 -1.5967 -2.5237  0.8790
 4893SOL    HW226313   0.068   0.299  11.764  0.5326 -1.2101  0.3549
 4894SOL     OW26314   2.265   2.923   7.232  0.0012 -0.0585  0.1635
 4894SOL    HW126315   2.232   2.866   7.302 -1.3854  2.2161  1.3736
 4894SOL    HW226316   2.282   3.009   7.271 -2.1131  1.2013 -1.7339
 4895SOL     OW26317   0.412   0.310   6.278 -0.0687  0.1685 -0.2795
 4895SOL    HW126318   0.489   0.346   6.233  0.1511  1.5425  1.1919
 4895SOL    HW226319   0.414   0.349   6.366 -2.0324 -0.9428  0.2431
 4896SOL     OW26320   0.727   0.559   3.772 -0.1383 -0.5084 -0.2777
 4896SOL    HW126321   0.750   0.593   3.858  0.2672 -1.0880 -0.1619
 4896SOL    HW226322   0.797   0.497   3.754 -1.7417 -2.3559 -0.1833
 4897SOL     OW26323   4.705   3.701   7.440 -0.3138 -0.3900  0.0796
 4897SOL    HW126324   0.061   3.671   7.442 -0.3790 -0.3582  3.5134
 4897SOL    HW226325   4.676   3.654   7.362 -0.5509  4.2455 -2.6175
 4898SOL     OW26326   0.798   2.163  10.931  0.4510 -0.1004  0.2439
 4898SOL    HW126327   0.828   2.178  10.842  0.5935  0.3907  0.3800
 4898SOL    HW226328   0.751   2.245  10.945  2.0863  0.7331  0.8178
 4899SOL     OW26329   0.533   1.274   6.222 -0.6296  0.3002 -0.1581
 4899SOL    HW126330   0.519   1.298   6.131  0.1770  1.2634 -0.0360
 4899SOL    HW226331   0.519   1.180   6.211 -0.2774  0.3891 -1.3703
 4900SOL     OW26332   0.446   4.529  14.564 -0.2240  0.2170 -0.4333
 4900SOL    HW126333   0.365   4.508  14.519 -1.0811  1.5697  0.4522
 4900SOL    HW226334   0.496   4.447  14.561 -0.0988  0.2557  0.5824
 4901SOL     OW26335   0.666   4.478   4.870  0.3679  0.2139 -0.5754
 4901SOL    HW126336   0.615   4.482   4.789 -2.0263 -0.2714  0.9041
 4901SOL    HW226337   0.652   4.389   4.901 -0.7249  0.6577  0.2130
 4902SOL     OW26338   1.108   3.853  16.546 -0.1177 -0.3840  0.0409
 4902SOL    HW126339   1.174   3.796  16.507  1.1117  1.2689 -0.3106
 4902SOL    HW226340   1.042   3.786  16.562  0.5554 -0.8352  0.8615
 4903SOL     OW26341   4.652   3.227   3.534 -0.3898  0.1769  0.5851
 4903SOL    HW126342   4.734   3.261   3.570  0.1357 -1.7286  1.1644
 4903SOL    HW226343   4.581   3.290   3.546 -1.5599 -1.3921  1.8557
 4904SOL     OW26344   2.310   1.714   7.333 -0.1149  0.0339  0.1303
 4904SOL    HW126345   2.242   1.781   7.334 -1.7768 -1.6833  2.0782
 4904SOL    HW226346   2.367   1.741   7.405  0.2720  2.1623 -0.9632
 4905SOL     OW26347   0.893   1.546   3.891  0.3017 -0.7627 -0.2445
 4905SOL    HW126348   0.845   1.608   3.835  1.2338 -2.1700 -2.6094
 4905SOL    HW226349   0.833   1.532   3.964 -0.6691 -1.2270 -1.1172
 4906SOL     OW26350   0.619   3.021   7.711  0.2232 -0.0786  0.1259
 4906SOL    HW126351   0.565   3.003   7.634 -0.8662  0.6087  0.7325
 4906SOL    HW226352   0.587   2.952   7.771 -3.3702  1.0184 -0.5357
 4907SOL     OW26353   3.385   4.190   6.656  0.9599 -0.1650 -0.2097
 4907SOL    HW126354   3.327   4.200   6.731 -0.3362  3.6238 -1.7234
 4907SOL    HW226355   3.415   4.279   6.637  0.2515  0.4913  1.7280
 4908SOL     OW26356   3.243   1.737   9.596  0.3467  0.2821 -0.0288
 4908SOL    HW126357   3.205   1.700   9.676  0.6887 -1.6420 -0.7481
 4908SOL    HW226358   3.299   1.664   9.569  0.9553  0.6799  0.1439
 4909SOL     OW26359   1.133   3.251   3.270  0.1356 -0.4212  0.1424
 4909SOL    HW126360   1.174   3.275   3.353 -0.8304 -0.8017  0.7364
 4909SOL    HW226361   1.212   3.245   3.217  0.0035  0.5895 -0.1650
 4910SOL     OW26362   2.207   2.991   7.942  0.2321  0.0326 -0.6457
 4910SOL    HW126363   2.215   3.066   7.883 -0.1235 -0.6416 -1.5591
 4910SOL    HW226364   2.167   3.027   8.020 -0.3569 -3.1052  0.5020
 4911SOL     OW26365   3.257   3.299   4.256  0.1528 -0.6226  0.1795
 4911SOL    HW126366   3.245   3.370   4.193  1.0929 -0.6700 -0.0567
 4911SOL    HW226367   3.255   3.344   4.341 -2.1307  1.8357 -1.1592
 4912SOL     OW26368   1.498   3.381   4.888  0.1603 -0.0445  0.0049
 4912SOL    HW126369   1.544   3.350   4.810  2.7629  0.3963  1.3665
 4912SOL    HW226370   1.561   3.356   4.955 -0.0600 -1.0510 -0.1709
 4913SOL     OW26371   2.365   1.201   6.067 -0.1012 -0.2524 -0.4262
 4913SOL    HW126372   2.434   1.194   6.133  0.1973 -0.2602 -0.7367
 4913SOL    HW226373   2.355   1.113   6.032 -0.6146  0.0622 -1.0747
 4914SOL     OW26374   0.696   1.793   4.312 -0.2227 -0.2519 -0.1865
 4914SOL    HW126375   0.645   1.835   4.243  1.6481  1.6324 -0.4134
 4914SOL    HW226376   0.633   1.776   4.383  0.4937 -3.7173 -0.4102
 4915SOL     OW26377   2.086   3.593  10.119 -0.0491 -0.2271 -0.4284
 4915SOL    HW126378   2.103   3.516  10.173 -0.1512  0.0766  0.0317
 4915SOL    HW226379   2.129   3.661  10.170 -0.5806 -0.1049 -0.1486
 4916SOL     OW26380   4.186   2.317   8.458  0.0968 -0.2272  0.1251
 4916SOL    HW126381   4.226   2.374   8.393  0.8420 -1.3829 -0.4233
 4916SOL    HW226382   4.109   2.294   8.407  2.2765 -0.3333 -3.1421
 4917SOL     OW26383   2.949   1.586   5.941  0.3265  0.2441 -0.3473
 4917SOL    HW126384   3.019   1.649   5.922  1.0634  0.0059  1.6995
 4917SOL    HW226385   2.958   1.521   5.872 -1.0814  0.6175 -0.9044
 4918SOL     OW26386   3.956   3.928   8.240 -0.3697 -0.3040 -0.1319
 4918SOL    HW126387   3.929   3.850   8.192 -1.2735 -0.6859  0.9893
 4918SOL    HW226388   3.936   3.996   8.175  0.0064  0.9460  1.0477
 4919SOL     OW26389   3.156   4.016   2.234 -0.2518  0.3284  0.0725
 4919SOL    HW126390   3.090   4.077   2.266 -0.1350  1.2243 -1.4229
 4919SOL    HW226391   3.107   3.934   2.230  1.3926 -0.5531 -1.9935
 4920SOL     OW26392   0.843   0.257   0.652 -0.1940 -0.0964  0.1793
 4920SOL    HW126393   0.871   0.177   0.696  2.9269 -0.9656 -3.4145
 4920SOL    HW226394   0.804   0.239   0.567  1.5927 -0.7809 -0.4997
 4921SOL     OW26395   2.326   3.354   2.076 -0.3675 -0.4810 -0.0301
 4921SOL    HW126396   2.370   3.399   2.148  2.4482 -3.3818  0.0471
 4921SOL    HW226397   2.292   3.426   2.022 -1.6601  0.2992  1.8093
 4922SOL     OW26398   0.930   1.049   5.075  0.1605 -0.3193 -0.0681
 4922SOL    HW126399   0.957   1.045   5.167  2.5423  2.1263 -0.6342
 4922SOL    HW226400   0.999   0.993   5.040 -2.0597 -2.3973 -1.0915
 4923SOL     OW26401   3.267   1.816   7.372  0.0826 -0.0294  0.5247
 4923SOL    HW126402   3.230   1.824   7.460 -0.4432 -1.4554  0.4292
 4923SOL    HW226403   3.201   1.860   7.319 -0.6985 -0.6853  0.9573
 4924SOL     OW26404   3.513   3.324   4.691  0.1229 -0.2208  0.6414
 4924SOL    HW126405   3.460   3.277   4.627 -0.0459  1.4795 -0.4565
 4924SOL    HW226406   3.571   3.383   4.642  1.1064 -2.3188 -0.6885
 4925SOL     OW26407   1.078   0.289   3.334 -0.6318  0.4801  0.1489
 4925SOL    HW126408   1.123   0.281   3.417 -0.3472  1.6264  0.1051
 4925SOL    HW226409   1.034   0.204   3.334  0.8188 -0.2353  2.5728
 4926SOL     OW26410   2.566   2.960  10.812  0.4385  0.5159 -0.3438
 4926SOL    HW126411   2.517   3.041  10.802 -1.3487 -0.4989  0.0846
 4926SOL    HW226412   2.564   2.936  10.905  2.1806  0.4020 -0.3446
 4927SOL     OW26413   4.023   3.897  12.975 -0.5885 -0.2120 -0.0641
 4927SOL    HW126414   4.072   3.919  13.053  1.4290  2.1581 -2.0202
 4927SOL    HW226415   4.095   3.860  12.924  0.0345 -0.3252  0.9087
 4928SOL     OW26416   0.905   3.238   7.007 -0.1046 -0.3673 -0.8788
 4928SOL    HW126417   0.921   3.220   6.915 -0.3578 -0.7038 -0.8597
 4928SOL    HW226418   0.962   3.169   7.041  1.0899 -0.5916 -3.3664
 4929SOL     OW26419   0.345   3.501   7.584  0.5698 -0.7370  0.2417
 4929SOL    HW126420   0.378   3.418   7.552  1.3693 -0.9018  1.4781
 4929SOL    HW226421   0.357   3.470   7.674 -2.0686  0.1742  0.9241
 4930SOL     OW26422   4.483   4.686   1.929  0.4331 -0.3451 -0.0568
 4930SOL    HW126423   4.417   4.667   1.996 -0.8939 -2.4771 -1.9708
 4930SOL    HW226424   4.506   0.038   1.960  0.5754 -0.4201  0.0531
 4931SOL     OW26425   2.244   2.387   4.789  0.2014  0.1566  0.3363
 4931SOL    HW126426   2.215   2.401   4.699 -3.7507  1.5719  1.8271
 4931SOL    HW226427   2.340   2.385   4.787  0.2384 -0.3138  2.3107
 4932SOL     OW26428   3.242   0.493   8.132 -0.3732 -0.5579 -0.0314
 4932SOL    HW126429   3.327   0.480   8.175  0.1555  0.3425 -0.7986
 4932SOL    HW226430   3.191   0.458   8.205  0.4411  2.8465  2.1344
 4933SOL     OW26431   3.704   3.263   8.132  0.4610 -0.4261 -0.0524
 4933SOL    HW126432   3.632   3.317   8.165  0.7079 -0.6851  0.9125
 4933SOL    HW226433   3.738   3.236   8.217 -1.7984 -0.0868  0.9541
 4934SOL     OW26434   0.529   0.881   2.764  0.3280  0.4494 -0.3708
 4934SOL    HW126435   0.607   0.911   2.717 -1.5195  1.5458 -2.6753
 4934SOL    HW226436   0.548   0.791   2.794  0.8706  0.9485  0.8178
 4935SOL     OW26437   2.104   0.571   9.470  0.0098 -0.3683  0.2274
 4935SOL    HW126438   2.080   0.513   9.398 -1.4147 -0.2553  0.6050
 4935SOL    HW226439   2.039   0.542   9.534  0.6643  1.3767  1.6852
 4936SOL     OW26440   0.405   1.782   1.279  0.1593 -0.5503 -0.2459
 4936SOL    HW126441   0.348   1.706   1.270  0.3616 -0.8707  1.0977
 4936SOL    HW226442   0.467   1.752   1.346  0.1001  2.2523  1.1037
 4937SOL     OW26443   2.652   0.111  16.184  0.9492 -0.0592  0.2304
 4937SOL    HW126444   2.737   0.080  16.152  1.5362 -1.9208  3.6433
 4937SOL    HW226445   2.662   0.205  16.167  1.3598 -0.0234  0.6913
 4938SOL     OW26446   2.942   3.473  13.056  0.4056  0.3719  0.0133
 4938SOL    HW126447   2.921   3.398  13.111 -1.1000  0.7631 -0.0136
 4938SOL    HW226448   2.909   3.542  13.114 -1.3053 -0.1036 -0.3988
 4939SOL     OW26449   0.452   1.425   3.456  0.1118  0.2755 -0.2040
 4939SOL    HW126450   0.361   1.427   3.485  0.2050 -0.1736  0.1205
 4939SOL    HW226451   0.440   1.411   3.363  0.9079  1.6658 -0.5202
 4940SOL     OW26452   1.772   4.128   9.207 -0.2982  0.4601 -0.0040
 4940SOL    HW126453   1.803   4.088   9.288  1.3705 -0.4618 -1.1030
 4940SOL    HW226454   1.832   4.202   9.200  0.8645 -0.4039  0.9576
 4941SOL     OW26455   3.892   1.679   4.860 -0.3043 -0.0478  0.0481
 4941SOL    HW126456   3.878   1.723   4.776 -4.2542 -0.0750  0.6835
 4941SOL    HW226457   3.873   1.742   4.930  0.2413  1.9720 -1.6146
 4942SOL     OW26458   2.662   4.683  14.696  0.2448 -0.7422  0.2060
 4942SOL    HW126459   2.647   4.595  14.728  0.0121 -0.7244  0.1454
 4942SOL    HW226460   2.622   0.004  14.762  2.0597  2.3421 -1.2639
 4943SOL     OW26461   0.467   2.356   7.097 -0.0064 -0.1744 -0.4646
 4943SOL    HW126462   0.497   2.266   7.106 -0.2503 -0.2447 -0.3602
 4943SOL    HW226463   0.540   2.391   7.045  0.5832  0.8167  1.0142
 4944SOL     OW26464   3.264   1.287   5.351  0.1015 -0.2533 -0.1217
 4944SOL    HW126465   3.221   1.233   5.284 -0.1577 -0.6194  0.3356
 4944SOL    HW226466   3.187   1.305   5.405  1.9178  0.1707  2.3368
 4945SOL     OW26467   4.663   3.823  15.586  0.5368  0.0260 -0.1813
 4945SOL    HW126468   0.004   3.816  15.528  0.9632  1.2032  0.2316
 4945SOL    HW226469   4.609   3.759  15.541  0.3119 -1.5894  2.4244
 4946SOL     OW26470   4.068   0.539   2.775 -0.5679 -0.1078 -0.4147
 4946SOL    HW126471   3.981   0.541   2.736 -0.6927 -0.3323 -0.1534
 4946SOL    HW226472   4.121   0.486   2.715 -1.0280  0.2916 -1.1659
 4947SOL     OW26473   1.504   2.249   5.152 -0.0136  0.6148 -0.0375
 4947SOL    HW126474   1.508   2.300   5.071 -1.7709 -0.1171 -0.6018
 4947SOL    HW226475   1.459   2.311   5.209 -0.5931  2.1605 -2.1805
 4948SOL     OW26476   4.657   0.760   4.224 -0.6884  0.4140  0.1454
 4948SOL    HW126477   4.578   0.771   4.172 -1.5242 -1.7586  0.9667
 4948SOL    HW226478   4.721   0.826   4.197 -0.7065  0.6309  0.6267
 4949SOL     OW26479   3.599   3.723   4.389 -0.4373 -0.2898  0.3197
 4949SOL    HW126480   3.585   3.714   4.484  0.5763  2.2305  0.7025
 4949SOL    HW226481   3.531   3.785   4.366 -0.9104 -0.6248  0.8142
 4950SOL     OW26482   3.057   3.666  10.885 -0.3713  0.1606  0.0811
 4950SOL    HW126483   2.976   3.679  10.835 -0.8310 -0.0662  0.7674
 4950SOL    HW226484   3.034   3.599  10.949  0.9746  0.4650  0.8647
 4951SOL     OW26485   1.380   4.190   0.789 -0.3881  0.0379  0.1673
 4951SOL    HW126486   1.293   4.156   0.811 -0.0814 -3.1874 -3.5694
 4951SOL    HW226487   1.402   4.123   0.724  3.0797  0.4296  0.9488
 4952SOL     OW26488   0.584   2.417   2.278  0.1050  0.2783  0.1466
 4952SOL    HW126489   0.492   2.411   2.304 -0.0938  0.3821 -0.5339
 4952SOL    HW226490   0.600   2.324   2.263 -0.2978  0.2441 -0.0887
 4953SOL     OW26491   0.583   1.998   5.443 -0.0185  0.7049  0.2240
 4953SOL    HW126492   0.671   2.033   5.430 -0.9091  2.1415 -2.0045
 4953SOL    HW226493   0.580   1.985   5.538  1.1247  1.9386  0.4313
 4954SOL     OW26494   2.190   0.658   3.966  0.0731  0.6905  0.2802
 4954SOL    HW126495   2.195   0.731   4.028 -1.8284 -1.2780  2.7929
 4954SOL    HW226496   2.223   0.700   3.887  0.9060 -1.4148 -0.4830
 4955SOL     OW26497   2.870   3.223   4.340 -0.1985 -0.7274  0.8596
 4955SOL    HW126498   2.906   3.312   4.345  1.5970 -1.4881  1.6071
 4955SOL    HW226499   2.902   3.178   4.418  0.3786  1.4264  1.8797
 4956SOL     OW26500   1.345   4.367   5.404 -0.2507  0.3646 -0.3152
 4956SOL    HW126501   1.433   4.399   5.383 -0.0591  0.2613  0.3446
 4956SOL    HW226502   1.354   4.273   5.394  0.5917  0.5463 -1.3362
 4957SOL     OW26503   0.117   0.949   2.844  0.7672  0.5238  0.3135
 4957SOL    HW126504   0.046   0.898   2.884  0.0676  0.5202 -0.9429
 4957SOL    HW226505   0.075   1.027   2.809  1.0245 -0.3555 -1.9775
 4958SOL     OW26506   2.888   4.414   6.475 -0.4526  0.2457  0.3866
 4958SOL    HW126507   2.937   4.461   6.407 -1.3827 -0.4980 -0.7969
 4958SOL    HW226508   2.889   4.322   6.448 -1.3089  0.5147 -0.5560
 4959SOL     OW26509   3.521   2.385   3.372 -0.1904 -0.3031  0.2602
 4959SOL    HW126510   3.505   2.434   3.453  0.5979  0.8868 -0.2918
 4959SOL    HW226511   3.438   2.364   3.330  0.3280  2.5257 -2.2270
 4960SOL     OW26512   3.448   1.987   6.307  0.3253  0.4159 -0.6177
 4960SOL    HW126513   3.365   2.031   6.322  1.1803  2.3145 -1.3896
 4960SOL    HW226514   3.501   2.035   6.371  0.5239 -0.8452  0.1729
 4961SOL     OW26515   3.658   1.731   6.914  0.3025  0.1770 -0.5551
 4961SOL    HW126516   3.706   1.677   6.977  1.1809  0.0234 -1.3484
 4961SOL    HW226517   3.564   1.739   6.930  0.7962  1.3856  1.6901
 4962SOL     OW26518   3.957   3.166   0.134 -0.0688 -0.1016  0.6718
 4962SOL    HW126519   3.885   3.216   0.173  2.6336  1.9750  2.9456
 4962SOL    HW226520   4.034   3.200   0.180  0.6327  1.2721 -1.5055
 4963SOL     OW26521   1.035   4.537   6.934  0.0469 -0.4359  0.1679
 4963SOL    HW126522   1.126   4.558   6.914  0.0457 -0.9568 -0.3520
 4963SOL    HW226523   1.042   4.543   7.029  2.0906  1.5913 -0.0968
 4964SOL     OW26524   3.473   1.950   6.022 -0.0566 -0.4558  0.3090
 4964SOL    HW126525   3.446   1.939   6.113 -2.4383  0.2645 -0.3140
 4964SOL    HW226526   3.482   1.860   5.992 -0.6320 -0.5835  0.5306
 4965SOL     OW26527   3.908   2.793   4.336  0.5964  0.3620 -0.3592
 4965SOL    HW126528   3.908   2.884   4.307  2.3773  0.4713 -0.0145
 4965SOL    HW226529   3.963   2.820   4.410  1.1081 -0.5467 -0.4020
 4966SOL     OW26530   4.549   1.016   7.896  0.2532 -0.0838 -0.0529
 4966SOL    HW126531   4.570   0.931   7.933 -1.3911 -0.8238 -0.8164
 4966SOL    HW226532   4.632   1.060   7.873  0.0655  0.1923 -0.2026
 4967SOL     OW26533   0.723   0.693   6.503 -0.3129  0.1333 -0.7850
 4967SOL    HW126534   0.702   0.715   6.413 -0.6319 -2.7151 -1.4039
 4967SOL    HW226535   0.817   0.677   6.493 -0.6802 -2.7942  0.3866
 4968SOL     OW26536   1.878   1.605   7.557  1.2478  0.0274  0.0507
 4968SOL    HW126537   1.926   1.678   7.516  0.9782 -0.3658 -0.9598
 4968SOL    HW226538   1.838   1.648   7.633 -0.8306 -1.0672 -0.4304
 4969SOL     OW26539   1.843   0.321   8.876 -0.7945 -0.6671 -0.3764
 4969SOL    HW126540   1.938   0.335   8.882 -0.7171 -0.0421 -2.8465
 4969SOL    HW226541   1.835   0.248   8.814 -0.0745  0.8295 -2.2247
 4970SOL     OW26542   1.053   1.239   3.126  0.3239  0.3329 -0.4336
 4970SOL    HW126543   0.974   1.287   3.101 -1.7442 -2.3515  0.9998
 4970SOL    HW226544   1.008   1.167   3.169 -0.9534  0.7957 -1.0099
 4971SOL     OW26545   2.201   4.183   2.110 -0.0022  0.2025  0.2211
 4971SOL    HW126546   2.221   4.226   2.193  0.7209  1.1610 -0.4547
 4971SOL    HW226547   2.188   4.259   2.052  1.9543  0.5336  0.2111
 4972SOL     OW26548   3.824   3.270   3.155  0.2361 -0.0056  0.1718
 4972SOL    HW126549   3.735   3.305   3.160  0.3823  0.2536  0.9827
 4972SOL    HW226550   3.807   3.181   3.186  1.6979 -1.3289 -2.8509
 4973SOL     OW26551   3.201   3.295   7.887  0.4225 -0.1075  0.5510
 4973SOL    HW126552   3.180   3.389   7.884 -0.3089 -0.2353  1.5776
 4973SOL    HW226553   3.110   3.265   7.880  1.4532 -2.5922 -2.1716
 4974SOL     OW26554   1.822   0.723   1.591 -0.5240 -0.4386  0.1608
 4974SOL    HW126555   1.742   0.774   1.584  0.1593  0.5912 -0.1241
 4974SOL    HW226556   1.889   0.786   1.563 -0.7336  0.3115  1.4046
 4975SOL     OW26557   4.460   0.114  15.959 -0.0555 -0.1906  0.2654
 4975SOL    HW126558   4.429   0.079  16.043 -0.2409  1.4373  0.8737
 4975SOL    HW226559   4.464   0.037  15.902  1.1581  0.5857 -0.6904
 4976SOL     OW26560   1.139   3.173   8.606 -0.1174 -0.6841 -0.3411
 4976SOL    HW126561   1.227   3.138   8.626 -0.1006  0.0700  0.8872
 4976SOL    HW226562   1.100   3.086   8.607 -2.6434  0.4681 -0.7412
 4977SOL     OW26563   4.626   3.892   9.604 -0.4751 -0.2842  0.1691
 4977SOL    HW126564   4.573   3.950   9.658  0.0931 -1.1763  1.6891
 4977SOL    HW226565   4.709   3.938   9.603  0.5914 -2.2141 -0.0683
 4978SOL     OW26566   1.072   3.865  10.297  0.2826 -0.1085 -0.9141
 4978SOL    HW126567   1.075   3.947  10.345  0.3026  0.1453 -1.3535
 4978SOL    HW226568   0.987   3.878  10.256  0.3257  1.0536 -0.6331
 4979SOL     OW26569   2.797   0.826   7.611  0.0188  0.7326  0.7670
 4979SOL    HW126570   2.755   0.833   7.525  1.0098  1.0380  0.3067
 4979SOL    HW226571   2.800   0.920   7.631  3.5090  0.7832 -0.0838
 4980SOL     OW26572   1.363   2.206   7.454  0.0762  0.1907 -0.1845
 4980SOL    HW126573   1.307   2.189   7.378  0.9671  1.1370 -1.0418
 4980SOL    HW226574   1.289   2.209   7.515 -2.8239 -1.7600 -3.5872
 4981SOL     OW26575   2.847   1.699   1.922  0.5870 -0.0480  0.6630
 4981SOL    HW126576   2.756   1.727   1.918  1.2548  1.8791 -0.7075
 4981SOL    HW226577   2.844   1.631   1.990 -1.8169 -0.6077 -0.0188
 4982SOL     OW26578   1.927   0.465   0.956  0.0809 -0.6193  0.0624
 4982SOL    HW126579   2.005   0.494   1.003 -0.7506 -0.2233  1.1716
 4982SOL    HW226580   1.900   0.539   0.902  1.4648 -0.9574 -1.1040
 4983SOL     OW26581   4.662   2.286  11.025  0.0187  0.6484 -0.0168
 4983SOL    HW126582   0.004   2.233  11.007 -2.4107 -2.3899 -1.3797
 4983SOL    HW226583   4.589   2.238  10.986 -0.6323  0.0025  1.9629
 4984SOL     OW26584   0.574   0.343   8.567  0.1323 -0.5078  0.6990
 4984SOL    HW126585   0.646   0.279   8.571  2.3069  1.9697  1.2107
 4984SOL    HW226586   0.515   0.313   8.498  1.4574  1.7641 -1.3981
 4985SOL     OW26587   1.832   0.882   8.428  0.0513 -0.0436 -0.2688
 4985SOL    HW126588   1.781   0.821   8.375 -0.3579 -0.1264  0.2101
 4985SOL    HW226589   1.897   0.829   8.475  0.1925 -2.0295 -2.6962
 4986SOL     OW26590   3.480   2.054   8.738 -0.0512 -0.4874  0.0315
 4986SOL    HW126591   3.541   2.021   8.804  0.6836  2.0292  0.6003
 4986SOL    HW226592   3.391   2.028   8.763 -0.1582 -0.6286 -0.4889
 4987SOL     OW26593   4.496   2.562  13.577  0.3918 -0.2962  0.3260
 4987SOL    HW126594   4.437   2.610  13.635  3.5583  2.2850  1.3569
 4987SOL    HW226595   4.542   2.503  13.637  1.9227  0.6141  0.0160
 4988SOL     OW26596   2.701   0.030   8.527  0.3091 -0.0555 -0.1780
 4988SOL    HW126597   2.718   4.671   8.528  0.4639  0.0012  2.9293
 4988SOL    HW226598   2.691   0.047   8.433  0.3838 -0.4923 -0.2654
 4989SOL     OW26599   2.326   0.454   2.470  0.5281  0.5076  0.3340
 4989SOL    HW126600   2.237   0.482   2.449  0.5384 -0.2396 -0.7376
 4989SOL    HW226601   2.336   0.382   2.408 -0.0927  0.0234  0.7878
 4990SOL     OW26602   0.714   1.891  14.076  0.5830  0.0680 -0.2364
 4990SOL    HW126603   0.780   1.950  14.040  0.1648 -0.8101 -2.4377
 4990SOL    HW226604   0.769   1.819  14.106 -0.1905  0.1716  1.4704
 4991SOL     OW26605   3.915   1.509  16.502  0.0030 -0.0233 -0.2892
 4991SOL    HW126606   3.991   1.567  16.503 -0.0547  0.0743 -1.4041
 4991SOL    HW226607   3.878   1.548  16.422  0.2008 -1.4067 -1.0519
 4992SOL     OW26608   3.219   2.959   6.926  0.1264  0.0713  0.4575
 4992SOL    HW126609   3.262   2.969   7.011  1.9938 -0.8685 -0.3663
 4992SOL    HW226610   3.219   2.863   6.924 -2.2965  0.0541  1.1132
 4993SOL     OW26611   1.005   0.565   5.108  0.7760  0.0887 -0.0375
 4993SOL    HW126612   1.035   0.494   5.052 -1.5072 -1.9832  1.3956
 4993SOL    HW226613   0.958   0.621   5.046  1.6205 -0.5910 -1.2945
 4994SOL     OW26614   1.517   1.845  13.576  0.3205  0.1464 -0.1920
 4994SOL    HW126615   1.539   1.937  13.588  0.0432  0.0511  1.0634
 4994SOL    HW226616   1.603   1.803  13.580  0.3336  0.2291  0.4757
 4995SOL     OW26617   2.930   4.101   7.847 -0.6143  0.4688 -0.4748
 4995SOL    HW126618   2.964   4.134   7.931  1.9932 -3.8780  0.1653
 4995SOL    HW226619   2.843   4.068   7.869  0.0333 -0.1264  1.1922
 4996SOL     OW26620   0.370   3.329   9.575  0.3794  0.3152 -0.0318
 4996SOL    HW126621   0.337   3.297   9.659 -0.4999  0.9564 -0.1325
 4996SOL    HW226622   0.317   3.280   9.512  0.4262 -0.0295  0.1945
 4997SOL     OW26623   0.134   1.988   4.035  0.0326  0.2445 -0.5417
 4997SOL    HW126624   0.041   2.012   4.045 -0.2218 -0.7361 -0.5730
 4997SOL    HW226625   0.181   2.070   4.019 -2.7576  1.4325 -2.7367
 4998SOL     OW26626   2.086   3.075  12.477  0.0473  0.1494  0.7857
 4998SOL    HW126627   2.024   3.147  12.470 -0.1426  0.0079  1.0288
 4998SOL    HW226628   2.172   3.115  12.468 -1.2775  2.5653 -1.0827
 4999SOL     OW26629   2.747   3.738   3.218  0.4557 -0.1369 -0.0544
 4999SOL    HW126630   2.719   3.780   3.299  1.5296  0.1039  0.1909
 4999SOL    HW226631   2.688   3.762   3.147  1.5906  0.0503 -0.9406
 5000SOL     OW26632   3.929   3.522   7.074 -0.7121 -0.2074  0.4302
 5000SOL    HW126633   3.985   3.591   7.109  0.9946 -1.8498  0.9498
 5000SOL    HW226634   3.985   3.484   7.007  0.4597 -0.0779  1.3443
 5001SOL     OW26635   0.803   2.442   5.915  0.1872  0.3776 -0.1145
 5001SOL    HW126636   0.718   2.398   5.914 -0.0052  0.7588 -0.5811
 5001SOL    HW226637   0.781   2.533   5.896  2.7520  1.0780  0.3130
 5002SOL     OW26638   1.823   1.842   3.530 -0.4565  0.2048  0.0067
 5002SOL    HW126639   1.830   1.802   3.617 -1.6696  2.0655  0.9388
 5002SOL    HW226640   1.912   1.877   3.526  1.1901 -4.0125 -0.1900
 5003SOL     OW26641   1.426   1.076   8.785  0.0784  0.0197  0.5251
 5003SOL    HW126642   1.519   1.090   8.801  0.1953 -1.9377  1.4779
 5003SOL    HW226643   1.413   0.992   8.829  0.1902 -1.7184 -2.7351
 5004SOL     OW26644   2.382   1.452   1.976 -0.4898  0.0575 -0.4237
 5004SOL    HW126645   2.353   1.494   1.895 -0.3320 -0.7188 -0.8793
 5004SOL    HW226646   2.372   1.512   2.050  1.0104 -0.0543 -0.1367
 5005SOL     OW26647   2.873   1.273   5.969 -0.2072  0.1005  0.1696
 5005SOL    HW126648   2.919   1.311   6.043 -0.0230  1.2775 -0.5523
 5005SOL    HW226649   2.959   1.257   5.928  0.2689  0.6233  0.9807
 5006SOL     OW26650   2.756   1.548   1.436  0.7602  0.0728 -0.3804
 5006SOL    HW126651   2.720   1.625   1.480 -0.3453 -0.1010 -0.9743
 5006SOL    HW226652   2.735   1.476   1.495 -1.4924  0.3960 -0.7826
 5007SOL     OW26653   2.926   0.130   2.255 -0.2274 -0.3499 -0.9147
 5007SOL    HW126654   2.895   0.061   2.314 -1.1576  0.1842 -0.7769
 5007SOL    HW226655   2.997   0.167   2.307  1.5054 -3.9570 -0.7131
 5008SOL     OW26656   2.029   4.184   0.497  0.0076 -0.2467 -0.3158
 5008SOL    HW126657   1.965   4.229   0.442 -2.0421  0.2324  2.4729
 5008SOL    HW226658   2.008   4.228   0.579  0.4117 -1.2968  0.3513
 5009SOL     OW26659   3.513   2.007  10.200  0.0168  0.0854  0.1535
 5009SOL    HW126660   3.504   2.071  10.271 -1.5983 -0.2422  0.2475
 5009SOL    HW226661   3.542   2.065  10.130  0.3702 -0.5385 -0.2165
 5010SOL     OW26662   2.628   1.883  16.291  0.4796 -0.0811 -0.0780
 5010SOL    HW126663   2.613   1.919  16.204  0.5861  0.2291  0.0339
 5010SOL    HW226664   2.710   1.929  16.309 -0.4734  0.8450  1.9658
 5011SOL     OW26665   4.203   2.670   8.857  0.2195 -0.1965 -0.3151
 5011SOL    HW126666   4.243   2.681   8.771 -1.2169 -2.3975 -1.2518
 5011SOL    HW226667   4.281   2.648   8.908  1.1260  1.1060 -1.1470
 5012SOL     OW26668   1.936   1.000  15.368  0.3280  0.3016 -0.0954
 5012SOL    HW126669   1.923   0.912  15.333 -0.2086  0.3376  0.0121
 5012SOL    HW226670   2.029   1.014  15.352  0.3947  0.3717  0.3470
 5013SOL     OW26671   4.566   4.183   7.580 -0.0700  0.5126 -0.1296
 5013SOL    HW126672   4.562   4.189   7.485  0.1967  0.1277 -0.1666
 5013SOL    HW226673   4.586   4.090   7.589 -0.0212  0.5517  0.1902
 5014SOL     OW26674   4.313   2.606  16.577  0.3312 -0.1332  0.6956
 5014SOL    HW126675   4.248   2.675  16.587  1.8307  1.2458  0.9581
 5014SOL    HW226676   4.325   2.568  16.665  0.3735 -0.8023  0.4064
 5015SOL     OW26677   3.613   3.684  16.459 -0.1103 -0.3146  0.3867
 5015SOL    HW126678   3.703   3.717  16.452 -0.9038  1.8746  0.3030
 5015SOL    HW226679   3.563   3.750  16.410  0.1613 -0.2676  0.1757
 5016SOL     OW26680   1.016   3.836   7.363  0.5664  0.6576 -0.4907
 5016SOL    HW126681   0.991   3.815   7.453 -0.0717  0.8549 -0.6229
 5016SOL    HW226682   1.065   3.757   7.340 -1.0453 -0.5851  0.3382
 5017SOL     OW26683   4.031   4.395  10.363 -0.2325  0.2310 -0.1326
 5017SOL    HW126684   4.075   4.382  10.279 -0.3991  1.9535 -0.5025
 5017SOL    HW226685   3.962   4.454  10.331 -2.1944 -1.6154  0.7043
 5018SOL     OW26686   1.180   1.185  12.664 -0.4661  0.2513  0.1610
 5018SOL    HW126687   1.198   1.185  12.570 -0.0964  0.1123  0.2343
 5018SOL    HW226688   1.182   1.277  12.690  1.7979 -0.1123  1.2305
 5019SOL     OW26689   2.913   2.701  12.769 -0.2239  1.0289 -0.7078
 5019SOL    HW126690   2.901   2.644  12.693  2.0689  0.3801 -0.5630
 5019SOL    HW226691   2.821   2.720  12.786 -0.6702 -1.4960 -0.3194
 5020SOL     OW26692   2.990   3.821   3.430  0.4711  0.1696  0.2612
 5020SOL    HW126693   2.906   3.845   3.390 -1.8413 -0.6316  4.6791
 5020SOL    HW226694   3.027   3.766   3.361 -0.4542  0.6333 -0.6006
 5021SOL     OW26695   4.176   1.858   8.010  0.6847 -0.1081 -0.6819
 5021SOL    HW126696   4.236   1.810   8.067 -1.1434 -2.0943 -0.4177
 5021SOL    HW226697   4.238   1.879   7.940  1.9763  0.9331  0.7593
 5022SOL     OW26698   3.884   0.620   2.599  0.0796 -0.1434 -0.7253
 5022SOL    HW126699   3.947   0.600   2.529 -1.1729  0.1953 -1.9401
 5022SOL    HW226700   3.814   0.664   2.551 -1.2367 -0.9440  0.4696
 5023SOL     OW26701   3.117   2.077   6.069  0.3191  0.1533  0.9236
 5023SOL    HW126702   3.161   2.162   6.079  0.5335  0.3267 -1.3761
 5023SOL    HW226703   3.034   2.102   6.110 -0.7018  1.2171 -1.8190
 5024SOL     OW26704   0.400   4.583   8.999  0.1427 -0.1999 -0.2831
 5024SOL    HW126705   0.436   4.567   9.087  0.6938  0.0528 -0.4692
 5024SOL    HW226706   0.310   4.554   9.014  0.3519 -0.9432 -0.4803
 5025SOL     OW26707   4.313   3.827  13.966  0.2495 -0.7836 -0.5457
 5025SOL    HW126708   4.400   3.867  13.967 -0.1545  0.0093  1.4339
 5025SOL    HW226709   4.271   3.873  13.894 -0.2107  0.4400  0.5093
 5026SOL     OW26710   3.982   4.635   6.967  0.0770 -0.2596  0.6748
 5026SOL    HW126711   3.988   4.574   6.894 -1.8918  0.2686  0.0562
 5026SOL    HW226712   3.891   4.622   6.995  0.4663 -3.1152  0.6273
 5027SOL     OW26713   1.746   0.771   9.429  0.4312 -0.1091  0.2900
 5027SOL    HW126714   1.800   0.723   9.492 -1.3171 -1.9700  0.3531
 5027SOL    HW226715   1.662   0.775   9.474 -0.1086 -3.8649 -0.4388
 5028SOL     OW26716   3.760   1.678  10.820 -0.6497 -0.3349 -0.2699
 5028SOL    HW126717   3.730   1.758  10.777 -1.2868 -0.3634  0.1267
 5028SOL    HW226718   3.837   1.661  10.766 -0.9327  0.0860 -0.8167
 5029SOL     OW26719   4.354   0.581   4.678  0.0397  0.4140 -0.4123
 5029SOL    HW126720   4.266   0.582   4.639 -0.6725 -0.0948  1.1970
 5029SOL    HW226721   4.357   0.669   4.713 -0.8098  0.4906 -0.5339
 5030SOL     OW26722   0.256   1.171   8.317 -0.8107  0.0414  0.0080
 5030SOL    HW126723   0.320   1.215   8.261  0.1847 -0.9034  0.4070
 5030SOL    HW226724   0.323   1.143   8.381  0.3063 -0.1181 -1.2277
 5031SOL     OW26725   1.308   3.866   6.511  0.7534  0.2606  0.1864
 5031SOL    HW126726   1.279   3.878   6.601 -0.3416  0.7992 -0.2462
 5031SOL    HW226727   1.399   3.893   6.523  1.6115 -2.7756  0.6887
 5032SOL     OW26728   0.759   0.967   1.276  0.2930 -0.1009  0.2354
 5032SOL    HW126729   0.855   0.963   1.277  0.3243  0.6852 -0.7238
 5032SOL    HW226730   0.742   1.045   1.224  1.6675  0.9579  1.3551
 5033SOL     OW26731   3.823   0.736   7.337  0.0326  0.3169 -0.0748
 5033SOL    HW126732   3.757   0.766   7.399  0.3545 -1.0246  0.9008
 5033SOL    HW226733   3.786   0.763   7.252  0.7227  0.5183 -0.3079
 5034SOL     OW26734   3.810   0.875  16.020 -0.3454  0.3134  0.0049
 5034SOL    HW126735   3.813   0.809  16.090  0.3520  0.8859  0.5190
 5034SOL    HW226736   3.777   0.815  15.953 -0.7295  1.9149 -1.2368
 5035SOL     OW26737   3.695   4.411   5.237 -0.0290  0.0432  0.3914
 5035SOL    HW126738   3.634   4.410   5.310 -0.0757 -1.8220  0.3276
 5035SOL    HW226739   3.668   4.483   5.180 -1.4460  1.0624  2.3596
 5036SOL     OW26740   1.409   1.071   5.091 -0.1375 -0.5595  0.4593
 5036SOL    HW126741   1.483   1.031   5.136 -1.5654 -3.3759  0.3139
 5036SOL    HW226742   1.461   1.128   5.034 -0.0524  0.6542  1.7603
 5037SOL     OW26743   0.475   0.990   7.291  0.3246  0.2388  0.5103
 5037SOL    HW126744   0.549   0.986   7.230 -1.0962  2.3074 -1.3330
 5037SOL    HW226745   0.452   0.898   7.277  2.5953 -0.2614  0.0381
 5038SOL     OW26746   3.827   2.447   3.641  0.0505  0.2333  0.3636
 5038SOL    HW126747   3.760   2.380   3.655  1.0543 -0.3932  2.1849
 5038SOL    HW226748   3.784   2.525   3.606 -0.7417 -0.9156 -1.1810
 5039SOL     OW26749   3.175   1.984   7.151  0.0619 -0.4887  0.2584
 5039SOL    HW126750   3.192   2.041   7.076 -2.5514  0.5427  0.4585
 5039SOL    HW226751   3.148   1.900   7.113  2.7864 -1.4346  0.4139
 5040SOL     OW26752   1.219   4.519   4.245 -0.0548 -0.3058  0.0907
 5040SOL    HW126753   1.209   4.542   4.153  1.0458 -4.0696 -0.9357
 5040SOL    HW226754   1.266   4.592   4.286 -0.9763 -0.1307  0.8202
 5041SOL     OW26755   1.863   1.069   6.524 -0.1689  0.1502 -0.0148
 5041SOL    HW126756   1.953   1.071   6.556  0.3746  1.1996 -1.6318
 5041SOL    HW226757   1.824   0.984   6.546 -0.2546 -0.4422 -2.4373
 5042SOL     OW26758   3.844   0.415   4.207 -0.1990  0.4594  0.2947
 5042SOL    HW126759   3.777   0.347   4.196 -0.6213  1.2484 -2.1390
 5042SOL    HW226760   3.803   0.497   4.178  1.1953  0.7154 -0.9320
 5043SOL     OW26761   0.521   2.095   7.083  0.2317 -0.2997 -0.0828
 5043SOL    HW126762   0.569   2.030   7.135  1.7775 -0.6210 -1.9299
 5043SOL    HW226763   0.493   2.038   7.011 -0.3989 -0.2211  0.0971
 5044SOL     OW26764   1.355   1.297  11.865 -0.1728  0.1334 -0.2381
 5044SOL    HW126765   1.354   1.373  11.923 -1.1681 -0.4752  0.5501
 5044SOL    HW226766   1.381   1.224  11.921 -1.2460  0.7147  1.0225
 5045SOL     OW26767   2.208   0.897   0.632  0.4347  0.1036  0.0210
 5045SOL    HW126768   2.158   0.959   0.579  0.6144  1.3595  1.2953
 5045SOL    HW226769   2.289   0.902   0.582 -0.8238 -0.3393 -2.0426
 5046SOL     OW26770   1.236   4.118   7.580 -0.2404 -0.4837  0.2292
 5046SOL    HW126771   1.259   4.046   7.638  1.8133 -0.0609 -0.0737
 5046SOL    HW226772   1.141   4.126   7.588 -0.2535 -1.4368  1.1206
 5047SOL     OW26773   3.284   2.004   7.999  0.1464  0.1274 -0.3882
 5047SOL    HW126774   3.368   1.988   8.043  0.2551  1.3501 -0.1521
 5047SOL    HW226775   3.255   1.915   7.981 -0.6563  0.6324 -1.5299
 5048SOL     OW26776   2.001   1.143  10.556 -0.1900 -0.2519  0.1694
 5048SOL    HW126777   2.083   1.093  10.564  0.0818  0.3053  0.8776
 5048SOL    HW226778   1.930   1.090  10.592 -0.6079  0.0834 -0.1642
 5049SOL     OW26779   4.141   2.500   5.763 -0.0749 -0.0392 -0.2420
 5049SOL    HW126780   4.198   2.455   5.701  1.3803 -0.6884  1.5447
 5049SOL    HW226781   4.059   2.453   5.752 -0.2595  0.3059 -0.3514
 5050SOL     OW26782   4.095   1.985   1.566 -0.1206  0.1587  0.6919
 5050SOL    HW126783   4.042   1.909   1.543  0.9173 -0.4358  0.2989
 5050SOL    HW226784   4.058   2.007   1.652  3.1166  0.0401  2.1031
 5051SOL     OW26785   4.062   0.239  12.315  0.0885 -0.4628 -0.1257
 5051SOL    HW126786   4.003   0.179  12.269  2.4543 -2.4070 -0.6190
 5051SOL    HW226787   4.137   0.182  12.329  1.8607  1.6143 -1.2013
 5052SOL     OW26788   1.816   4.521   9.008  0.1933 -0.1138 -0.1167
 5052SOL    HW126789   1.736   4.534   9.059  0.3852 -2.8090  0.8594
 5052SOL    HW226790   1.781   4.538   8.920  1.6521 -1.4173 -0.9565
 5053SOL     OW26791   4.672   1.591  13.920 -0.3308  1.3012  0.0014
 5053SOL    HW126792   4.693   1.605  14.012 -0.1488  1.7257 -0.1100
 5053SOL    HW226793   4.663   1.681  13.891 -2.0239  0.9733 -0.5153
 5054SOL     OW26794   1.407   0.576   3.871 -0.2209 -0.2146 -0.1112
 5054SOL    HW126795   1.363   0.615   3.795  0.7503 -1.5270 -1.3606
 5054SOL    HW226796   1.435   0.491   3.836  1.0883 -0.4080  1.4225
 5055SOL     OW26797   0.442   0.073   6.141 -0.5163  0.1870 -0.0506
 5055SOL    HW126798   0.405   0.119   6.065 -1.5494 -1.0222 -0.2741
 5055SOL    HW226799   0.418   0.139   6.207 -0.9184 -2.2277  2.2046
 5056SOL     OW26800   1.777   2.491   8.313  0.1853  0.0536  0.5742
 5056SOL    HW126801   1.765   2.456   8.225 -0.3733  1.7803 -0.0466
 5056SOL    HW226802   1.857   2.444   8.335  0.8290  0.9333  0.1154
 5057SOL     OW26803   2.574   2.241  10.295  0.0326  0.3310 -0.1401
 5057SOL    HW126804   2.501   2.180  10.304 -0.7959  1.4079  0.4621
 5057SOL    HW226805   2.634   2.193  10.352 -1.4311 -0.7389  0.4909
 5058SOL     OW26806   0.852   4.306   8.403 -0.0696  0.1854 -0.1922
 5058SOL    HW126807   0.888   4.267   8.482  0.3407 -1.3333 -1.1330
 5058SOL    HW226808   0.771   4.263   8.376 -0.8204 -0.1073  2.5247
 5059SOL     OW26809   3.446   2.334  16.377  0.1708 -0.2099 -0.5363
 5059SOL    HW126810   3.479   2.423  16.369 -1.6765  0.4958 -0.2293
 5059SOL    HW226811   3.517   2.270  16.381  0.6676  0.5798  3.1551
 5060SOL     OW26812   2.152   4.131   6.386 -0.5335  0.0335 -0.1674
 5060SOL    HW126813   2.072   4.164   6.345 -0.9024 -1.0555 -0.3136
 5060SOL    HW226814   2.181   4.210   6.432 -2.0426  0.6315 -0.2445
 5061SOL     OW26815   4.481   3.878  15.794 -0.4729 -0.4163  0.2092
 5061SOL    HW126816   4.528   3.864  15.712  0.3577  0.2605  0.5565
 5061SOL    HW226817   4.495   3.789  15.826 -0.7850 -0.2477  0.8207
 5062SOL     OW26818   1.851   2.099   5.128 -0.1293  0.0846  0.7499
 5062SOL    HW126819   1.841   2.138   5.214 -0.4327 -0.2371  0.8611
 5062SOL    HW226820   1.916   2.162   5.097  1.0659 -2.1026 -1.2738
 5063SOL     OW26821   4.468   1.991   4.022  0.2832 -0.0352 -0.1609
 5063SOL    HW126822   4.490   1.899   4.004  1.6518  0.3655 -0.5585
 5063SOL    HW226823   4.457   1.983   4.116  0.0973 -1.1510 -0.2816
 5064SOL     OW26824   4.414   2.816   2.603  0.1926 -0.0001  0.0647
 5064SOL    HW126825   4.320   2.796   2.593  0.4499 -1.7208  0.9804
 5064SOL    HW226826   4.417   2.910   2.586  3.6966  0.0771  1.2861
 5065SOL     OW26827   1.983   4.670   3.063 -0.3997 -0.4846  0.2620
 5065SOL    HW126828   1.983   4.655   3.158 -1.3238 -0.0769  0.3251
 5065SOL    HW226829   1.902   4.718   3.047 -0.9523 -1.1707  0.9603
 5066SOL     OW26830   2.173   4.108  16.693  0.6458 -0.1960 -0.0574
 5066SOL    HW126831   2.192   4.091  16.601  0.1542 -0.9356 -0.0211
 5066SOL    HW226832   2.150   4.201  16.690 -0.8039 -0.4942  1.6148
 5067SOL     OW26833   0.247   0.824  11.337  0.4985  0.3113  0.1540
 5067SOL    HW126834   0.176   0.761  11.327  0.3532  0.6638 -1.0580
 5067SOL    HW226835   0.310   0.811  11.266  0.0442  2.2875 -0.6118
 5068SOL     OW26836   4.543   0.291   5.999  0.4065  0.0992 -0.2568
 5068SOL    HW126837   4.548   0.368   6.057  1.0572 -0.1292 -0.0130
 5068SOL    HW226838   4.587   0.225   6.052 -0.9371 -1.2755 -0.8470
 5069SOL     OW26839   2.525   0.010   7.434  0.0107 -0.4039 -0.1075
 5069SOL    HW126840   2.599   0.070   7.441 -1.2307  1.0578  0.6487
 5069SOL    HW226841   2.578   4.668   7.449  1.1405  0.1914 -1.0412
 5070SOL     OW26842   4.667   2.053   0.684  0.4456 -0.3639  0.0547
 5070SOL    HW126843   0.021   2.042   0.718  0.4591 -0.8692 -0.1448
 5070SOL    HW226844   4.656   2.147   0.673  0.0861 -0.2442  1.5427
 5071SOL     OW26845   0.871   3.398  13.129  0.0778 -0.3878  0.1938
 5071SOL    HW126846   0.888   3.366  13.041 -0.0431 -2.7368  1.0350
 5071SOL    HW226847   0.825   3.480  13.111  0.0941  0.0891  2.2864
 5072SOL     OW26848   4.323   1.492  17.134 -0.5471 -0.2265 -0.3519
 5072SOL    HW126849   4.375   1.413  17.147  0.6598  0.6085 -0.1005
 5072SOL    HW226850   4.377   1.568  17.156 -0.7151  0.1627 -1.3046
 5073SOL     OW26851   4.643   3.744  13.395 -0.0059  0.4002  0.0172
 5073SOL    HW126852   4.609   3.832  13.383  1.7452  1.0173 -0.4234
 5073SOL    HW226853   4.571   3.717  13.451 -1.0156  2.1609 -0.4396
 5074SOL     OW26854   3.407   4.430   7.579 -0.3228 -0.3860 -0.4120
 5074SOL    HW126855   3.483   4.384   7.542 -0.1852  0.5417 -1.2729
 5074SOL    HW226856   3.358   4.354   7.608 -0.8360 -0.1008 -0.5366
 5075SOL     OW26857   1.670   0.315   9.656 -0.1356 -0.3564  0.5716
 5075SOL    HW126858   1.615   0.369   9.599 -0.1630 -1.4444 -0.4305
 5075SOL    HW226859   1.636   0.226   9.652 -0.6017 -0.1513 -0.0033
 5076SOL     OW26860   1.865   3.792   5.505 -0.3706  0.5724  0.1192
 5076SOL    HW126861   1.771   3.779   5.494 -0.7822  2.4962  1.2574
 5076SOL    HW226862   1.897   3.787   5.415  1.5707  1.3402  0.7435
 5077SOL     OW26863   3.552   4.448   6.020 -0.3767  0.4578  0.1794
 5077SOL    HW126864   3.517   4.510   6.084 -0.0841 -1.4224  2.1379
 5077SOL    HW226865   3.520   4.479   5.935  0.7202  2.0177  0.3492
 5078SOL     OW26866   2.685   3.871   3.435 -0.1676 -0.1626  0.1778
 5078SOL    HW126867   2.661   3.855   3.526  1.2724 -0.1331  0.5711
 5078SOL    HW226868   2.597   3.883   3.401 -0.3407  0.4967  0.8623
 5079SOL     OW26869   3.944   2.824   4.705  0.4539  0.2532 -0.6821
 5079SOL    HW126870   4.035   2.814   4.731 -0.1340  1.4135  1.7708
 5079SOL    HW226871   3.897   2.764   4.763  1.7251 -0.9871 -0.9481
 5080SOL     OW26872   2.481   2.369   7.798 -0.1237 -0.7563 -0.7787
 5080SOL    HW126873   2.564   2.402   7.833 -0.2770 -2.1281  0.8855
 5080SOL    HW226874   2.519   2.294   7.752  2.1479 -0.4535  0.5917
 5081SOL     OW26875   1.113   3.225   9.359  0.1499 -0.1183 -0.0119
 5081SOL    HW126876   1.113   3.290   9.289  2.5992 -0.7172 -0.5654
 5081SOL    HW226877   1.036   3.256   9.407  0.4155 -0.9194  0.9324
 5082SOL     OW26878   2.046   1.352   5.830  0.4328  0.4433  0.0066
 5082SOL    HW126879   1.982   1.299   5.783  1.1472  0.4560 -0.9913
 5082SOL    HW226880   2.060   1.295   5.905 -2.4570  0.7458  0.7352
 5083SOL     OW26881   2.039   1.013   2.213 -0.1550  0.0016 -0.1450
 5083SOL    HW126882   2.051   0.955   2.288 -1.3249  1.7788  1.4426
 5083SOL    HW226883   1.948   1.043   2.210 -0.0779  0.1079 -1.1823
 5084SOL     OW26884   3.120   3.711   2.242 -0.6747 -0.0273 -0.5980
 5084SOL    HW126885   3.124   3.653   2.166  2.8767 -1.9189  1.0484
 5084SOL    HW226886   3.201   3.693   2.291 -0.8629  1.4396  0.2426
 5085SOL     OW26887   4.719   1.794   1.381  0.5590 -0.9310 -0.7860
 5085SOL    HW126888   4.710   1.785   1.476  0.7025 -0.4445 -0.7236
 5085SOL    HW226889   0.050   1.727   1.369  0.1961 -1.2380 -1.0434
 5086SOL     OW26890   3.537   2.706   0.937  0.2211 -0.3641 -0.0420
 5086SOL    HW126891   3.548   2.801   0.930 -2.0058 -0.0200  1.2012
 5086SOL    HW226892   3.616   2.673   0.979 -0.2554 -3.0995 -1.3016
 5087SOL     OW26893   3.517   1.525  10.781  0.5851  0.0244  0.2763
 5087SOL    HW126894   3.547   1.444  10.822 -0.5479 -0.2427  0.5511
 5087SOL    HW226895   3.586   1.591  10.793  0.6298  0.1352 -0.5549
 5088SOL     OW26896   1.813   3.268  15.085  0.6387  0.5673  0.4830
 5088SOL    HW126897   1.802   3.362  15.098  0.8435  0.4721  1.3686
 5088SOL    HW226898   1.722   3.244  15.067  0.3739  0.3028  2.1922
 5089SOL     OW26899   2.268   2.310   6.092 -0.7478 -0.1093 -0.1962
 5089SOL    HW126900   2.236   2.220   6.081  0.4376 -0.1870 -2.9728
 5089SOL    HW226901   2.274   2.303   6.187 -0.5259  1.1891 -0.1233
 5090SOL     OW26902   2.127   0.129   6.149  0.0414  0.9209 -0.1416
 5090SOL    HW126903   2.189   0.181   6.200 -1.6596 -0.4986  3.3513
 5090SOL    HW226904   2.080   0.199   6.104 -1.6074 -0.1265 -0.0617
 5091SOL     OW26905   1.898   1.315   7.302  0.0832 -0.0721  0.1712
 5091SOL    HW126906   1.971   1.365   7.264 -2.9732  3.2331 -1.3439
 5091SOL    HW226907   1.912   1.325   7.396 -0.4120  0.0074  0.2331
 5092SOL     OW26908   0.902   1.787   4.567  0.4936  0.7014  0.1601
 5092SOL    HW126909   0.983   1.765   4.613  0.8585 -0.7118 -1.1694
 5092SOL    HW226910   0.837   1.778   4.637 -2.4577  1.3208 -2.5007
 5093SOL     OW26911   0.112   1.108   8.728 -0.1764  0.4876 -0.2536
 5093SOL    HW126912   0.075   1.121   8.815 -1.1143  0.2748 -0.6274
 5093SOL    HW226913   0.039   1.061   8.688 -1.6840  0.1407  2.9559
 5094SOL     OW26914   1.666   0.605   8.938 -0.3723 -0.5967 -0.0781
 5094SOL    HW126915   1.690   0.514   8.922 -1.5881 -1.2948  2.0716
 5094SOL    HW226916   1.575   0.601   8.967  0.6301 -0.2731  3.1471
 5095SOL     OW26917   0.486   1.207   1.355 -0.3851  0.0167 -0.4244
 5095SOL    HW126918   0.579   1.220   1.334 -0.2397  1.1186  0.8592
 5095SOL    HW226919   0.496   1.119   1.392  1.2909  0.4020  0.0638
 5096SOL     OW26920   0.566   1.125   7.512 -0.7296 -0.4748  0.4075
 5096SOL    HW126921   0.525   1.071   7.444 -1.5120  0.2294  0.3163
 5096SOL    HW226922   0.514   1.097   7.587  1.1820 -0.5780  1.7025
 5097SOL     OW26923   0.345   1.794   2.650 -0.0051  0.1463  0.6936
 5097SOL    HW126924   0.390   1.877   2.632 -3.1532  0.9870 -2.9927
 5097SOL    HW226925   0.411   1.728   2.629  1.3186  0.6432  3.2128
 5098SOL     OW26926   2.450   1.710  17.202  0.1091 -0.5974  0.1472
 5098SOL    HW126927   2.535   1.682  17.235 -0.1190 -1.2229  0.2190
 5098SOL    HW226928   2.465   1.722  17.108  0.1922 -1.0805  0.0953
 5099SOL     OW26929   2.288   4.480   4.391  0.6218 -0.7670  0.0154
 5099SOL    HW126930   2.223   4.411   4.400  0.2873 -0.2044  1.8131
 5099SOL    HW226931   2.235   4.538   4.336  1.2859 -1.6782 -1.5934
 5100SOL     OW26932   2.130   0.710   4.551  0.5884 -0.0095  0.2192
 5100SOL    HW126933   2.094   0.799   4.550 -1.7124 -0.9325  1.0310
 5100SOL    HW226934   2.058   0.658   4.515 -0.5548 -0.3174  2.9417
 5101SOL     OW26935   2.817   4.150   5.162 -0.1670  0.5331 -0.3851
 5101SOL    HW126936   2.776   4.185   5.241  0.9642 -1.1035  0.9270
 5101SOL    HW226937   2.865   4.072   5.193 -2.4801 -0.5711  0.4010
 5102SOL     OW26938   3.204   4.333  12.794  0.5303 -0.1386 -0.3536
 5102SOL    HW126939   3.133   4.278  12.761 -1.3648  2.3980 -0.4909
 5102SOL    HW226940   3.214   4.302  12.883 -2.3446  0.2539  0.0840
 5103SOL     OW26941   1.011   0.134  10.394 -0.5232 -0.1626 -0.0206
 5103SOL    HW126942   0.975   0.091  10.472  0.9720 -0.7386  0.3393
 5103SOL    HW226943   0.935   0.182  10.362 -1.4242 -2.3594 -1.1584
 5104SOL     OW26944   0.357   4.522   1.193  0.2579  0.3951 -0.0919
 5104SOL    HW126945   0.336   4.556   1.107 -0.3011  0.7411  0.1845
 5104SOL    HW226946   0.295   4.449   1.202 -0.8507  1.3695  0.1520
 5105SOL     OW26947   2.326   0.035   7.600  0.1478 -0.6339 -0.1924
 5105SOL    HW126948   2.300   0.125   7.584  0.7036 -0.1088  1.8448
 5105SOL    HW226949   2.408   0.026   7.552  0.2518  2.0133 -0.4983
 5106SOL     OW26950   4.584   3.976  12.300  0.0798  0.0659  0.2644
 5106SOL    HW126951   4.649   4.010  12.362  0.7461  1.9565 -1.5024
 5106SOL    HW226952   4.626   4.001  12.218  1.1262  0.5152  0.9321
 5107SOL     OW26953   1.818   1.795   7.260 -0.3668  0.4076 -0.4752
 5107SOL    HW126954   1.728   1.764   7.251 -0.5911  1.2543 -1.1982
 5107SOL    HW226955   1.801   1.881   7.220  2.3530  0.7408 -0.8959
 5108SOL     OW26956   3.483   2.696   0.463  0.3130 -0.6138  0.0216
 5108SOL    HW126957   3.433   2.666   0.539 -0.1679  0.8308  0.2544
 5108SOL    HW226958   3.439   2.648   0.393  0.3866 -0.5278 -0.0841
 5109SOL     OW26959   2.906   0.275   7.079 -0.3759 -0.1681  0.2541
 5109SOL    HW126960   2.812   0.295   7.084 -0.7137 -2.0353  1.2332
 5109SOL    HW226961   2.932   0.272   7.171  2.7031 -0.4745 -0.6171
 5110SOL     OW26962   1.052   1.662   1.519 -0.4012  0.2450  0.0031
 5110SOL    HW126963   1.068   1.675   1.426 -0.1845  1.4097  0.1938
 5110SOL    HW226964   1.120   1.715   1.561 -1.5218  1.3401  0.4600
 5111SOL     OW26965   2.440   3.393   2.521  0.2289 -0.9023  0.0122
 5111SOL    HW126966   2.514   3.444   2.555  0.1481  1.9094 -3.8688
 5111SOL    HW226967   2.457   3.399   2.427  0.1816 -1.7006 -0.0445
 5112SOL     OW26968   1.322   0.303  13.050 -0.3347 -0.6296  0.0550
 5112SOL    HW126969   1.261   0.376  13.052  0.5525  0.1576 -1.2409
 5112SOL    HW226970   1.289   0.251  13.123  0.3534 -1.5385 -0.2727
 5113SOL     OW26971   0.588   0.429   9.469  0.5523  0.4306 -0.1279
 5113SOL    HW126972   0.598   0.334   9.464 -2.3138  0.1656 -0.7670
 5113SOL    HW226973   0.669   0.455   9.425  1.2820 -0.6065  0.5814
 5114SOL     OW26974   1.702   3.157   5.987  0.1374 -0.3123 -0.7298
 5114SOL    HW126975   1.681   3.243   6.024  2.5051  0.4822 -1.2373
 5114SOL    HW226976   1.706   3.106   6.068  2.1920 -2.0760 -1.9432
 5115SOL     OW26977   1.162   4.470   1.345 -0.1628  0.2689 -0.1214
 5115SOL    HW126978   1.253   4.443   1.334 -0.4026  0.2197 -1.9871
 5115SOL    HW226979   1.136   4.412   1.417  1.1367  0.6954  0.6839
 5116SOL     OW26980   3.139   4.560   2.328  0.0713 -0.2678 -0.4865
 5116SOL    HW126981   3.120   4.468   2.307  1.6991 -0.5130 -0.9179
 5116SOL    HW226982   3.191   4.583   2.251  0.9905  1.1759  0.5853
 5117SOL     OW26983   0.874   1.835   8.200  0.3431 -0.1343  0.2478
 5117SOL    HW126984   0.946   1.897   8.212  0.2392  0.4765 -2.2980
 5117SOL    HW226985   0.838   1.861   8.115  2.0706  0.9643 -0.1620
 5118SOL     OW26986   2.352   3.944   4.198  0.2855 -0.1667  0.1225
 5118SOL    HW126987   2.288   3.914   4.133  0.2949 -1.3043  0.6439
 5118SOL    HW226988   2.297   3.937   4.276  0.1701 -0.8022 -0.0171
 5119SOL     OW26989   1.762   0.278  16.479  0.9242 -0.1987  0.1874
 5119SOL    HW126990   1.790   0.297  16.389 -0.3990  1.9671  0.2330
 5119SOL    HW226991   1.848   0.276  16.521 -0.1484  0.4893  2.3911
 5120SOL     OW26992   2.700   0.839   2.002  0.1397 -0.1029  0.3771
 5120SOL    HW126993   2.694   0.883   2.087 -0.8435 -0.0216  0.2655
 5120SOL    HW226994   2.682   0.916   1.947  1.2853 -1.7551 -2.2767
 5121SOL     OW26995   1.402   3.273   2.764 -0.5973  0.3029 -0.0652
 5121SOL    HW126996   1.445   3.228   2.691 -0.7789  0.2498 -0.1385
 5121SOL    HW226997   1.368   3.194   2.807 -1.5074  0.9994  0.4946
 5122SOL     OW26998   3.028   1.191   1.869  0.4235 -0.1892  0.8148
 5122SOL    HW126999   2.985   1.177   1.954 -2.4274 -0.5172 -0.6781
 5122SOL    HW227000   3.117   1.222   1.887  0.0717  2.0416 -1.3458
 5123SOL     OW27001   4.581   4.580   3.279  0.4503  0.1304  0.2553
 5123SOL    HW127002   4.528   4.613   3.207 -0.1752  1.0694  1.1335
 5123SOL    HW227003   4.519   4.525   3.327  1.3678  0.9620  2.4179
 5124SOL     OW27004   0.046   1.797  10.456  0.2310 -0.6780  0.3430
 5124SOL    HW127005   0.070   1.705  10.443  1.7286 -0.1872 -0.4679
 5124SOL    HW227006   0.064   1.813  10.548 -0.7434 -1.2822  0.6390
 5125SOL     OW27007   0.867   3.976   4.924  0.7889 -0.7300 -0.0358
 5125SOL    HW127008   0.867   4.038   4.851 -0.9685 -1.3857 -0.5838
 5125SOL    HW227009   0.827   4.038   4.985 -0.1176 -3.1865  1.8280
 5126SOL     OW27010   4.373   0.203   7.379  0.0344 -0.2305 -0.6811
 5126SOL    HW127011   4.363   0.161   7.465 -0.0917 -1.3683 -1.2433
 5126SOL    HW227012   4.466   0.184   7.370  0.5072  2.3643 -1.1056
 5127SOL     OW27013   0.017   2.668  15.414  0.4870 -0.6700 -0.3486
 5127SOL    HW127014   0.023   2.731  15.342 -0.5560 -1.7811 -1.4276
 5127SOL    HW227015   4.660   2.642  15.410 -0.3117  2.3777 -1.7444
 5128SOL     OW27016   3.433   4.520  10.152  0.1369  0.2206  0.4803
 5128SOL    HW127017   3.497   4.590  10.169  0.4005  0.2734 -0.6873
 5128SOL    HW227018   3.383   4.572  10.088 -0.5009  1.3235  1.8680
 5129SOL     OW27019   3.335   4.191   8.187  0.0485 -0.1779  0.0196
 5129SOL    HW127020   3.362   4.101   8.170  1.8499  0.0643  1.5771
 5129SOL    HW227021   3.309   4.214   8.098 -1.6300 -2.8526 -0.1789
 5130SOL     OW27022   1.501   0.067   6.349  0.2645 -0.3732 -0.6013
 5130SOL    HW127023   1.500   0.108   6.436  0.0412  2.0586 -1.7670
 5130SOL    HW227024   1.416   0.086   6.309  0.3823 -2.9297 -2.0820
 5131SOL     OW27025   4.096   4.290   6.871  0.0514 -0.0179 -0.3316
 5131SOL    HW127026   4.003   4.274   6.855 -0.0778 -0.0930  0.4954
 5131SOL    HW227027   4.115   4.361   6.811 -0.2543  0.7856  0.5224
 5132SOL     OW27028   3.153   4.335   4.766 -0.6017  0.2250  0.8203
 5132SOL    HW127029   3.230   4.338   4.822  0.8464 -1.3285 -1.0855
 5132SOL    HW227030   3.087   4.292   4.820 -1.2991 -1.1065 -1.0736
 5133SOL     OW27031   1.565   0.998   4.114 -0.2504  0.3244 -0.2533
 5133SOL    HW127032   1.526   0.914   4.089  0.3711 -0.2232  0.5711
 5133SOL    HW227033   1.529   1.050   4.043  0.0328 -0.7452 -1.1866
 5134SOL     OW27034   2.594   0.866  12.643 -0.6420  0.1812 -0.3951
 5134SOL    HW127035   2.508   0.859  12.600 -0.5880  0.2145 -0.5104
 5134SOL    HW227036   2.582   0.849  12.736 -0.6671  0.3241 -0.3712
 5135SOL     OW27037   0.228   1.323   5.983  0.2807 -0.1863 -0.3379
 5135SOL    HW127038   0.220   1.228   5.974 -2.4308  0.2481 -2.5305
 5135SOL    HW227039   0.217   1.352   5.892 -0.6777  2.3744  0.5931
 5136SOL     OW27040   3.579   0.808  15.804 -0.1769  0.6952  0.2081
 5136SOL    HW127041   3.529   0.750  15.748 -0.9670 -0.8734  2.5135
 5136SOL    HW227042   3.509   0.837  15.863 -1.2182 -1.8146  0.2337
 5137SOL     OW27043   3.522   1.689   3.570  0.0025 -0.4254  0.2916
 5137SOL    HW127044   3.547   1.781   3.567 -2.1527  0.1234 -0.6875
 5137SOL    HW227045   3.538   1.675   3.476  0.9189  1.2858  0.1887
 5138SOL     OW27046   4.053   4.670   2.061 -0.8866 -0.0333  0.2121
 5138SOL    HW127047   4.018   4.584   2.037 -1.6670  0.7179 -1.3669
 5138SOL    HW227048   4.039   4.669   2.155  1.5159  2.1302  0.5982
 5139SOL     OW27049   2.218   1.778   4.835  0.1714 -0.4350 -0.2404
 5139SOL    HW127050   2.208   1.779   4.739 -0.1492 -0.6819 -0.2122
 5139SOL    HW227051   2.306   1.743   4.849  0.8608  0.5580 -2.0777
 5140SOL     OW27052   0.501   3.223   3.173 -0.0112  0.6931  0.5007
 5140SOL    HW127053   0.506   3.298   3.232 -1.3442 -0.4104  2.0303
 5140SOL    HW227054   0.477   3.278   3.098  2.3489 -0.5526 -1.1796
 5141SOL     OW27055   2.927   0.396   0.244 -0.0127  0.2261 -0.2336
 5141SOL    HW127056   3.014   0.381   0.208  1.2232  0.5609  2.6106
 5141SOL    HW227057   2.874   0.366   0.170 -1.0539  0.3459  0.4545
 5142SOL     OW27058   0.524   1.383  15.270  0.2747  0.7126 -0.3030
 5142SOL    HW127059   0.537   1.452  15.205  0.5565 -0.8119 -1.8819
 5142SOL    HW227060   0.610   1.366  15.308 -0.2796  1.0894  1.1139
 5143SOL     OW27061   1.094   4.675   3.154 -0.1960  0.6882 -0.4713
 5143SOL    HW127062   1.029   4.728   3.200  0.6585  1.9114 -0.6840
 5143SOL    HW227063   1.157   4.656   3.224 -0.4117  0.1039 -0.4333
 5144SOL     OW27064   1.044   2.126   5.291 -0.1921 -0.6922 -0.3494
 5144SOL    HW127065   1.087   2.041   5.296  0.1207 -0.5783 -1.2599
 5144SOL    HW227066   1.026   2.126   5.197 -1.7694  0.4761 -0.0543
 5145SOL     OW27067   0.864   2.008  10.424  0.1003 -0.0735 -0.3835
 5145SOL    HW127068   0.797   2.034  10.361 -1.1198 -0.8760  0.5711
 5145SOL    HW227069   0.832   1.923  10.455 -2.4301 -0.0400 -2.9230
 5146SOL     OW27070   1.779   4.469  10.866 -0.0275  0.2576 -0.1446
 5146SOL    HW127071   1.856   4.420  10.836  0.0604 -0.5951  1.5138
 5146SOL    HW227072   1.784   4.464  10.961  2.0467  1.5013 -0.1994
 5147SOL     OW27073   0.560   2.793   2.638  0.4768 -0.0723 -0.4234
 5147SOL    HW127074   0.568   2.858   2.707 -0.9172  0.4238 -0.7361
 5147SOL    HW227075   0.487   2.739   2.668 -0.4117  1.5717  0.3995
 5148SOL     OW27076   3.739   0.614  17.348  0.0127 -0.1683  0.3972
 5148SOL    HW127077   3.675   0.658  17.404  1.9040  1.1385  1.5461
 5148SOL    HW227078   3.730   0.665  17.269  0.0174  0.7607  0.9990
 5149SOL     OW27079   1.337   4.367   0.256 -0.0143  0.2087  0.5307
 5149SOL    HW127080   1.369   4.277   0.257  0.9472  0.5135 -2.5448
 5149SOL    HW227081   1.254   4.362   0.303 -1.0883  0.3160 -1.3583
 5150SOL     OW27082   0.985   3.806   8.122 -0.1487  0.0473  0.2949
 5150SOL    HW127083   1.038   3.728   8.135 -3.0928 -1.8121  1.0370
 5150SOL    HW227084   1.032   3.877   8.165 -2.4110 -0.0156  2.8500
 5151SOL     OW27085   1.434   3.964  13.848 -0.4982  0.7506 -0.0069
 5151SOL    HW127086   1.492   4.021  13.899  2.1253  0.5863 -2.7665
 5151SOL    HW227087   1.398   4.031  13.790 -2.0331 -1.2044 -1.3367
 5152SOL     OW27088   4.105   2.380   2.933 -0.1177 -0.0748 -0.7771
 5152SOL    HW127089   4.198   2.376   2.956 -0.0909  2.0106 -0.5021
 5152SOL    HW227090   4.080   2.290   2.914 -3.7025  0.8229 -0.3857
 5153SOL     OW27091   0.267   4.718  13.829 -0.2114 -0.1768  0.3142
 5153SOL    HW127092   0.188   0.021  13.868 -0.3422  1.0672 -1.2054
 5153SOL    HW227093   0.336   0.015  13.888 -1.3296 -0.7831  1.9351
 5154SOL     OW27094   0.704   1.947  17.172 -0.1160 -0.2014  0.0011
 5154SOL    HW127095   0.741   1.876  17.120  1.8940  2.2349 -1.8908
 5154SOL    HW227096   0.722   1.910  17.258 -0.5220 -2.1394 -0.7479
 5155SOL     OW27097   1.023   3.017   6.546  0.1328  0.1017  0.1225
 5155SOL    HW127098   1.065   3.102   6.549 -0.7357  0.4573  2.3371
 5155SOL    HW227099   1.079   2.965   6.487 -0.1172 -0.2360  0.1824
 5156SOL     OW27100   0.606   0.349  11.887 -1.2272  0.0240 -0.3515
 5156SOL    HW127101   0.648   0.279  11.837 -2.1264 -0.5938 -0.2589
 5156SOL    HW227102   0.654   0.333  11.968  0.0781 -0.6319 -1.2696
 5157SOL     OW27103   0.429   0.872  11.671 -0.5045  0.4506 -0.3034
 5157SOL    HW127104   0.492   0.936  11.639 -0.2920  2.0921  3.4283
 5157SOL    HW227105   0.362   0.880  11.603  0.2794 -1.4443 -1.2906
 5158SOL     OW27106   3.448   0.785   6.534 -0.3946  0.4471 -1.1367
 5158SOL    HW127107   3.428   0.697   6.568  1.3678  0.3562 -0.3308
 5158SOL    HW227108   3.373   0.831   6.572  1.1555  1.7591  0.3124
 5159SOL     OW27109   4.639   3.648   3.110  0.7385 -0.3654 -0.2288
 5159SOL    HW127110   4.600   3.584   3.049 -0.7039  0.6265 -0.3371
 5159SOL    HW227111   4.645   3.595   3.190 -1.9558 -0.6893 -0.2317
 5160SOL     OW27112   3.765   4.230   9.706  0.1635 -0.2298  0.3968
 5160SOL    HW127113   3.701   4.195   9.645  1.0194 -1.1547  0.0221
 5160SOL    HW227114   3.726   4.312   9.736 -2.9582 -1.9772  1.1641
 5161SOL     OW27115   3.906   1.761   7.502  0.0693  0.2362 -0.5384
 5161SOL    HW127116   3.950   1.750   7.587 -0.7868 -2.7971 -0.5152
 5161SOL    HW227117   3.930   1.854   7.497 -1.0694  0.6035  0.6910
 5162SOL     OW27118   1.790   3.617   4.332  0.4580  0.1741  0.2790
 5162SOL    HW127119   1.773   3.687   4.395 -1.9825 -0.7189  0.6238
 5162SOL    HW227120   1.885   3.621   4.321  0.3136 -0.1792 -1.0924
 5163SOL     OW27121   3.590   0.004   5.915 -0.2668 -0.0908 -0.4400
 5163SOL    HW127122   3.563   4.723   5.825  0.0181 -0.3623 -0.4754
 5163SOL    HW227123   3.529   0.076   5.929  1.1272  0.6654  1.8344
 5164SOL     OW27124   4.515   0.701   5.571  0.5556  0.0055  0.3877
 5164SOL    HW127125   4.541   0.667   5.657 -0.2200 -1.8512 -0.1117
 5164SOL    HW227126   4.470   0.622   5.542 -1.3177  1.1779  0.0320
 5165SOL     OW27127   1.064   1.078  14.678 -0.1120 -0.4939 -0.3776
 5165SOL    HW127128   1.039   1.009  14.617  0.2224 -1.0468  0.1117
 5165SOL    HW227129   1.155   1.094  14.656 -0.6243  2.2701 -0.4812
 5166SOL     OW27130   4.424   3.712  13.540 -0.0574 -0.0106  0.1732
 5166SOL    HW127131   4.377   3.645  13.490  0.2460 -0.0572 -0.0505
 5166SOL    HW227132   4.351   3.760  13.579 -0.0755  1.0195 -1.1486
 5167SOL     OW27133   4.670   3.070   8.430  0.9776 -0.1335  0.1388
 5167SOL    HW127134   4.631   3.024   8.356 -1.9099  1.3550  0.7573
 5167SOL    HW227135   4.586   3.099   8.464  0.3342 -1.9886  0.1160
 5168SOL     OW27136   3.023   2.230   1.704  0.0761 -0.4413 -0.0342
 5168SOL    HW127137   3.041   2.313   1.660  2.4327 -0.9547 -0.0375
 5168SOL    HW227138   3.038   2.171   1.630  0.9321  0.2448 -0.4057
 5169SOL     OW27139   0.983   1.576  15.121  0.1254  0.0762 -0.1133
 5169SOL    HW127140   0.961   1.527  15.041  0.3086  1.8777 -1.2737
 5169SOL    HW227141   1.057   1.633  15.102 -0.7156  0.6908 -1.5485
 5170SOL     OW27142   2.340   0.763   2.233  0.4558 -0.2778  0.4361
 5170SOL    HW127143   2.327   0.839   2.177  0.5966  0.6722  1.6939
 5170SOL    HW227144   2.278   0.783   2.302 -0.1111 -0.5569  0.0027
 5171SOL     OW27145   2.790   4.517   4.312 -0.0642  0.1503  0.1801
 5171SOL    HW127146   2.814   4.427   4.331 -0.6001 -0.4000 -1.7009
 5171SOL    HW227147   2.695   4.507   4.319 -0.0090  0.2648  1.0711
 5172SOL     OW27148   1.293   4.510   1.764  0.2904 -0.0150  0.0352
 5172SOL    HW127149   1.359   4.580   1.759 -1.1714  1.4642  1.7247
 5172SOL    HW227150   1.215   4.565   1.761 -0.0234 -0.5126 -0.8683
 5173SOL     OW27151   0.480   2.820   7.852  0.0552 -0.3198  0.8591
 5173SOL    HW127152   0.387   2.838   7.836  0.6435  1.5684 -0.3699
 5173SOL    HW227153   0.482   2.733   7.893 -4.0133 -0.5255  0.6707
 5174SOL     OW27154   3.644   0.176   1.657  0.0790 -0.1958  0.1415
 5174SOL    HW127155   3.711   0.245   1.657  2.1566 -2.2024  1.7120
 5174SOL    HW227156   3.678   0.123   1.584  3.2142  1.9701  0.0188
 5175SOL     OW27157   2.383   0.745   9.034  0.1424  0.4316  0.4371
 5175SOL    HW127158   2.301   0.794   9.030 -0.1261 -0.1675 -1.5581
 5175SOL    HW227159   2.391   0.714   9.124  2.8169  0.3867  0.1806
 5176SOL     OW27160   3.237   0.530   5.437 -0.2788 -0.6038 -0.4593
 5176SOL    HW127161   3.316   0.477   5.420  0.6831  0.6873  0.0493
 5176SOL    HW227162   3.236   0.593   5.365  0.6920 -0.9791 -0.8099
 5177SOL     OW27163   3.282   1.634   5.288  0.4316 -0.1210 -0.1860
 5177SOL    HW127164   3.259   1.700   5.354 -1.0148  0.3783 -1.1833
 5177SOL    HW227165   3.303   1.567   5.353  2.3093  0.5997 -0.0752
 5178SOL     OW27166   3.150   1.157  11.248 -0.0061 -0.2694 -0.1599
 5178SOL    HW127167   3.167   1.248  11.273  1.1430 -0.3416 -0.6961
 5178SOL    HW227168   3.068   1.174  11.201  0.4840  0.0532 -0.8934
 5179SOL     OW27169   0.411   4.662   6.522 -0.0188 -0.0316  0.7056
 5179SOL    HW127170   0.440   0.016   6.538  0.9588 -0.2097 -0.0397
 5179SOL    HW227171   0.466   4.635   6.448  1.1328  2.1007  0.7829
 5180SOL     OW27172   1.953   0.154  10.258 -0.1962  0.1515 -0.1398
 5180SOL    HW127173   1.868   0.149  10.215 -0.1923  0.3638 -0.1715
 5180SOL    HW227174   1.930   0.133  10.348 -0.8257 -0.2275 -0.3908
 5181SOL     OW27175   1.400   3.831   4.369 -0.5620  0.2311  0.2955
 5181SOL    HW127176   1.305   3.815   4.366 -0.2794 -1.6562  1.2673
 5181SOL    HW227177   1.409   3.922   4.341  4.0142  0.2967  2.1251
 5182SOL     OW27178   2.996   0.305   8.994 -0.2295  0.6711 -0.1077
 5182SOL    HW127179   3.039   0.220   8.983 -2.5624 -0.4680 -0.6058
 5182SOL    HW227180   3.002   0.318   9.089  2.1188 -1.2328  0.0248
 5183SOL     OW27181   1.527   0.260   5.076 -0.1945 -0.3010 -0.4343
 5183SOL    HW127182   1.558   0.174   5.104  0.4583  0.3798  0.8825
 5183SOL    HW227183   1.433   0.240   5.070 -0.0240 -1.0179 -0.8005
 5184SOL     OW27184   0.433   0.919   5.796  0.2859 -0.3387  0.3918
 5184SOL    HW127185   0.450   0.959   5.711 -0.0431  1.6305  1.2619
 5184SOL    HW227186   0.440   0.825   5.775 -1.1888 -0.0053 -1.5940
 5185SOL     OW27187   3.614   2.273  17.331 -0.3393  0.4306  0.3602
 5185SOL    HW127188   3.547   2.254  17.396 -1.4597 -0.0721 -0.9223
 5185SOL    HW227189   3.695   2.270  17.381  1.0124  2.6324 -1.7304
 5186SOL     OW27190   4.297   2.819   9.931  0.1542  0.0389 -0.3350
 5186SOL    HW127191   4.376   2.786   9.973 -0.5882  0.9930  1.8575
 5186SOL    HW227192   4.323   2.817   9.839 -4.0816  3.1146 -1.5823
 5187SOL     OW27193   1.779   0.387   9.273 -0.3886  0.0809  0.3716
 5187SOL    HW127194   1.746   0.326   9.207 -0.6894  0.1964  0.4138
 5187SOL    HW227195   1.700   0.402   9.325  0.8105 -1.1931  2.5686
 5188SOL     OW27196   0.611   1.597  13.273 -0.2746 -0.2709  0.0796
 5188SOL    HW127197   0.642   1.676  13.318  2.8892 -0.2085 -2.2225
 5188SOL    HW227198   0.517   1.616  13.271 -0.5597 -1.6805 -0.0374
 5189SOL     OW27199   3.448   3.751   6.316 -0.2502 -0.0907  0.1322
 5189SOL    HW127200   3.433   3.713   6.230 -2.8270  2.0603 -0.3778
 5189SOL    HW227201   3.461   3.844   6.295  1.3254 -0.1839  0.7108
 5190SOL     OW27202   2.417   0.192  10.147 -0.4461  0.2634 -0.3727
 5190SOL    HW127203   2.449   0.282  10.140  0.9809 -0.1059  1.5741
 5190SOL    HW227204   2.347   0.199  10.212  0.0582 -1.6954  0.3825
 5191SOL     OW27205   4.375   0.283   5.788  0.4329 -0.6689  0.4128
 5191SOL    HW127206   4.311   0.219   5.821 -0.2533  0.6142  1.5899
 5191SOL    HW227207   4.435   0.288   5.862  3.1039 -0.4195 -1.7908
 5192SOL     OW27208   2.126   2.354   7.135 -0.2012  0.0227 -0.3694
 5192SOL    HW127209   2.162   2.366   7.223  0.4633 -0.8196 -0.5277
 5192SOL    HW227210   2.061   2.284   7.143  0.2671 -0.1177  2.2356
 5193SOL     OW27211   1.239   1.187   9.416  0.3335 -0.2652 -0.3729
 5193SOL    HW127212   1.222   1.263   9.471 -0.0048  0.1899 -1.0896
 5193SOL    HW227213   1.160   1.190   9.361 -0.1435 -0.9431  0.2659
 5194SOL     OW27214   1.715   3.961   8.328  0.3035 -0.3247  0.2737
 5194SOL    HW127215   1.688   4.040   8.281 -1.3556 -1.5690 -0.8992
 5194SOL    HW227216   1.663   3.963   8.408 -0.4768 -0.5661 -0.2274
 5195SOL     OW27217   1.020   0.983   8.465 -0.1236 -0.0771 -1.0340
 5195SOL    HW127218   0.942   0.932   8.444  0.4735 -1.7583  0.8917
 5195SOL    HW227219   1.071   0.941   8.396  1.4714  0.4418 -0.1713
 5196SOL     OW27220   2.975   1.291  14.802 -0.5218 -0.3673 -0.0532
 5196SOL    HW127221   2.948   1.199  14.809  0.5381 -0.7309 -0.6565
 5196SOL    HW227222   3.002   1.298  14.894 -1.8868  0.3959  0.2821
 5197SOL     OW27223   2.202   2.324   5.498  0.2745  0.1607  0.1514
 5197SOL    HW127224   2.177   2.237   5.529  0.6025 -0.5990 -1.7023
 5197SOL    HW227225   2.264   2.302   5.428  0.0838  1.8482 -0.5272
 5198SOL     OW27226   3.854   3.639   6.804 -0.5283  0.0838 -0.3359
 5198SOL    HW127227   3.855   3.635   6.900 -0.4725  1.0710 -0.2994
 5198SOL    HW227228   3.941   3.678   6.794 -0.4189  0.3877  1.8039
 5199SOL     OW27229   0.523   4.168   6.761  0.2511 -0.7173  0.3681
 5199SOL    HW127230   0.445   4.220   6.742  1.7343  0.3280 -2.9094
 5199SOL    HW227231   0.499   4.112   6.834  1.8907 -2.3295 -0.3333
 5200SOL     OW27232   1.540   3.317   3.633  0.0607 -0.2787  0.2655
 5200SOL    HW127233   1.470   3.254   3.650  1.4219 -1.3840  1.8627
 5200SOL    HW227234   1.573   3.293   3.546  0.5595 -0.6836  0.5635
 5201SOL     OW27235   2.588   4.069   5.001  0.3255 -0.0358  0.0997
 5201SOL    HW127236   2.635   4.116   5.070  0.7304 -1.5225  0.8494
 5201SOL    HW227237   2.542   3.998   5.046 -1.0014  0.5607 -0.3209
 5202SOL     OW27238   0.949   0.581  13.253  0.1929  0.0053  0.7037
 5202SOL    HW127239   0.901   0.587  13.170  2.8150  1.8947 -0.6917
 5202SOL    HW227240   0.883   0.627  13.304 -2.3919 -0.3642 -2.3383
 5203SOL     OW27241   0.631   4.105   1.571 -0.0848 -0.4424  0.2817
 5203SOL    HW127242   0.595   4.050   1.503 -0.0446  0.1914 -0.2527
 5203SOL    HW227243   0.684   4.170   1.525  1.4544 -0.0931  2.5399
 5204SOL     OW27244   2.249   2.593   3.458 -0.5690  0.0216 -0.0545
 5204SOL    HW127245   2.312   2.528   3.427  2.2364  3.8709 -2.4112
 5204SOL    HW227246   2.251   2.668   3.400  1.0236 -1.3866 -1.8373
 5205SOL     OW27247   0.056   2.096   3.454 -0.0884  0.1897  0.2367
 5205SOL    HW127248   4.732   2.171   3.455 -2.5067 -1.6647 -2.6570
 5205SOL    HW227249   0.130   2.124   3.401 -0.0692  4.0979  2.3226
 5206SOL     OW27250   4.032   4.196   3.673  0.9645  0.2869 -0.5987
 5206SOL    HW127251   4.071   4.264   3.728 -2.6507  0.3774  1.8262
 5206SOL    HW227252   4.104   4.134   3.658 -2.4609 -2.6040 -4.9552
 5207SOL     OW27253   2.968   1.160   6.327  0.8046  0.1361 -0.5069
 5207SOL    HW127254   3.063   1.149   6.324  0.5866 -1.4781 -2.1272
 5207SOL    HW227255   2.964   1.253   6.347 -2.0383 -0.6351  2.4466
 5208SOL     OW27256   1.156   1.452  14.242  0.2341 -0.2790  0.1296
 5208SOL    HW127257   1.073   1.435  14.288 -0.8994  0.5904 -1.5932
 5208SOL    HW227258   1.196   1.365  14.236  3.0072  1.0129  0.1389
 5209SOL     OW27259   0.374   2.439  11.251  0.1503  0.7519  0.3921
 5209SOL    HW127260   0.355   2.497  11.325 -0.9144 -0.8451  1.3575
 5209SOL    HW227261   0.288   2.428  11.210 -0.3839  0.9647  1.4322
 5210SOL     OW27262   1.730   0.205   3.576 -0.5017  0.0736  0.3279
 5210SOL    HW127263   1.818   0.181   3.547 -0.2076  0.6892  0.7001
 5210SOL    HW227264   1.741   0.224   3.669  0.0204 -1.0227  0.4808
 5211SOL     OW27265   4.242   4.335   5.617  0.2507 -0.5092  0.7838
 5211SOL    HW127266   4.248   4.429   5.629 -0.5990 -0.1066 -1.8778
 5211SOL    HW227267   4.150   4.328   5.590  0.1574  0.3057  0.9033
 5212SOL     OW27268   3.926   0.278   4.559 -0.3148 -0.0545  0.0306
 5212SOL    HW127269   3.836   0.308   4.553 -0.4833 -1.1400 -3.2421
 5212SOL    HW227270   3.950   0.344   4.623  1.2645 -1.0168  0.4449
 5213SOL     OW27271   1.579   3.280   7.600 -0.2650 -0.3311 -0.7152
 5213SOL    HW127272   1.488   3.287   7.629  0.8024  0.2364  2.5344
 5213SOL    HW227273   1.578   3.335   7.522  0.3043 -1.0031 -1.1968
 5214SOL     OW27274   2.131   3.014   6.096 -1.0084  0.1187 -0.2009
 5214SOL    HW127275   2.199   2.992   6.159 -3.8027 -1.4013  2.2807
 5214SOL    HW227276   2.112   2.931   6.051  0.3755 -0.3629  0.1184
 5215SOL     OW27277   2.149   2.956  10.097  1.0711  1.0523 -0.5718
 5215SOL    HW127278   2.129   2.864  10.078 -0.5796  1.4561 -0.8026
 5215SOL    HW227279   2.114   3.005  10.022  0.8467  1.1643 -0.3915
 5216SOL     OW27280   0.453   1.048   5.266  0.3512  0.2332  0.6086
 5216SOL    HW127281   0.445   1.026   5.173 -0.0970  1.6541  0.3012
 5216SOL    HW227282   0.362   1.048   5.295 -0.4048  1.8510 -1.8157
 5217SOL     OW27283   0.855   3.335   5.747  0.0734  0.6195 -0.0714
 5217SOL    HW127284   0.813   3.283   5.678  1.6497  1.3201 -1.5287
 5217SOL    HW227285   0.785   3.336   5.812  1.2197 -0.2636  1.1783
 5218SOL     OW27286   2.135   2.093   0.367 -0.2629  0.7715 -0.2019
 5218SOL    HW127287   2.163   2.164   0.425  1.7368 -0.5533  0.4516
 5218SOL    HW227288   2.085   2.138   0.298  0.5791  0.7023 -0.8544
 5219SOL     OW27289   2.296   3.205   8.327  0.1864  0.5306  0.5308
 5219SOL    HW127290   2.270   3.241   8.412 -1.3746 -0.0427  0.2975
 5219SOL    HW227291   2.362   3.142   8.357  2.0366  0.5115 -3.4910
 5220SOL     OW27292   0.336   4.050   8.215 -0.0969  0.1213 -0.0158
 5220SOL    HW127293   0.328   3.962   8.178  2.4901  0.1152 -0.5925
 5220SOL    HW227294   0.303   4.102   8.142 -0.1403 -1.9067 -1.4431
 5221SOL     OW27295   0.253   1.552   2.719 -0.5675 -0.1350 -0.0330
 5221SOL    HW127296   0.329   1.543   2.776 -0.2977  0.0919 -0.3571
 5221SOL    HW227297   0.271   1.640   2.686 -4.5322  0.2666 -1.2104
 5222SOL     OW27298   4.266   4.338   2.727 -0.0937 -0.6289 -0.2276
 5222SOL    HW127299   4.300   4.255   2.693 -2.8586 -1.6215 -0.6251
 5222SOL    HW227300   4.345   4.386   2.705 -1.2887  0.4663 -2.1043
 5223SOL     OW27301   2.701   2.244  12.955  0.0878  0.7582  0.1623
 5223SOL    HW127302   2.723   2.238  12.862 -1.0867 -1.4355  0.0064
 5223SOL    HW227303   2.739   2.159  12.980 -2.4200 -0.9801 -1.8266
 5224SOL     OW27304   4.375   3.396   2.756 -0.1577 -0.1439  0.1892
 5224SOL    HW127305   4.304   3.453   2.728 -1.2695 -0.7803  1.7041
 5224SOL    HW227306   4.324   3.325   2.795  0.8336 -1.4994 -0.9751
 5225SOL     OW27307   0.757   3.561  16.987 -0.1951 -0.4966 -0.2681
 5225SOL    HW127308   0.773   3.652  17.013 -0.0268 -0.1331 -1.5973
 5225SOL    HW227309   0.764   3.508  17.066 -0.1780 -2.7197 -1.7434
 5226SOL     OW27310   3.550   0.680   9.695  0.4173 -0.1728 -0.0707
 5226SOL    HW127311   3.475   0.733   9.668  0.2775 -0.9021 -1.0967
 5226SOL    HW227312   3.614   0.751   9.685  1.8794 -1.8375 -2.4013
 5227SOL     OW27313   0.711   4.034  12.284 -0.4657 -0.1911 -0.6766
 5227SOL    HW127314   0.769   4.030  12.360  1.4047  1.8187 -1.9932
 5227SOL    HW227315   0.672   4.118  12.308 -0.9813 -0.4109 -0.7614
 5228SOL     OW27316   2.017   3.522   6.476  0.7792 -0.3212  0.3762
 5228SOL    HW127317   1.978   3.608   6.491  1.2030  0.0278 -0.5250
 5228SOL    HW227318   2.001   3.470   6.554  0.0908  0.3873  0.7118
 5229SOL     OW27319   0.819   1.855   1.254  0.0429  0.7672 -0.0334
 5229SOL    HW127320   0.806   1.826   1.344 -0.3383 -1.9163 -0.9238
 5229SOL    HW227321   0.784   1.773   1.217  0.8388  1.3454 -2.0914
 5230SOL     OW27322   1.527   3.573   3.512  0.7238 -0.6179  0.6207
 5230SOL    HW127323   1.474   3.632   3.566  1.9185  1.2920 -0.3054
 5230SOL    HW227324   1.523   3.494   3.566 -0.8692  0.6988  2.4103
 5231SOL     OW27325   1.695   1.081   8.232 -0.4592 -0.0056 -0.0025
 5231SOL    HW127326   1.734   1.024   8.299  0.2002  1.8531  1.1823
 5231SOL    HW227327   1.762   1.082   8.164 -1.0041  0.2793 -0.5346
 5232SOL     OW27328   2.428   1.104  10.596  1.0058  0.0297 -0.0554
 5232SOL    HW127329   2.510   1.153  10.599  1.6123 -1.1661  3.1044
 5232SOL    HW227330   2.400   1.144  10.678  2.8056  0.8775  0.1570
 5233SOL     OW27331   0.194   3.751  11.817  0.3874 -0.5611  0.1761
 5233SOL    HW127332   0.277   3.774  11.774  0.0477  1.0935  0.3932
 5233SOL    HW227333   0.191   3.656  11.816 -0.7888 -0.5242  0.8511
 5234SOL     OW27334   0.100   3.647   6.451  0.0377  0.0020 -0.8153
 5234SOL    HW127335   0.118   3.728   6.498  0.0733  0.4906 -1.6847
 5234SOL    HW227336   0.028   3.665   6.391 -1.3829 -0.5115  0.7355
 5235SOL     OW27337   1.058   1.875  14.261 -0.4717 -0.0099  0.1606
 5235SOL    HW127338   0.983   1.817  14.250  0.8767 -1.1738 -2.8372
 5235SOL    HW227339   1.104   1.885  14.178 -0.1995 -1.1263  0.1789
 5236SOL     OW27340   0.461   1.319   5.006 -0.2749  0.2120  0.1898
 5236SOL    HW127341   0.407   1.324   5.085  2.4220 -0.2447  2.0489
 5236SOL    HW227342   0.455   1.224   4.992 -0.1309  0.3587 -0.9017
 5237SOL     OW27343   1.893   1.959   1.767 -0.3271  0.3283  0.0405
 5237SOL    HW127344   1.959   1.963   1.837  0.5758 -0.9763 -0.7540
 5237SOL    HW227345   1.886   1.865   1.756 -0.0467  0.6586 -2.7917
 5238SOL     OW27346   3.774   2.508   2.977  0.7868  0.7802 -0.7556
 5238SOL    HW127347   3.812   2.441   2.920 -1.0031 -1.6061  0.8665
 5238SOL    HW227348   3.766   2.478   3.067  0.8701  2.2569 -0.2510
 5239SOL     OW27349   3.010   0.962  11.940  0.2654  0.4921 -0.5099
 5239SOL    HW127350   2.936   0.949  11.880  2.4839 -0.7771 -2.9595
 5239SOL    HW227351   3.068   0.887  11.934 -0.3998 -0.1434  0.8198
 5240SOL     OW27352   0.651   3.858   2.281 -0.0785  0.3663  0.4698
 5240SOL    HW127353   0.694   3.937   2.314  0.4343  0.3215 -0.0915
 5240SOL    HW227354   0.562   3.893   2.286 -0.4083 -0.3558 -0.2512
 5241SOL     OW27355   4.213   3.063   2.556  0.1382 -0.0603 -0.8495
 5241SOL    HW127356   4.171   3.136   2.602 -2.0020 -2.1142  0.4815
 5241SOL    HW227357   4.156   3.056   2.479  0.7606 -1.3443 -1.1888
 5242SOL     OW27358   0.080   4.093   3.630 -0.1524  0.5091 -0.2963
 5242SOL    HW127359   0.018   4.043   3.684 -1.2645 -0.5505 -2.5597
 5242SOL    HW227360   0.023   4.102   3.554 -0.2351 -0.1666 -0.3125
 5243SOL     OW27361   0.458   4.197  17.022 -0.4923  0.2571 -0.8916
 5243SOL    HW127362   0.499   4.113  17.003 -1.5487 -0.0467 -1.8568
 5243SOL    HW227363   0.371   4.173  17.054 -0.1005 -0.1451 -0.1202
 5244SOL     OW27364   3.265   4.101   8.639 -0.0140 -0.2603 -0.4549
 5244SOL    HW127365   3.295   4.164   8.573 -0.3268 -0.1435 -0.4852
 5244SOL    HW227366   3.351   4.074   8.671 -0.5991  0.5386  1.7319
 5245SOL     OW27367   3.118   3.255   4.878 -0.7575  0.2590 -0.0506
 5245SOL    HW127368   3.041   3.223   4.924 -0.8784  0.8622  0.1697
 5245SOL    HW227369   3.088   3.338   4.840 -1.8332  0.4643  1.2496
 5246SOL     OW27370   0.119   4.225  14.518 -0.0420  0.0326 -0.1310
 5246SOL    HW127371   0.145   4.311  14.483 -1.2112 -0.0726 -1.2630
 5246SOL    HW227372   0.024   4.238  14.523 -0.1883 -1.1016  0.0334
 5247SOL     OW27373   3.741   1.601  13.477  0.3193 -0.5977 -0.8669
 5247SOL    HW127374   3.775   1.573  13.562 -1.5700  2.2632  0.8114
 5247SOL    HW227375   3.819   1.603  13.421  0.9722 -2.5265 -0.0359
 5248SOL     OW27376   0.300   1.892   5.614  0.2968  0.0856  0.9097
 5248SOL    HW127377   0.323   1.902   5.522  3.1469 -2.0451  1.4023
 5248SOL    HW227378   0.227   1.954   5.614  0.0189 -0.2694 -1.6110
 5249SOL     OW27379   0.057   2.874   1.304 -0.2333  0.0050  0.0888
 5249SOL    HW127380   4.729   2.867   1.375  1.1944 -0.7764  1.2712
 5249SOL    HW227381   0.136   2.840   1.346  0.2604  0.4657 -0.4666
 5250SOL     OW27382   1.072   2.391  11.206  0.0506 -0.1789 -0.8938
 5250SOL    HW127383   0.987   2.431  11.189 -0.0610 -0.8489 -1.9317
 5250SOL    HW227384   1.102   2.395  11.115 -2.1230 -0.8112 -1.6491
 5251SOL     OW27385   2.276   3.366   8.104 -0.1777 -0.0582  0.6230
 5251SOL    HW127386   2.295   3.456   8.130 -1.8931  0.9670 -1.7596
 5251SOL    HW227387   2.280   3.321   8.189  2.4729 -0.0533  0.5117
 5252SOL     OW27388   4.017   0.039   8.438  0.6709 -0.2918 -0.3694
 5252SOL    HW127389   3.948   0.048   8.504  0.0951  1.1379 -1.1839
 5252SOL    HW227390   4.091   0.093   8.469  0.3064 -0.6407  1.1283
 5253SOL     OW27391   4.040   1.458   6.880  0.3020  0.4208  0.2462
 5253SOL    HW127392   4.011   1.370   6.903  0.0697  0.0656 -1.4152
 5253SOL    HW227393   4.053   1.442   6.787 -0.2930 -3.8509  0.8792
 5254SOL     OW27394   1.202   2.975   5.247 -0.1092 -0.2424  0.1875
 5254SOL    HW127395   1.240   2.898   5.204  0.4773 -0.1297  0.5094
 5254SOL    HW227396   1.283   3.022   5.263  2.0850 -3.5340 -1.2438
 5255SOL     OW27397   2.164   0.073   4.845 -0.0792  0.0998  0.4855
 5255SOL    HW127398   2.128   4.733   4.799  0.3344 -0.3541  0.9067
 5255SOL    HW227399   2.136   0.139   4.781  1.4450 -0.2247 -0.5045
 5256SOL     OW27400   3.127   0.040   3.977 -0.2389 -0.3851 -0.1406
 5256SOL    HW127401   3.087   4.722   4.046  1.4807  1.8577  2.6001
 5256SOL    HW227402   3.055   0.095   3.946 -0.5791 -0.3160  0.7709
 5257SOL     OW27403   4.265   1.592   5.773 -0.0104  0.3140  0.2449
 5257SOL    HW127404   4.225   1.661   5.719  0.8908  0.4876 -0.1927
 5257SOL    HW227405   4.227   1.510   5.742 -1.3486  1.4098 -1.0444
 5258SOL     OW27406   2.232   3.092   4.038 -0.4518 -0.3206  0.1880
 5258SOL    HW127407   2.288   3.023   4.075  0.5203  0.2376 -0.2367
 5258SOL    HW227408   2.151   3.089   4.087 -0.5458 -3.6448 -0.1237
 5259SOL     OW27409   4.512   3.790   4.376  0.0490  0.3181 -0.2590
 5259SOL    HW127410   4.517   3.698   4.350 -0.3956  0.4107 -0.6846
 5259SOL    HW227411   4.431   3.788   4.427 -0.4333 -0.0294 -1.0396
 5260SOL     OW27412   3.325   0.862   9.580  0.0989 -0.1073 -0.1897
 5260SOL    HW127413   3.272   0.789   9.612 -1.4797  0.3777 -1.7236
 5260SOL    HW227414   3.349   0.836   9.491 -0.5964 -0.3986 -0.2916
 5261SOL     OW27415   2.316   1.172   2.385  0.5575 -0.1307  0.5019
 5261SOL    HW127416   2.370   1.181   2.306  0.5200 -2.6184  0.2081
 5261SOL    HW227417   2.382   1.196   2.450 -0.2444 -0.7600  1.5480
 5262SOL     OW27418   0.417   1.117  15.094 -0.1347 -0.1870 -0.3411
 5262SOL    HW127419   0.321   1.122  15.090  0.0396  1.1503 -2.7119
 5262SOL    HW227420   0.438   1.030  15.128  0.6695 -0.3445 -1.2530
 5263SOL     OW27421   2.314   3.275   3.499 -0.2553  0.2786 -0.6873
 5263SOL    HW127422   2.245   3.338   3.514  1.6459  1.5754  2.5484
 5263SOL    HW227423   2.332   3.234   3.583  1.8865  0.4196 -1.0627
 5264SOL     OW27424   3.746   0.699  13.488  0.1323 -0.4121 -0.2708
 5264SOL    HW127425   3.684   0.631  13.512 -0.2651 -0.9326 -2.7790
 5264SOL    HW227426   3.829   0.651  13.481 -0.0653 -0.6853 -0.7244
 5265SOL     OW27427   1.421   3.117   5.326  0.4634  0.0140  0.1727
 5265SOL    HW127428   1.478   3.188   5.354  3.0331 -2.5125  1.3687
 5265SOL    HW227429   1.377   3.176   5.266  0.8115  0.0439 -0.0512
 5266SOL     OW27430   3.016   0.274  17.578  1.3618  0.1492  0.3060
 5266SOL    HW127431   3.053   0.194  17.615 -0.1412 -0.9695 -0.5709
 5266SOL    HW227432   3.085   0.301  17.519 -0.9478  0.4724 -2.2331
 5267SOL     OW27433   0.818   0.053  12.400 -0.4935 -0.1093 -0.2923
 5267SOL    HW127434   0.816   0.020  12.310  2.6165 -0.0028 -0.4110
 5267SOL    HW227435   0.901   0.100  12.403 -0.4735 -0.2599  1.3941
 5268SOL     OW27436   1.126   2.743   6.843  0.2220  0.2198 -0.4007
 5268SOL    HW127437   1.096   2.680   6.779  0.6825  1.7001 -2.0807
 5268SOL    HW227438   1.064   2.723   6.913  1.5479 -0.9614  0.4388
 5269SOL     OW27439   1.076   3.889   8.958 -0.0921  0.5293  0.7916
 5269SOL    HW127440   1.126   3.879   9.039  1.0626  1.4691  0.1974
 5269SOL    HW227441   1.102   3.979   8.936 -1.2894  0.3430 -1.3405
 5270SOL     OW27442   3.153   1.307   6.846 -0.1071 -0.5375 -0.0818
 5270SOL    HW127443   3.097   1.265   6.781 -0.1278 -1.1754  0.3462
 5270SOL    HW227444   3.217   1.236   6.841 -1.2022 -1.6958  2.3672
 5271SOL     OW27445   3.652   0.558   6.737 -0.2031 -0.4730 -0.4989
 5271SOL    HW127446   3.654   0.493   6.666 -0.3134  1.2555 -2.0749
 5271SOL    HW227447   3.736   0.600   6.719 -0.5632  0.7376  0.6829
 5272SOL     OW27448   3.427   3.162   0.177  0.0025 -0.4857 -0.6077
 5272SOL    HW127449   3.517   3.156   0.208 -0.8624 -0.8187  1.7828
 5272SOL    HW227450   3.376   3.164   0.258  0.2208 -2.4463 -0.4139
 5273SOL     OW27451   4.153   3.179   6.096  0.1361 -0.1758  0.6815
 5273SOL    HW127452   4.061   3.204   6.098 -0.0179 -1.0799  4.3633
 5273SOL    HW227453   4.170   3.127   6.017  1.1224  3.4839 -1.4800
 5274SOL     OW27454   2.968   2.495   7.671 -0.2659 -0.2409  0.6530
 5274SOL    HW127455   3.053   2.459   7.648 -1.2826 -2.2799  0.0821
 5274SOL    HW227456   2.994   2.554   7.741 -1.8849 -0.6934  1.6455
 5275SOL     OW27457   4.228   4.451  10.742  0.3522 -0.6198  0.4390
 5275SOL    HW127458   4.159   4.486  10.797  0.9659 -0.4564  1.1056
 5275SOL    HW227459   4.179   4.378  10.704 -1.7894  0.4040  1.2733
 5276SOL     OW27460   3.064   1.629  15.605 -0.6957  0.3394  0.1385
 5276SOL    HW127461   3.147   1.645  15.560 -1.5525  0.0148 -1.6025
 5276SOL    HW227462   3.043   1.714  15.643 -3.5167 -0.6059  0.6870
 5277SOL     OW27463   1.558   1.061   4.392  0.2598  0.0740 -0.5623
 5277SOL    HW127464   1.478   1.011   4.410 -0.9222  0.7558 -3.9038
 5277SOL    HW227465   1.558   1.043   4.298  0.7285 -1.8601 -0.1920
 5278SOL     OW27466   4.210   2.567   3.529 -0.5544  0.0284 -0.8817
 5278SOL    HW127467   4.166   2.616   3.460 -0.9617 -2.0290 -2.0808
 5278SOL    HW227468   4.195   2.477   3.499  0.7160  0.3662 -2.5114
 5279SOL     OW27469   0.740   3.121   3.055 -0.5510 -0.3862 -0.1287
 5279SOL    HW127470   0.811   3.186   3.054 -1.7046  0.8582 -0.8801
 5279SOL    HW227471   0.665   3.175   3.080 -2.2161 -3.1085  0.6521
 5280SOL     OW27472   1.239   1.753   6.328  0.0242  0.5596  0.1827
 5280SOL    HW127473   1.242   1.721   6.237 -1.2882 -1.7120  0.9331
 5280SOL    HW227474   1.181   1.828   6.310  0.9988  0.5972 -2.8683
 5281SOL     OW27475   3.780   4.085   2.943 -0.4882  0.4741 -0.1972
 5281SOL    HW127476   3.686   4.090   2.961 -0.0570 -1.2107  2.4511
 5281SOL    HW227477   3.811   4.155   3.000  1.0530 -1.1169  0.9488
 5282SOL     OW27478   0.560   0.737   7.198  0.0155 -0.3055  0.2243
 5282SOL    HW127479   0.598   0.650   7.205  1.7955  0.4971  0.6170
 5282SOL    HW227480   0.583   0.753   7.106  0.1760 -2.5213 -0.1028
 5283SOL     OW27481   2.100   0.261   4.630 -0.2642  0.0529  0.0570
 5283SOL    HW127482   2.135   0.233   4.546 -0.8832  0.4788 -0.3444
 5283SOL    HW227483   2.011   0.225   4.630 -0.3022  0.1565 -0.7671
 5284SOL     OW27484   3.386   0.559  15.895  0.5972  0.3359 -0.3076
 5284SOL    HW127485   3.422   0.471  15.883 -2.1035 -1.2310  3.0985
 5284SOL    HW227486   3.348   0.561  15.807 -2.7640  0.4141  1.1573
 5285SOL     OW27487   1.800   2.907  16.571  0.6007  0.3378 -0.5424
 5285SOL    HW127488   1.831   2.840  16.509  1.2507  0.9850 -0.9169
 5285SOL    HW227489   1.795   2.847  16.646  0.6247  2.3927  1.0885
 5286SOL     OW27490   0.796   4.105   9.604  0.0008 -0.3478 -0.1702
 5286SOL    HW127491   0.858   4.086   9.534  0.7738  1.0546  0.1289
 5286SOL    HW227492   0.830   4.038   9.663  1.4675  1.6148  1.2415
 5287SOL     OW27493   0.634   2.584   6.225 -0.1050  0.3644  0.5235
 5287SOL    HW127494   0.643   2.518   6.156 -2.1585  1.0057 -0.3557
 5287SOL    HW227495   0.692   2.652   6.192  0.5141 -0.1817  0.4677
 5288SOL     OW27496   0.033   0.102  16.986  0.5464 -0.0998 -0.2677
 5288SOL    HW127497   0.026   0.007  16.987 -0.1688 -0.0508 -0.7119
 5288SOL    HW227498   4.686   0.123  17.030  2.2817  3.7067  1.2127
 5289SOL     OW27499   3.596   4.661   7.514 -0.2962  1.0060  0.1300
 5289SOL    HW127500   3.595   0.008   7.466 -1.3934  0.4373 -0.8155
 5289SOL    HW227501   3.632   4.598   7.451 -0.2057  2.5760 -1.3603
 5290SOL     OW27502   0.953   3.046   5.093  0.8084 -0.2177 -0.0380
 5290SOL    HW127503   0.942   2.989   5.017 -4.0958  0.2330  0.3493
 5290SOL    HW227504   1.034   3.015   5.132  0.7789 -0.9947 -0.6046
 5291SOL     OW27505   0.156   3.939  14.320  0.1487 -0.6525 -0.1682
 5291SOL    HW127506   0.154   4.015  14.261 -0.1254 -0.7709 -0.3111
 5291SOL    HW227507   0.249   3.923  14.334 -0.0714 -0.2562  1.7045
 5292SOL     OW27508   1.334   2.891   9.912 -0.1543 -0.3926  0.3830
 5292SOL    HW127509   1.383   2.954   9.858  0.4137 -1.9473 -0.8902
 5292SOL    HW227510   1.316   2.933   9.997 -0.8475  3.0505 -1.4501
 5293SOL     OW27511   2.332   0.153  15.112 -0.2508  0.3449 -0.3354
 5293SOL    HW127512   2.336   0.058  15.121 -0.9747  0.2520 -1.0321
 5293SOL    HW227513   2.247   0.145  15.069 -0.1522 -0.8472 -0.3028
 5294SOL     OW27514   0.136   0.112   8.555 -0.0974 -0.1757 -0.4153
 5294SOL    HW127515   0.166   0.024   8.578  0.1243 -0.3418 -1.3316
 5294SOL    HW227516   0.104   0.137   8.641  0.0518  1.9854 -0.9863
 5295SOL     OW27517   2.881   4.392   1.069 -0.2182 -0.0611  0.0948
 5295SOL    HW127518   2.838   4.471   1.102  1.6758  0.4387  1.3895
 5295SOL    HW227519   2.901   4.427   0.982  0.7920 -4.9632 -1.6697
 5296SOL     OW27520   1.865   4.225   8.437 -0.0850  0.3099  0.4669
 5296SOL    HW127521   1.907   4.200   8.520 -0.9990 -4.4322 -0.5318
 5296SOL    HW227522   1.861   4.321   8.432  1.0682  0.4707  2.5569
 5297SOL     OW27523   4.720   3.400   2.345 -0.4449  0.1772 -0.6013
 5297SOL    HW127524   0.038   3.321   2.355  1.2236  1.0766 -2.4586
 5297SOL    HW227525   4.694   3.385   2.254 -0.3429  1.0573 -0.7779
 5298SOL     OW27526   2.948   2.662  12.224  0.7835  0.1859 -0.0104
 5298SOL    HW127527   3.009   2.589  12.238  1.0064  0.0505 -1.7328
 5298SOL    HW227528   2.953   2.711  12.306  0.0688  0.0677  0.0995
 5299SOL     OW27529   1.546   0.890  17.516  0.2540  0.0328  0.4691
 5299SOL    HW127530   1.595   0.928  17.444 -0.3943  0.9395  0.5062
 5299SOL    HW227531   1.454   0.901  17.491  0.0673  2.2146  2.2086
 5300SOL     OW27532   1.062   4.032  16.302 -0.0227  0.0500  0.3673
 5300SOL    HW127533   1.127   3.983  16.353 -0.5784  1.0708  2.0556
 5300SOL    HW227534   0.983   3.982  16.322  0.4369 -0.7427  0.2283
 5301SOL     OW27535   3.206   0.032   4.600 -0.5128 -0.1004  0.2214
 5301SOL    HW127536   3.288   0.031   4.550  0.1467 -1.3012  1.3101
 5301SOL    HW227537   3.228   4.719   4.680 -1.7234  0.9153  1.1544
 5302SOL     OW27538   2.459   1.511   4.517 -0.5390  0.4342  0.2916
 5302SOL    HW127539   2.448   1.606   4.520 -0.0957  0.5648 -2.1503
 5302SOL    HW227540   2.367   1.483   4.510 -0.4959  0.7322 -1.6110
 5303SOL     OW27541   1.283   3.441   6.190 -0.2476  0.3093  0.0945
 5303SOL    HW127542   1.286   3.491   6.108  2.2837  0.0581  0.0439
 5303SOL    HW227543   1.205   3.480   6.230 -0.1873  0.4109  0.1110
 5304SOL     OW27544   3.385   3.949   0.767 -0.3134  0.4119 -0.3733
 5304SOL    HW127545   3.435   3.934   0.686  0.3848  1.6033 -0.1641
 5304SOL    HW227546   3.443   4.017   0.800  0.2210 -0.3019  0.1864
 5305SOL     OW27547   2.385   1.611   6.667 -0.0604 -0.5842 -0.1758
 5305SOL    HW127548   2.403   1.521   6.640  1.4668 -0.8199  1.6513
 5305SOL    HW227549   2.362   1.647   6.581  1.2596  1.4788  0.3571
 5306SOL     OW27550   0.361   4.105   4.400  0.3114 -0.8379  0.4643
 5306SOL    HW127551   0.286   4.071   4.350 -0.0287 -0.6542  0.8493
 5306SOL    HW227552   0.356   4.048   4.476 -1.4268 -2.4639 -0.8640
 5307SOL     OW27553   1.187   1.667   2.877  0.1992 -0.2309 -0.6623
 5307SOL    HW127554   1.175   1.594   2.817  1.7394 -0.2141 -0.9819
 5307SOL    HW227555   1.244   1.632   2.945  0.5045  2.3330  0.4289
 5308SOL     OW27556   1.260   2.366  12.897  0.0416 -0.2184  0.6253
 5308SOL    HW127557   1.292   2.373  12.807  0.1542 -2.9463  0.4393
 5308SOL    HW227558   1.340   2.357  12.948  0.8845 -0.0126 -0.6636
 5309SOL     OW27559   0.825   0.169  13.304  0.3429 -0.0246 -0.0361
 5309SOL    HW127560   0.806   0.261  13.323  1.7656 -0.0472  1.4161
 5309SOL    HW227561   0.920   0.166  13.315  0.3687 -2.3835 -0.7644
 5310SOL     OW27562   4.734   2.244   2.911 -0.1364  0.4259  0.6256
 5310SOL    HW127563   0.008   2.157   2.872 -0.1009  0.5196  0.4248
 5310SOL    HW227564   0.092   2.264   2.917  0.2657 -1.9550  2.1834
 5311SOL     OW27565   1.719   3.221   2.093 -0.6254  0.0080  0.6893
 5311SOL    HW127566   1.810   3.239   2.116  0.8372 -4.7243 -1.5559
 5311SOL    HW227567   1.683   3.310   2.100 -1.9585 -0.5676  1.1842
 5312SOL     OW27568   0.270   0.181   1.540 -0.0044  0.4329  0.1291
 5312SOL    HW127569   0.301   0.102   1.494 -0.4793  0.6489 -0.5676
 5312SOL    HW227570   0.233   0.226   1.464  2.0640  2.1734  0.1559
 5313SOL     OW27571   1.293   1.745   9.917 -0.1843 -0.2828 -0.1145
 5313SOL    HW127572   1.232   1.785   9.855 -0.1308  0.1961  0.1396
 5313SOL    HW227573   1.325   1.824   9.961  1.5270 -0.6387 -0.7455
 5314SOL     OW27574   2.571   1.172  12.443 -0.4327 -0.1140  0.1186
 5314SOL    HW127575   2.625   1.174  12.521 -0.7926  0.7676  0.3410
 5314SOL    HW227576   2.635   1.137  12.380  0.5474  0.7045  0.6681
 5315SOL     OW27577   2.125   3.052   2.621  0.4190  0.4250  0.2310
 5315SOL    HW127578   2.186   3.105   2.570 -1.1296  0.1078 -2.0037
 5315SOL    HW227579   2.176   2.971   2.628 -0.0322  0.0750 -0.4903
 5316SOL     OW27580   1.522   1.555   0.866 -0.1886 -0.0049  0.6263
 5316SOL    HW127581   1.506   1.629   0.924  2.7347 -0.6106  2.2067
 5316SOL    HW227582   1.612   1.543   0.897 -0.3451  0.2317  1.1686
 5317SOL     OW27583   3.892   2.767   3.937  0.0829 -0.0475  0.3684
 5317SOL    HW127584   3.950   2.698   3.905 -0.6715 -1.1186  1.3169
 5317SOL    HW227585   3.952   2.841   3.927 -1.6784  1.2713 -0.5093
 5318SOL     OW27586   4.728   2.832   5.004  0.3665 -0.3750 -0.2386
 5318SOL    HW127587   4.634   2.844   4.993  0.8793  1.3709 -2.5155
 5318SOL    HW227588   0.014   2.880   5.084  1.4478 -1.9261  0.4183
 5319SOL     OW27589   2.619   3.871   5.633 -0.1798  0.0007  0.2078
 5319SOL    HW127590   2.601   3.933   5.703 -0.2443 -0.1263  0.3033
 5319SOL    HW227591   2.713   3.885   5.621 -0.0883 -0.5487  0.2690
 5320SOL     OW27592   1.650   4.166   5.330  0.2312  0.4589 -0.5357
 5320SOL    HW127593   1.738   4.202   5.324  1.4509 -2.4924 -0.2774
 5320SOL    HW227594   1.598   4.244   5.307  0.3634  1.2260  1.7491
 5321SOL     OW27595   3.993   4.612   9.803  0.5634 -0.0719 -0.1398
 5321SOL    HW127596   3.903   4.614   9.772  0.6326  0.0633 -0.3269
 5321SOL    HW227597   4.008   4.524   9.770 -3.3670 -1.2960  1.3251
 5322SOL     OW27598   4.333   1.959  16.754 -0.1356 -0.0806 -0.2306
 5322SOL    HW127599   4.257   2.011  16.729  0.5728  1.0090 -0.0958
 5322SOL    HW227600   4.376   1.945  16.670  1.1385 -1.3339  0.6279
 5323SOL     OW27601   0.015   1.189  17.182 -0.3218 -0.1285  0.5705
 5323SOL    HW127602   0.031   1.269  17.132 -0.8673 -0.6919 -0.5130
 5323SOL    HW227603   0.097   1.166  17.226 -0.7667  0.1568  1.5440
 5324SOL     OW27604   0.888   3.322   9.492  0.1463 -0.0509  0.6632
 5324SOL    HW127605   0.910   3.349   9.581 -2.7597 -0.7343  1.5905
 5324SOL    HW227606   0.855   3.404   9.456 -0.7978 -0.8445 -0.2590
 5325SOL     OW27607   2.075   1.099   0.510 -0.9606  0.7882 -0.2713
 5325SOL    HW127608   2.011   1.126   0.444 -1.3227 -0.6649 -0.5214
 5325SOL    HW227609   2.137   1.167   0.484  1.8476 -1.4404  0.6315
 5326SOL     OW27610   4.066   0.142  11.420  0.3064 -0.5084  0.0868
 5326SOL    HW127611   4.008   0.204  11.464 -1.1706 -1.1802 -0.8809
 5326SOL    HW227612   3.999   0.080  11.391 -0.0231  0.3485 -0.9957
 5327SOL     OW27613   4.397   3.948   8.248 -0.2082 -0.2040  0.3264
 5327SOL    HW127614   4.380   3.906   8.164  1.9982 -3.7289  1.6515
 5327SOL    HW227615   4.492   3.964   8.244 -0.0675 -1.3826 -1.2133
 5328SOL     OW27616   4.478   2.914  13.593 -0.1961  0.1567 -0.0031
 5328SOL    HW127617   4.498   2.965  13.671  0.4910 -0.8686  0.4961
 5328SOL    HW227618   4.410   2.859  13.631  0.1021 -0.3209 -0.1561
 5329SOL     OW27619   2.582   1.181   0.437  0.2967  0.1812 -0.1761
 5329SOL    HW127620   2.576   1.276   0.451  0.7621  0.0345  1.0284
 5329SOL    HW227621   2.622   1.183   0.350  2.2525 -0.3046  0.7245
 5330SOL     OW27622   3.701   0.461   8.493 -0.3898  0.2128  0.3254
 5330SOL    HW127623   3.792   0.486   8.478 -0.0877 -1.7336 -1.0444
 5330SOL    HW227624   3.675   0.524   8.560 -0.3374  0.7603 -0.1670
 5331SOL     OW27625   3.890   0.666   9.661 -0.0929  0.2260  0.1589
 5331SOL    HW127626   3.872   0.688   9.570  1.6791 -0.8608 -0.4475
 5331SOL    HW227627   3.984   0.679   9.657  0.2474 -2.4215 -0.4914
 5332SOL     OW27628   4.204   1.439   7.515 -0.0322 -0.7294  0.1621
 5332SOL    HW127629   4.170   1.473   7.432  1.4440  1.6767  0.5495
 5332SOL    HW227630   4.217   1.520   7.564  1.3905 -1.9365  1.7881
 5333SOL     OW27631   1.264   0.231  16.666 -0.1121  0.0379 -0.6299
 5333SOL    HW127632   1.270   0.326  16.652 -1.1757  0.0858 -0.7209
 5333SOL    HW227633   1.354   0.207  16.643 -0.4722  0.4265 -2.4866
 5334SOL     OW27634   4.635   2.594  11.276 -0.2193 -0.5167 -0.0201
 5334SOL    HW127635   4.551   2.627  11.243  1.6196  1.2360 -2.9658
 5334SOL    HW227636   4.612   2.594  11.369  1.5875  2.4727  0.4459
 5335SOL     OW27637   2.001   0.818  10.526  0.1583 -0.1617  0.2099
 5335SOL    HW127638   1.940   0.829  10.599  0.6223  3.4091  0.0823
 5335SOL    HW227639   2.087   0.823  10.567  1.2184 -2.3048 -1.7443
 5336SOL     OW27640   0.389   3.408   7.848  0.0504 -0.3290  0.0027
 5336SOL    HW127641   0.470   3.359   7.865  0.7957  0.5131 -1.1151
 5336SOL    HW227642   0.370   3.449   7.932 -1.6762 -1.6358  0.2632
 5337SOL     OW27643   0.789   2.178   7.765  0.1095 -0.3879  0.1923
 5337SOL    HW127644   0.816   2.197   7.855  0.5328  3.6388 -0.8273
 5337SOL    HW227645   0.835   2.255   7.732  1.1282 -0.1487  2.2009
 5338SOL     OW27646   1.121   4.604   2.727  0.9033  0.1566 -0.2041
 5338SOL    HW127647   1.160   4.519   2.705  1.6289  0.8244 -1.4645
 5338SOL    HW227648   1.122   4.660   2.650 -0.3041 -0.3553 -0.6002
 5339SOL     OW27649   4.382   4.362   3.060 -0.5375 -0.3915  0.0436
 5339SOL    HW127650   4.365   4.353   2.966 -1.5820  3.7155 -0.1468
 5339SOL    HW227651   4.454   4.300   3.070 -0.3045 -0.0486  0.4318
 5340SOL     OW27652   0.199   4.170   2.592 -0.0315  0.3779 -0.3622
 5340SOL    HW127653   0.238   4.175   2.679  1.5023 -2.3281 -0.8756
 5340SOL    HW227654   0.161   4.082   2.597 -0.0050  0.5712  3.2403
 5341SOL     OW27655   1.637   3.524   7.731  0.2418 -0.1813  0.7000
 5341SOL    HW127656   1.633   3.431   7.710  0.7427 -0.0105 -0.1518
 5341SOL    HW227657   1.607   3.523   7.822 -3.1685 -0.8677 -0.4432
 5342SOL     OW27658   3.631   0.877   9.480  0.9936 -0.2330 -0.2024
 5342SOL    HW127659   3.707   0.824   9.456  1.3866 -0.2656  1.1206
 5342SOL    HW227660   3.602   0.906   9.394  0.2943  0.2128  0.1801
 5343SOL     OW27661   4.017   1.366   8.530  0.0477 -0.5443 -0.6481
 5343SOL    HW127662   3.992   1.331   8.616 -0.4544  0.6015 -0.3390
 5343SOL    HW227663   4.020   1.288   8.474 -1.0141 -1.2467  0.2701
 5344SOL     OW27664   1.483   3.572   4.271 -0.1836  0.3053 -0.2154
 5344SOL    HW127665   1.438   3.656   4.271  0.7934  0.8328 -0.5084
 5344SOL    HW227666   1.510   3.564   4.363 -0.1510  3.7420  0.0529
 5345SOL     OW27667   3.996   1.572  17.651 -0.4923  0.9784  0.3662
 5345SOL    HW127668   3.912   1.618  17.647 -1.0385  0.0924  1.7612
 5345SOL    HW227669   4.029   1.596  17.564 -0.0720  1.5419  0.6902
 5346SOL     OW27670   2.933   2.247   0.520 -0.2203  0.2131 -0.9266
 5346SOL    HW127671   3.015   2.250   0.470 -0.0039 -1.0572 -0.6572
 5346SOL    HW227672   2.968   2.235   0.609  2.8504  1.9689 -1.8775
 5347SOL     OW27673   3.425   3.870   8.975 -0.0088 -0.1971 -0.1718
 5347SOL    HW127674   3.332   3.850   8.960  0.7299 -2.5668 -1.4925
 5347SOL    HW227675   3.433   3.830   9.062 -2.1788 -1.5425 -0.5781
 5348SOL     OW27676   3.147   2.772   8.801 -0.1469 -0.5705  0.0559
 5348SOL    HW127677   3.069   2.807   8.758 -0.3746  0.7710  1.5737
 5348SOL    HW227678   3.195   2.727   8.731 -0.6394 -2.7401  1.0936
 5349SOL     OW27679   3.642   1.100  17.095 -0.0436 -0.6240 -0.1714
 5349SOL    HW127680   3.665   1.047  17.172  0.6001 -0.5938 -0.3396
 5349SOL    HW227681   3.688   1.059  17.021  0.4979 -2.2255  1.0493
 5350SOL     OW27682   0.508   2.786  16.471  0.2629 -0.1278  0.1241
 5350SOL    HW127683   0.551   2.700  16.467 -0.1151 -0.1685 -2.7583
 5350SOL    HW227684   0.424   2.760  16.435 -0.2521  1.3908  0.2263
 5351SOL     OW27685   3.273   2.280   2.584  0.5644  0.2165 -0.3839
 5351SOL    HW127686   3.225   2.361   2.568  1.3161  0.3760 -1.7473
 5351SOL    HW227687   3.200   2.218   2.593 -0.1123  1.1053  0.2419
 5352SOL     OW27688   3.463   1.574   8.134  0.8586 -0.0408  0.3541
 5352SOL    HW127689   3.497   1.658   8.102 -0.8058  0.4926 -0.0283
 5352SOL    HW227690   3.376   1.600   8.166  1.5229  1.7322  0.7395
 5353SOL     OW27691   4.669   2.632   0.806 -0.2785  0.0520 -0.6101
 5353SOL    HW127692   4.701   2.543   0.822  1.5580  0.8919  0.4488
 5353SOL    HW227693   4.625   2.626   0.722  2.9761  0.0589 -2.3160
 5354SOL     OW27694   1.591   3.170  14.982  0.3975 -0.1986  0.0620
 5354SOL    HW127695   1.632   3.112  14.918  0.1616 -0.3078  0.0071
 5354SOL    HW227696   1.501   3.169  14.947  0.5523 -0.4758 -0.3337
 5355SOL     OW27697   0.136   2.213  13.981 -0.0043 -0.3201  0.5083
 5355SOL    HW127698   0.175   2.134  13.946  1.9042  0.6499  0.4498
 5355SOL    HW227699   0.046   2.196  13.953  0.3453  3.8094 -3.2020
 5356SOL     OW27700   1.980   4.713   4.147  0.2980  0.1177  0.3730
 5356SOL    HW127701   1.885   4.711   4.162  0.3546 -0.8235  0.5731
 5356SOL    HW227702   1.998   4.697   4.240 -0.6326 -0.8111  0.3932
 5357SOL     OW27703   1.192   1.639   5.576 -0.0530  0.1081 -0.0603
 5357SOL    HW127704   1.151   1.660   5.660 -0.8656  1.0167 -0.6858
 5357SOL    HW227705   1.110   1.625   5.529  1.5872 -1.2647 -2.5024
 5358SOL     OW27706   3.709   3.101  17.354  0.9203  0.5221 -0.0958
 5358SOL    HW127707   3.754   3.041  17.294  1.0495  0.0870  0.4331
 5358SOL    HW227708   3.657   3.041  17.407  0.1849 -1.5533 -3.1176
 5359SOL     OW27709   3.720   4.678  16.708 -0.4208  0.2490 -0.0013
 5359SOL    HW127710   3.647   4.631  16.668 -0.8462 -0.0070  1.0846
 5359SOL    HW227711   3.757   4.614  16.769  1.4563  0.4785 -0.8797
 5360SOL     OW27712   3.709   2.893   4.979 -0.1269 -0.2055 -0.9723
 5360SOL    HW127713   3.629   2.937   4.950  0.1391  0.3239 -0.8920
 5360SOL    HW227714   3.760   2.973   4.991 -0.4288  0.0618 -1.4832
 5361SOL     OW27715   2.632   0.728   2.541 -0.5400 -0.5528  0.5867
 5361SOL    HW127716   2.560   0.727   2.603 -0.3655 -2.1920  0.7494
 5361SOL    HW227717   2.600   0.673   2.470  2.4451 -2.5079  0.7677
 5362SOL     OW27718   2.264   2.545   2.110 -0.1558 -0.0555  0.5065
 5362SOL    HW127719   2.209   2.619   2.085  0.0995 -0.4198 -1.1184
 5362SOL    HW227720   2.351   2.582   2.125  0.0738 -0.7453  0.8755
 5363SOL     OW27721   2.929   2.165   6.963  0.4420  0.8116  0.2549
 5363SOL    HW127722   2.849   2.162   7.014 -0.9757  1.2316 -1.9249
 5363SOL    HW227723   2.958   2.254   6.984 -0.9538  0.4326  3.7039
 5364SOL     OW27724   0.902   3.380   1.042  0.6450  0.0734  0.3233
 5364SOL    HW127725   0.930   3.409   1.129  0.9501 -0.8232  0.5308
 5364SOL    HW227726   0.969   3.314   1.023 -1.1555 -1.6056 -0.2134
 5365SOL     OW27727   4.184   1.802   2.228  0.1187 -0.1278 -0.4855
 5365SOL    HW127728   4.178   1.731   2.164  0.2544 -0.1227 -0.5024
 5365SOL    HW227729   4.243   1.863   2.185 -2.7653  0.8979 -2.9561
 5366SOL     OW27730   0.661   4.425   6.193 -0.2676 -0.3707  0.3363
 5366SOL    HW127731   0.593   4.365   6.222 -0.2882 -0.1340  0.7804
 5366SOL    HW227732   0.676   4.389   6.106 -0.8791 -2.1484  0.9670
 5367SOL     OW27733   0.877   2.578   8.452  0.0239 -0.4319 -1.1109
 5367SOL    HW127734   0.873   2.556   8.359  1.2686  0.2553 -1.3251
 5367SOL    HW227735   0.854   2.493   8.491  0.1782 -0.2800 -0.6884
 5368SOL     OW27736   0.479   0.520   3.981  0.6684 -0.0182  0.0029
 5368SOL    HW127737   0.453   0.529   3.889  1.8228 -0.7968 -0.4007
 5368SOL    HW227738   0.545   0.451   3.982  1.0577  0.3634  0.6956
 5369SOL     OW27739   3.356   3.560   5.032 -0.0760  0.2440  0.6950
 5369SOL    HW127740   3.400   3.643   5.012  0.5302  0.0593  1.2817
 5369SOL    HW227741   3.294   3.590   5.099 -0.9697  0.4489 -0.2143
 5370SOL     OW27742   4.394   0.784   3.770  0.2706  0.4618 -0.5567
 5370SOL    HW127743   4.448   0.778   3.692  0.3987 -1.9454 -0.2945
 5370SOL    HW227744   4.407   0.693   3.800  1.4866  0.8053 -0.0644
 5371SOL     OW27745   1.180   0.939   8.175  0.2347  0.0460 -0.0323
 5371SOL    HW127746   1.217   0.894   8.251 -0.5998 -2.9103 -1.3566
 5371SOL    HW227747   1.242   0.923   8.104  1.8323  1.6936  1.0052
 5372SOL     OW27748   2.041   0.904   6.849  0.3650  0.0377 -0.5139
 5372SOL    HW127749   2.007   0.990   6.874 -0.0289  0.2767 -1.8525
 5372SOL    HW227750   2.070   0.924   6.759  1.1400 -1.7277 -0.6608
 5373SOL     OW27751   2.635   2.448   0.647 -0.2890  0.1775  0.3750
 5373SOL    HW127752   2.705   2.500   0.687 -0.9140 -0.1195  1.8772
 5373SOL    HW227753   2.658   2.360   0.679 -2.0245 -0.2550  0.4575
 5374SOL     OW27754   3.767   2.236   0.929  0.7347  0.2524 -0.2726
 5374SOL    HW127755   3.858   2.230   0.958  0.5865  0.3075  0.1958
 5374SOL    HW227756   3.725   2.269   1.009 -0.4881 -1.5810 -0.1495
 5375SOL     OW27757   4.506   0.915  17.245  0.4736  0.4193  0.1801
 5375SOL    HW127758   4.573   0.849  17.227 -2.3126 -1.7042 -2.4213
 5375SOL    HW227759   4.524   0.980  17.176  2.9993  0.8973  1.2657
 5376SOL     OW27760   1.305   4.050   4.786 -0.0135 -0.1060 -0.5957
 5376SOL    HW127761   1.364   4.044   4.712 -1.2137 -2.9493 -1.3305
 5376SOL    HW227762   1.266   3.962   4.786 -1.2021  0.4100  0.7180
 5377SOL     OW27763   1.344   0.913   6.543  0.0111  0.1488  0.3162
 5377SOL    HW127764   1.339   1.008   6.538 -1.3542 -0.1039 -3.0855
 5377SOL    HW227765   1.316   0.909   6.635 -2.0198 -0.6793 -0.3220
 5378SOL     OW27766   0.461   1.375   2.482  0.4754  0.0188  0.2060
 5378SOL    HW127767   0.418   1.302   2.438  1.9652  1.0016 -2.8746
 5378SOL    HW227768   0.395   1.443   2.473 -1.5330 -1.9909 -0.2828
 5379SOL     OW27769   4.029   2.040   5.072  0.0886  0.3103  0.3265
 5379SOL    HW127770   4.078   1.963   5.046  0.3503  0.6907 -0.3092
 5379SOL    HW227771   3.943   2.004   5.050 -1.2068  2.6960  1.5412
 5380SOL     OW27772   4.722   1.847  13.875 -0.1249 -0.7768  0.1427
 5380SOL    HW127773   0.076   1.881  13.867 -1.2211  1.7909 -1.2627
 5380SOL    HW227774   4.673   1.922  13.909  2.4366  0.9373  0.0917
 5381SOL     OW27775   2.155   0.070   3.679 -0.4286 -0.2533 -0.2782
 5381SOL    HW127776   2.099   0.091   3.604 -0.2376  0.9267 -0.0749
 5381SOL    HW227777   2.245   0.081   3.648  0.1618  1.7462  2.1783
 5382SOL     OW27778   4.481   4.426   3.518 -0.7349  0.9028  0.1102
 5382SOL    HW127779   4.406   4.483   3.533 -1.2665 -0.3577  2.1881
 5382SOL    HW227780   4.552   4.490   3.511  1.5151 -1.4507  1.4614
 5383SOL     OW27781   2.313   2.894  11.255  0.1145  0.0118  0.4568
 5383SOL    HW127782   2.232   2.931  11.220 -0.0954  0.0331  0.9670
 5383SOL    HW227783   2.315   2.913  11.348 -1.6420  1.3190  0.2396
 5384SOL     OW27784   0.698   3.121  15.733 -0.1312 -0.5573 -0.3626
 5384SOL    HW127785   0.628   3.141  15.672  0.2178  0.3161 -0.4625
 5384SOL    HW227786   0.733   3.046  15.684 -2.3442 -1.3421 -0.7627
 5385SOL     OW27787   0.614   1.906   9.204 -0.5943 -0.0766 -0.2821
 5385SOL    HW127788   0.596   1.954   9.123  1.9289 -0.0970 -0.8296
 5385SOL    HW227789   0.641   1.983   9.253  3.2867 -1.4053 -0.3528
 5386SOL     OW27790   3.251   1.653  12.509 -0.8027 -0.2260 -0.5128
 5386SOL    HW127791   3.264   1.726  12.570 -0.4348 -2.1203  1.6491
 5386SOL    HW227792   3.158   1.632  12.517 -1.2709  2.2954  0.8462
 5387SOL     OW27793   2.733   3.755   7.886  0.3012  0.2615  0.4206
 5387SOL    HW127794   2.694   3.841   7.896  0.5176  0.7624 -3.2942
 5387SOL    HW227795   2.797   3.760   7.957  0.3568 -1.3191  0.4972
 5388SOL     OW27796   4.198   2.158   1.398  0.2290 -0.1621 -0.1637
 5388SOL    HW127797   4.154   2.102   1.462 -0.3276 -0.6930 -1.0112
 5388SOL    HW227798   4.278   2.108   1.386 -0.3990 -1.1291 -0.2776
 5389SOL     OW27799   3.541   2.664   7.865  0.0984  0.6570 -0.1797
 5389SOL    HW127800   3.626   2.702   7.845  0.4986 -0.3553 -0.4050
 5389SOL    HW227801   3.521   2.603   7.794 -1.6013 -0.1874  1.0041
 5390SOL     OW27802   3.928   1.784  14.242  0.6156  0.3292  0.1585
 5390SOL    HW127803   3.966   1.871  14.234  1.9651 -0.7049 -4.1128
 5390SOL    HW227804   3.973   1.742  14.315  1.7731  0.5721 -0.4173
 5391SOL     OW27805   2.135   0.076  11.527 -0.4268  0.5253  0.5095
 5391SOL    HW127806   2.058   0.063  11.472  0.4856  0.2476 -0.7095
 5391SOL    HW227807   2.085   0.115  11.598 -0.9812  1.9908 -0.6916
 5392SOL     OW27808   0.726   3.704   8.217 -0.1836 -0.1414 -0.0195
 5392SOL    HW127809   0.817   3.728   8.235 -0.7532  1.5459  0.5823
 5392SOL    HW227810   0.694   3.693   8.306  0.8910 -1.3369  0.2161
 5393SOL     OW27811   2.477   1.371   0.198  0.4248 -0.2018 -0.6259
 5393SOL    HW127812   2.522   1.421   0.267  0.3674  0.7681 -1.2954
 5393SOL    HW227813   2.545   1.310   0.170  1.9825  0.5624  1.4530
 5394SOL     OW27814   0.549   3.341   9.109  0.3525 -0.3228  0.1635
 5394SOL    HW127815   0.540   3.370   9.018 -2.1018  0.2955  0.6121
 5394SOL    HW227816   0.574   3.424   9.149  2.7043 -1.6918  1.5873
 5395SOL     OW27817   1.408   1.291  16.071  0.2060 -0.3949  0.3723
 5395SOL    HW127818   1.341   1.227  16.047  0.2489 -0.3074  0.0289
 5395SOL    HW227819   1.435   1.326  15.987 -0.0815 -2.5496 -0.6238
 5396SOL     OW27820   2.691   3.330   5.598  0.6514  0.0673 -0.1288
 5396SOL    HW127821   2.598   3.350   5.606  0.1988 -1.4289 -1.7518
 5396SOL    HW227822   2.684   3.251   5.545  2.6336 -0.2212  0.0514
 5397SOL     OW27823   1.325   0.634   7.189 -0.3304 -0.2643  0.7796
 5397SOL    HW127824   1.327   0.595   7.277 -0.8929  2.4031  1.9590
 5397SOL    HW227825   1.392   0.702   7.189  1.6001 -2.1640  0.8176
 5398SOL     OW27826   1.117   4.524  13.972 -0.4678  0.7560 -0.4584
 5398SOL    HW127827   1.177   4.452  13.954 -2.3280 -0.4121 -1.8876
 5398SOL    HW227828   1.035   4.483  13.945 -0.5644 -0.6360  1.9231
 5399SOL     OW27829   3.612   4.303   9.107 -0.1076 -0.2540 -0.1226
 5399SOL    HW127830   3.695   4.280   9.067 -0.1486 -0.5937 -0.0148
 5399SOL    HW227831   3.566   4.321   9.026 -1.8334 -3.2174  0.1869
 5400SOL     OW27832   0.496   2.636   9.125 -0.2812  0.3812 -0.0376
 5400SOL    HW127833   0.413   2.638   9.174  0.3065  1.3454  0.9200
 5400SOL    HW227834   0.524   2.727   9.137  0.0474  0.5647 -2.2054
 5401SOL     OW27835   4.511   2.879  16.643  0.3468  0.1189 -0.9426
 5401SOL    HW127836   4.500   2.837  16.557 -0.9836 -0.6252 -0.4035
 5401SOL    HW227837   4.556   2.809  16.690  1.2833 -0.3127 -2.4899
 5402SOL     OW27838   0.329   4.578   7.824  0.2253 -0.0435  0.2392
 5402SOL    HW127839   0.361   4.497   7.865 -0.9438 -0.8084 -0.3557
 5402SOL    HW227840   0.337   4.555   7.732 -0.2580 -0.3047  0.2621
 5403SOL     OW27841   0.032   1.311  14.841  0.1007  0.1509  0.3852
 5403SOL    HW127842   4.691   1.367  14.828 -0.8725 -0.7981  1.9837
 5403SOL    HW227843   0.018   1.234  14.785 -0.3021 -2.2470  3.7921
 5404SOL     OW27844   3.161   0.416  10.153  0.4920  0.0149  0.2294
 5404SOL    HW127845   3.142   0.327  10.182 -0.1562 -0.0677 -0.4229
 5404SOL    HW227846   3.145   0.471  10.229  0.5469  0.2645  0.0582
 5405SOL     OW27847   2.137   3.183   1.521 -0.5663 -0.1708 -0.3688
 5405SOL    HW127848   2.221   3.183   1.567 -0.9796 -0.5740  0.3791
 5405SOL    HW227849   2.143   3.258   1.462  0.3197 -0.4621 -0.6546
 5406SOL     OW27850   1.464   2.259   0.444 -0.9328 -0.2814  0.0064
 5406SOL    HW127851   1.450   2.339   0.393 -0.8079  0.6083  1.3629
 5406SOL    HW227852   1.530   2.217   0.389 -0.4928  0.7891 -0.2823
 5407SOL     OW27853   2.112   2.993   8.250 -0.1599  0.0301 -0.4891
 5407SOL    HW127854   2.182   3.042   8.293 -1.1105  0.3299  0.7256
 5407SOL    HW227855   2.161   2.913   8.233 -1.8423 -1.4594  1.5865
 5408SOL     OW27856   1.531   1.585  11.190  0.2042 -0.2060  0.5609
 5408SOL    HW127857   1.447   1.624  11.168  0.2991  0.0136  0.5916
 5408SOL    HW227858   1.529   1.587  11.286  1.4387 -0.4792  0.5873
 5409SOL     OW27859   4.219   1.366   5.268 -0.7085 -0.3698  0.1155
 5409SOL    HW127860   4.146   1.305   5.264 -0.0016 -1.1252 -1.0650
 5409SOL    HW227861   4.286   1.310   5.308 -0.6105 -1.2147 -1.2695
 5410SOL     OW27862   4.350   0.362   2.028 -0.2151  0.4808 -0.4998
 5410SOL    HW127863   4.277   0.303   2.044  0.7146 -0.3750  0.6295
 5410SOL    HW227864   4.305   0.433   2.074 -1.2834 -0.6673  0.2263
 5411SOL     OW27865   0.461   3.051   5.431  0.0582  0.1754  0.1824
 5411SOL    HW127866   0.368   3.059   5.409 -0.4663  0.2407  2.4170
 5411SOL    HW227867   0.491   3.076   5.344 -0.3712  2.4833  0.6778
 5412SOL     OW27868   0.106   0.935   4.109  0.1096 -0.5272  0.1098
 5412SOL    HW127869   0.076   1.026   4.109  0.5279 -0.3924  1.2998
 5412SOL    HW227870   0.192   0.942   4.068 -0.2921 -3.4437 -1.2547
 5413SOL     OW27871   0.680   2.639  13.772 -0.1623  1.0347 -0.5078
 5413SOL    HW127872   0.631   2.664  13.850  1.6014  0.8675  0.6651
 5413SOL    HW227873   0.619   2.650  13.699  0.1367  0.1598 -0.8876
 5414SOL     OW27874   2.895   0.655   1.116  0.3452  0.0396  0.2474
 5414SOL    HW127875   2.835   0.593   1.158  0.4818  0.2287  0.7254
 5414SOL    HW227876   2.847   0.671   1.035  1.7125 -0.6827 -0.6893
 5415SOL     OW27877   0.312   2.267   6.258  0.1671 -0.2697 -0.4270
 5415SOL    HW127878   0.249   2.197   6.271 -1.1065  0.1530 -4.3983
 5415SOL    HW227879   0.327   2.252   6.165 -1.1176  0.4391 -0.7347
 5416SOL     OW27880   3.876   4.404   4.429 -0.1064 -0.0930  0.1261
 5416SOL    HW127881   3.844   4.442   4.511 -0.0077 -0.9773  0.5803
 5416SOL    HW227882   3.887   4.477   4.368  0.4993 -0.6059 -0.3804
 5417SOL     OW27883   4.260   0.641  17.340 -0.0251 -0.1599  0.0986
 5417SOL    HW127884   4.207   0.561  17.334 -2.0563  1.1400  0.7435
 5417SOL    HW227885   4.308   0.615  17.261 -0.6801 -0.0889 -0.3269
 5418SOL     OW27886   4.321   2.790  11.606 -0.1406  0.7500 -0.0707
 5418SOL    HW127887   4.266   2.868  11.612  1.7850  1.9352  1.9910
 5418SOL    HW227888   4.344   2.802  11.514  1.6874  1.1895  0.4476
 5419SOL     OW27889   3.341   3.258   5.026 -0.5049 -0.6916 -0.0932
 5419SOL    HW127890   3.270   3.257   4.962  1.4764  1.1959 -2.3209
 5419SOL    HW227891   3.337   3.348   5.058  1.2110 -1.5227  2.5528
 5420SOL     OW27892   1.408   0.363   5.501  0.6212  0.3615 -0.1988
 5420SOL    HW127893   1.371   0.420   5.434  1.5651  0.4336 -0.6442
 5420SOL    HW227894   1.379   0.282   5.458 -1.0647  1.5474 -1.2560
 5421SOL     OW27895   4.400   0.935  12.945 -0.3737 -0.0193 -0.8838
 5421SOL    HW127896   4.450   0.940  13.027 -2.1018  3.5857 -0.0508
 5421SOL    HW227897   4.315   0.963  12.979 -1.2369 -1.2576 -2.0491
 5422SOL     OW27898   3.743   2.424   3.236  0.4228 -0.0002 -0.1544
 5422SOL    HW127899   3.673   2.385   3.289 -1.3290  1.7225 -1.1947
 5422SOL    HW227900   3.774   2.498   3.288  1.4842 -1.2885  1.0402
 5423SOL     OW27901   1.283   4.287  13.915 -0.4423 -0.2297  0.1928
 5423SOL    HW127902   1.291   4.278  13.820 -1.2491  0.8789  0.0238
 5423SOL    HW227903   1.371   4.261  13.940  0.1423  0.7017 -0.9308
 5424SOL     OW27904   3.678   3.320  17.526  0.1866  0.7588 -0.1497
 5424SOL    HW127905   3.759   3.278  17.556  0.1027 -0.7089 -1.9613
 5424SOL    HW227906   3.671   3.265  17.448  0.3902 -0.6384  0.8119
 5425SOL     OW27907   2.899   2.730   8.163 -0.1071 -0.4396 -0.6105
 5425SOL    HW127908   2.980   2.679   8.152  0.4829  0.0411  1.5765
 5425SOL    HW227909   2.926   2.773   8.244 -2.3620 -0.5053  0.1549
 5426SOL     OW27910   1.345   3.532  16.578  0.2082 -0.0106  0.1061
 5426SOL    HW127911   1.310   3.576  16.500 -1.9122 -1.1676  0.4067
 5426SOL    HW227912   1.293   3.452  16.588  2.9155 -1.2825  3.9900
 5427SOL     OW27913   2.431   4.129   2.730  0.5507 -0.2695 -0.0462
 5427SOL    HW127914   2.406   4.143   2.822 -1.3979 -4.0757 -0.0034
 5427SOL    HW227915   2.456   4.219   2.711 -3.1276  0.6354 -0.5255
 5428SOL     OW27916   4.147   4.111   2.409 -0.8443  0.4730 -0.2683
 5428SOL    HW127917   4.108   4.175   2.350  1.0166  1.0338 -0.8971
 5428SOL    HW227918   4.222   4.163   2.437  0.4320 -1.3298 -0.3191
 5429SOL     OW27919   1.019   3.530   4.321 -0.2156 -0.0843 -0.7963
 5429SOL    HW127920   1.082   3.527   4.393  0.2179 -0.6181 -1.1993
 5429SOL    HW227921   0.938   3.513   4.369  0.9877 -0.5023  1.1030
 5430SOL     OW27922   3.974   3.787   4.822  0.2583  0.4005 -0.2329
 5430SOL    HW127923   3.967   3.879   4.794  0.8129  0.7590  0.7929
 5430SOL    HW227924   3.972   3.802   4.916  1.9637  2.9459 -0.5957
 5431SOL     OW27925   1.629   1.566  11.513  0.2468  0.1090  0.7688
 5431SOL    HW127926   1.597   1.641  11.563 -1.2026  1.6760 -2.5412
 5431SOL    HW227927   1.560   1.503  11.535 -1.4016  1.7698  0.3860
 5432SOL     OW27928   0.547   3.169   3.569 -0.9450 -1.0412 -0.1603
 5432SOL    HW127929   0.542   3.166   3.665  0.1759  0.8152 -0.0613
 5432SOL    HW227930   0.530   3.261   3.550 -1.8485 -1.2528 -0.3820
 5433SOL     OW27931   2.597   4.537  15.648  0.1710 -0.0181  0.4382
 5433SOL    HW127932   2.646   4.606  15.693  0.9348 -0.9082  0.9799
 5433SOL    HW227933   2.606   4.584  15.565 -1.5611  0.7820  0.6936
 5434SOL     OW27934   0.110   1.655   3.819  0.2323 -0.6826 -0.4652
 5434SOL    HW127935   0.031   1.708   3.823  0.2718 -0.6742  0.1515
 5434SOL    HW227936   0.104   1.640   3.724 -1.2044  4.2140 -1.1381
 5435SOL     OW27937   0.604   3.106   8.463  0.3156  0.4003 -0.6080
 5435SOL    HW127938   0.692   3.123   8.498 -0.5580  1.2056  1.1935
 5435SOL    HW227939   0.613   3.135   8.372 -1.1955 -2.3055 -1.5862
 5436SOL     OW27940   0.741   0.112   3.805 -0.3116 -0.0730  0.3092
 5436SOL    HW127941   0.663   0.061   3.825 -1.2171  0.6793 -1.3433
 5436SOL    HW227942   0.720   0.192   3.854  1.4365  1.1785 -0.9528
 5437SOL     OW27943   4.062   4.659  15.978 -0.1718  0.2959  0.5148
 5437SOL    HW127944   4.045   4.611  15.896 -1.7629 -0.9280  1.5646
 5437SOL    HW227945   3.990   4.628  16.032 -0.9780  1.4917  0.1277
 5438SOL     OW27946   3.382   0.524   6.678 -0.8176  0.4512  0.0457
 5438SOL    HW127947   3.471   0.537   6.710 -1.8675  0.8924  2.8401
 5438SOL    HW227948   3.333   0.545   6.758  1.1441 -0.8491  1.5654
 5439SOL     OW27949   0.890   0.240   5.172 -0.0145  0.3258 -0.4473
 5439SOL    HW127950   0.968   0.192   5.143 -2.0523 -2.1903 -1.8115
 5439SOL    HW227951   0.830   0.209   5.104  1.7495 -1.7223 -1.0754
 5440SOL     OW27952   0.801   1.854  17.413 -0.7073 -0.2314  0.0062
 5440SOL    HW127953   0.719   1.830  17.457  1.2354  0.1042  3.7919
 5440SOL    HW227954   0.827   1.936  17.454  1.5776 -1.6156  1.3528
 5441SOL     OW27955   3.310   2.501   5.031  0.5146  0.0826 -0.2437
 5441SOL    HW127956   3.219   2.527   5.012 -0.0961 -0.8418  1.3761
 5441SOL    HW227957   3.341   2.566   5.093  0.3458  0.1023 -0.1777
 5442SOL     OW27958   2.804   4.273   9.195 -0.0316 -0.0347 -0.0026
 5442SOL    HW127959   2.870   4.343   9.197  1.0758 -1.0378 -1.2506
 5442SOL    HW227960   2.790   4.272   9.290  1.6443 -3.1297  0.2236
 5443SOL     OW27961   3.560   1.305   2.021  0.0573  0.6428 -0.1443
 5443SOL    HW127962   3.636   1.288   1.965 -1.5985 -4.1904 -0.9697
 5443SOL    HW227963   3.574   1.234   2.084 -1.9421  0.7312  0.4168
 5444SOL     OW27964   3.326   0.523   6.237  0.2810 -0.1806  0.0937
 5444SOL    HW127965   3.254   0.566   6.192 -0.9094  1.3807  3.4693
 5444SOL    HW227966   3.278   0.510   6.319 -1.8558  1.0800 -0.9604
 5445SOL     OW27967   4.023   1.545   5.407 -0.0301 -0.2411 -0.3281
 5445SOL    HW127968   4.000   1.469   5.461 -1.3485 -0.4240 -1.1528
 5445SOL    HW227969   4.092   1.505   5.353  0.6150 -1.5119  1.4195
 5446SOL     OW27970   0.891   1.410   5.676  0.2576 -0.1181 -0.6369
 5446SOL    HW127971   0.931   1.350   5.739  0.2493  1.9936  1.3753
 5446SOL    HW227972   0.857   1.351   5.609 -0.3626 -0.3481 -0.1167
 5447SOL     OW27973   1.262   3.813   5.768  0.4274  1.2228  0.2101
 5447SOL    HW127974   1.222   3.763   5.697 -2.6403  0.6020  2.3319
 5447SOL    HW227975   1.352   3.781   5.768  0.2552  0.7382 -0.5479
 5448SOL     OW27976   4.589   2.244   8.368  0.2780 -0.2792 -0.6424
 5448SOL    HW127977   4.656   2.178   8.352 -0.2990 -0.9139 -0.4362
 5448SOL    HW227978   4.640   2.307   8.419  0.1968 -0.2780 -0.5610
 5449SOL     OW27979   1.660   1.403   2.173  0.1593  0.0145 -0.1069
 5449SOL    HW127980   1.592   1.464   2.146 -0.7267 -0.9019  0.0638
 5449SOL    HW227981   1.686   1.447   2.254 -1.6175 -0.0770  0.5050
 5450SOL     OW27982   1.968   2.599   5.250 -0.3557  0.3056 -0.4490
 5450SOL    HW127983   2.052   2.577   5.291 -1.4592 -1.4798  0.8679
 5450SOL    HW227984   1.925   2.618   5.333 -0.1730 -2.6348  0.3272
 5451SOL     OW27985   1.323   0.701  13.378  0.2556  0.0183 -0.5178
 5451SOL    HW127986   1.311   0.779  13.433  1.2777  0.3454 -0.7474
 5451SOL    HW227987   1.418   0.698  13.369  0.0884 -2.1156 -1.4753
 5452SOL     OW27988   0.456   2.457   4.076  0.1434 -0.6275 -0.4572
 5452SOL    HW127989   0.453   2.365   4.048  0.2254 -0.7773  0.0102
 5452SOL    HW227990   0.384   2.493   4.025 -0.3060 -1.7225 -0.5909
 5453SOL     OW27991   1.130   1.038   3.861 -0.4385  0.2166 -0.4838
 5453SOL    HW127992   1.035   1.037   3.874 -0.2901 -3.5556  0.3825
 5453SOL    HW227993   1.135   0.977   3.788 -1.4447 -2.1537  1.4286
 5454SOL     OW27994   3.296   3.081   8.029  0.1674  0.2284  0.1925
 5454SOL    HW127995   3.255   3.137   7.963  1.2434  0.6852 -0.0761
 5454SOL    HW227996   3.223   3.019   8.039  0.5583 -0.2381  0.1396
 5455SOL     OW27997   4.547   0.891  10.621  0.3148 -0.1089  0.1933
 5455SOL    HW127998   4.455   0.865  10.612  0.3509 -0.4322  0.8129
 5455SOL    HW227999   4.541   0.876  10.715 -0.6255  1.0235  0.3145
 5456SOL     OW28000   3.357   0.194   2.375 -0.5337 -0.0062  0.1466
 5456SOL    HW128001   3.355   0.282   2.336 -0.0443 -0.1265 -0.1598
 5456SOL    HW228002   3.401   0.220   2.456  0.6780 -1.2912 -0.0895
 5457SOL     OW28003   4.225   2.977   3.281  0.2161  0.0347  0.3227
 5457SOL    HW128004   4.315   3.010   3.291  0.5914 -1.8003  2.9990
 5457SOL    HW228005   4.213   2.959   3.188 -0.3198  0.4453  0.3110
 5458SOL     OW28006   1.637   0.502   0.723 -0.1335  0.4940 -0.2164
 5458SOL    HW128007   1.594   0.571   0.774 -0.2176 -0.8139  1.5060
 5458SOL    HW228008   1.726   0.536   0.730  0.2298 -0.5821  0.5038
 5459SOL     OW28009   4.702   1.658   5.306 -0.3442  0.2551  0.2430
 5459SOL    HW128010   4.626   1.713   5.287 -2.4938 -2.2831  1.4884
 5459SOL    HW228011   4.702   1.609   5.223  1.2192  0.0961  0.3337
 5460SOL     OW28012   0.584   3.500   9.610  0.9821  0.1959  0.6295
 5460SOL    HW128013   0.548   3.587   9.626  2.7145  0.8441  0.9178
 5460SOL    HW228014   0.500   3.458   9.592  0.2709  2.3741 -1.1290
 5461SOL     OW28015   0.085   3.784  16.653 -0.2500  0.1081 -0.4535
 5461SOL    HW128016   0.160   3.818  16.700  0.9410 -1.9331 -0.8497
 5461SOL    HW228017   0.103   3.807  16.562  1.7696  0.6475  0.0958
 5462SOL     OW28018   3.281   3.664   2.976 -0.2063  0.3131  0.1909
 5462SOL    HW128019   3.236   3.687   3.057  0.1201  0.6567  0.2753
 5462SOL    HW228020   3.367   3.699   3.001 -0.1018  0.9825 -1.1084
 5463SOL     OW28021   3.618   0.924   1.954 -0.0706 -0.1589 -0.2396
 5463SOL    HW128022   3.623   0.856   1.886 -0.6330 -0.4794  0.0411
 5463SOL    HW228023   3.524   0.933   1.972  0.0206  0.0310  0.1339
 5464SOL     OW28024   0.338   0.862   1.569 -0.3495  0.0940  0.1010
 5464SOL    HW128025   0.418   0.898   1.530 -1.6406  0.3630 -2.2759
 5464SOL    HW228026   0.318   0.941   1.619  0.2881 -0.9201  1.9809
 5465SOL     OW28027   2.543   0.584   6.778 -0.1262  0.0281 -0.2550
 5465SOL    HW128028   2.606   0.514   6.760 -0.2510 -0.0768 -0.2829
 5465SOL    HW228029   2.500   0.544   6.854  1.4229 -1.1406 -0.0012
 5466SOL     OW28030   2.517   2.354   5.917  0.5869 -0.3410  0.0015
 5466SOL    HW128031   2.428   2.323   5.930  0.1450  0.3002 -1.4375
 5466SOL    HW228032   2.536   2.328   5.826  0.4765 -1.6594  0.3526
 5467SOL     OW28033   3.005   3.686   7.643 -0.7058 -0.5090 -0.5902
 5467SOL    HW128034   3.062   3.741   7.697  0.0563 -1.0827 -0.8101
 5467SOL    HW228035   3.024   3.715   7.554 -1.0219  0.7927 -0.2458
 5468SOL     OW28036   0.942   1.900   4.906  0.3248  0.3520  0.0262
 5468SOL    HW128037   0.851   1.869   4.904  0.5415 -0.2180 -1.2529
 5468SOL    HW228038   0.984   1.849   4.836 -0.3381  0.7811 -0.6885
 5469SOL     OW28039   0.990   3.563   5.781  0.3474 -0.4011 -0.1893
 5469SOL    HW128040   0.943   3.486   5.749 -0.2125  0.5163 -1.5751
 5469SOL    HW228041   0.997   3.622   5.706  0.9819  0.8280  0.8424
 5470SOL     OW28042   4.668   4.412  15.712  0.4640  0.7140 -0.2088
 5470SOL    HW128043   4.588   4.465  15.712  0.6175  0.9462  0.2072
 5470SOL    HW228044   4.645   4.320  15.699 -0.7778  1.1597 -1.1802
 5471SOL     OW28045   3.006   0.216  12.153  0.3712 -0.2321  0.3397
 5471SOL    HW128046   2.952   0.249  12.081 -0.2235 -0.6028  0.6095
 5471SOL    HW228047   3.090   0.259  12.137  0.4298 -0.9963 -1.3838
 5472SOL     OW28048   1.726   1.164   9.521 -0.4955  0.3800  0.3568
 5472SOL    HW128049   1.659   1.144   9.455  0.5034 -0.6925 -0.3343
 5472SOL    HW228050   1.744   1.079   9.561  2.6577  1.7331  1.7385
 5473SOL     OW28051   2.375   2.438   2.666 -0.2622 -0.0387 -0.6492
 5473SOL    HW128052   2.324   2.461   2.744 -1.1393 -1.2420 -0.8715
 5473SOL    HW228053   2.326   2.493   2.605  1.6455 -0.2405 -2.3590
 5474SOL     OW28054   0.575   3.531   5.548 -0.1578 -0.0237  0.5395
 5474SOL    HW128055   0.559   3.498   5.459  1.6843  2.0860 -0.5900
 5474SOL    HW228056   0.535   3.463   5.601 -1.3187 -1.3336 -2.0331
 5475SOL     OW28057   0.752   2.215   3.242 -0.1484 -0.1772 -0.0923
 5475SOL    HW128058   0.791   2.207   3.329  0.9570 -1.9602 -0.7478
 5475SOL    HW228059   0.714   2.128   3.227 -1.8117  0.6328 -0.5921
 5476SOL     OW28060   2.042   1.829  16.959 -0.3308  0.3751  0.2205
 5476SOL    HW128061   2.000   1.871  17.035  1.4086  0.9906  0.8316
 5476SOL    HW228062   2.059   1.910  16.912 -0.4209  0.1772 -0.1517
 5477SOL     OW28063   0.691   0.486   5.000 -0.4983  0.1394 -0.4051
 5477SOL    HW128064   0.606   0.502   4.961  0.2845  0.1391 -2.0841
 5477SOL    HW228065   0.745   0.530   4.935 -0.7910  2.6532  1.0478
 5478SOL     OW28066   4.536   1.793   0.716  0.2527 -0.1965 -0.3146
 5478SOL    HW128067   4.500   1.798   0.805  2.5945  0.4464  0.5835
 5478SOL    HW228068   4.587   1.873   0.709  0.2599 -0.2628 -1.0509
 5479SOL     OW28069   2.728   1.943   6.932  0.0951 -0.4797 -0.0788
 5479SOL    HW128070   2.703   2.021   6.981  1.3035 -0.3594  0.3522
 5479SOL    HW228071   2.722   1.868   6.992 -0.3716  0.0284  0.5009
 5480SOL     OW28072   4.379   2.896  13.317  0.2656 -0.1160 -0.3681
 5480SOL    HW128073   4.426   2.888  13.400  0.9075  0.4016 -0.6733
 5480SOL    HW228074   4.422   2.829  13.265 -1.0372 -1.6718  0.5863
 5481SOL     OW28075   0.454   4.162   5.958  0.0083 -0.2989 -0.1762
 5481SOL    HW128076   0.440   4.186   5.866  0.2170  2.7068  0.5919
 5481SOL    HW228077   0.550   4.164   5.956  0.0047  0.5168  1.4743
 5482SOL     OW28078   1.276   0.816   8.384 -0.3538 -0.6435  0.4377
 5482SOL    HW128079   1.325   0.734   8.384  3.3420  1.5365 -1.1713
 5482SOL    HW228080   1.252   0.826   8.476  2.9212 -0.2589  1.2497
 5483SOL     OW28081   1.809   1.716   6.304  0.3241 -0.1475  0.3370
 5483SOL    HW128082   1.743   1.750   6.244  0.3797  0.5127  0.6449
 5483SOL    HW228083   1.866   1.792   6.315  1.6162 -1.5136  3.0850
 5484SOL     OW28084   3.196   3.904   0.471  0.4229  0.1741 -0.5076
 5484SOL    HW128085   3.123   3.852   0.436 -1.7974  1.5792  2.0581
 5484SOL    HW228086   3.237   3.836   0.525  0.9056  0.9717  0.1198
 5485SOL     OW28087   1.985   4.647   1.228 -0.4330  0.3272 -0.3217
 5485SOL    HW128088   1.991   4.706   1.303 -0.4234 -0.0529 -0.0237
 5485SOL    HW228089   1.894   4.653   1.201 -0.1995  0.7540 -1.0198
 5486SOL     OW28090   1.581   2.526  10.004 -0.5372 -0.2825 -0.0038
 5486SOL    HW128091   1.506   2.494   9.954 -0.4505  0.8485 -0.8428
 5486SOL    HW228092   1.647   2.473   9.959 -0.9337 -1.6890  1.0709
 5487SOL     OW28093   3.845   2.629   4.873  0.3701  0.1423  0.2553
 5487SOL    HW128094   3.760   2.592   4.851  1.3567 -2.0080  0.0261
 5487SOL    HW228095   3.807   2.684   4.942 -1.6027 -1.1859  0.2210
 5488SOL     OW28096   1.958   1.276   9.420 -0.1263  0.3411 -0.5680
 5488SOL    HW128097   1.958   1.367   9.450 -1.3830  0.7853 -1.9457
 5488SOL    HW228098   1.881   1.234   9.460 -0.7454  2.1059  0.0803
 5489SOL     OW28099   1.957   1.205   4.225  0.1031 -0.5372  0.4863
 5489SOL    HW128100   1.914   1.128   4.262  1.4586 -0.9379  1.1860
 5489SOL    HW228101   1.941   1.270   4.294  1.4042 -1.4468  1.6448
 5490SOL     OW28102   4.272   0.293   6.700  0.0315 -0.1340 -0.3098
 5490SOL    HW128103   4.332   0.318   6.770  1.6042  0.2803 -1.8075
 5490SOL    HW228104   4.223   0.222   6.741  0.3523 -0.4790 -0.5228
 5491SOL     OW28105   4.682   0.090   6.138  0.3220  0.2324  0.0507
 5491SOL    HW128106   4.617   0.089   6.209  0.4320  3.3397  0.2075
 5491SOL    HW228107   0.032   0.093   6.180  0.1721  0.1691  0.3661
 5492SOL     OW28108   4.158   2.855   3.032 -0.0223 -0.6288  0.4168
 5492SOL    HW128109   4.085   2.903   2.993 -1.5029 -1.6838  1.8733
 5492SOL    HW228110   4.153   2.777   2.976  2.6569 -0.4236 -0.1052
 5493SOL     OW28111   1.340   0.609   2.739  0.0996 -0.5392 -0.1872
 5493SOL    HW128112   1.374   0.698   2.739 -0.0695 -0.4741  2.1909
 5493SOL    HW228113   1.418   0.555   2.752  0.5624 -0.4261 -2.4304
 5494SOL     OW28114   0.846   2.096   5.474 -0.0071  0.0030  0.0269
 5494SOL    HW128115   0.850   2.178   5.525 -0.1241  0.0316 -0.0098
 5494SOL    HW228116   0.930   2.096   5.429 -0.0222  0.8902 -0.0052
 5495SOL     OW28117   0.350   0.519  16.353  0.2021 -0.0221 -0.1895
 5495SOL    HW128118   0.284   0.452  16.374 -0.3335  0.3511 -0.6786
 5495SOL    HW228119   0.295   0.594  16.329 -2.1948 -0.9416  2.3447
 5496SOL     OW28120   4.031   4.137   6.086 -0.1034  0.2175 -0.1276
 5496SOL    HW128121   4.084   4.137   6.007  1.6657 -3.6108  1.0636
 5496SOL    HW228122   4.078   4.186   6.153 -0.2019 -0.3115  0.3342
 5497SOL     OW28123   1.018   2.409  12.490 -0.2653 -0.0705 -0.0992
 5497SOL    HW128124   1.102   2.450  12.471  0.1016 -0.9814 -0.4254
 5497SOL    HW228125   1.019   2.365  12.404  1.7355  1.5274 -0.8800
 5498SOL     OW28126   3.745   0.675  10.106 -0.1171 -0.3832  0.6858
 5498SOL    HW128127   3.672   0.660  10.166  0.6658 -2.1396  1.1974
 5498SOL    HW228128   3.726   0.760  10.066 -2.6464 -1.0704  0.4446
 5499SOL     OW28129   1.255   2.980  13.806 -0.6543 -0.8768  0.3915
 5499SOL    HW128130   1.255   2.893  13.765 -1.3530 -1.0810  0.8284
 5499SOL    HW228131   1.160   2.992  13.811 -0.5438 -0.2543  0.9045
 5500SOL     OW28132   2.968   1.310   3.072 -0.0908  0.8302  0.0208
 5500SOL    HW128133   2.881   1.272   3.057  0.7623 -0.0539 -2.6659
 5500SOL    HW228134   2.945   1.385   3.127  1.0466  0.4232  1.0417
 5501SOL     OW28135   2.419   0.276  12.131  0.1715  0.0641  0.1896
 5501SOL    HW128136   2.324   0.274  12.120  0.3634  0.2166 -1.3812
 5501SOL    HW228137   2.434   0.199  12.187 -1.5151  1.6896  2.8655
 5502SOL     OW28138   4.139   4.044  11.498 -0.2204  0.7966 -0.0721
 5502SOL    HW128139   4.085   4.035  11.420 -0.1793  1.3994 -0.1646
 5502SOL    HW228140   4.073   4.071  11.561 -0.0337  1.0978 -0.0088
 5503SOL     OW28141   0.807   1.765   1.514 -0.2493 -0.2913 -0.5857
 5503SOL    HW128142   0.764   1.761   1.600  0.1817 -0.7477 -0.3954
 5503SOL    HW228143   0.899   1.753   1.536 -0.0051  0.1994 -1.3288
 5504SOL     OW28144   3.378   1.738   8.535  0.4822  0.4593  0.1419
 5504SOL    HW128145   3.387   1.729   8.629  0.8332  1.2173  0.1807
 5504SOL    HW228146   3.448   1.799   8.508  0.3998 -0.1984 -1.5951
 5505SOL     OW28147   4.039   4.587   4.672  0.3050 -0.2461 -0.0688
 5505SOL    HW128148   3.958   4.625   4.638 -0.4805 -0.5756  1.4352
 5505SOL    HW228149   4.086   4.555   4.595 -1.0608 -1.3808 -0.4081
 5506SOL     OW28150   3.146   3.652   3.697 -0.3411 -0.0392  0.7110
 5506SOL    HW128151   3.090   3.611   3.631 -1.5322  3.6189 -0.5586
 5506SOL    HW228152   3.073   3.696   3.742 -0.4131  1.3658 -0.7939
 5507SOL     OW28153   4.304   3.883   8.013 -0.5417  0.7651 -0.5461
 5507SOL    HW128154   4.294   3.919   7.925  2.6503  0.7968 -0.9202
 5507SOL    HW228155   4.261   3.798   8.001 -0.4858  0.8520 -1.3700
 5508SOL     OW28156   1.279   0.201   7.120 -0.3660 -0.4301 -0.3051
 5508SOL    HW128157   1.235   0.274   7.163 -2.0955 -0.5004 -1.9553
 5508SOL    HW228158   1.355   0.187   7.176  0.2391  0.0391 -1.0243
 5509SOL     OW28159   2.475   3.411  16.914 -0.3659 -0.5468 -0.1403
 5509SOL    HW128160   2.422   3.390  16.837 -0.6646 -1.3588  0.2870
 5509SOL    HW228161   2.554   3.362  16.893 -0.8157 -0.3493 -2.3282
 5510SOL     OW28162   0.945   3.709   4.649  0.3377 -0.3238 -0.1826
 5510SOL    HW128163   0.901   3.625   4.633 -0.4301 -0.5052  2.8154
 5510SOL    HW228164   0.877   3.771   4.624 -0.5126 -1.3508 -0.4436
 5511SOL     OW28165   3.908   4.145   8.070 -0.3025  0.2164  0.0641
 5511SOL    HW128166   3.854   4.192   8.133 -1.9213  0.3916 -1.4536
 5511SOL    HW228167   3.865   4.165   7.987 -0.6014 -3.2172 -0.6199
 5512SOL     OW28168   4.662   4.692  11.739 -0.2000 -0.1331 -0.3718
 5512SOL    HW128169   4.680   0.035  11.791 -3.1858 -0.2204  0.8135
 5512SOL    HW228170   4.567   4.690  11.749 -0.1244 -0.3320  0.3488
 5513SOL     OW28171   2.324   0.772   9.462  0.1027  0.3883  0.0767
 5513SOL    HW128172   2.275   0.691   9.480  0.2251  0.7499  2.0138
 5513SOL    HW228173   2.255   0.827   9.426  0.2714  0.2388 -0.4709
 5514SOL     OW28174   2.764   3.655  15.890  0.2666 -0.4376  0.2508
 5514SOL    HW128175   2.691   3.670  15.950  1.0438  1.3992  0.7486
 5514SOL    HW228176   2.718   3.600  15.827  0.4437  0.1052 -0.3463
 5515SOL     OW28177   1.024   0.854   0.656 -0.1950  0.3438  0.0971
 5515SOL    HW128178   0.945   0.823   0.700  1.0746 -1.0230  1.4473
 5515SOL    HW228179   1.005   0.939   0.617  0.6168 -0.8552 -2.8873
 5516SOL     OW28180   3.280   2.183   1.319 -0.8282  0.2678 -0.1530
 5516SOL    HW128181   3.321   2.243   1.382 -1.0802  0.8849 -0.5782
 5516SOL    HW228182   3.201   2.153   1.363  0.4006 -1.7502  0.6843
 5517SOL     OW28183   2.830   0.858  17.373 -0.0643  0.1161  0.5423
 5517SOL    HW128184   2.910   0.821  17.410  1.1294 -1.1894 -3.3299
 5517SOL    HW228185   2.824   0.821  17.284 -1.4411 -0.8325  1.0267
 5518SOL     OW28186   0.826   2.616   6.771  0.5268 -0.2469  0.1819
 5518SOL    HW128187   0.807   2.706   6.743  0.7962 -0.7251 -1.5830
 5518SOL    HW228188   0.868   2.616   6.857  3.5627 -3.5863 -1.2740
 5519SOL     OW28189   2.001   1.281   3.054 -0.1608 -0.6154 -0.1950
 5519SOL    HW128190   1.945   1.340   3.104  0.6497  0.0003 -0.0278
 5519SOL    HW228191   2.083   1.294   3.101  0.2875 -1.9552 -0.6123
 5520SOL     OW28192   4.286   2.968   9.077  0.0495 -0.2270  0.1036
 5520SOL    HW128193   4.210   3.018   9.105 -0.1879 -0.6665  0.2443
 5520SOL    HW228194   4.340   2.961   9.156  1.0104  0.8435 -0.4519
 5521SOL     OW28195   0.645   0.893   1.749 -0.0064  0.2667 -0.1150
 5521SOL    HW128196   0.734   0.883   1.783 -0.4832 -1.7636  0.5351
 5521SOL    HW228197   0.608   0.807   1.772 -0.6744  0.0572 -2.0172
 5522SOL     OW28198   1.918   2.479   1.435 -0.7389 -0.2815 -0.6119
 5522SOL    HW128199   1.849   2.544   1.421 -0.8830 -0.5775 -1.2617
 5522SOL    HW228200   1.910   2.439   1.349 -3.0798  0.5558 -0.8052
 5523SOL     OW28201   4.081   3.876   8.691 -0.1714 -0.1146 -0.1365
 5523SOL    HW128202   4.153   3.855   8.749 -0.8136  0.7819  0.9768
 5523SOL    HW228203   4.011   3.901   8.751  0.0721 -1.8673  0.8523
 5524SOL     OW28204   0.756   4.534   9.108  0.1898  0.2571  0.1030
 5524SOL    HW128205   0.733   4.452   9.064  2.8785 -1.4057  1.7724
 5524SOL    HW228206   0.770   4.592   9.034 -0.0625 -1.2435 -1.1036
 5525SOL     OW28207   2.503   3.547   5.212 -0.0036  0.0058  0.8964
 5525SOL    HW128208   2.500   3.556   5.307 -0.8623  1.4502  0.7200
 5525SOL    HW228209   2.556   3.466   5.211  3.9341  2.5691  0.5792
 5526SOL     OW28210   4.492   0.526   7.790 -0.0575  0.5237 -0.5618
 5526SOL    HW128211   4.554   0.517   7.862 -1.8573  0.0778  0.9247
 5526SOL    HW228212   4.409   0.497   7.828  0.6876 -0.9010 -0.0360
 5527SOL     OW28213   1.832   1.209  12.191  0.1311  0.1096  0.1016
 5527SOL    HW128214   1.846   1.286  12.247  1.2204 -0.3297  0.4392
 5527SOL    HW228215   1.897   1.233  12.126 -0.5680  1.6858 -0.0113
 5528SOL     OW28216   4.275   2.463   8.028 -0.4341 -0.6400  0.4517
 5528SOL    HW128217   4.368   2.461   8.053 -1.3144  1.9873  3.9147
 5528SOL    HW228218   4.257   2.369   8.030 -1.0618 -0.5562 -1.1519
 5529SOL     OW28219   0.178   3.501   7.375 -0.2843 -0.4283  0.9342
 5529SOL    HW128220   0.138   3.414   7.378  0.7123 -0.9858 -1.8720
 5529SOL    HW228221   0.214   3.504   7.463  0.6614  0.6877  0.5099
 5530SOL     OW28222   1.998   3.645   3.687 -0.1525 -0.0480 -0.1759
 5530SOL    HW128223   1.965   3.569   3.736 -0.7261 -0.0914 -0.6308
 5530SOL    HW228224   1.920   3.666   3.635 -0.4073  1.7955  0.9389
 5531SOL     OW28225   4.344   0.310   3.685  0.8269 -0.2707  0.5538
 5531SOL    HW128226   4.335   0.303   3.590 -0.3828 -2.4940  0.8462
 5531SOL    HW228227   4.283   0.243   3.716  0.5626  0.2431  1.1203
 5532SOL     OW28228   0.685   3.429   3.058  0.4849 -0.2146  0.1442
 5532SOL    HW128229   0.661   3.507   3.108  2.8754 -0.3243  1.4588
 5532SOL    HW228230   0.671   3.466   2.971 -0.7878 -1.1310 -0.0461
 5533SOL     OW28231   0.230   1.245   2.225 -0.4494 -0.8025 -0.3658
 5533SOL    HW128232   0.141   1.225   2.253 -0.9416 -0.9541 -2.0478
 5533SOL    HW228233   0.281   1.172   2.260  1.8749  0.2660 -1.5272
 5534SOL     OW28234   1.673   3.698   8.564 -0.3833 -0.0488  0.1821
 5534SOL    HW128235   1.584   3.662   8.556 -0.2111  0.2320 -2.7725
 5534SOL    HW228236   1.714   3.698   8.478  1.4301 -0.3529  1.0451
 5535SOL     OW28237   1.735   0.645   2.131 -0.1249 -0.4954  0.0036
 5535SOL    HW128238   1.828   0.657   2.150  0.7176 -2.2519 -2.9738
 5535SOL    HW228239   1.734   0.661   2.037  1.8738 -1.9744 -0.2747
 5536SOL     OW28240   0.726   4.124   3.163  0.0034  0.7337 -0.5954
 5536SOL    HW128241   0.663   4.054   3.144  0.6133 -0.0718  0.3443
 5536SOL    HW228242   0.798   4.085   3.113  1.0592  0.1390  1.4030
 5537SOL     OW28243   3.918   0.717  10.385 -0.3561  0.4033 -0.7685
 5537SOL    HW128244   3.852   0.727  10.316 -2.5907  3.3060  1.8138
 5537SOL    HW228245   3.994   0.705  10.328 -0.4981 -3.7860 -0.0979
 5538SOL     OW28246   1.197   4.589   3.387  0.1230  0.0567 -0.4541
 5538SOL    HW128247   1.293   4.585   3.390  0.1669  0.6725 -0.9502
 5538SOL    HW228248   1.162   4.529   3.452  1.7341 -0.1939  0.1710
 5539SOL     OW28249   4.467   4.262   8.384  0.4476 -0.3464  0.4700
 5539SOL    HW128250   4.556   4.238   8.413 -0.2932 -3.8983 -0.1809
 5539SOL    HW228251   4.480   4.243   8.291  1.5977 -1.0586  0.7756
 5540SOL     OW28252   3.883   3.173   0.457 -0.1673  0.5693  0.1693
 5540SOL    HW128253   3.974   3.156   0.433 -0.1580  1.1895 -0.2404
 5540SOL    HW228254   3.862   3.094   0.508 -0.1392  0.0109 -0.6809
 5541SOL     OW28255   1.130   3.612   8.245  0.5973 -0.0649  0.1771
 5541SOL    HW128256   1.193   3.669   8.289 -0.2550  0.7697  0.3040
 5541SOL    HW228257   1.143   3.535   8.300 -0.9061 -1.3354 -1.2232
 5542SOL     OW28258   1.875   2.340  13.079 -0.4521 -0.9510 -0.6457
 5542SOL    HW128259   1.834   2.357  12.995 -1.1034  1.4168  0.1355
 5542SOL    HW228260   1.965   2.364  13.058 -0.1817 -0.6318  0.8357
 5543SOL     OW28261   4.505   1.576   1.963 -0.2278 -0.2648 -0.1384
 5543SOL    HW128262   4.417   1.550   1.990 -0.2976  0.3854  0.2588
 5543SOL    HW228263   4.541   1.630   2.034  0.2160  0.3326 -0.8169
 5544SOL     OW28264   3.447   3.028  15.326 -0.2567 -0.4668  0.2919
 5544SOL    HW128265   3.513   3.071  15.380 -0.7198  1.4263 -0.6697
 5544SOL    HW228266   3.470   3.064  15.241 -0.2975 -0.0060  0.4772
 5545SOL     OW28267   2.772   0.658   3.402  0.4770  0.0014 -0.4084
 5545SOL    HW128268   2.771   0.578   3.454 -1.2988 -0.6432 -1.4437
 5545SOL    HW228269   2.790   0.725   3.468 -2.1224  3.0028 -2.7666
 5546SOL     OW28270   3.530   0.004   9.888 -0.2391 -0.0176 -0.0390
 5546SOL    HW128271   3.611   4.710   9.845  0.5764 -1.4373  2.4836
 5546SOL    HW228272   3.558   0.055   9.964 -1.3013  0.3660  0.0842
 5547SOL     OW28273   1.890   0.467   6.214  0.4347  0.1373 -0.9628
 5547SOL    HW128274   1.908   0.427   6.130 -1.9866 -0.3136 -1.2640
 5547SOL    HW228275   1.804   0.429   6.233  0.3947 -0.7614 -2.9712
 5548SOL     OW28276   3.958   2.370   4.757 -0.0245  0.5636  0.2721
 5548SOL    HW128277   3.986   2.394   4.845  0.8218  1.1152 -0.1391
 5548SOL    HW228278   4.036   2.389   4.705 -0.9479 -1.1027 -1.6977
 5549SOL     OW28279   0.667   0.319   4.000  0.2385 -0.2022  0.1874
 5549SOL    HW128280   0.761   0.333   3.987  0.2475  0.7374  1.2849
 5549SOL    HW228281   0.655   0.279   4.087  1.5564 -2.6082 -0.7198
 5550SOL     OW28282   4.389   4.070   1.883 -0.2116  0.0430  0.2889
 5550SOL    HW128283   4.314   4.022   1.918  0.0535 -1.1403 -0.7799
 5550SOL    HW228284   4.394   4.131   1.957 -1.2384  0.0370  0.3626
 5551SOL     OW28285   1.383   0.151  11.832 -0.4969 -0.0473  0.1475
 5551SOL    HW128286   1.414   0.135  11.743  0.1696 -1.0374  0.5559
 5551SOL    HW228287   1.434   0.080  11.871  0.1295  0.6557  0.5855
 5552SOL     OW28288   2.931   0.864   6.682 -0.2603 -0.4711  0.5878
 5552SOL    HW128289   2.951   0.815   6.762 -0.0076  0.1339  0.8975
 5552SOL    HW228290   2.858   0.913   6.720  0.6158  0.2169  1.4074
 5553SOL     OW28291   2.317   3.662   8.617 -0.0444  0.2982 -0.4501
 5553SOL    HW128292   2.248   3.678   8.554 -1.5986 -0.3183  1.0860
 5553SOL    HW228293   2.381   3.724   8.583 -0.4648  0.3572 -1.1336
 5554SOL     OW28294   0.021   4.492   2.226 -0.1866 -0.2576  0.1782
 5554SOL    HW128295   0.071   4.558   2.177  0.5859 -1.6593 -0.9194
 5554SOL    HW228296   0.074   4.498   2.306 -1.0240  1.0807  0.6278
 5555SOL     OW28297   3.386   1.723   6.965 -0.2648 -0.3034  0.0672
 5555SOL    HW128298   3.309   1.718   7.021 -2.1185 -1.2767 -2.6169
 5555SOL    HW228299   3.356   1.778   6.893 -1.4255 -0.4780  0.4248
 5556SOL     OW28300   0.613   3.248   7.849 -0.2597 -0.1678 -0.3085
 5556SOL    HW128301   0.620   3.187   7.923 -2.5783 -0.3870 -0.2456
 5556SOL    HW228302   0.606   3.182   7.780 -0.6911  1.9586 -2.2551
 5557SOL     OW28303   1.369   1.879   8.369  0.4866 -0.6629  0.0112
 5557SOL    HW128304   1.384   1.836   8.453 -0.9935 -1.2696 -0.0401
 5557SOL    HW228305   1.293   1.825   8.349 -0.3169  0.4773  0.0087
 5558SOL     OW28306   2.549   2.437   9.043 -1.0674  0.1923  0.9349
 5558SOL    HW128307   2.629   2.460   9.090 -0.0642  2.6389 -1.9928
 5558SOL    HW228308   2.568   2.453   8.951 -1.6786  0.7592  0.9033
 5559SOL     OW28309   0.287   1.082   6.540  0.3244 -0.3618 -0.4802
 5559SOL    HW128310   0.274   1.099   6.446  1.6295 -2.4788 -1.0361
 5559SOL    HW228311   0.361   1.140   6.559  0.0349 -0.3753  0.6795
 5560SOL     OW28312   4.390   1.087   8.082  0.5738  0.1790  0.2326
 5560SOL    HW128313   4.437   1.050   8.007 -0.5023  0.0453 -0.3642
 5560SOL    HW228314   4.452   1.145   8.128  0.5764  0.9417 -0.7201
 5561SOL     OW28315   0.810   0.032   9.299  0.1557  0.7368 -0.4141
 5561SOL    HW128316   0.773   4.693   9.252  1.8503 -0.1141 -0.4155
 5561SOL    HW228317   0.870   4.715   9.352  0.2857  1.8363  0.5368
 5562SOL     OW28318   0.463   0.874  14.057  0.0497  0.4401 -0.2138
 5562SOL    HW128319   0.437   0.948  14.112  1.5771 -0.4781  1.7583
 5562SOL    HW228320   0.475   0.919  13.974 -1.5185  1.0615 -0.0887
 5563SOL     OW28321   3.440   3.567   5.531  0.4107  0.0903  0.0066
 5563SOL    HW128322   3.389   3.514   5.593 -1.4121  1.5423 -0.2644
 5563SOL    HW228323   3.421   3.520   5.450  2.1295  0.0684 -0.3907
 5564SOL     OW28324   3.801   4.042   5.965 -0.2991 -0.1300  0.1713
 5564SOL    HW128325   3.757   4.024   6.048 -0.5307  1.1556  0.3331
 5564SOL    HW228326   3.873   4.099   5.995 -1.0813  1.0685 -0.2148
 5565SOL     OW28327   4.406   1.987   1.324 -0.4761 -0.5677 -0.1577
 5565SOL    HW128328   4.491   2.017   1.293 -0.6908 -0.7608 -0.9285
 5565SOL    HW228329   4.415   1.897   1.295  0.5680  0.2323 -2.3297
 5566SOL     OW28330   1.511   2.039   8.180 -0.1148 -0.3141 -0.3084
 5566SOL    HW128331   1.487   1.980   8.252  1.5763  1.5106  1.7619
 5566SOL    HW228332   1.449   2.004   8.117  2.1290 -1.1128 -2.0814
 5567SOL     OW28333   0.488   2.812   8.874  0.2513 -0.0500  0.2123
 5567SOL    HW128334   0.419   2.876   8.858  1.4965  0.6984 -2.2993
 5567SOL    HW228335   0.429   2.737   8.880  1.5708 -1.0445  0.6311
 5568SOL     OW28336   1.273   4.056  11.425  0.4504  0.1981 -0.2966
 5568SOL    HW128337   1.247   3.966  11.405 -2.7021  1.0668  0.0459
 5568SOL    HW228338   1.314   4.069  11.339  1.0463  1.3051  0.1496
 5569SOL     OW28339   0.130   2.794   0.958 -0.2384 -0.3072 -0.1940
 5569SOL    HW128340   0.047   2.839   0.978 -1.7276 -2.3488 -1.8360
 5569SOL    HW228341   0.091   2.726   0.904 -0.4552  0.0278 -0.4608
 5570SOL     OW28342   0.723   4.011  12.822  0.6229  0.1467  0.2379
 5570SOL    HW128343   0.717   3.976  12.733 -2.0871  0.4078  0.3250
 5570SOL    HW228344   0.786   4.083  12.823  1.4713 -0.6114  1.2817
 5571SOL     OW28345   3.993   3.483  16.301 -0.2284 -0.1283  0.1617
 5571SOL    HW128346   3.962   3.527  16.380  0.5684  1.0619 -0.1838
 5571SOL    HW228347   3.977   3.553  16.237  0.4642  0.6089  0.7932
 5572SOL     OW28348   3.615   1.631   5.198 -0.1208 -0.9040  0.3212
 5572SOL    HW128349   3.559   1.682   5.140  0.9564 -0.8510 -0.6758
 5572SOL    HW228350   3.615   1.548   5.150  1.1623 -2.3156  2.7225
 5573SOL     OW28351   0.550   2.361   5.691  0.2401 -0.2285  0.0160
 5573SOL    HW128352   0.503   2.437   5.726  2.2004  0.7305  0.5696
 5573SOL    HW228353   0.504   2.364   5.608  0.1888 -0.6536  0.0283
 5574SOL     OW28354   0.877   1.542   6.929 -0.1315  0.0844  0.1758
 5574SOL    HW128355   0.910   1.517   6.843 -2.9345  0.3929 -0.9932
 5574SOL    HW228356   0.892   1.466   6.986 -0.6382 -1.5285 -1.8237
 5575SOL     OW28357   2.909   1.875   2.665  0.6287 -0.0483 -0.2932
 5575SOL    HW128358   2.841   1.894   2.600  0.6549 -1.5201 -0.7354
 5575SOL    HW228359   2.869   1.910   2.746 -1.3130 -1.5272 -0.6100
 5576SOL     OW28360   0.782   4.182   7.882  0.2075  0.0753 -0.0261
 5576SOL    HW128361   0.877   4.183   7.893  0.0319 -2.0234  1.4999
 5576SOL    HW228362   0.752   4.130   7.956  0.5259  0.4948  0.3959
 5577SOL     OW28363   3.516   1.912  16.190  0.8700  0.3560 -0.2661
 5577SOL    HW128364   3.471   1.831  16.214 -0.6540  1.1196 -0.5625
 5577SOL    HW228365   3.521   1.892  16.096  0.1923 -0.5374 -0.1158
 5578SOL     OW28366   4.300   2.493   2.560 -0.0525  0.0742 -0.3490
 5578SOL    HW128367   4.249   2.573   2.554 -1.6321 -0.8968  0.1468
 5578SOL    HW228368   4.230   2.433   2.587 -0.3678  0.8071  0.4395
 5579SOL     OW28369   2.398   0.197   8.864  0.1927  0.0277 -0.4441
 5579SOL    HW128370   2.473   0.254   8.849 -0.0855  0.3152 -0.7628
 5579SOL    HW228371   2.324   0.259   8.865  0.2947  0.1075  2.1600
 5580SOL     OW28372   1.167   1.108   5.222  0.8315  0.5046 -0.1619
 5580SOL    HW128373   1.194   1.200   5.225  1.2916  0.4635 -2.4136
 5580SOL    HW228374   1.229   1.080   5.154  0.4415  0.7068 -0.6039
 5581SOL     OW28375   0.007   4.253  15.997  0.1847  0.1630  0.3742
 5581SOL    HW128376   0.065   4.266  15.921 -2.1494  2.1524 -1.0821
 5581SOL    HW228377   0.045   4.313  16.061  3.8175  1.2996 -2.8284
 5582SOL     OW28378   2.263   1.280   0.338 -0.2328  0.0075 -0.1791
 5582SOL    HW128379   2.344   1.320   0.305  0.2442 -0.0374  0.9303
 5582SOL    HW228380   2.242   1.206   0.281 -0.1857  1.2628 -1.8422
 5583SOL     OW28381   1.241   1.355   5.293  0.5604 -0.1135  0.1463
 5583SOL    HW128382   1.328   1.394   5.283 -0.1880  1.5745  0.1456
 5583SOL    HW228383   1.197   1.407   5.225  2.2181  1.1017 -0.0087
 5584SOL     OW28384   4.318   2.534  15.719  0.1839  0.5523 -0.2911
 5584SOL    HW128385   4.386   2.482  15.761 -1.3688  0.1621  1.7225
 5584SOL    HW228386   4.351   2.621  15.740 -0.6231  0.8594 -0.3050
 5585SOL     OW28387   2.536   3.276   7.768  0.2681  0.2266  0.3337
 5585SOL    HW128388   2.559   3.243   7.681 -0.8872 -1.9746  0.8506
 5585SOL    HW228389   2.545   3.194   7.817  0.6007 -0.5625 -1.0575
 5586SOL     OW28390   2.022   0.935  13.377  0.4769  0.1506  0.4118
 5586SOL    HW128391   2.087   0.872  13.409  0.9110  1.3951  1.9648
 5586SOL    HW228392   1.969   0.955  13.454 -1.4902 -0.8602 -0.6748
 5587SOL     OW28393   4.206   0.601  16.953  0.2076 -0.2534  0.1591
 5587SOL    HW128394   4.257   0.557  16.885 -1.0369  1.7081 -2.0364
 5587SOL    HW228395   4.255   0.600  17.035  0.5999 -4.0041 -0.1247
 5588SOL     OW28396   1.297   3.386   8.033  0.0972  0.1130  0.4630
 5588SOL    HW128397   1.237   3.398   8.106 -1.7318  3.5971 -1.6134
 5588SOL    HW228398   1.364   3.450   8.056 -1.0953  0.7492  2.1395
 5589SOL     OW28399   2.770   2.846   0.894 -0.3697  0.1596  0.3075
 5589SOL    HW128400   2.829   2.896   0.951 -1.6145  1.2622  0.6169
 5589SOL    HW228401   2.721   2.917   0.854  0.8751 -0.3206 -2.0794
 5590SOL     OW28402   3.629   2.809  16.256 -0.0407  0.2418  0.4018
 5590SOL    HW128403   3.702   2.866  16.231  0.1317  0.0144  0.3804
 5590SOL    HW228404   3.572   2.871  16.300  1.8350  0.1685  2.9375
 5591SOL     OW28405   3.159   1.402  15.287 -0.1788  0.5554 -0.6948
 5591SOL    HW128406   3.141   1.324  15.339  1.9766  0.6402  0.1634
 5591SOL    HW228407   3.137   1.467  15.353 -1.3795  0.2820 -0.8247
 5592SOL     OW28408   4.314   1.476   8.395 -0.0385  0.3880  0.2929
 5592SOL    HW128409   4.266   1.395   8.376 -1.2508  0.6830  2.1500
 5592SOL    HW228410   4.402   1.441   8.408  0.0664 -0.6075 -2.9329
 5593SOL     OW28411   2.830   0.979   3.906 -0.5180 -0.2025  0.6588
 5593SOL    HW128412   2.872   0.893   3.905 -0.4030 -0.1222 -2.3792
 5593SOL    HW228413   2.860   0.999   3.817 -1.3200 -1.0769  0.1927
 5594SOL     OW28414   4.317   2.674   7.335  0.3863 -0.1078 -0.2532
 5594SOL    HW128415   4.310   2.769   7.347 -1.1220 -0.3907  1.1726
 5594SOL    HW228416   4.248   2.670   7.269 -1.0539 -1.0669  1.3320
 5595SOL     OW28417   1.993   3.452  15.706  0.1446  0.3064 -0.5370
 5595SOL    HW128418   1.976   3.472  15.798 -1.2152  0.5129 -0.8308
 5595SOL    HW228419   2.058   3.383  15.715 -2.5873 -2.1416  0.5741
 5596SOL     OW28420   3.744   4.716   6.178 -0.3526  0.3987 -0.9598
 5596SOL    HW128421   3.690   4.709   6.099 -2.6223  0.5136  0.5835
 5596SOL    HW228422   3.776   0.067   6.152  1.7833 -0.0578  0.2220
 5597SOL     OW28423   0.885   0.589  10.083 -0.4508 -0.2514 -0.0551
 5597SOL    HW128424   0.887   0.500  10.048 -1.1221 -0.0558 -0.5978
 5597SOL    HW228425   0.803   0.602  10.036  0.6974  1.2344 -1.6594
 5598SOL     OW28426   2.053   1.371   5.423 -0.1205  0.1648  0.5862
 5598SOL    HW128427   2.116   1.396   5.491  2.6989  0.1726 -2.0451
 5598SOL    HW228428   1.991   1.443   5.435  0.9563  1.0166  1.1200
 5599SOL     OW28429   0.665   2.021  16.224  0.1841 -0.2819 -0.3119
 5599SOL    HW128430   0.618   1.939  16.236  0.3815 -0.4079 -0.4056
 5599SOL    HW228431   0.695   2.015  16.134 -0.1914  0.8204 -0.5206
 5600SOL     OW28432   3.673   1.068   8.524  0.0379 -0.2222  0.1117
 5600SOL    HW128433   3.758   1.052   8.484  0.6822  0.2719  1.3035
 5600SOL    HW228434   3.696   1.025   8.606 -0.1153 -0.7192 -0.1086
 5601SOL     OW28435   3.585   0.170   0.649  0.0315  0.0488  0.3052
 5601SOL    HW128436   3.620   0.239   0.706  0.2582  0.8044 -0.7501
 5601SOL    HW228437   3.531   0.126   0.714  0.0666  0.1287  0.3883
 5602SOL     OW28438   2.621   1.448   7.116 -0.5776 -0.3457 -0.2012
 5602SOL    HW128439   2.605   1.365   7.160 -0.4041 -0.2538  0.0380
 5602SOL    HW228440   2.535   1.489   7.112 -1.1029 -1.3574  0.9110
 5603SOL     OW28441   0.293   3.083   4.244 -0.2250  0.1362 -0.5816
 5603SOL    HW128442   0.373   3.123   4.279 -0.1593  0.0676 -0.6523
 5603SOL    HW228443   0.328   3.035   4.169 -0.5522 -0.5247 -0.3140
 5604SOL     OW28444   2.865   0.064   7.872  0.0567 -0.7493  0.1981
 5604SOL    HW128445   2.952   0.045   7.837  0.5416 -0.0862  1.0768
 5604SOL    HW228446   2.879   0.133   7.936  1.9367  0.6029 -1.6704
 5605SOL     OW28447   3.799   3.238   8.645 -0.8508  0.3957 -0.3682
 5605SOL    HW128448   3.833   3.301   8.709 -0.2547  0.4995 -0.7822
 5605SOL    HW228449   3.836   3.156   8.675 -1.5155 -0.0940 -0.8748
 5606SOL     OW28450   4.266   4.332   4.108  0.1595 -0.4243  0.1117
 5606SOL    HW128451   4.225   4.408   4.149  2.0280  1.1293 -0.8875
 5606SOL    HW228452   4.356   4.330   4.142  0.3043 -1.6674 -0.3678
 5607SOL     OW28453   3.623   2.472   3.988  0.1817  0.2237  0.6255
 5607SOL    HW128454   3.603   2.382   4.013 -0.8749  0.2774 -0.0082
 5607SOL    HW228455   3.546   2.514   3.948 -1.2254 -2.3191  0.7120
 5608SOL     OW28456   1.211   2.103   9.101  0.0460 -0.5771  0.3307
 5608SOL    HW128457   1.294   2.110   9.148 -0.0844 -0.8700  0.6055
 5608SOL    HW228458   1.244   2.099   9.011 -1.7711  1.0036 -0.4185
 5609SOL     OW28459   4.104   1.085   2.714 -0.2759  0.2079  0.3705
 5609SOL    HW128460   4.162   1.048   2.780  2.1894  0.1489 -1.8435
 5609SOL    HW228461   4.026   1.029   2.716 -1.7164  2.2290  0.3650
 5610SOL     OW28462   3.354   0.211  14.990 -0.3048 -0.3708  0.1356
 5610SOL    HW128463   3.298   0.288  14.981 -2.9437 -2.3580 -0.6944
 5610SOL    HW228464   3.403   0.232  14.911  1.4687  0.0154  1.3531
 5611SOL     OW28465   1.701   2.285   0.947 -0.5202 -0.1166  0.0547
 5611SOL    HW128466   1.701   2.380   0.937 -0.9072 -0.0389  0.7919
 5611SOL    HW228467   1.745   2.261   0.865 -2.5308  3.0260 -1.9182
 5612SOL     OW28468   2.889   2.169  17.650 -0.1901 -0.5948 -0.2178
 5612SOL    HW128469   2.799   2.149  17.626 -0.2303 -1.7715  0.9264
 5612SOL    HW228470   2.907   2.102  17.716  2.9902 -1.0124 -1.5186
 5613SOL     OW28471   3.960   2.784   5.764  0.5803  0.1889  0.5771
 5613SOL    HW128472   4.044   2.771   5.807  0.8804  2.1430  0.5470
 5613SOL    HW228473   3.900   2.767   5.836  0.5979  0.0240  0.5543
 5614SOL     OW28474   1.688   0.297   6.479 -0.3379  0.0321  0.1274
 5614SOL    HW128475   1.709   0.386   6.507 -0.7006  0.7276 -1.7638
 5614SOL    HW228476   1.606   0.274   6.523  0.5798 -1.7429  0.9049
 5615SOL     OW28477   1.761   4.434   2.720 -0.0719  0.0608 -0.4482
 5615SOL    HW128478   1.766   4.356   2.665 -0.5901 -2.1513  2.6681
 5615SOL    HW228479   1.685   4.478   2.681  0.2410  1.9551  1.1057
 5616SOL     OW28480   0.400   4.521   5.112 -0.1334  0.2623  0.0230
 5616SOL    HW128481   0.440   4.439   5.085  1.0948  0.4233  1.2715
 5616SOL    HW228482   0.378   4.558   5.027  0.0544  0.8202  0.2108
 5617SOL     OW28483   3.967   4.351   1.956  0.2088  0.0172 -0.2750
 5617SOL    HW128484   4.043   4.355   1.897 -0.9327 -2.0815 -1.8839
 5617SOL    HW228485   3.915   4.424   1.922  2.4226  2.3641  1.3823
 5618SOL     OW28486   1.795   2.859   1.412 -0.0922  0.8102  0.4892
 5618SOL    HW128487   1.871   2.866   1.470 -0.8512  2.3262  1.3020
 5618SOL    HW228488   1.822   2.929   1.352  2.4981 -0.0158  0.6751
 5619SOL     OW28489   0.920   1.982   7.561 -0.7798  0.4927 -0.1885
 5619SOL    HW128490   0.884   2.040   7.494 -0.8907  1.1447  0.4326
 5619SOL    HW228491   0.896   2.025   7.643  0.8409  0.9826  0.0331
 5620SOL     OW28492   1.280   0.516   6.725  0.1378  0.8878  0.1872
 5620SOL    HW128493   1.208   0.561   6.769 -0.9933  0.5058 -1.2717
 5620SOL    HW228494   1.276   0.430   6.768  0.9081  0.3890 -0.7429
 5621SOL     OW28495   2.046   0.642   5.885  0.2946 -0.5208 -0.3040
 5621SOL    HW128496   2.029   0.735   5.868  0.4002 -0.6094 -0.8896
 5621SOL    HW228497   2.084   0.654   5.972  0.9816 -3.1006 -0.2343
 5622SOL     OW28498   0.355   4.530   5.846  0.3456 -0.0514 -0.5993
 5622SOL    HW128499   0.327   4.558   5.933 -0.8063 -1.0654 -0.6366
 5622SOL    HW228500   0.322   4.440   5.839  0.4452 -0.1445  0.1619
 5623SOL     OW28501   4.336   2.344   6.294  0.6671 -0.2453 -0.6077
 5623SOL    HW128502   4.331   2.440   6.299 -1.6380 -0.4515  0.6242
 5623SOL    HW228503   4.347   2.340   6.199 -2.3710 -1.8296 -0.8945
 5624SOL     OW28504   3.706   3.243   7.702 -0.8518  0.0022  0.1569
 5624SOL    HW128505   3.616   3.253   7.731 -0.6440  3.6585 -0.4811
 5624SOL    HW228506   3.691   3.212   7.612 -2.2982 -0.3934  0.5461
 5625SOL     OW28507   3.203   2.211   0.474 -0.3843  0.3109 -0.1050
 5625SOL    HW128508   3.209   2.121   0.506  3.9459  0.7986  0.4093
 5625SOL    HW228509   3.273   2.251   0.525  0.1178 -1.6526  0.7205
 5626SOL     OW28510   1.242   4.720   2.000 -0.0743  0.0690 -0.2381
 5626SOL    HW128511   1.204   4.731   1.912  0.5719  1.0352 -0.3835
 5626SOL    HW228512   1.321   0.037   1.990 -0.1387 -0.1580 -1.9379
 5627SOL     OW28513   4.185   4.051   3.237 -0.4284 -0.6051  0.0913
 5627SOL    HW128514   4.149   4.070   3.151  2.6779  0.3626 -1.0057
 5627SOL    HW228515   4.113   4.029   3.297 -0.6338  1.7933  0.7242
 5628SOL     OW28516   0.094   0.623   6.673 -0.0858  0.1548 -0.0585
 5628SOL    HW128517   0.063   0.676   6.746 -0.9231  1.9448 -1.7310
 5628SOL    HW228518   0.110   0.685   6.602 -0.3052 -1.0356 -1.1508
 5629SOL     OW28519   0.643   2.249   2.937  0.6234 -0.4070  0.2483
 5629SOL    HW128520   0.724   2.299   2.937 -1.6998  3.3804 -0.0142
 5629SOL    HW228521   0.636   2.238   3.032 -0.8639  0.0580  0.2026
 5630SOL     OW28522   4.531   3.943   2.528  0.1095  0.0685  0.0198
 5630SOL    HW128523   4.516   3.849   2.540  2.1817 -0.5273 -2.1543
 5630SOL    HW228524   4.612   3.948   2.578 -0.1575  3.1051  0.1456
 5631SOL     OW28525   4.372   0.073   7.624 -0.4375 -0.2714 -0.0249
 5631SOL    HW128526   4.443   0.137   7.624  0.8005 -1.6439 -1.7314
 5631SOL    HW228527   4.335   0.095   7.710 -0.5359  0.3345 -0.2196
 5632SOL     OW28528   0.410   1.124  12.831 -0.0150 -0.0682 -0.0609
 5632SOL    HW128529   0.490   1.165  12.797  1.1444 -1.4324  0.9894
 5632SOL    HW228530   0.456   1.041  12.849  3.1314  2.1154  1.9296
 5633SOL     OW28531   4.174   2.570  11.103  0.3987 -0.0404 -0.3574
 5633SOL    HW128532   4.131   2.546  11.185 -0.4065 -0.8501 -1.0112
 5633SOL    HW228533   4.132   2.654  11.087 -0.2000 -0.1300  0.7701
 5634SOL     OW28534   2.310   3.203   5.903  0.2607 -0.3812  0.3266
 5634SOL    HW128535   2.353   3.139   5.960 -0.0978  0.3535  1.4076
 5634SOL    HW228536   2.228   3.155   5.891  0.1723 -0.6870  2.1597
 5635SOL     OW28537   2.672   1.916  11.728 -0.1889 -0.5099 -0.1856
 5635SOL    HW128538   2.613   1.841  11.726  0.6133 -1.1212 -1.0112
 5635SOL    HW228539   2.635   1.977  11.664  0.8104 -0.9844 -1.2139
 5636SOL     OW28540   0.837   1.090   8.975 -0.4203  0.5094  0.4046
 5636SOL    HW128541   0.910   1.073   9.034  0.9333 -1.4104 -1.8506
 5636SOL    HW228542   0.868   1.166   8.927  0.2081  0.0606  0.0948
 5637SOL     OW28543   2.048   0.967   4.509  0.0629 -0.3614 -0.1021
 5637SOL    HW128544   2.020   0.992   4.597  1.0224 -0.6517  0.2910
 5637SOL    HW228545   2.109   1.038   4.489  0.8006 -1.3041 -1.1543
 5638SOL     OW28546   1.239   2.954  11.958 -0.5103  0.0225 -0.0616
 5638SOL    HW128547   1.145   2.935  11.955 -0.8640  1.9821 -1.6691
 5638SOL    HW228548   1.274   2.889  11.897 -0.5764 -0.0715 -0.0005
 5639SOL     OW28549   0.035   2.659  11.814  0.1140  0.3667 -0.2097
 5639SOL    HW128550   4.676   2.673  11.824  0.1946 -0.7723  2.2114
 5639SOL    HW228551   0.075   2.697  11.893 -0.1219  1.0384 -0.4118
 5640SOL     OW28552   0.069   0.273  16.795 -0.3573  0.3934  0.5729
 5640SOL    HW128553   0.163   0.277  16.777 -0.4191 -1.0947 -0.0869
 5640SOL    HW228554   0.067   0.209  16.865  2.7623 -0.8692 -0.4548
 5641SOL     OW28555   2.516   1.018   7.967 -0.0855  0.2707 -0.2762
 5641SOL    HW128556   2.468   1.067   7.900 -1.2222 -2.8958 -1.7837
 5641SOL    HW228557   2.537   0.939   7.917 -0.0296 -0.1412  0.3927
 5642SOL     OW28558   0.023   0.327   5.675 -0.3399  0.3895 -0.0484
 5642SOL    HW128559   0.030   0.273   5.753 -0.9449 -0.8578 -0.8632
 5642SOL    HW228560   0.096   0.386   5.694  1.4473 -2.1627  0.9920
 5643SOL     OW28561   1.662   0.733   6.469  0.2749 -0.1727 -0.3265
 5643SOL    HW128562   1.634   0.648   6.504 -0.2933  0.5845  1.0489
 5643SOL    HW228563   1.687   0.766   6.555  1.0743 -0.8095 -0.3175
 5644SOL     OW28564   3.480   0.679   0.488  0.0077 -0.4455 -0.2563
 5644SOL    HW128565   3.434   0.605   0.449  0.0673 -0.6172 -0.0001
 5644SOL    HW228566   3.444   0.674   0.576 -0.5974  0.3755 -0.4507
 5645SOL     OW28567   1.151   0.351  10.468  0.2228  0.2638 -0.7040
 5645SOL    HW128568   1.104   0.271  10.442  0.4653 -0.3590  0.8037
 5645SOL    HW228569   1.233   0.343  10.419  0.6481  3.1280 -0.4219
 5646SOL     OW28570   1.425   1.038   4.661  0.1616  0.3521  0.1583
 5646SOL    HW128571   1.496   1.041   4.725  1.1675 -3.4162 -0.7734
 5646SOL    HW228572   1.383   1.121   4.681 -1.0611 -0.6114  1.5361
 5647SOL     OW28573   1.681   4.426  12.423 -0.4013  0.1204 -0.7721
 5647SOL    HW128574   1.681   4.331  12.437  0.3693  0.4065  1.1152
 5647SOL    HW228575   1.767   4.425  12.381 -0.1508  2.3478 -0.3176
 5648SOL     OW28576   1.060   1.965   6.248  0.4305  0.2292 -0.1099
 5648SOL    HW128577   1.025   1.993   6.333  3.6553  0.2982  1.1871
 5648SOL    HW228578   1.093   2.043   6.204 -0.4511 -0.5302 -2.1409
 5649SOL     OW28579   3.658   1.831   2.491  0.6863 -0.1337 -0.0796
 5649SOL    HW128580   3.657   1.744   2.530  0.6036  0.2497  0.7766
 5649SOL    HW228581   3.610   1.806   2.412 -0.2152 -0.1989  0.4918
 5650SOL     OW28582   3.365   1.992   2.941 -0.2392 -0.1559 -0.3136
 5650SOL    HW128583   3.378   1.975   2.848  0.3718  1.5388 -0.5352
 5650SOL    HW228584   3.305   2.067   2.945  0.8059  0.7944 -2.2677
 5651SOL     OW28585   0.643   3.402   5.281  0.0209  0.1326 -0.2465
 5651SOL    HW128586   0.665   3.357   5.199  0.0290 -1.2180  0.5060
 5651SOL    HW228587   0.686   3.350   5.348  1.1040  0.8294 -0.4041
 5652SOL     OW28588   2.379   1.562   6.108  0.5094 -0.6856  0.8272
 5652SOL    HW128589   2.457   1.579   6.055  0.3455  1.7226  1.3977
 5652SOL    HW228590   2.323   1.634   6.080 -0.2990 -1.9615 -0.8677
 5653SOL     OW28591   3.496   1.143  12.609  0.5296 -0.3329  0.0390
 5653SOL    HW128592   3.540   1.223  12.582  1.4209 -0.8013  0.0739
 5653SOL    HW228593   3.421   1.127  12.552 -1.5675  0.7557  2.4867
 5654SOL     OW28594   2.117   4.625   3.334 -0.0745  0.6164  0.3553
 5654SOL    HW128595   2.212   4.625   3.339  0.0527  1.9286 -1.8657
 5654SOL    HW228596   2.102   4.531   3.345 -1.1135  0.6773 -0.4736
 5655SOL     OW28597   0.078   1.842  12.465 -0.0161  0.1080  0.0134
 5655SOL    HW128598   0.034   1.900  12.402  1.3664  0.8432 -0.2628
 5655SOL    HW228599   0.022   1.851  12.542  0.1529 -0.1783  0.1657
 5656SOL     OW28600   3.013   3.473   3.197  0.0202  0.2345  0.3792
 5656SOL    HW128601   3.003   3.389   3.242 -1.9512  0.5505  0.5639
 5656SOL    HW228602   2.936   3.477   3.140  2.7272  1.4785 -3.1612
 5657SOL     OW28603   0.256   2.440   5.574 -0.4951  0.2355  0.7835
 5657SOL    HW128604   0.270   2.521   5.524  0.5403 -0.9022 -0.7729
 5657SOL    HW228605   0.307   2.464   5.651 -0.2510 -1.2485  1.0781
 5658SOL     OW28606   1.741   2.256   2.779 -0.7945  0.3544  0.0398
 5658SOL    HW128607   1.680   2.245   2.707 -0.3889  0.7260 -0.3640
 5658SOL    HW228608   1.803   2.324   2.752  1.0197 -0.5359  1.9985
 5659SOL     OW28609   1.057   1.087   1.922 -0.2979  0.2071  0.7912
 5659SOL    HW128610   1.014   1.136   1.852 -0.2734 -0.4289  0.3386
 5659SOL    HW228611   1.046   0.995   1.901  0.5122 -0.1998  2.1290
 5660SOL     OW28612   3.810   2.104   8.658  0.0199  0.1711 -0.1099
 5660SOL    HW128613   3.824   2.029   8.716 -2.7855  0.6027  1.1409
 5660SOL    HW228614   3.890   2.149   8.683 -0.2848  0.1694  0.8910
 5661SOL     OW28615   1.721   2.134   8.312 -0.5068 -0.2210 -0.3821
 5661SOL    HW128616   1.645   2.112   8.258 -1.5966 -1.1752  1.5485
 5661SOL    HW228617   1.660   2.174   8.374 -0.0014 -0.7784  0.4730
 5662SOL     OW28618   4.040   2.040   7.567 -0.1560  0.1199  0.0059
 5662SOL    HW128619   4.105   2.052   7.636  0.9121 -1.0649 -0.7786
 5662SOL    HW228620   4.094   2.088   7.504 -1.7085  0.4314 -1.0778
 5663SOL     OW28621   0.208   0.177   8.949 -0.0507  0.1217  0.2493
 5663SOL    HW128622   0.301   0.158   8.955  0.2308  1.3714 -0.1531
 5663SOL    HW228623   0.205   0.270   8.971 -0.1492  0.3731 -0.8133
 5664SOL     OW28624   0.231   0.360   9.730  0.4073  0.3681 -0.2281
 5664SOL    HW128625   0.250   0.275   9.692 -1.7937  0.1580 -0.8599
 5664SOL    HW228626   0.144   0.375   9.692 -0.3052  0.4005  1.3940
 5665SOL     OW28627   4.334   3.865   8.851  0.4672 -0.0140 -0.6616
 5665SOL    HW128628   4.398   3.844   8.919  0.6214 -0.6412 -0.9989
 5665SOL    HW228629   4.352   3.791   8.793 -1.0387  0.1164 -1.3100
 5666SOL     OW28630   2.806   2.552  17.440  0.2723 -0.0303 -0.2979
 5666SOL    HW128631   2.790   2.636  17.482 -0.8517 -0.1614 -0.4623
 5666SOL    HW228632   2.878   2.516  17.492  0.9624  0.4974 -0.8743
 5667SOL     OW28633   0.211   1.122   6.277  0.4339  0.6965 -0.1065
 5667SOL    HW128634   0.167   1.070   6.209  0.8655 -1.1658  1.0430
 5667SOL    HW228635   0.248   1.189   6.220  0.0028  1.8286  0.9490
 5668SOL     OW28636   2.308   0.654   1.938  0.3019  0.2697 -0.2853
 5668SOL    HW128637   2.325   0.662   2.032 -0.7419 -3.0262  0.1871
 5668SOL    HW228638   2.400   0.643   1.913  0.5474  2.6384 -0.4570
 5669SOL     OW28639   2.659   0.926   7.400  0.4961 -0.1045  0.6425
 5669SOL    HW128640   2.735   0.975   7.366  0.2403  1.9193  2.9449
 5669SOL    HW228641   2.605   1.004   7.414 -0.6920 -0.7140 -0.6200
 5670SOL     OW28642   1.480   0.603   8.456  0.0885 -0.5932 -0.2908
 5670SOL    HW128643   1.539   0.599   8.531  0.5087  0.8637 -0.5436
 5670SOL    HW228644   1.532   0.621   8.378 -1.2171  2.0229 -0.5891
 5671SOL     OW28645   1.448   1.187   8.164 -0.6774  0.1344  0.9644
 5671SOL    HW128646   1.414   1.128   8.097 -0.0473  0.6111  0.2333
 5671SOL    HW228647   1.540   1.166   8.181 -1.2111 -2.5365  0.6616
 5672SOL     OW28648   4.671   1.999   1.231  0.6584  0.4697  0.7383
 5672SOL    HW128649   4.687   1.918   1.279 -0.4158 -0.6691 -0.8169
 5672SOL    HW228650   4.726   1.988   1.153  0.9087  2.3021  0.6446
 5673SOL     OW28651   3.978   0.190   5.737 -0.1488  0.3570  0.0200
 5673SOL    HW128652   3.957   0.268   5.788  2.8596  1.0753  0.1393
 5673SOL    HW228653   4.006   0.134   5.810 -0.9749 -0.9506 -0.6663
 5674SOL     OW28654   3.111   0.053   8.991  0.3940 -0.1433 -0.7425
 5674SOL    HW128655   3.183   0.033   9.051 -0.0587  3.7876  1.1678
 5674SOL    HW228656   3.061   4.707   8.993 -1.9491  1.3072  0.4438
 5675SOL     OW28657   2.400   3.067   3.072 -0.3304  0.3938 -0.2091
 5675SOL    HW128658   2.322   3.098   3.026 -0.4752 -1.3603 -1.1518
 5675SOL    HW228659   2.349   3.021   3.139  0.0968  1.2097  0.6761
 5676SOL     OW28660   3.227   2.770   1.847  0.2232 -0.3109  0.3572
 5676SOL    HW128661   3.167   2.696   1.848 -0.8028  0.5206  0.1586
 5676SOL    HW228662   3.284   2.773   1.770 -0.2147  0.3560  0.0678
 5677SOL     OW28663   3.304   1.789  16.901 -0.2750  0.6276  0.2085
 5677SOL    HW128664   3.326   1.723  16.967  1.8216  3.3661  2.2507
 5677SOL    HW228665   3.314   1.743  16.818  0.8463  0.7248  0.2918
 5678SOL     OW28666   4.031   0.051   7.753 -0.4374  0.0052  0.0117
 5678SOL    HW128667   4.069   0.130   7.792 -0.0764 -0.6034  0.8653
 5678SOL    HW228668   4.025   0.074   7.660  2.4133  1.0704  0.0735
 5679SOL     OW28669   3.632   1.708   7.484 -0.4214 -0.5412 -0.5338
 5679SOL    HW128670   3.722   1.687   7.460 -0.2550 -0.3562 -0.0798
 5679SOL    HW228671   3.651   1.784   7.539 -1.8377 -2.2026  2.2239
 5680SOL     OW28672   3.109   1.776   6.464 -0.7418  0.1344  0.6989
 5680SOL    HW128673   3.022   1.816   6.468 -0.5214  0.6662  0.1790
 5680SOL    HW228674   3.119   1.733   6.549  1.1733 -1.8034 -0.5202
 5681SOL     OW28675   2.653   3.560   4.786  0.2621 -0.4140 -0.2153
 5681SOL    HW128676   2.593   3.627   4.753 -0.0525 -0.9307 -0.6991
 5681SOL    HW228677   2.739   3.596   4.768  1.1104 -0.9136  2.8111
 5682SOL     OW28678   4.177   4.134  12.869 -0.2558  0.5797 -0.0060
 5682SOL    HW128679   4.155   4.105  12.957 -0.3426  0.6529 -0.0033
 5682SOL    HW228680   4.100   4.184  12.844 -1.7318 -2.0419 -0.7144
 5683SOL     OW28681   2.392   3.229   5.626 -0.0023  0.0347 -0.0678
 5683SOL    HW128682   2.435   3.149   5.596 -1.1602 -1.0463  1.1638
 5683SOL    HW228683   2.368   3.204   5.715 -1.7091  2.7496  0.2370
 5684SOL     OW28684   0.309   0.952   4.349 -0.6016 -0.1425 -0.0991
 5684SOL    HW128685   0.223   0.990   4.332 -0.0289  0.0665 -2.4774
 5684SOL    HW228686   0.353   1.015   4.291  1.0983  2.6880  4.2502
 5685SOL     OW28687   4.161   1.746   6.421  0.1160 -0.3512 -0.1711
 5685SOL    HW128688   4.180   1.673   6.480  1.6289  0.9181  0.8811
 5685SOL    HW228689   4.246   1.790   6.419  0.2671 -0.5815  1.1357
 5686SOL     OW28690   0.607   0.887  11.141  0.7969  0.2419  0.7071
 5686SOL    HW128691   0.579   0.797  11.158 -0.0204  0.1347 -1.2222
 5686SOL    HW228692   0.529   0.940  11.158  1.3881  1.0143  1.0407
 5687SOL     OW28693   1.158   1.084   7.360 -0.0113 -0.0326  0.0187
 5687SOL    HW128694   1.094   1.055   7.294  0.5599 -0.0756 -0.5191
 5687SOL    HW228695   1.102   1.153   7.395  1.4088  1.2319 -0.1843
 5688SOL     OW28696   3.630   2.403   9.839  0.2251  0.3743  0.6780
 5688SOL    HW128697   3.590   2.442   9.761 -0.3993 -0.7759  0.4339
 5688SOL    HW228698   3.633   2.484   9.890 -0.4220  1.2619 -0.7149
 5689SOL     OW28699   3.387   3.550   0.593  0.2523  0.5557 -0.0274
 5689SOL    HW128700   3.382   3.603   0.513 -0.1582 -0.7213 -0.8542
 5689SOL    HW228701   3.323   3.599   0.644  1.1688  0.8718  0.7998
 5690SOL     OW28702   0.294   0.613  17.560 -0.3211 -0.0977  0.2196
 5690SOL    HW128703   0.242   0.582  17.635  1.5494  2.3696  2.5285
 5690SOL    HW228704   0.376   0.599  17.608 -0.2168  3.3582  1.0634
 5691SOL     OW28705   0.889   4.137   2.891  0.6216 -0.0084  0.3343
 5691SOL    HW128706   0.869   4.061   2.837 -1.6285 -0.2195  1.4550
 5691SOL    HW228707   0.948   4.105   2.959  2.5046  0.4776 -1.0912
 5692SOL     OW28708   0.418   3.846  12.402  0.1336 -0.4627  0.3443
 5692SOL    HW128709   0.403   3.758  12.369  1.1477 -1.0741  1.5223
 5692SOL    HW228710   0.482   3.877  12.337  0.1411  0.6463  0.8720
 5693SOL     OW28711   3.155   0.910   7.015 -0.1087 -0.0979 -0.4568
 5693SOL    HW128712   3.097   0.971   6.970  0.9210  1.4870  0.3859
 5693SOL    HW228713   3.229   0.963   7.044 -0.8039  0.1649  0.8214
 5694SOL     OW28714   3.619   3.739   8.800  0.1689  0.4102 -0.1552
 5694SOL    HW128715   3.561   3.777   8.865  0.3990 -1.8719  1.3787
 5694SOL    HW228716   3.560   3.737   8.724  1.1018 -0.2828 -0.8644
 5695SOL     OW28717   1.586   3.425   3.082  0.0598  0.7379  0.3426
 5695SOL    HW128718   1.589   3.479   3.004  1.2780 -1.1062 -0.8994
 5695SOL    HW228719   1.664   3.369   3.074  0.7535  1.6825  0.5348
 5696SOL     OW28720   3.857   3.188   6.365 -0.4032  0.1442  0.4926
 5696SOL    HW128721   3.906   3.267   6.387 -1.4942  1.1774 -0.8739
 5696SOL    HW228722   3.777   3.217   6.322  0.3484  1.7947  0.2333
 5697SOL     OW28723   0.574   1.977   5.713 -0.4616  0.0884  0.0589
 5697SOL    HW128724   0.601   1.996   5.802 -0.7663  0.8006  0.0017
 5697SOL    HW228725   0.479   1.963   5.722 -0.0503 -0.5509  3.0223
 5698SOL     OW28726   2.287   0.573   8.456 -0.0969 -0.2479 -0.1199
 5698SOL    HW128727   2.289   0.611   8.368  2.1855  2.8998  1.2744
 5698SOL    HW228728   2.200   0.533   8.458 -0.5102  0.7009  1.1124
 5699SOL     OW28729   3.531   2.876   8.832  0.0651  0.8422  0.0259
 5699SOL    HW128730   3.474   2.813   8.786  0.3451  1.2991 -0.9469
 5699SOL    HW228731   3.607   2.819   8.849 -0.9174 -0.5154 -0.1098
 5700SOL     OW28732   2.842   0.294  11.286  0.3812 -0.6417 -0.0886
 5700SOL    HW128733   2.817   0.268  11.375  0.6381  0.0533  0.1824
 5700SOL    HW228734   2.936   0.280  11.288  0.6121  0.8647 -0.8353
 5701SOL     OW28735   1.081   4.220   9.138  0.4289 -0.9347  0.0879
 5701SOL    HW128736   1.114   4.281   9.205  1.9633 -1.2034 -0.4394
 5701SOL    HW228737   0.992   4.201   9.169  0.7324  0.2434  1.7065
 5702SOL     OW28738   3.643   3.393   6.054 -0.3966 -0.8380  0.3725
 5702SOL    HW128739   3.707   3.340   6.101  2.3795  2.2104  0.0578
 5702SOL    HW228740   3.689   3.471   6.022 -0.5832 -0.7159  0.4023
 5703SOL     OW28741   0.556   0.316  11.083 -0.3939  0.4517 -0.3429
 5703SOL    HW128742   0.623   0.261  11.042  0.1198  0.8029  0.0264
 5703SOL    HW228743   0.525   0.257  11.153  0.9073  2.2171  1.7116
 5704SOL     OW28744   3.285   4.026   5.888 -0.5625  0.3543  0.1583
 5704SOL    HW128745   3.325   3.952   5.843 -1.4767 -1.4741  2.4039
 5704SOL    HW228746   3.358   4.062   5.937 -0.2081  1.1011 -0.9241
 5705SOL     OW28747   4.438   4.230   2.085 -0.0259 -0.2075  0.2970
 5705SOL    HW128748   4.472   4.230   2.174  1.8744  1.1184 -0.4475
 5705SOL    HW228749   4.517   4.252   2.036 -0.9663  0.4867 -0.9110
 5706SOL     OW28750   1.867   0.507   6.656  0.6016  0.3611  0.8930
 5706SOL    HW128751   1.870   0.543   6.745 -1.8214 -1.1458  1.5906
 5706SOL    HW228752   1.948   0.547   6.625  1.3995  0.4647  3.0937
 5707SOL     OW28753   2.148   4.230   5.800 -0.0141  0.5028  0.4133
 5707SOL    HW128754   2.123   4.321   5.817 -0.6890 -0.0820  2.6090
 5707SOL    HW228755   2.231   4.233   5.849 -1.2876 -0.0851  2.6246
 5708SOL     OW28756   3.252   1.770   8.933 -0.1093  0.3384  0.5470
 5708SOL    HW128757   3.315   1.784   9.003 -1.1354 -0.3119  1.5912
 5708SOL    HW228758   3.278   1.681   8.908  1.8007  0.3914  2.3728
 5709SOL     OW28759   0.778   4.084   0.842  0.9943 -0.7049  0.3416
 5709SOL    HW128760   0.732   4.168   0.838  1.4897 -0.5218 -1.9590
 5709SOL    HW228761   0.827   4.071   0.760  0.5873  1.1730 -0.1949
 5710SOL     OW28762   3.928   3.116   6.776  0.0145 -0.4191  0.0720
 5710SOL    HW128763   3.951   3.025   6.757  0.0542 -0.3974  0.0178
 5710SOL    HW228764   3.848   3.128   6.726 -0.4466 -1.9409  0.4259
 5711SOL     OW28765   0.167   0.281  17.621 -0.2959  0.0921  0.0860
 5711SOL    HW128766   0.165   0.195  17.579  0.9433  1.0875 -2.0245
 5711SOL    HW228767   0.221   0.328  17.557 -1.3379  0.4408 -0.5586
 5712SOL     OW28768   2.558   3.152   4.338 -0.5763 -0.4581 -0.1991
 5712SOL    HW128769   2.611   3.195   4.272  1.0500 -3.3312 -0.7659
 5712SOL    HW228770   2.569   3.210   4.413 -2.6994 -0.4094  0.0801
 5713SOL     OW28771   0.356   3.412   6.219  0.3824  0.1704  0.1694
 5713SOL    HW128772   0.412   3.486   6.201  1.2548 -0.7836 -1.0108
 5713SOL    HW228773   0.369   3.397   6.313  1.1740 -0.3818 -0.0299
 5714SOL     OW28774   4.420   2.837  12.169 -0.2815 -0.1480  0.1552
 5714SOL    HW128775   4.430   2.747  12.199  0.0385  0.8617  3.0764
 5714SOL    HW228776   4.358   2.832  12.097 -0.6385  0.8803  0.3820
 5715SOL     OW28777   3.816   1.772  15.149  0.6895 -0.8376  0.0787
 5715SOL    HW128778   3.741   1.711  15.149  0.1381 -0.1799 -4.0436
 5715SOL    HW228779   3.876   1.726  15.208  0.0129 -0.2118  1.2534
 5716SOL     OW28780   4.564   1.420  14.683 -0.9398 -0.2478  0.2580
 5716SOL    HW128781   4.581   1.443  14.592 -2.2518 -0.9955 -0.1767
 5716SOL    HW228782   4.526   1.334  14.667  1.0715 -0.2390 -4.4470
 5717SOL     OW28783   4.326   1.354   2.933 -0.2732  0.4659 -0.0239
 5717SOL    HW128784   4.327   1.297   2.856  0.4066  0.6516 -0.1570
 5717SOL    HW228785   4.276   1.430   2.904  2.2730  1.4972 -1.6745
 5718SOL     OW28786   4.362   1.906   7.820 -0.1141  0.0334 -0.3275
 5718SOL    HW128787   4.354   1.912   7.725 -0.0681 -1.6229 -0.4399
 5718SOL    HW228788   4.436   1.846   7.832  0.7057  0.9526 -0.8357
 5719SOL     OW28789   2.857   1.107   4.995 -0.1080 -0.2719 -0.5688
 5719SOL    HW128790   2.829   1.199   4.992  2.4213  0.5356  0.6239
 5719SOL    HW228791   2.870   1.082   4.904 -1.0185 -1.7246 -0.3037
 5720SOL     OW28792   2.378   1.628  12.590 -0.0045 -0.1651  0.5163
 5720SOL    HW128793   2.459   1.655  12.547 -0.4784 -0.3728 -0.4947
 5720SOL    HW228794   2.324   1.707  12.593 -0.7103 -0.5892 -0.9171
 5721SOL     OW28795   1.867   2.473   7.033  0.6485 -0.4044 -0.0556
 5721SOL    HW128796   1.947   2.484   7.084  0.1147  0.1521  0.6757
 5721SOL    HW228797   1.816   2.426   7.100 -0.1944 -0.3755 -0.6809
 5722SOL     OW28798   1.015   1.465   6.680  0.0944  0.2182  0.3021
 5722SOL    HW128799   1.078   1.514   6.626  0.2542  1.2890  1.4659
 5722SOL    HW228800   0.946   1.438   6.620  0.1623 -0.9019  0.7363
 5723SOL     OW28801   1.135   2.042   8.591  0.3790  0.7071 -0.0275
 5723SOL    HW128802   1.148   2.064   8.498  0.6989 -0.3750 -0.2409
 5723SOL    HW228803   1.049   2.083   8.596  0.5111  0.8626  1.0358
 5724SOL     OW28804   2.698   2.014  17.521 -0.0816 -0.3151 -0.4566
 5724SOL    HW128805   2.651   2.007  17.438  1.1879 -1.5395 -1.0856
 5724SOL    HW228806   2.748   1.932  17.521 -0.0161 -0.2796  0.3203
 5725SOL     OW28807   0.900   3.974   3.990 -0.4113 -0.4870  0.2099
 5725SOL    HW128808   0.915   3.920   4.067 -0.7209  0.0245  0.6245
 5725SOL    HW228809   0.836   4.034   4.028 -0.2662 -1.1453  1.4708
 5726SOL     OW28810   0.490   0.152  11.300  0.5671 -0.5837 -0.4295
 5726SOL    HW128811   0.466   0.126  11.389  1.1677  1.2445  0.2757
 5726SOL    HW228812   0.483   0.071  11.250 -0.0606 -0.6075 -0.3066
 5727SOL     OW28813   3.304   1.187   7.760 -0.3795 -0.0477 -0.4971
 5727SOL    HW128814   3.256   1.242   7.699 -2.0167  0.4541  1.2581
 5727SOL    HW228815   3.330   1.111   7.708  0.9250 -0.6329  0.9880
 5728SOL     OW28816   3.791   1.447   3.626  0.2544  0.2262  0.1867
 5728SOL    HW128817   3.798   1.451   3.530  0.2672  0.8187  0.2077
 5728SOL    HW228818   3.722   1.382   3.635  0.0303  0.1976 -1.6844
 5729SOL     OW28819   2.234   1.929   4.584 -0.6008 -0.4684 -0.7208
 5729SOL    HW128820   2.259   2.018   4.561 -2.8577  0.0220 -1.2095
 5729SOL    HW228821   2.150   1.934   4.629 -0.6072 -0.9563 -0.6818
 5730SOL     OW28822   3.077   3.014   7.736 -0.3218  0.0826  0.3960
 5730SOL    HW128823   3.004   3.075   7.731  0.6185  1.3527  2.1133
 5730SOL    HW228824   3.070   2.974   7.823  3.9407 -0.1185  0.6653
 5731SOL     OW28825   1.546   3.815   8.176 -0.3818  0.0407  0.0667
 5731SOL    HW128826   1.486   3.859   8.237 -0.8662 -0.6096  0.0676
 5731SOL    HW228827   1.629   3.844   8.213  0.1211 -0.6340 -0.5393
 5732SOL     OW28828   4.238   0.213   2.822  0.7728 -0.3259 -0.4758
 5732SOL    HW128829   4.172   0.146   2.838 -0.4651  1.1212  0.5374
 5732SOL    HW228830   4.230   0.252   2.909 -2.1198  0.0659 -0.9194
 5733SOL     OW28831   0.852   3.375  15.527 -0.0276  0.2830  0.1696
 5733SOL    HW128832   0.890   3.455  15.491  0.8561  0.8125  2.2739
 5733SOL    HW228833   0.851   3.325  15.445 -0.2909 -1.2280  1.1083
 5734SOL     OW28834   0.949   2.572  11.547  0.3512  0.3156 -0.1817
 5734SOL    HW128835   0.951   2.654  11.498  0.1297  0.7291  0.4951
 5734SOL    HW228836   1.032   2.572  11.594  0.6042  2.7965 -0.6482
 5735SOL     OW28837   3.444   4.652   8.980 -0.6329 -0.1633 -0.3793
 5735SOL    HW128838   3.524   4.625   8.934 -0.7095  2.3026 -1.9434
 5735SOL    HW228839   3.378   4.632   8.915 -0.1131 -0.0083 -0.9520
 5736SOL     OW28840   3.170   1.265  12.374  0.5063  0.2377 -0.0704
 5736SOL    HW128841   3.243   1.327  12.380 -0.1728  0.9193  0.9943
 5736SOL    HW228842   3.209   1.184  12.340 -0.6434  0.0839 -0.9872
 5737SOL     OW28843   4.495   1.917   1.936  0.0703  0.0661 -0.2781
 5737SOL    HW128844   4.488   1.842   1.877  0.7358 -0.9303  0.9043
 5737SOL    HW228845   4.529   1.990   1.884 -0.6338  0.5438 -0.0598
 5738SOL     OW28846   4.688   3.440   8.251  0.8584  0.4557  0.2489
 5738SOL    HW128847   4.602   3.480   8.242  0.0622 -0.9940  1.4464
 5738SOL    HW228848   4.682   3.369   8.188 -3.4291  0.6209  0.4732
 5739SOL     OW28849   0.542   1.071   5.571 -0.4437  1.0444 -0.2910
 5739SOL    HW128850   0.544   1.165   5.585 -1.8178  0.6944  2.1725
 5739SOL    HW228851   0.512   1.068   5.480 -1.6677  1.7353  0.1026
 5740SOL     OW28852   1.846   4.536   4.812 -0.4539 -0.2820  0.0605
 5740SOL    HW128853   1.785   4.515   4.741 -0.7794 -0.8532  0.5024
 5740SOL    HW228854   1.834   4.631   4.816  3.5513  0.1809  0.5255
 5741SOL     OW28855   3.892   2.672   9.775 -0.4549  0.4143  0.3399
 5741SOL    HW128856   3.895   2.577   9.771  0.6305  0.6165 -3.5506
 5741SOL    HW228857   3.943   2.696   9.853  0.2961  1.8251 -0.5820
 5742SOL     OW28858   4.534   4.189   6.882 -0.1957 -0.0168  0.6417
 5742SOL    HW128859   4.607   4.176   6.942  1.2533  2.4176 -0.6194
 5742SOL    HW228860   4.510   4.096   6.874 -1.8024  0.4214  0.3538
 5743SOL     OW28861   3.533   1.750   2.249  0.0519 -0.4996  0.3120
 5743SOL    HW128862   3.529   1.828   2.193 -2.9039  0.5342  1.9476
 5743SOL    HW228863   3.523   1.683   2.182  1.4334  1.3256 -1.7421
 5744SOL     OW28864   0.906   1.222  17.676  0.2192  0.4544 -0.3154
 5744SOL    HW128865   0.907   1.151  17.612 -0.0469  0.9733 -0.8991
 5744SOL    HW228866   0.860   1.294  17.632 -1.6822 -0.7518 -0.2782
 5745SOL     OW28867   2.500   3.026   5.146 -0.0149  0.5153 -0.5716
 5745SOL    HW128868   2.424   2.968   5.140 -0.3879  0.9396  0.1242
 5745SOL    HW228869   2.467   3.112   5.120  0.0332  1.0650  1.2167
 5746SOL     OW28870   1.384   0.394   2.064  0.0781  0.2454  0.1606
 5746SOL    HW128871   1.295   0.405   2.032 -0.7015 -1.8395  1.5724
 5746SOL    HW228872   1.423   0.430   1.985 -1.0398  0.8839 -0.0982
 5747SOL     OW28873   0.679   4.693   6.080  0.0815 -0.9694  0.3462
 5747SOL    HW128874   0.663   4.626   6.146  1.2706 -0.7261  0.8646
 5747SOL    HW228875   0.596   0.005   6.074 -0.6910 -2.2638  0.8282
 5748SOL     OW28876   2.976   2.439  17.620 -0.7797 -0.5179 -0.2052
 5748SOL    HW128877   2.970   2.442  17.715  1.7270 -1.3760 -0.0290
 5748SOL    HW228878   2.986   2.347  17.597 -0.6265 -0.4823 -0.2816
 5749SOL     OW28879   1.097   0.469   5.947  0.1685  0.0240 -0.0194
 5749SOL    HW128880   1.056   0.427   5.872 -1.5909 -0.6562  1.3159
 5749SOL    HW228881   1.059   0.424   6.022  1.5842 -2.5798 -0.8721
 5750SOL     OW28882   3.686   0.584   0.129  0.0035  0.4438 -0.4086
 5750SOL    HW128883   3.620   0.653   0.138  2.4318  2.6435  0.2050
 5750SOL    HW228884   3.697   0.550   0.218 -1.4250  1.5261  0.1777
 5751SOL     OW28885   3.577   4.026   6.771 -0.1230 -0.1754  0.3155
 5751SOL    HW128886   3.581   3.967   6.695  1.4096  2.4446 -1.6239
 5751SOL    HW228887   3.494   4.066   6.748 -0.6808 -0.6101  1.5977
 5752SOL     OW28888   2.745   3.273  12.137  0.5674 -0.3725  0.4563
 5752SOL    HW128889   2.769   3.335  12.068  0.8104 -0.6106  0.3292
 5752SOL    HW228890   2.794   3.196  12.109  2.8499  2.4759 -3.4539
 5753SOL     OW28891   4.229   0.184  13.261 -0.5505 -0.0475 -0.9058
 5753SOL    HW128892   4.298   0.221  13.316  0.2367 -0.9515 -1.2864
 5753SOL    HW228893   4.238   0.239  13.183 -1.8405 -0.5485 -1.4119
 5754SOL     OW28894   3.754   2.028   7.996 -0.1865 -0.4509  0.2559
 5754SOL    HW128895   3.833   2.046   8.048  1.2221 -2.4877 -1.1815
 5754SOL    HW228896   3.756   2.104   7.938 -1.2704 -1.8062 -1.5478
 5755SOL     OW28897   4.385   1.728   0.927  0.1096  0.1946  0.1660
 5755SOL    HW128898   4.424   1.668   0.991  0.5725  1.0387  0.6695
 5755SOL    HW228899   4.357   1.660   0.866 -1.6128  3.3233 -2.5204
 5756SOL     OW28900   2.538   2.741   3.431 -0.1076 -0.0092 -0.3822
 5756SOL    HW128901   2.536   2.835   3.451 -0.9767 -0.5552  2.1917
 5756SOL    HW228902   2.531   2.711   3.522  0.3865 -0.6662 -0.5627
 5757SOL     OW28903   3.894   2.971  13.496 -0.0432  0.3127  0.4329
 5757SOL    HW128904   3.980   2.929  13.490 -0.0792  0.1939  0.7547
 5757SOL    HW228905   3.929   3.054  13.464  0.3003 -0.0051 -0.0128
 5758SOL     OW28906   3.701   3.914   2.612  0.2261 -0.2171 -0.0090
 5758SOL    HW128907   3.782   3.964   2.612 -1.0522  1.8467 -1.1915
 5758SOL    HW228908   3.718   3.853   2.540  0.6556 -0.0135 -0.0784
 5759SOL     OW28909   2.430   1.386  12.702 -0.0320  0.5448  0.2732
 5759SOL    HW128910   2.406   1.475  12.730  0.4315  0.6017  0.4907
 5759SOL    HW228911   2.386   1.388  12.617 -0.0673 -1.5169  0.2431
 5760SOL     OW28912   0.212   2.157   5.476 -0.5222  0.4301  0.2765
 5760SOL    HW128913   0.169   2.183   5.394  0.3337  3.8387  0.8996
 5760SOL    HW228914   0.242   2.247   5.493  0.9818 -0.4744  2.4820
 5761SOL     OW28915   4.232   3.148   9.823  0.2100 -0.0456  0.4483
 5761SOL    HW128916   4.206   3.219   9.881  0.7218 -1.7905  2.8361
 5761SOL    HW228917   4.153   3.098   9.803 -0.5723  1.1105  0.6893
 5762SOL     OW28918   2.766   3.818  17.499  0.1929  0.7994  0.3154
 5762SOL    HW128919   2.834   3.814  17.566 -0.1171 -2.8204  0.3692
 5762SOL    HW228920   2.747   3.912  17.510 -1.6939  0.5566 -0.8321
 5763SOL     OW28921   0.081   1.989   2.716  0.3483 -0.6220  0.2266
 5763SOL    HW128922   0.034   2.037   2.648 -1.5267 -1.3752  0.9612
 5763SOL    HW228923   0.144   1.934   2.671  1.3198 -0.0049  0.8296
 5764SOL     OW28924   1.755   1.130  15.535 -0.3488  0.3607 -0.2448
 5764SOL    HW128925   1.676   1.107  15.486 -0.9895  1.7771  0.1258
 5764SOL    HW228926   1.822   1.079  15.488 -0.3773 -0.1580  0.2733
 5765SOL     OW28927   2.832   2.288   2.191 -0.5727  0.5427 -0.0342
 5765SOL    HW128928   2.915   2.243   2.175 -0.4263  0.5480  0.7274
 5765SOL    HW228929   2.769   2.218   2.174  1.4420 -0.2291 -4.4328
 5766SOL     OW28930   3.997   0.626  13.432  0.1254  0.9021 -0.2201
 5766SOL    HW128931   4.053   0.596  13.360  1.6514  2.6292  0.2523
 5766SOL    HW228932   4.042   0.608  13.514 -0.3124 -0.2844 -0.2364
 5767SOL     OW28933   1.694   3.900  12.487 -0.4053  0.3209 -0.1848
 5767SOL    HW128934   1.733   3.863  12.407 -1.5976 -2.2976  0.4378
 5767SOL    HW228935   1.604   3.917  12.459 -0.7003 -1.0069 -0.0202
 5768SOL     OW28936   1.692   0.349   5.563 -0.3154  0.5196 -0.1821
 5768SOL    HW128937   1.742   0.428   5.542 -2.5003  1.7457 -0.7827
 5768SOL    HW228938   1.603   0.377   5.541 -0.4647  0.8220  0.7808
 5769SOL     OW28939   4.336   3.722   8.401  0.0195  0.5764  0.5798
 5769SOL    HW128940   4.353   3.800   8.348  2.7930 -0.0758  0.5067
 5769SOL    HW228941   4.241   3.720   8.411 -0.0713  0.5576 -0.2741
 5770SOL     OW28942   0.540   1.206   8.865  0.3740  0.2582  0.1588
 5770SOL    HW128943   0.472   1.233   8.802  0.8218  5.2713  1.8233
 5770SOL    HW228944   0.493   1.206   8.948  0.7352 -0.3916  0.3586
 5771SOL     OW28945   2.594   2.968   1.908 -0.4248 -0.1145  0.0631
 5771SOL    HW128946   2.524   2.908   1.882  0.1340 -0.9408  0.4743
 5771SOL    HW228947   2.554   3.054   1.899  0.2454 -0.0084 -1.9351
 5772SOL     OW28948   2.604   0.625   1.885  0.1645 -0.0190 -0.4015
 5772SOL    HW128949   2.663   0.550   1.879  1.8016  1.0365  2.5652
 5772SOL    HW228950   2.653   0.697   1.924 -1.2030  0.0708  1.1537
 5773SOL     OW28951   2.544   2.417   1.128 -0.0415  0.3950 -0.1521
 5773SOL    HW128952   2.627   2.381   1.098 -0.1990  0.4787 -0.6998
 5773SOL    HW228953   2.568   2.509   1.118 -2.1060  1.2165  2.5067
 5774SOL     OW28954   1.863   0.940   4.950 -0.0379 -0.3059  0.1902
 5774SOL    HW128955   1.928   0.995   4.994  1.3891 -0.7939 -1.3336
 5774SOL    HW228956   1.849   0.872   5.017 -0.2345  1.3258  1.8144
 5775SOL     OW28957   2.972   0.011   6.996  0.5905 -0.2861  0.6836
 5775SOL    HW128958   2.952   0.104   7.008  0.4501 -0.2642  0.2796
 5775SOL    HW228959   2.881   4.719   6.982  0.1556  2.0560 -1.1392
 5776SOL     OW28960   0.030   2.273   6.938 -0.2944  0.5171 -0.4378
 5776SOL    HW128961   4.683   2.318   6.957 -0.8025 -0.7741  0.3457
 5776SOL    HW228962   0.093   2.327   6.987  0.3864 -0.7354  0.0612
 5777SOL     OW28963   4.580   0.843   6.214 -0.2756  0.0959 -0.3567
 5777SOL    HW128964   4.535   0.897   6.279  0.5447 -0.9985  1.1133
 5777SOL    HW228965   4.511   0.778   6.201 -0.4518  0.0427  0.8172
 5778SOL     OW28966   1.707   0.177   9.090 -0.1145  0.5647 -0.3969
 5778SOL    HW128967   1.777   0.182   9.025  1.2482  3.5985  1.2727
 5778SOL    HW228968   1.637   0.189   9.026 -0.7340  0.5806  0.2760
 5779SOL     OW28969   0.424   2.200   3.962 -0.4444 -0.2373  0.1130
 5779SOL    HW128970   0.341   2.212   3.916  0.7005  2.2894 -1.3292
 5779SOL    HW228971   0.470   2.133   3.913 -1.8537 -2.0024  1.2185
 5780SOL     OW28972   0.810   1.804   7.022 -0.3404 -0.0468 -0.7326
 5780SOL    HW128973   0.774   1.804   6.933 -1.7306  1.2444 -0.1547
 5780SOL    HW228974   0.862   1.724   7.024 -2.1273 -1.1450  1.6972
 5781SOL     OW28975   0.608   0.433   2.993  0.2715 -0.2662  0.1197
 5781SOL    HW128976   0.624   0.384   3.074  3.2129  1.1161  0.3628
 5781SOL    HW228977   0.552   0.506   3.020  0.5570  0.2782 -0.7710
 5782SOL     OW28978   1.079   0.982  17.198  0.7978 -0.1569  0.5177
 5782SOL    HW128979   1.129   0.900  17.192 -0.9795 -1.2599  0.9526
 5782SOL    HW228980   1.137   1.041  17.150 -0.7698  0.4697 -0.5830
 5783SOL     OW28981   4.468   2.045   3.510 -0.6496  0.4078 -0.1831
 5783SOL    HW128982   4.407   2.099   3.562 -0.8540 -0.2546  0.2573
 5783SOL    HW228983   4.551   2.090   3.499 -0.1327 -0.4468  0.2616
 5784SOL     OW28984   0.325   0.532   5.203 -0.1507  0.3002 -0.0275
 5784SOL    HW128985   0.407   0.580   5.188  0.1472 -0.5849 -1.2237
 5784SOL    HW228986   0.281   0.595   5.260 -1.4216 -1.3643  0.8225
 5785SOL     OW28987   0.726   1.669  16.081  0.1004 -0.3879 -0.3190
 5785SOL    HW128988   0.797   1.691  16.142  1.2005 -1.3846 -1.2349
 5785SOL    HW228989   0.762   1.608  16.017  0.9258 -1.4095  1.1281
 5786SOL     OW28990   3.356   2.590  16.146  0.3821 -0.1832 -0.2114
 5786SOL    HW128991   3.431   2.589  16.206  1.4206 -0.9932 -1.5082
 5786SOL    HW228992   3.288   2.642  16.187  0.0714 -1.2074  0.5862
 5787SOL     OW28993   1.833   3.691   6.221 -0.5232  0.1279  0.3434
 5787SOL    HW128994   1.797   3.604   6.204  1.2449 -0.9725  2.1968
 5787SOL    HW228995   1.801   3.737   6.144 -0.7647  0.6652  0.7692
 5788SOL     OW28996   2.069   4.677   6.328  0.3030  0.2222 -0.1627
 5788SOL    HW128997   2.077   4.598   6.276  0.0211 -0.9618  1.5652
 5788SOL    HW228998   2.079   0.014   6.266 -2.1652  0.1500 -0.6704
 5789SOL     OW28999   1.940   2.280   8.298 -0.4307  0.3380 -0.1513
 5789SOL    HW129000   1.977   2.239   8.219  1.8758  0.7164  0.7325
 5789SOL    HW229001   1.856   2.238   8.319  0.2248 -0.7755  0.2629
 5790SOL     OW29002   1.725   2.896   8.199 -0.4017 -0.1312  0.5556
 5790SOL    HW129003   1.638   2.888   8.161  0.6677 -1.4127 -1.5640
 5790SOL    HW229004   1.781   2.851   8.136  0.4238  0.8629  0.5807
 5791SOL     OW29005   1.132   0.099  10.124  0.1936  0.5051 -0.3156
 5791SOL    HW129006   1.078   0.060  10.056  0.3628  1.5411 -1.0387
 5791SOL    HW229007   1.086   0.082  10.206  1.1041 -1.3712 -0.1762
 5792SOL     OW29008   2.006   3.958   7.967 -0.0158  0.2289 -0.4392
 5792SOL    HW129009   1.982   3.986   8.055 -0.4217  1.9811 -1.0941
 5792SOL    HW229010   2.060   4.035   7.950  0.7999 -0.4749 -1.0074
 5793SOL     OW29011   0.635   1.380   0.349  0.0813 -0.3405  0.6142
 5793SOL    HW129012   0.670   1.429   0.274  0.2901 -0.8199  0.3969
 5793SOL    HW229013   0.542   1.379   0.327  0.6285  1.0015 -1.6887
 5794SOL     OW29014   0.456   0.016   8.018 -0.0899 -0.3239  0.1740
 5794SOL    HW129015   0.474   4.695   8.094 -2.2316 -1.4110 -0.1169
 5794SOL    HW229016   0.405   4.696   7.958 -0.3681  0.0520  0.0688
 5795SOL     OW29017   3.179   2.269   4.719 -0.6098  0.0823  0.4882
 5795SOL    HW129018   3.189   2.207   4.646  0.4709  0.3606  0.4063
 5795SOL    HW229019   3.085   2.284   4.711 -0.4101  0.3104 -1.5453
 5796SOL     OW29020   2.003   4.352   0.125 -0.1375 -0.1762 -0.3339
 5796SOL    HW129021   2.085   4.303   0.129 -0.6060 -0.5669  4.4555
 5796SOL    HW229022   1.974   4.353   0.217  0.3495 -1.5931 -0.1708
 5797SOL     OW29023   3.397   2.501   0.855 -0.5992  0.0737 -0.2578
 5797SOL    HW129024   3.309   2.537   0.846 -0.5101  0.5953  0.9073
 5797SOL    HW229025   3.442   2.584   0.871 -0.8710  0.0597  0.5784
 5798SOL     OW29026   0.347   3.158   6.124  0.0277 -0.0028  0.4516
 5798SOL    HW129027   0.315   3.235   6.170 -1.3451  0.4725 -1.3084
 5798SOL    HW229028   0.289   3.087   6.154  0.4743 -0.2556  0.7249
 5799SOL     OW29029   3.423   2.963   1.997 -0.1311 -0.2702  0.2032
 5799SOL    HW129030   3.384   2.880   1.968  1.3545 -1.5690  1.9135
 5799SOL    HW229031   3.514   2.961   1.968 -0.2178  2.5258 -0.2016
 5800SOL     OW29032   3.907   0.788   6.587 -0.3092  0.6370  0.3078
 5800SOL    HW129033   3.917   0.700   6.550 -0.6863  0.8350 -0.2695
 5800SOL    HW229034   3.920   0.843   6.510  1.9500 -0.6111 -0.1963
 5801SOL     OW29035   3.540   3.150   1.145  0.2520  0.3814  0.2231
 5801SOL    HW129036   3.447   3.170   1.134 -0.2796 -1.4602  1.2431
 5801SOL    HW229037   3.564   3.221   1.206  0.7974 -1.1992  1.8638
 5802SOL     OW29038   1.794   2.074   4.138  0.4972  0.3127 -0.3444
 5802SOL    HW129039   1.751   2.089   4.053  1.0962  0.3437 -0.6441
 5802SOL    HW229040   1.760   2.152   4.181  0.2941  0.9600 -1.6756
 5803SOL     OW29041   2.779   4.429   2.113 -0.6304 -0.1701  0.1379
 5803SOL    HW129042   2.818   4.495   2.054 -1.1783  0.6972  0.7441
 5803SOL    HW229043   2.793   4.481   2.192 -3.7462 -1.2255  1.3450
 5804SOL     OW29044   0.192   2.522  13.908 -0.2147  0.4987  0.0826
 5804SOL    HW129045   0.129   2.579  13.864  3.3387  2.5130 -2.3688
 5804SOL    HW229046   0.140   2.449  13.943  1.7196 -0.4012  1.0794
 5805SOL     OW29047   2.057   1.222   3.621 -0.5189 -0.6741 -0.1042
 5805SOL    HW129048   2.115   1.175   3.561 -1.0791  0.0862 -1.2548
 5805SOL    HW229049   2.020   1.284   3.558  0.3527 -0.8672 -0.8037
 5806SOL     OW29050   2.889   0.476   8.843  0.3488 -0.5955 -0.0498
 5806SOL    HW129051   2.889   0.426   8.761  1.0275 -1.1267  0.2629
 5806SOL    HW229052   2.925   0.406   8.898 -0.2463 -1.1999 -0.4252
 5807SOL     OW29053   1.011   1.790   3.405 -0.0616 -0.0004  0.4126
 5807SOL    HW129054   0.979   1.861   3.350  0.6446  0.0994  0.1339
 5807SOL    HW229055   0.940   1.727   3.398  1.0117 -1.3485  1.7590
 5808SOL     OW29056   2.943   1.677   8.338 -0.1643 -0.1620  0.0933
 5808SOL    HW129057   2.969   1.585   8.329 -2.7901 -0.9119  0.1526
 5808SOL    HW229058   2.885   1.676   8.415 -0.2367 -0.5311  0.0336
 5809SOL     OW29059   3.073   2.175   2.158  0.4098 -0.0693  0.1920
 5809SOL    HW129060   3.068   2.120   2.237 -1.4830 -2.5456 -1.6708
 5809SOL    HW229061   3.104   2.122   2.085  0.9427 -1.7191  1.6084
 5810SOL     OW29062   1.028   3.567  14.687  0.4291  0.1687  0.3275
 5810SOL    HW129063   0.991   3.605  14.608  1.2869 -2.7247 -1.4524
 5810SOL    HW229064   1.117   3.554  14.653  0.5618  0.4262  0.5744
 5811SOL     OW29065   0.565   0.574   9.017 -0.0093  0.0615  0.2577
 5811SOL    HW129066   0.483   0.525   9.003  0.2986 -0.0576 -1.1847
 5811SOL    HW229067   0.592   0.574   8.925  0.2999 -0.8201  0.3506
 5812SOL     OW29068   1.707   1.311  10.740  0.2844 -0.5014  0.3980
 5812SOL    HW129069   1.660   1.260  10.806  0.3634 -0.9023  0.1437
 5812SOL    HW229070   1.757   1.232  10.718  1.5590  0.5582 -0.4666
 5813SOL     OW29071   2.799   1.672  14.106  0.1137  0.3695  0.0717
 5813SOL    HW129072   2.885   1.711  14.122  0.7032 -1.0345  0.3581
 5813SOL    HW229073   2.773   1.647  14.195  0.4621  1.8201  0.5926
 5814SOL     OW29074   2.453   1.948  16.592 -0.2327  0.1338  0.1789
 5814SOL    HW129075   2.540   1.984  16.606  0.3873 -1.2267 -0.1445
 5814SOL    HW229076   2.485   1.865  16.555  2.1725  0.7283  0.9468
 5815SOL     OW29077   0.071   2.744   7.657 -0.1705 -0.0203  0.0896
 5815SOL    HW129078   0.026   2.669   7.696 -2.3216  0.0784 -2.1855
 5815SOL    HW229079   0.151   2.705   7.623 -0.5183  0.0799 -0.8498
 5816SOL     OW29080   4.046   1.963  17.228  0.1882  0.2685 -0.0203
 5816SOL    HW129081   4.030   2.055  17.251  1.5350  1.5610 -4.2634
 5816SOL    HW229082   4.137   1.971  17.199  0.3980  0.4343  0.6709
 5817SOL     OW29083   1.800   3.234   3.027 -0.9032 -0.9445  0.2042
 5817SOL    HW129084   1.795   3.214   2.933  2.3330 -0.2389 -0.1267
 5817SOL    HW229085   1.867   3.168   3.045  0.5902  0.4855 -0.1189
 5818SOL     OW29086   1.353   3.088   8.278 -0.0296 -0.7466  0.2069
 5818SOL    HW129087   1.289   3.160   8.271  1.1155  0.3153  0.7106
 5818SOL    HW229088   1.326   3.036   8.354 -0.1154 -0.9932  0.0086
 5819SOL     OW29089   1.873   4.028   7.323 -0.7358  0.0100 -0.4391
 5819SOL    HW129090   1.798   4.016   7.381  0.0457 -1.5721  0.2240
 5819SOL    HW229091   1.882   3.936   7.298  0.7519  0.4946 -1.7327
 5820SOL     OW29092   3.059   0.216  13.151  0.3927 -0.2304 -0.1218
 5820SOL    HW129093   3.136   0.190  13.101 -0.3885 -2.3490 -0.2292
 5820SOL    HW229094   3.068   0.311  13.141 -0.6518  0.0566  1.6046
 5821SOL     OW29095   1.394   0.452   4.869 -0.0691  0.0451 -0.5528
 5821SOL    HW129096   1.427   0.541   4.856  0.6838 -0.2473 -0.6588
 5821SOL    HW229097   1.444   0.420   4.944 -0.1834  1.6306  0.1951
 5822SOL     OW29098   3.067   3.112   8.430 -0.4797  0.6932  0.1106
 5822SOL    HW129099   3.108   3.030   8.458  0.9387  1.3068 -0.1875
 5822SOL    HW229100   3.042   3.142   8.518  0.7306  1.6966  0.1012
 5823SOL     OW29101   1.669   1.986  10.382  0.6023  0.1818  0.2017
 5823SOL    HW129102   1.599   2.018  10.326  1.6587  3.7456  0.8577
 5823SOL    HW229103   1.690   2.061  10.438  0.4948  1.3074 -1.2587
 5824SOL     OW29104   3.615   2.853  14.405  0.8403  0.0701  0.3939
 5824SOL    HW129105   3.542   2.797  14.378  0.7806  0.0101  0.6891
 5824SOL    HW229106   3.571   2.938  14.400 -0.1610 -0.3814  1.6144
 5825SOL     OW29107   2.386   0.236   2.325 -0.4408  0.2171  0.7191
 5825SOL    HW129108   2.392   0.181   2.403  0.2698  0.9997  1.2220
 5825SOL    HW229109   2.422   0.184   2.253 -0.3769 -1.8544  2.2698
 5826SOL     OW29110   1.535   2.881   6.902 -0.3983  0.2579 -1.1075
 5826SOL    HW129111   1.591   2.803   6.908 -1.4970 -0.2964  1.6744
 5826SOL    HW229112   1.601   2.951   6.900  0.0875 -0.1020  1.4589
 5827SOL     OW29113   4.509   4.271   4.226  0.2754  0.3026  0.2922
 5827SOL    HW129114   4.596   4.299   4.197 -0.1003  1.8713  0.6777
 5827SOL    HW229115   4.522   4.304   4.315 -0.3400  1.3421  0.0009
 5828SOL     OW29116   0.155   2.215   5.810 -0.0266 -0.1077 -0.4016
 5828SOL    HW129117   0.158   2.242   5.718  0.7762  0.4397 -0.2213
 5828SOL    HW229118   0.090   2.146   5.816 -1.5743  1.1815 -2.3617
 5829SOL     OW29119   3.981   3.750   4.006  0.1739 -0.4308 -0.2299
 5829SOL    HW129120   3.903   3.694   4.013  0.5808 -0.9860 -0.1207
 5829SOL    HW229121   4.028   3.727   4.087 -1.1677 -0.2492  0.6083
 5830SOL     OW29122   3.716   0.244   7.393 -0.0905 -0.5487 -0.1816
 5830SOL    HW129123   3.705   0.200   7.308 -1.6807 -1.0166  0.2651
 5830SOL    HW229124   3.664   0.321   7.372  2.1008  0.7550 -0.8498
 5831SOL     OW29125   0.093   2.331  16.809  0.0266 -0.3353 -0.0086
 5831SOL    HW129126   0.021   2.296  16.756  2.0409 -3.0865 -0.9345
 5831SOL    HW229127   0.157   2.354  16.742 -1.1811  2.1749 -0.3009
 5832SOL     OW29128   1.607   1.862   6.207 -0.3924  0.1140  0.0995
 5832SOL    HW129129   1.633   1.949   6.177 -1.1411  0.3080  0.0235
 5832SOL    HW229130   1.531   1.854   6.150 -1.4921 -0.2938  1.6283
 5833SOL     OW29131   2.614   1.165   8.748 -0.4148 -0.7537  0.4982
 5833SOL    HW129132   2.524   1.192   8.728 -0.2876  2.4904  4.1620
 5833SOL    HW229133   2.653   1.160   8.661  1.5151 -0.1840  1.3398
 5834SOL     OW29134   3.191   2.450  14.153 -0.7251  0.1591 -0.5512
 5834SOL    HW129135   3.195   2.540  14.121 -2.0502  0.2732 -0.4138
 5834SOL    HW229136   3.175   2.405  14.070  0.2106 -0.3435 -0.4564
 5835SOL     OW29137   1.656   2.386   3.182  0.4031 -0.9475  0.5962
 5835SOL    HW129138   1.561   2.381   3.196  0.3879  1.1270  1.3162
 5835SOL    HW229139   1.686   2.332   3.254 -0.7026  0.3979  2.0719
 5836SOL     OW29140   2.440   4.173   5.355 -0.2783  0.1876  0.0310
 5836SOL    HW129141   2.451   4.088   5.399 -2.5040 -0.9732 -1.6108
 5836SOL    HW229142   2.376   4.154   5.286  0.0343  0.7286 -0.3966
 5837SOL     OW29143   2.713   2.569   5.940 -0.0115  0.1858 -0.0307
 5837SOL    HW129144   2.786   2.510   5.955  0.6071  1.0904  0.4892
 5837SOL    HW229145   2.642   2.505   5.935  2.2977 -2.2598 -0.9148
 5838SOL     OW29146   3.420   3.747  13.299 -0.8311 -0.0383 -0.0499
 5838SOL    HW129147   3.337   3.705  13.274 -0.5250 -0.4074 -0.4338
 5838SOL    HW229148   3.469   3.743  13.217 -1.4704 -3.0344 -0.3026
 5839SOL     OW29149   2.085   1.813   8.753  0.0940  0.5577  0.3758
 5839SOL    HW129150   2.116   1.815   8.662 -2.0720  2.5171 -0.3412
 5839SOL    HW229151   2.117   1.895   8.789  0.0843  0.6976  0.0699
 5840SOL     OW29152   2.220   3.875  11.650  0.7364  0.2056  0.7473
 5840SOL    HW129153   2.285   3.916  11.707 -0.5485 -0.3649  2.6533
 5840SOL    HW229154   2.244   3.783  11.662  0.2156  0.1240  1.1794
 5841SOL     OW29155   4.484   3.665   6.483  0.0406 -0.3899 -0.9032
 5841SOL    HW129156   4.423   3.601   6.446 -1.0497  0.6949 -0.9770
 5841SOL    HW229157   4.552   3.666   6.415 -0.6067  0.9728 -1.5185
 5842SOL     OW29158   1.786   2.229  14.458  0.6034 -0.3234  0.4147
 5842SOL    HW129159   1.825   2.157  14.409 -1.3835 -1.1823  0.0849
 5842SOL    HW229160   1.817   2.309  14.418  1.9193 -0.3649  1.3696
 5843SOL     OW29161   4.490   4.206   5.936  0.0824  0.0163  0.5208
 5843SOL    HW129162   4.497   4.186   6.030  0.8617 -3.4200 -0.2854
 5843SOL    HW229163   4.541   4.287   5.931 -1.4544  1.0623  1.7245
 5844SOL     OW29164   1.516   1.064  10.449  0.6196 -0.1258 -0.1023
 5844SOL    HW129165   1.456   0.995  10.421  0.9575 -0.7164  0.6408
 5844SOL    HW229166   1.526   1.112  10.366  0.1086 -0.6836 -0.4880
 5845SOL     OW29167   0.849   4.501   8.079  0.0241  1.1612  0.0558
 5845SOL    HW129168   0.829   4.561   8.151 -1.1006  1.3172 -0.3806
 5845SOL    HW229169   0.789   4.536   8.012  0.1213 -0.8473 -1.0662
 5846SOL     OW29170   3.438   3.379   7.521 -0.0787 -0.6283  0.1357
 5846SOL    HW129171   3.381   3.302   7.520 -0.0235 -0.6660 -0.1976
 5846SOL    HW229172   3.413   3.433   7.596 -2.6810  0.8499 -1.7928
 5847SOL     OW29173   1.549   4.356   6.844  0.1620 -0.3863  0.3553
 5847SOL    HW129174   1.613   4.302   6.799 -0.1432  1.2862 -2.0763
 5847SOL    HW229175   1.560   4.306   6.925 -0.2451  0.4149  0.9005
 5848SOL     OW29176   0.960   1.346   7.099  0.1200  0.3201 -0.2261
 5848SOL    HW129177   1.001   1.373   7.181 -1.4418  0.9684  0.3462
 5848SOL    HW229178   1.033   1.296   7.063 -0.8186 -1.6039  0.5359
 5849SOL     OW29179   2.622   2.746   0.611 -0.1285  0.0358  0.1623
 5849SOL    HW129180   2.689   2.696   0.563 -0.4715  0.3567 -0.6556
 5849SOL    HW229181   2.562   2.671   0.614  1.7246 -1.4350  0.6170
 5850SOL     OW29182   0.748   3.225   5.096  0.2829 -0.6468  0.4345
 5850SOL    HW129183   0.828   3.172   5.096  0.8865  0.2787 -2.6535
 5850SOL    HW229184   0.759   3.256   5.006  0.4172  0.5589  0.8641
 5851SOL     OW29185   1.004   2.985   4.139  0.0471 -0.5422 -0.0483
 5851SOL    HW129186   0.977   2.908   4.189  1.4700 -1.9299 -1.3862
 5851SOL    HW229187   0.955   2.975   4.057 -0.3009  1.4308 -0.0818
 5852SOL     OW29188   1.771   1.530   6.795  0.1688  0.5599  0.2882
 5852SOL    HW129189   1.743   1.583   6.721  1.4178 -0.6458 -1.0620
 5852SOL    HW229190   1.687   1.488   6.813  0.5680 -1.2291 -2.0209
 5853SOL     OW29191   3.105   4.716  15.820 -0.0340  0.2385  0.2569
 5853SOL    HW129192   3.086   0.062  15.868 -0.2622  1.9059 -2.6828
 5853SOL    HW229193   3.015   4.693  15.796  0.0475 -0.4705  0.6479
 5854SOL     OW29194   0.759   4.581  10.072  0.0675  0.3666  0.5682
 5854SOL    HW129195   0.732   4.523  10.000  2.9808  0.7592 -0.8514
 5854SOL    HW229196   0.780   4.515  10.138  0.5727 -0.7180 -0.6650
 5855SOL     OW29197   3.091   2.524  17.111  0.1960  0.2086  0.5285
 5855SOL    HW129198   3.012   2.470  17.111 -0.3414  0.9768  3.7687
 5855SOL    HW229199   3.133   2.473  17.180 -1.5100 -0.1855  1.2671
 5856SOL     OW29200   3.343   0.495   1.996 -0.2988 -0.2803  0.2542
 5856SOL    HW129201   3.257   0.480   1.957  0.0756  0.8287 -1.0075
 5856SOL    HW229202   3.405   0.454   1.936  0.1249  0.0068  0.4937
 5857SOL     OW29203   4.608   3.869   7.930  0.1513  0.1613  0.8215
 5857SOL    HW129204   4.595   3.834   7.842  4.2887  0.6025  0.0475
 5857SOL    HW229205   4.525   3.904   7.965 -1.5826 -1.5185 -1.6124
 5858SOL     OW29206   4.283   1.471  16.464 -0.2627 -0.5053  0.4024
 5858SOL    HW129207   4.209   1.439  16.412 -0.9099  0.9886  0.3991
 5858SOL    HW229208   4.301   1.548  16.410 -2.0811 -0.9259 -0.7961
 5859SOL     OW29209   0.144   1.938  17.098 -0.0358 -0.1890  0.2900
 5859SOL    HW129210   0.117   1.985  17.177  3.5533  0.9144  0.8655
 5859SOL    HW229211   0.233   1.972  17.092 -0.7919  1.5501 -1.1958
 5860SOL     OW29212   0.928   1.100   6.454 -0.0567  0.3162 -0.1800
 5860SOL    HW129213   0.952   1.058   6.371  0.2465 -0.1450  0.1409
 5860SOL    HW229214   0.908   1.026   6.512 -0.7762  0.3467 -0.3975
 5861SOL     OW29215   0.016   4.411  11.680  0.3536 -0.0905  0.2914
 5861SOL    HW129216   4.693   4.370  11.615  0.7501  0.8141 -0.6411
 5861SOL    HW229217   4.719   4.501  11.681 -0.9066 -0.5261 -0.3166
 5862SOL     OW29218   3.316   3.277   6.959  0.0948 -0.0300  0.2706
 5862SOL    HW129219   3.242   3.268   6.899  1.2827 -0.2019 -1.1553
 5862SOL    HW229220   3.279   3.353   7.005  1.6293  1.4182 -0.8894
 5863SOL     OW29221   4.375   1.088  15.766 -0.2293 -0.1062  0.5448
 5863SOL    HW129222   4.368   1.156  15.700  1.9085 -1.4399 -1.0427
 5863SOL    HW229223   4.285   1.096  15.798 -0.3180  0.5357  0.1249
 5864SOL     OW29224   3.550   2.397   4.934 -0.1399  0.3212 -0.2356
 5864SOL    HW129225   3.571   2.465   4.870 -2.1327  1.1376 -0.0123
 5864SOL    HW229226   3.459   2.417   4.955  0.1164  0.5436  0.6674
 5865SOL     OW29227   0.995   1.004   5.827 -0.3648 -0.2085  0.5306
 5865SOL    HW129228   0.958   0.929   5.780  2.4343 -1.8440  0.9249
 5865SOL    HW229229   1.046   0.951   5.889 -0.1989  0.6056  1.0887
 5866SOL     OW29230   0.964   0.763   5.332  0.7012  0.5101 -0.0095
 5866SOL    HW129231   0.941   0.697   5.266  1.0467 -0.7763  1.1600
 5866SOL    HW229232   0.878   0.800   5.352 -0.4869 -2.2360  0.0312
 5867SOL     OW29233   1.915   2.833   5.142 -0.1154  0.1919  0.3050
 5867SOL    HW129234   1.932   2.835   5.047  1.9715  3.0355  0.7668
 5867SOL    HW229235   1.932   2.742   5.166  0.8965  0.6742  1.3888
 5868SOL     OW29236   3.656   0.334   6.584 -0.0275  0.1521 -0.2332
 5868SOL    HW129237   3.578   0.278   6.587 -0.5407  0.9972  2.1002
 5868SOL    HW229238   3.719   0.282   6.534 -0.0984  1.3932 -1.6122
 5869SOL     OW29239   0.315   0.048   2.461  0.6458 -0.5860 -0.1311
 5869SOL    HW129240   0.357   0.050   2.375 -0.9362  0.5437 -0.8632
 5869SOL    HW229241   0.401   0.066   2.501  0.9098 -0.7491 -0.6254
 5870SOL     OW29242   4.180   3.752   1.634  0.0666 -0.3559 -0.4801
 5870SOL    HW129243   4.107   3.704   1.674 -0.2727  0.2217 -0.4135
 5870SOL    HW229244   4.139   3.838   1.624 -1.0355 -0.8389 -0.2109
 5871SOL     OW29245   3.481   3.055   9.508 -0.1766  0.0876  0.4984
 5871SOL    HW129246   3.406   3.066   9.566 -1.4669  0.2471 -1.2391
 5871SOL    HW229247   3.477   2.960   9.497  1.4544  0.2215 -1.2992
 5872SOL     OW29248   1.085   2.385   5.744  0.7012  0.1224  0.4891
 5872SOL    HW129249   1.167   2.377   5.695 -0.3595  0.3940 -1.2986
 5872SOL    HW229250   1.123   2.447   5.808  0.0468  0.4968  0.5162
 5873SOL     OW29251   3.762   2.888   9.673  0.1604  0.0806 -0.4748
 5873SOL    HW129252   3.796   2.806   9.707  0.0393  0.6646  1.0474
 5873SOL    HW229253   3.683   2.860   9.626 -0.1049  0.3098 -0.1683
 5874SOL     OW29254   2.470   3.465  12.413 -0.2305 -1.2331  0.7283
 5874SOL    HW129255   2.451   3.425  12.498  0.1102 -1.4467  0.7030
 5874SOL    HW229256   2.409   3.539  12.406  1.4179  0.3057  2.6312
 5875SOL     OW29257   0.937   2.134   6.473 -0.0250  0.2413  0.0088
 5875SOL    HW129258   0.989   2.136   6.553 -1.7791 -0.1348  1.1475
 5875SOL    HW229259   0.929   2.225   6.443  1.1162  0.6281  0.8696
 5876SOL     OW29260   1.757   2.954   7.467  0.2739  0.4541  0.1316
 5876SOL    HW129261   1.776   2.866   7.434  2.3724  0.8242  0.3815
 5876SOL    HW229262   1.720   2.938   7.554  0.8038 -0.6113  0.1564
 5877SOL     OW29263   3.857   1.832  16.985 -0.1477 -0.4475 -0.0718
 5877SOL    HW129264   3.786   1.877  17.031  0.5063 -2.3576  2.7537
 5877SOL    HW229265   3.879   1.891  16.912 -0.3625 -1.2497 -0.7938
 5878SOL     OW29266   2.647   2.084  16.053 -0.6248  0.0240 -0.2584
 5878SOL    HW129267   2.591   2.161  16.060  0.9484  1.4483 -3.5883
 5878SOL    HW229268   2.662   2.076  15.959 -0.4060 -0.8035 -0.1595
 5879SOL     OW29269   3.085   4.700   7.735 -0.3669  0.3410 -0.5659
 5879SOL    HW129270   3.170   4.701   7.692  0.4505  0.4578  1.0285
 5879SOL    HW229271   3.032   4.688   7.657 -2.3170 -0.6886  0.9144
 5880SOL     OW29272   1.243   1.173  15.646  0.3122 -0.0834  0.9592
 5880SOL    HW129273   1.182   1.192  15.575  0.3316  0.1724  1.0086
 5880SOL    HW229274   1.319   1.155  15.592  1.4731 -1.8525  3.1797
 5881SOL     OW29275   3.370   3.277   9.012 -0.1617  0.2779  0.4238
 5881SOL    HW129276   3.356   3.189   8.976 -1.4035  0.5151  0.3360
 5881SOL    HW229277   3.428   3.250   9.084  0.8451 -1.3673 -0.9819
 5882SOL     OW29278   1.700   3.465   5.854  0.3355  0.3095 -0.6824
 5882SOL    HW129279   1.654   3.430   5.930  2.7572 -0.0443  0.6454
 5882SOL    HW229280   1.783   3.417   5.862  0.3365  0.3899 -0.1650
 5883SOL     OW29281   4.111   0.460   6.905 -0.2500  0.0061  0.1293
 5883SOL    HW129282   4.176   0.408   6.951 -1.9759 -1.2453  1.1422
 5883SOL    HW229283   4.111   0.544   6.952 -1.6557 -0.7841  1.5080
 5884SOL     OW29284   3.585   4.070   8.090  0.1305  0.1026 -0.7418
 5884SOL    HW129285   3.562   4.114   8.008 -1.2451  1.0530  0.1481
 5884SOL    HW229286   3.652   4.130   8.123 -0.0415  0.6934 -1.4601
 5885SOL     OW29287   1.200   3.513   5.021 -0.6382  0.3120  0.5183
 5885SOL    HW129288   1.221   3.606   5.029  0.5308  0.2067 -1.2919
 5885SOL    HW229289   1.212   3.485   5.112 -0.3313  0.4144  0.5086
 5886SOL     OW29290   1.910   0.293   6.982  0.3833  0.3940  0.2098
 5886SOL    HW129291   1.941   0.331   7.064  3.4523  0.4822 -0.9747
 5886SOL    HW229292   1.932   0.203   7.006  0.2113  0.3544  0.2218
 5887SOL     OW29293   1.775   3.078   6.897  0.0247  0.5081  0.1524
 5887SOL    HW129294   1.845   3.028   6.855 -0.2224  0.2113  0.0928
 5887SOL    HW229295   1.833   3.132   6.950 -0.7562  0.1569  1.3577
 5888SOL     OW29296   3.425   2.667   8.375  0.5523 -0.0940  1.0603
 5888SOL    HW129297   3.460   2.619   8.300 -1.6450  0.5272 -0.3466
 5888SOL    HW229298   3.413   2.748   8.327  0.3949 -0.6465  0.1659
 5889SOL     OW29299   2.888   0.319   8.601  0.4214  0.1435 -0.4348
 5889SOL    HW129300   2.945   0.251   8.566  1.5905  0.9997 -0.2122
 5889SOL    HW229301   2.807   0.269   8.601 -0.8995  2.2903  1.3095
 5890SOL     OW29302   1.365   4.463   2.432 -0.8168  0.0462  0.1628
 5890SOL    HW129303   1.330   4.431   2.516  1.4360 -0.1755  1.0050
 5890SOL    HW229304   1.306   4.537   2.420 -1.5844 -0.6071 -0.1671
 5891SOL     OW29305   3.201   3.753   5.211 -0.2175 -0.2771  0.6218
 5891SOL    HW129306   3.145   3.696   5.265 -3.8294  0.6415 -2.1593
 5891SOL    HW229307   3.275   3.767   5.270  2.1018  0.2520 -2.4194
 5892SOL     OW29308   2.184   3.608  17.358  0.2540 -0.0611  0.3963
 5892SOL    HW129309   2.104   3.653  17.329  1.7450  2.8033  0.7065
 5892SOL    HW229310   2.256   3.671  17.351  0.3830 -0.2500 -0.0285
 5893SOL     OW29311   2.903   1.030   4.740  0.5781 -0.2232 -0.0656
 5893SOL    HW129312   2.942   1.104   4.693 -4.5099  1.7551 -1.1123
 5893SOL    HW229313   2.908   0.968   4.667  3.2823 -0.4158  0.2721
 5894SOL     OW29314   0.118   1.473  15.108 -0.5131  0.3061  0.1091
 5894SOL    HW129315   0.053   1.451  15.175  0.3816 -0.1682  0.8266
 5894SOL    HW229316   0.171   1.539  15.153 -1.4161  2.2060 -1.6193
 5895SOL     OW29317   4.449   3.046   6.852 -0.1481  0.1244  0.5439
 5895SOL    HW129318   4.438   3.083   6.764  0.9508 -1.9882 -0.4802
 5895SOL    HW229319   4.520   2.982   6.841 -0.4543 -0.1779  0.3362
 5896SOL     OW29320   1.257   3.790   5.427 -0.6026 -0.1863 -0.2706
 5896SOL    HW129321   1.201   3.723   5.467  0.7083 -1.1780 -0.0911
 5896SOL    HW229322   1.312   3.734   5.372 -2.5804 -0.7635 -1.6865
 5897SOL     OW29323   3.056   4.591  12.489  0.4046 -0.1271 -0.2723
 5897SOL    HW129324   3.030   4.665  12.544 -0.7971 -0.6976 -0.0726
 5897SOL    HW229325   3.033   4.616  12.400  1.5813  2.9520  0.3120
 5898SOL     OW29326   0.136   2.178   1.890 -0.7058 -0.2041  0.4523
 5898SOL    HW129327   0.156   2.209   1.801 -1.2658 -0.0814  0.3706
 5898SOL    HW229328   0.100   2.261   1.921  0.3541  0.5443 -0.3074
 5899SOL     OW29329   3.196   3.409  11.086  0.4235  0.2063 -0.5266
 5899SOL    HW129330   3.109   3.439  11.059 -0.0200  0.0969  0.7762
 5899SOL    HW229331   3.192   3.362  11.169  0.1966  0.0990 -0.5982
 5900SOL     OW29332   2.408   2.092   2.208  0.2329 -0.9276 -0.0162
 5900SOL    HW129333   2.469   2.076   2.136  1.6978  1.0658  0.7794
 5900SOL    HW229334   2.442   2.173   2.247 -0.5350 -1.2625  1.3725
 5901SOL     OW29335   4.537   0.146  15.336 -0.2547 -0.1514 -0.4009
 5901SOL    HW129336   4.472   0.176  15.273 -0.1076  0.1817 -0.3940
 5901SOL    HW229337   4.588   0.091  15.277 -0.4754 -1.0530  0.2532
 5902SOL     OW29338   1.440   2.599   4.028 -0.0487  0.2462 -0.1648
 5902SOL    HW129339   1.414   2.516   3.988  0.0957 -0.2602  0.7854
 5902SOL    HW229340   1.355   2.633   4.056  0.2021 -0.1874  1.1198
 5903SOL     OW29341   2.281   0.973   1.688  0.2415  0.6055 -0.8036
 5903SOL    HW129342   2.295   1.066   1.704 -2.6984  1.0377 -0.7665
 5903SOL    HW229343   2.370   0.950   1.659 -0.4445 -2.4059 -0.5788
 5904SOL     OW29344   4.504   1.434   5.782  0.2130  0.1291  0.0554
 5904SOL    HW129345   4.426   1.488   5.790  1.1960  1.5961 -0.3314
 5904SOL    HW229346   4.554   1.452   5.862  0.5869 -1.8161  0.2567
 5905SOL     OW29347   2.152   3.502   1.631 -0.1134  0.0578  0.6678
 5905SOL    HW129348   2.202   3.512   1.550 -0.3893  0.0630  0.5007
 5905SOL    HW229349   2.089   3.573   1.623 -0.3765 -0.0533  1.7738
 5906SOL     OW29350   0.768   3.838  11.642  0.3844  0.0049  0.5035
 5906SOL    HW129351   0.747   3.929  11.619  0.9955  0.1039  0.3325
 5906SOL    HW229352   0.734   3.828  11.731  1.2741 -0.9491  0.7357
 5907SOL     OW29353   1.409   0.801  10.868 -0.1792  0.2338 -0.3474
 5907SOL    HW129354   1.385   0.890  10.891 -1.2269 -0.1241 -0.0574
 5907SOL    HW229355   1.504   0.806  10.879 -0.2423  2.8568 -0.9877
 5908SOL     OW29356   0.604   2.146   2.217 -0.2325 -0.4349  0.6057
 5908SOL    HW129357   0.529   2.097   2.185  2.0353 -3.5439 -0.0047
 5908SOL    HW229358   0.669   2.075   2.217  1.4897  1.1524  0.0533
 5909SOL     OW29359   2.783   0.212   3.718  0.0006  0.4309  0.6178
 5909SOL    HW129360   2.783   0.167   3.633  0.1157 -1.2514  1.5166
 5909SOL    HW229361   2.787   0.137   3.777  0.1887 -0.4281 -0.4828
 5910SOL     OW29362   3.899   0.287  17.619  0.6896  0.0213 -0.4104
 5910SOL    HW129363   3.933   0.245  17.698 -0.2756 -0.1922 -0.0990
 5910SOL    HW229364   3.866   0.215  17.565  0.0955 -0.8824  1.1756
 5911SOL     OW29365   0.416   2.820   5.758  0.0565  0.1396  0.2305
 5911SOL    HW129366   0.439   2.895   5.813 -3.2941  0.8798  0.5830
 5911SOL    HW229367   0.470   2.822   5.679  3.6057  2.1995  2.7241
 5912SOL     OW29368   2.471   4.328   7.301  0.0728 -0.0455 -1.0883
 5912SOL    HW129369   2.444   4.398   7.241 -3.6740  1.2350  2.1023
 5912SOL    HW229370   2.561   4.357   7.317 -0.2117 -0.6526  1.5433
 5913SOL     OW29371   2.980   3.801  16.282 -0.0823 -0.7209  0.1777
 5913SOL    HW129372   3.032   3.742  16.228 -0.5197 -0.3813 -0.6113
 5913SOL    HW229373   3.006   3.886  16.248  1.3527 -0.7111  1.3013
 5914SOL     OW29374   2.923   3.066   2.694  0.3921  0.9320 -0.2513
 5914SOL    HW129375   3.011   3.047   2.662  0.8055  0.4087  1.2238
 5914SOL    HW229376   2.894   2.978   2.669 -2.4302  2.0369 -0.8514
 5915SOL     OW29377   1.860   0.521   4.757  0.3126 -0.0167 -0.1855
 5915SOL    HW129378   1.950   0.510   4.787 -0.1616 -0.4810  1.0406
 5915SOL    HW229379   1.859   0.460   4.683  1.5875  1.5838 -1.5375
 5916SOL     OW29380   3.975   2.025   6.439  0.3906  0.3081 -0.2401
 5916SOL    HW129381   4.022   2.019   6.355 -1.0461 -1.0508 -0.9447
 5916SOL    HW229382   3.917   1.949   6.438  0.1280  0.5153 -0.8773
 5917SOL     OW29383   3.125   2.738  14.552  0.2006 -0.6190  0.5469
 5917SOL    HW129384   3.086   2.657  14.518  2.9814 -1.5565 -0.4441
 5917SOL    HW229385   3.065   2.753  14.625  0.6147 -2.7207  1.3223
 5918SOL     OW29386   3.383   4.475   9.580  0.3015 -0.7596 -0.1273
 5918SOL    HW129387   3.353   4.565   9.566 -0.9855 -0.7229  2.8357
 5918SOL    HW229388   3.404   4.439   9.494 -1.2342 -0.9364 -0.4224
 5919SOL     OW29389   0.610   2.871   2.905  0.1085 -0.3288 -0.0762
 5919SOL    HW129390   0.572   2.788   2.935 -0.9111  1.0728  2.4916
 5919SOL    HW229391   0.700   2.861   2.937 -0.0011  1.6118  0.8479
 5920SOL     OW29392   4.449   2.889   0.812  0.9740  0.5632 -0.4890
 5920SOL    HW129393   4.505   2.828   0.764  0.3516 -0.3954  0.0001
 5920SOL    HW229394   4.489   2.885   0.900 -0.6150 -1.5146  0.1374
 5921SOL     OW29395   0.585   0.119   9.959 -0.0912  0.6953 -0.0842
 5921SOL    HW129396   0.527   0.174  10.012  0.2016  0.2699  0.6767
 5921SOL    HW229397   0.618   0.188   9.902 -1.2393  1.7390  0.5115
 5922SOL     OW29398   2.583   1.703   1.952 -0.3465  0.7420  0.2810
 5922SOL    HW129399   2.545   1.622   1.988 -0.6202  0.4371 -0.6890
 5922SOL    HW229400   2.523   1.768   1.988 -2.7856 -1.8291  0.8852
 5923SOL     OW29401   2.703   3.683   5.031 -0.0167  0.7091 -0.2472
 5923SOL    HW129402   2.616   3.720   5.042 -0.7913 -0.9389 -0.7156
 5923SOL    HW229403   2.674   3.645   4.948  0.1242 -2.9694  1.3690
 5924SOL     OW29404   2.585   0.157   1.879 -0.0718  0.0873  0.5638
 5924SOL    HW129405   2.599   0.065   1.856  0.7972  0.9447 -2.3928
 5924SOL    HW229406   2.492   0.175   1.869 -0.2952 -0.0205  2.5123
 5925SOL     OW29407   2.775   2.965   1.716  0.3484 -0.4763  0.3113
 5925SOL    HW129408   2.735   2.957   1.803 -0.3431  0.2953  0.0622
 5925SOL    HW229409   2.717   2.914   1.660  1.9043  1.0416 -2.6877
 5926SOL     OW29410   1.957   2.994   3.023  0.2578  0.2357  0.0756
 5926SOL    HW129411   1.997   2.913   3.055 -2.5440  0.2404  3.6074
 5926SOL    HW229412   1.891   2.950   2.969 -0.3620  2.2608 -0.7955
 5927SOL     OW29413   2.004   4.114   3.445  0.0409 -0.2982  0.6383
 5927SOL    HW129414   1.977   4.028   3.414  0.0350  0.5071 -1.5799
 5927SOL    HW229415   1.949   4.134   3.521 -0.4497  0.5738  0.0585
 5928SOL     OW29416   2.766   2.862  15.764 -0.2669  0.6104  0.5966
 5928SOL    HW129417   2.766   2.814  15.681  1.7364  1.4844  0.0770
 5928SOL    HW229418   2.711   2.937  15.745  0.2716  0.5482 -1.2149
 5929SOL     OW29419   2.400   2.792   4.205  0.4882  0.3351 -0.1039
 5929SOL    HW129420   2.454   2.740   4.145 -0.2535 -2.1413  1.3857
 5929SOL    HW229421   2.315   2.761   4.175  1.6047 -3.5445  0.6844
 5930SOL     OW29422   4.191   0.259   7.866  0.0175  0.1527  0.6109
 5930SOL    HW129423   4.231   0.346   7.876  2.2839 -0.5516 -2.4197
 5930SOL    HW229424   4.261   0.199   7.889 -0.1464 -0.7117 -1.1693
 5931SOL     OW29425   4.320   3.004   8.239 -0.2853  0.4357  0.2624
 5931SOL    HW129426   4.261   2.936   8.204 -1.8470  0.6322  2.4683
 5931SOL    HW229427   4.405   2.962   8.249 -0.3467  0.5919  1.4483
 5932SOL     OW29428   4.039   1.049   0.247  0.0979 -0.6521  0.0109
 5932SOL    HW129429   4.044   1.028   0.340  0.5796 -0.3825  0.0453
 5932SOL    HW229430   3.949   1.026   0.223 -0.5223  2.1115 -0.3118
 5933SOL     OW29431   2.596   0.820   3.612  0.6237  0.2334  0.0151
 5933SOL    HW129432   2.513   0.803   3.569  1.6369 -0.0228 -1.8322
 5933SOL    HW229433   2.585   0.910   3.640 -0.6441  0.0365  0.1446
 5934SOL     OW29434   3.452   2.286   1.519 -0.1986  0.2014  0.2480
 5934SOL    HW129435   3.495   2.267   1.602 -1.4177  0.7453  1.0140
 5934SOL    HW229436   3.500   2.366   1.497 -1.1649  1.0054  1.0507
 5935SOL     OW29437   4.667   3.986   8.176  0.1751 -0.4743 -0.2212
 5935SOL    HW129438   4.696   4.076   8.189 -3.4559  0.8829 -1.7241
 5935SOL    HW229439   4.685   3.979   8.082  3.3953  1.0115  0.2691
 5936SOL     OW29440   1.313   1.916   4.636 -0.4343  1.2098  0.6460
 5936SOL    HW129441   1.252   1.947   4.568 -1.5832 -0.0145  1.1214
 5936SOL    HW229442   1.305   1.821   4.633  0.9324  1.0495  2.7940
 5937SOL     OW29443   4.453   3.605   4.137 -0.2251 -0.6930  0.1918
 5937SOL    HW129444   4.437   3.559   4.220  1.0116 -0.1603  0.7192
 5937SOL    HW229445   4.378   3.593   4.079 -0.4580  3.2213 -0.3113
 5938SOL     OW29446   3.467   2.396   3.003  0.3617  0.6383  0.5196
 5938SOL    HW129447   3.477   2.380   2.909  1.1469  2.5956  0.2791
 5938SOL    HW229448   3.548   2.354   3.032 -0.3495 -3.6050 -3.5576
 5939SOL     OW29449   3.042   0.934   8.909  1.1385 -0.1787  0.4380
 5939SOL    HW129450   3.111   0.987   8.949  1.2691  0.0718 -0.1224
 5939SOL    HW229451   2.969   0.996   8.912  2.0405  0.9578 -1.1425
 5940SOL     OW29452   2.103   4.709   7.803 -0.0667  0.3345  0.0067
 5940SOL    HW129453   2.091   0.065   7.827 -2.0006  0.3434 -0.9932
 5940SOL    HW229454   2.179   4.709   7.745 -1.4819  0.8811 -1.8446
 5941SOL     OW29455   0.980   4.156   7.049  0.6432 -0.1550 -0.4634
 5941SOL    HW129456   0.962   4.080   6.994  0.2431 -0.2344 -0.2257
 5941SOL    HW229457   0.914   4.216   7.013  0.7391 -0.4977 -1.2078
 5942SOL     OW29458   4.008   0.452   1.948  0.4002 -0.1832 -0.0508
 5942SOL    HW129459   3.975   0.376   1.901  2.3777 -0.6891 -0.6387
 5942SOL    HW229460   3.935   0.514   1.947  1.4528  1.0332 -1.6888
 5943SOL     OW29461   0.768   4.356  15.465 -0.3806  0.1664  0.3974
 5943SOL    HW129462   0.800   4.425  15.407  0.2844  0.2526  0.8635
 5943SOL    HW229463   0.768   4.284  15.402 -1.4287  0.3752  0.1702
 5944SOL     OW29464   1.844   0.889   7.144  1.1639  0.1689 -0.1768
 5944SOL    HW129465   1.927   0.846   7.125  1.7544  0.7455  1.0796
 5944SOL    HW229466   1.828   0.929   7.059 -0.3480  2.9909  1.4186
 5945SOL     OW29467   0.280   1.388  12.265 -0.2506 -0.2658 -0.2126
 5945SOL    HW129468   0.272   1.306  12.314  1.7909 -1.2226 -1.4467
 5945SOL    HW229469   0.251   1.460  12.320 -1.4269 -2.2975  1.7854
 5946SOL     OW29470   2.284   1.873   0.232  0.0963 -0.5433  0.2420
 5946SOL    HW129471   2.215   1.869   0.166 -1.9412 -0.2861  2.3837
 5946SOL    HW229472   2.238   1.917   0.303  0.0001  1.1793 -0.8924
 5947SOL     OW29473   1.336   0.663   2.342 -0.5643 -0.3420 -0.0471
 5947SOL    HW129474   1.399   0.702   2.282 -0.7703 -0.4949 -0.3643
 5947SOL    HW229475   1.381   0.624   2.416  0.1096  0.8102  0.1431
 5948SOL     OW29476   4.237   1.177   7.144  0.2418 -0.2670  0.6999
 5948SOL    HW129477   4.323   1.206   7.114 -1.2453  2.5653 -0.8102
 5948SOL    HW229478   4.259   1.085   7.160 -1.6279 -0.7997  0.1854
 5949SOL     OW29479   0.391   3.690   5.284  0.1094  0.3792  0.0118
 5949SOL    HW129480   0.312   3.680   5.337 -0.2871  1.4741 -0.3707
 5949SOL    HW229481   0.358   3.688   5.194 -0.0380  1.6604  0.0447
 5950SOL     OW29482   2.341   2.996   4.391  0.0538 -0.4524 -0.3538
 5950SOL    HW129483   2.419   3.049   4.376 -1.2039  0.9215 -2.0588
 5950SOL    HW229484   2.369   2.913   4.351 -1.9866 -1.4825  0.3279
 5951SOL     OW29485   1.485   0.874   2.668  0.3885  0.0889  0.7889
 5951SOL    HW129486   1.478   0.941   2.601  1.0627 -1.3776 -0.7342
 5951SOL    HW229487   1.481   0.923   2.751 -0.6394 -0.3809  1.0180
 5952SOL     OW29488   3.406   1.592   7.204 -0.2602  0.5518 -0.5602
 5952SOL    HW129489   3.368   1.607   7.118 -0.0811  1.9684 -0.3843
 5952SOL    HW229490   3.462   1.669   7.205  0.4286  0.0630 -1.0093
 5953SOL     OW29491   2.657   4.441   3.959  0.0533 -0.0132  0.1650
 5953SOL    HW129492   2.658   4.346   3.968 -1.4713  0.0304  0.8333
 5953SOL    HW229493   2.749   4.446   3.983  0.0686 -0.2317  0.1465
 5954SOL     OW29494   4.228   4.608   2.849  0.0393  0.3664  0.6265
 5954SOL    HW129495   4.253   4.530   2.799 -0.2149  1.7012 -1.5778
 5954SOL    HW229496   4.172   4.653   2.786  0.0683  0.1050  0.4156
 5955SOL     OW29497   4.093   3.909   7.234  0.3967 -0.1212  0.3543
 5955SOL    HW129498   4.058   3.956   7.309  1.7675 -0.3838  1.1537
 5955SOL    HW229499   4.113   3.976   7.168  1.7487 -0.5282  0.3643
 5956SOL     OW29500   2.085   3.627  12.330  0.5894 -0.3653  0.2032
 5956SOL    HW129501   2.157   3.648  12.390  1.2124 -0.7400 -0.4100
 5956SOL    HW229502   2.091   3.531  12.329  0.8027 -0.3226 -1.6198
 5957SOL     OW29503   4.566   3.217   5.600  0.4646  0.3738  0.6759
 5957SOL    HW129504   4.582   3.134   5.644  0.3340  0.9059  1.7381
 5957SOL    HW229505   4.489   3.249   5.649  1.8270  1.4749  2.0961
 5958SOL     OW29506   2.268   4.026  14.092 -0.3757  0.0754 -1.0585
 5958SOL    HW129507   2.201   4.084  14.056  0.3195  0.9444 -0.9535
 5958SOL    HW229508   2.221   3.984  14.163  2.2166  0.6208  1.0006
 5959SOL     OW29509   4.390   1.874   1.644 -0.2621  0.4841  0.5009
 5959SOL    HW129510   4.331   1.886   1.569  2.5002  2.2207 -1.4251
 5959SOL    HW229511   4.425   1.790   1.613  1.7891  1.7825 -0.7095
 5960SOL     OW29512   0.673   3.711   5.234  0.6701 -0.5767  0.6305
 5960SOL    HW129513   0.582   3.739   5.249  0.1136 -1.0252 -1.9058
 5960SOL    HW229514   0.671   3.624   5.272 -1.3269  0.2369  2.4035
 5961SOL     OW29515   3.053   2.148  15.289 -0.4689  0.3741 -0.2837
 5961SOL    HW129516   2.998   2.071  15.276  0.5175 -0.0253 -2.0677
 5961SOL    HW229517   2.990   2.220  15.277  0.1532  1.2975  1.9315
 5962SOL     OW29518   1.448   1.280   6.285 -0.0932 -0.0566 -0.3666
 5962SOL    HW129519   1.360   1.243   6.288 -0.8608  1.7637 -0.8543
 5962SOL    HW229520   1.442   1.311   6.195 -1.8104 -3.3914 -1.3863
 5963SOL     OW29521   4.536   0.876   5.187 -0.0753  0.1992  0.6189
 5963SOL    HW129522   4.494   0.800   5.145  1.1637 -1.1076  1.7561
 5963SOL    HW229523   4.599   0.831   5.243 -0.4189 -1.2320 -0.1255
 5964SOL     OW29524   1.504   1.211   9.344  0.3660  0.0545  0.7778
 5964SOL    HW129525   1.520   1.293   9.299  1.7842 -1.5367 -1.6112
 5964SOL    HW229526   1.419   1.212   9.389 -0.0219  1.1782  0.0100
 5965SOL     OW29527   3.487   0.807   3.360 -0.2984 -0.0927  0.3197
 5965SOL    HW129528   3.428   0.848   3.297 -1.2807 -0.6342  0.8798
 5965SOL    HW229529   3.477   0.712   3.356 -0.4337  0.0033 -1.4964
 5966SOL     OW29530   1.499   4.356   5.143 -0.2801 -0.1747  0.2113
 5966SOL    HW129531   1.555   4.391   5.073 -0.7128 -0.5995 -0.3516
 5966SOL    HW229532   1.489   4.271   5.099  0.6657 -0.3670  0.3739
 5967SOL     OW29533   2.553   3.083  13.226 -0.1568  0.3830  0.0153
 5967SOL    HW129534   2.521   3.116  13.142 -0.3513 -0.7191 -0.3455
 5967SOL    HW229535   2.485   3.021  13.250 -1.0345  1.5083  0.4537
 5968SOL     OW29536   0.550   2.453  13.050  0.0335  0.3824 -0.1303
 5968SOL    HW129537   0.493   2.477  13.124 -0.0702  1.4051 -0.5324
 5968SOL    HW229538   0.531   2.533  13.001 -0.1475  0.2522 -0.2734
 5969SOL     OW29539   1.617   4.727   9.264  0.2595 -0.1453 -0.4488
 5969SOL    HW129540   1.637   0.047   9.187  1.3783 -0.1530 -0.1657
 5969SOL    HW229541   1.598   4.642   9.225  2.0427 -0.6757 -0.1588
 5970SOL     OW29542   3.420   0.768   5.697 -0.1652  0.1878 -0.1157
 5970SOL    HW129543   3.329   0.797   5.695 -0.8477 -1.8295  1.7627
 5970SOL    HW229544   3.409   0.677   5.726  3.5096 -0.7095 -1.4883
 5971SOL     OW29545   3.088   4.526   6.717  0.1762  0.2400 -0.2117
 5971SOL    HW129546   3.016   4.572   6.672  0.5456  0.5833 -0.4538
 5971SOL    HW229547   3.035   4.448   6.734  0.7256  0.3105  1.7660
 5972SOL     OW29548   2.808   2.317   3.247  0.3107  0.3216 -0.2426
 5972SOL    HW129549   2.789   2.351   3.334 -0.1969  0.1088 -0.2708
 5972SOL    HW229550   2.896   2.288   3.269 -0.6705 -1.5224  1.2331
 5973SOL     OW29551   2.967   3.708   3.033  0.2572 -0.1257 -0.8332
 5973SOL    HW129552   2.910   3.724   3.108  1.7220 -2.0084  0.6825
 5973SOL    HW229553   2.916   3.655   2.971  1.0902 -0.6406 -1.0894
 5974SOL     OW29554   2.471   4.572   8.366 -0.0140  0.0058 -0.1456
 5974SOL    HW129555   2.411   4.535   8.430 -0.8056 -2.2793 -2.2135
 5974SOL    HW229556   2.426   4.654   8.344  1.5309  1.3583  1.7030
 5975SOL     OW29557   0.387   3.670   2.692  0.5040 -0.6580  0.7141
 5975SOL    HW129558   0.371   3.631   2.606 -0.6260  0.9184  0.1908
 5975SOL    HW229559   0.434   3.602   2.740  0.7907  0.6943  2.3730
 5976SOL     OW29560   0.550   3.064   8.044 -0.6159  0.6975  0.0188
 5976SOL    HW129561   0.468   3.106   8.069 -2.0538 -1.0201 -1.7934
 5976SOL    HW229562   0.527   2.982   8.000  2.2187 -1.3050  2.2358
 5977SOL     OW29563   4.116   1.358   5.734 -0.6817  0.4370 -0.4610
 5977SOL    HW129564   4.052   1.317   5.676  0.5297 -0.1467 -1.3746
 5977SOL    HW229565   4.179   1.287   5.736 -2.2056 -0.9698 -2.2893
 5978SOL     OW29566   0.149   0.517  15.356  0.1598 -0.1375 -0.1043
 5978SOL    HW129567   0.078   0.459  15.379 -0.7282  0.0903 -2.2373
 5978SOL    HW229568   0.106   0.600  15.334  0.4676  0.2290  0.6837
 5979SOL     OW29569   3.415   4.384   2.490 -0.0620  0.4375  0.7138
 5979SOL    HW129570   3.323   4.405   2.507 -0.4367 -1.3846  0.9053
 5979SOL    HW229571   3.409   4.289   2.501  1.4718 -0.0544 -3.0473
 5980SOL     OW29572   2.156   0.736  15.286 -0.4552 -0.3215 -0.2614
 5980SOL    HW129573   2.177   0.737  15.380 -1.4676 -0.5634 -0.0266
 5980SOL    HW229574   2.200   0.657  15.255 -1.1314 -1.8676  2.6495
 5981SOL     OW29575   1.218   4.410   8.525 -0.0789  0.2490 -0.4666
 5981SOL    HW129576   1.219   4.473   8.598  0.5563 -1.4616  1.0125
 5981SOL    HW229577   1.211   4.321   8.559 -1.1597 -0.2596 -2.0676
 5982SOL     OW29578   4.243   1.823   3.049  0.5271 -0.0865  0.3446
 5982SOL    HW129579   4.311   1.860   2.992 -0.5035  0.9032 -0.2609
 5982SOL    HW229580   4.218   1.896   3.105  1.6230  0.2625  0.3744
 5983SOL     OW29581   2.316   4.502   8.042  0.6797 -0.2715 -0.1637
 5983SOL    HW129582   2.299   4.521   8.135 -0.4200  2.6108 -0.9497
 5983SOL    HW229583   2.344   4.411   8.039  0.4621 -0.3243 -0.6731
 5984SOL     OW29584   2.383   0.702   2.609  0.2750  0.0963 -0.2544
 5984SOL    HW129585   2.327   0.743   2.543 -0.3987  0.8904  0.7976
 5984SOL    HW229586   2.379   0.613   2.575  4.4490 -0.8283  1.7283
 5985SOL     OW29587   3.593   0.921   2.791 -0.6661 -0.2701 -0.0678
 5985SOL    HW129588   3.555   0.990   2.737 -1.5544 -1.8743 -1.5003
 5985SOL    HW229589   3.595   0.972   2.872 -0.6526  1.6733 -1.3078
 5986SOL     OW29590   4.440   4.624  15.798 -0.3773  0.1992 -0.1266
 5986SOL    HW129591   4.351   4.592  15.813 -0.9082  1.4878 -0.5504
 5986SOL    HW229592   4.441   4.662  15.711 -2.7954  2.4080  0.8043
 5987SOL     OW29593   1.606   4.129   9.615 -0.4234  0.2061  0.0746
 5987SOL    HW129594   1.607   4.141   9.710 -3.9083  1.0520 -0.0035
 5987SOL    HW229595   1.574   4.039   9.617  0.3129 -0.0859 -1.0497
 5988SOL     OW29596   1.268   4.567   7.516 -0.0657 -0.0180 -0.1559
 5988SOL    HW129597   1.212   4.502   7.474 -0.7556  0.2915  0.2766
 5988SOL    HW229598   1.324   4.499   7.553 -1.3732 -1.5181 -0.9422
 5989SOL     OW29599   4.597   0.965  16.611  0.4871  0.1360  0.8410
 5989SOL    HW129600   4.636   0.933  16.693  1.2674 -2.1988 -0.4459
 5989SOL    HW229601   4.642   1.047  16.589  0.2982  0.4684  1.6923
 5990SOL     OW29602   4.121   1.839   0.891  0.1340 -1.1608  0.8333
 5990SOL    HW129603   4.208   1.799   0.893  0.8291  0.2189 -2.0009
 5990SOL    HW229604   4.063   1.763   0.888 -1.4719  0.1268 -0.2273
 5991SOL     OW29605   3.770   1.814   1.959 -0.3752  0.0815 -0.2872
 5991SOL    HW129606   3.802   1.850   2.042 -1.0353  0.5992 -0.2628
 5991SOL    HW229607   3.680   1.838   1.982 -1.2982 -3.1902 -0.4787
 5992SOL     OW29608   3.606   3.101   3.577 -0.4851  0.0156  0.2777
 5992SOL    HW129609   3.696   3.132   3.576 -0.5373  0.2551  1.8447
 5992SOL    HW229610   3.600   3.095   3.673 -1.9084 -0.7689  0.1385
 5993SOL     OW29611   1.226   2.962  12.234 -0.0729  0.0521  0.0511
 5993SOL    HW129612   1.241   2.966  12.140 -2.3886 -0.4642 -0.3184
 5993SOL    HW229613   1.184   2.877  12.245 -0.1591  0.0386 -0.3993
 5994SOL     OW29614   3.385   2.720  14.321 -0.3709  0.4938  0.5669
 5994SOL    HW129615   3.428   2.701  14.237 -0.1589 -0.3513  0.8655
 5994SOL    HW229616   3.309   2.774  14.299  0.1536  0.7297 -0.6774
 5995SOL     OW29617   2.494   4.248   6.816 -0.4191  0.1557  0.2592
 5995SOL    HW129618   2.413   4.282   6.778  1.8283  2.6651 -2.3040
 5995SOL    HW229619   2.555   4.316   6.788 -0.9439  0.9277  1.0281
 5996SOL     OW29620   4.106   3.120  11.773  0.0229 -0.0806 -0.3273
 5996SOL    HW129621   4.104   3.090  11.682  1.4456 -3.0826  0.6443
 5996SOL    HW229622   4.144   3.208  11.769  1.7560 -0.9376 -3.0547
 5997SOL     OW29623   1.954   0.428   1.266  0.0869  0.6265  0.0573
 5997SOL    HW129624   1.912   0.430   1.352 -0.1537  0.0282 -0.0473
 5997SOL    HW229625   2.008   0.507   1.268 -1.0843  1.3725  2.4668
 5998SOL     OW29626   2.726   0.215  13.781  0.5600 -0.2465  0.1268
 5998SOL    HW129627   2.748   0.133  13.826  0.6217 -0.8121 -0.9412
 5998SOL    HW229628   2.757   0.283  13.841  0.8009 -0.7465  0.5672
 5999SOL     OW29629   3.616   3.271   5.779  0.6119 -0.7882  0.1288
 5999SOL    HW129630   3.668   3.193   5.763  0.1331 -0.9525 -0.6265
 5999SOL    HW229631   3.683   3.339   5.774 -1.8498  1.7113  0.5417
 6000SOL     OW29632   2.700   1.493   2.907 -0.4664  0.6062  0.4269
 6000SOL    HW129633   2.630   1.428   2.899  0.0216  0.3938 -2.1583
 6000SOL    HW229634   2.673   1.543   2.830  0.0809  0.0164 -0.1497
 6001SOL     OW29635   1.195   2.824  15.781 -0.0237  0.4252 -0.5235
 6001SOL    HW129636   1.226   2.893  15.840 -1.7772 -0.8186  1.8421
 6001SOL    HW229637   1.199   2.860  15.693  0.2930 -0.5888 -0.9183
 6002SOL     OW29638   3.218   2.593   0.512 -0.5895 -0.4680  0.1076
 6002SOL    HW129639   3.178   2.672   0.476 -0.4353 -0.9589 -1.1752
 6002SOL    HW229640   3.248   2.550   0.432 -0.4039  3.3279 -1.8705
 6003SOL     OW29641   1.926   3.276   7.032 -0.3490 -0.0606  0.1975
 6003SOL    HW129642   1.919   3.255   7.125 -3.2434  1.3677  0.3113
 6003SOL    HW229643   2.008   3.326   7.034  0.7728 -1.8184 -2.1403
 6004SOL     OW29644   2.779   3.048   7.658  0.5457  0.0954  0.3634
 6004SOL    HW129645   2.704   3.087   7.613  0.8357  2.1093  1.6164
 6004SOL    HW229646   2.768   2.957   7.628  0.5332  0.6277 -1.2260
 6005SOL     OW29647   3.714   3.353  17.229 -0.3552 -0.0997 -0.1627
 6005SOL    HW129648   3.752   3.275  17.269  2.7074  0.8401 -1.2820
 6005SOL    HW229649   3.623   3.330  17.210  0.7004 -2.8422 -1.8367
 6006SOL     OW29650   2.798   4.544   2.655  0.1756  0.0548 -0.2149
 6006SOL    HW129651   2.865   4.509   2.713  0.6835  0.3604 -0.6146
 6006SOL    HW229652   2.743   4.466   2.657 -2.1328  1.7983  3.4509
 6007SOL     OW29653   0.727   4.678   2.280  0.5205  0.0665  0.1672
 6007SOL    HW129654   0.655   4.670   2.218  0.0290  3.3005  0.3251
 6007SOL    HW229655   0.700   0.025   2.323  0.8361  0.8472 -1.1408
 6008SOL     OW29656   2.441   0.636   6.136 -0.3920 -0.4283 -0.2198
 6008SOL    HW129657   2.527   0.593   6.133 -0.6815 -1.0378  0.1980
 6008SOL    HW229658   2.449   0.680   6.220  0.1759 -1.0755  0.0668
 6009SOL     OW29659   0.924   0.791   2.383  0.4394  0.1395 -0.0434
 6009SOL    HW129660   0.980   0.755   2.452  1.2063 -2.0511 -1.8216
 6009SOL    HW229661   0.986   0.837   2.326 -0.2146 -0.0689 -0.9244
 6010SOL     OW29662   4.462   0.288   3.440 -1.0485  0.1962 -1.0292
 6010SOL    HW129663   4.438   0.352   3.372 -1.3039  0.2482 -0.8886
 6010SOL    HW229664   4.513   0.340   3.502 -0.1320  1.3252 -2.7252
 6011SOL     OW29665   0.725   2.336   5.299 -0.7525 -0.5595 -0.2009
 6011SOL    HW129666   0.775   2.323   5.380  0.3433  0.0779 -0.7770
 6011SOL    HW229667   0.736   2.259   5.243  0.3576 -0.7014  0.1989
 6012SOL     OW29668   3.988   3.243   4.506  0.4349  0.3228 -0.0363
 6012SOL    HW129669   3.922   3.216   4.570  2.6876 -1.3299  1.5885
 6012SOL    HW229670   3.936   3.307   4.459 -1.4572 -1.6004 -0.5441
 6013SOL     OW29671   4.649   4.712  13.838 -0.0818  0.0301  0.1841
 6013SOL    HW129672   4.625   4.688  13.748 -0.9472  1.6761 -0.0254
 6013SOL    HW229673   4.684   4.630  13.871 -1.3207 -0.7632 -0.4693
 6014SOL     OW29674   3.124   2.051   4.076  0.2599 -0.3331 -0.2395
 6014SOL    HW129675   3.205   2.007   4.049  3.0753  3.6163  1.7443
 6014SOL    HW229676   3.154   2.076   4.163 -0.0466  1.6793 -0.7119
 6015SOL     OW29677   4.369   0.667   7.384 -0.1072  0.2820 -0.6236
 6015SOL    HW129678   4.301   0.607   7.413  0.7746  0.7471  2.3765
 6015SOL    HW229679   4.354   0.732   7.452  1.5127 -1.0783  1.0160
 6016SOL     OW29680   2.776   0.941   2.458 -0.1423  0.2030 -0.0017
 6016SOL    HW129681   2.757   1.010   2.521  0.8255  0.4277  0.0430
 6016SOL    HW229682   2.725   0.866   2.488 -0.7878  1.2329  1.4787
 6017SOL     OW29683   3.292   0.694  16.346  0.7150  0.1834 -0.3399
 6017SOL    HW129684   3.336   0.700  16.261  1.2965 -1.2419 -0.1490
 6017SOL    HW229685   3.288   0.785  16.376 -3.0782  0.4177 -1.5645
 6018SOL     OW29686   1.000   3.717   6.679  0.1559  0.3874  0.7567
 6018SOL    HW129687   0.963   3.778   6.616 -0.1122  0.3201  0.8522
 6018SOL    HW229688   1.001   3.779   6.752  1.9878  2.2933 -0.8830
 6019SOL     OW29689   1.859   2.387   7.928 -0.2822 -0.2844  0.3190
 6019SOL    HW129690   1.855   2.305   7.978 -1.2833 -0.5185 -0.1317
 6019SOL    HW229691   1.911   2.452   7.975 -0.1617 -0.1867  0.0489
 6020SOL     OW29692   1.490   4.702   1.703 -0.0247  0.7743  0.0337
 6020SOL    HW129693   1.483   0.062   1.704 -1.7709  0.6359  1.3710
 6020SOL    HW229694   1.523   4.695   1.614 -0.8412 -0.2632 -0.1877
 6021SOL     OW29695   2.438   3.184   1.626 -0.3034  0.0059  0.5225
 6021SOL    HW129696   2.454   3.215   1.715 -0.8650  1.5411  0.0900
 6021SOL    HW229697   2.517   3.136   1.604 -0.4383  0.6180 -1.2684
 6022SOL     OW29698   1.122   0.374   4.932  0.0916 -0.0946 -0.2425
 6022SOL    HW129699   1.080   0.323   4.862 -0.5519  0.0277  0.0532
 6022SOL    HW229700   1.202   0.407   4.892  1.4896 -1.0247  1.7855
 6023SOL     OW29701   1.292   2.717  12.708  0.4191  0.0592  0.4532
 6023SOL    HW129702   1.225   2.780  12.734  1.6858  1.3665  0.5308
 6023SOL    HW229703   1.361   2.729  12.774  1.8900 -1.6984 -0.7599
 6024SOL     OW29704   3.523   2.076   1.250  0.3962  0.1614 -0.1607
 6024SOL    HW129705   3.514   1.991   1.292  2.5586 -0.1016 -0.2386
 6024SOL    HW229706   3.441   2.116   1.282 -0.8010 -1.6526 -0.9686
 6025SOL     OW29707   0.590   3.239   5.678  0.1062  0.4966 -0.1556
 6025SOL    HW129708   0.550   3.291   5.748 -0.0498 -1.4475  1.1947
 6025SOL    HW229709   0.549   3.155   5.699 -0.0006  0.5753 -0.0494
 6026SOL     OW29710   1.230   2.912   7.637 -0.3171 -0.0412 -0.0576
 6026SOL    HW129711   1.285   2.859   7.579 -1.6194 -1.5258  0.0663
 6026SOL    HW229712   1.285   2.922   7.714  0.0234 -1.0130 -0.1718
 6027SOL     OW29713   0.468   2.603  10.461  0.0284 -0.2918  0.1303
 6027SOL    HW129714   0.528   2.676  10.442 -0.4835 -0.0908 -0.7488
 6027SOL    HW229715   0.461   2.559  10.376 -0.3399  3.1100 -1.6229
 6028SOL     OW29716   1.429   4.422   1.402  0.1511 -0.2295 -0.1690
 6028SOL    HW129717   1.463   4.496   1.452  1.3287 -0.5204 -0.5388
 6028SOL    HW229718   1.416   4.358   1.472 -2.9697 -0.6341 -1.1368
 6029SOL     OW29719   3.785   0.167   2.679 -0.0135 -0.0516 -0.0861
 6029SOL    HW129720   3.739   0.215   2.748 -0.4710  1.4067 -1.3850
 6029SOL    HW229721   3.845   0.233   2.646  1.7897 -1.6684  0.0051
 6030SOL     OW29722   1.638   0.319  14.781  0.0851 -0.0733 -0.5874
 6030SOL    HW129723   1.732   0.305  14.769  0.2296 -0.1757  0.6274
 6030SOL    HW229724   1.637   0.412  14.802 -3.8284 -0.6849  2.1069
 6031SOL     OW29725   4.424   2.619   9.008 -0.0721  0.0602  0.2445
 6031SOL    HW129726   4.461   2.532   9.024  1.8509  0.4978 -1.7667
 6031SOL    HW229727   4.462   2.666   9.082  0.0736 -1.2643  1.0120
 6032SOL     OW29728   0.568   4.192   8.227 -0.6463 -0.3772 -0.6310
 6032SOL    HW129729   0.589   4.213   8.136 -1.5125 -0.0013 -0.7354
 6032SOL    HW229730   0.485   4.145   8.219 -1.2859  0.6526  0.0829
 6033SOL     OW29731   1.145   3.002   4.389 -0.3785 -0.6892 -0.1451
 6033SOL    HW129732   1.073   3.049   4.432 -1.1344 -1.5899 -0.4334
 6033SOL    HW229733   1.163   2.932   4.452  1.2746 -0.1907 -0.0756
 6034SOL     OW29734   1.499   0.617   1.077  0.6524  0.3041 -0.2251
 6034SOL    HW129735   1.487   0.708   1.105  2.0584  1.1181 -2.3135
 6034SOL    HW229736   1.476   0.627   0.985  0.7186  1.2433 -0.1445
 6035SOL     OW29737   0.044   0.486   7.781 -0.3070 -0.1308  0.3979
 6035SOL    HW129738   0.118   0.547   7.775 -0.4496  0.0688  0.6526
 6035SOL    HW229739   0.080   0.430   7.850 -0.4005  0.8789  1.2779
 6036SOL     OW29740   2.708   0.461   8.374 -0.8321  0.7939  0.2278
 6036SOL    HW129741   2.782   0.455   8.434 -1.0159 -2.4236  0.1068
 6036SOL    HW229742   2.640   0.507   8.423 -1.1270  1.0092 -0.3780
 6037SOL     OW29743   1.034   2.426  10.120  0.4278 -0.1628  0.4573
 6037SOL    HW129744   0.949   2.446  10.158 -1.2636 -2.2630 -2.2219
 6037SOL    HW229745   1.080   2.507  10.143  1.1962 -0.1102 -1.2314
 6038SOL     OW29746   0.965   3.277   8.047  0.2266  0.2454 -0.1195
 6038SOL    HW129747   0.937   3.368   8.032 -1.8850 -0.3240  0.3952
 6038SOL    HW229748   1.010   3.259   7.964  1.2212 -0.0346  0.4938
 6039SOL     OW29749   4.402   1.250   5.462  0.1042  0.0037 -0.5740
 6039SOL    HW129750   4.368   1.276   5.548  2.4932 -0.6183  0.5339
 6039SOL    HW229751   4.481   1.304   5.459  0.9584 -1.2911 -0.8160
 6040SOL     OW29752   0.552   1.297  16.277  0.5578 -0.6286 -0.0060
 6040SOL    HW129753   0.565   1.203  16.264 -1.0322 -0.4730 -2.8502
 6040SOL    HW229754   0.642   1.328  16.282 -0.1502  1.8615 -2.4085
 6041SOL     OW29755   1.028   0.235  16.561 -0.1067  0.0141 -0.5579
 6041SOL    HW129756   1.114   0.213  16.596 -0.2145  1.3032  0.4821
 6041SOL    HW229757   0.969   0.167  16.594 -0.7122  0.4805 -0.6602
 6042SOL     OW29758   2.132   4.112   5.567 -0.4610  0.0317  0.4244
 6042SOL    HW129759   2.112   4.172   5.639 -0.0180 -0.9771  1.3942
 6042SOL    HW229760   2.177   4.040   5.610  0.7944  0.8663  0.5111
 6043SOL     OW29761   4.595   3.503   7.763 -0.3837  0.1853  0.0390
 6043SOL    HW129762   4.569   3.542   7.679  4.6482 -0.7094 -1.9273
 6043SOL    HW229763   4.678   3.471   7.728  0.2725  0.2173  1.5768
 6044SOL     OW29764   1.072   1.035   9.086  0.1664  0.3180  0.1432
 6044SOL    HW129765   1.150   1.076   9.049  0.3653 -0.2808 -0.0970
 6044SOL    HW229766   1.093   0.943   9.069 -0.0289  0.7335 -2.2528
 6045SOL     OW29767   2.160   3.942   1.420  0.2594 -0.0974  0.7924
 6045SOL    HW129768   2.147   4.000   1.495 -1.7882  1.8252 -1.0402
 6045SOL    HW229769   2.113   3.990   1.351  0.9740 -0.2064  0.2329
 6046SOL     OW29770   3.709   0.836  10.618  0.2098 -0.0270 -0.3146
 6046SOL    HW129771   3.659   0.901  10.568 -0.6545 -0.9042 -0.5857
 6046SOL    HW229772   3.650   0.792  10.679 -1.7203  1.5208 -1.0280
 6047SOL     OW29773   2.380   1.837   2.078 -0.2428 -0.0095  0.9329
 6047SOL    HW129774   2.324   1.808   2.006 -0.8462  1.1477  0.9506
 6047SOL    HW229775   2.350   1.927   2.090 -2.2861 -0.8892  2.4887
 6048SOL     OW29776   1.119   0.390   7.182  0.4638 -0.6380  0.2647
 6048SOL    HW129777   1.031   0.420   7.206 -0.0309 -0.6515 -1.5302
 6048SOL    HW229778   1.157   0.451   7.119  1.9959 -1.9637 -0.0975
 6049SOL     OW29779   3.331   0.760   1.918 -0.0559  0.2281  0.2682
 6049SOL    HW129780   3.334   0.671   1.954  0.6696  0.9885  2.1297
 6049SOL    HW229781   3.253   0.745   1.864  0.9887  1.0285 -1.4219
 6050SOL     OW29782   3.620   3.026   4.238  0.2711  0.2351 -0.4133
 6050SOL    HW129783   3.617   2.931   4.232 -0.9543  0.2768 -0.6388
 6050SOL    HW229784   3.711   3.054   4.236  0.4169 -0.1899  0.1661
 6051SOL     OW29785   1.906   2.000  16.756 -0.1595 -0.5387 -0.2230
 6051SOL    HW129786   1.931   1.913  16.723 -1.9588 -1.2723  0.3585
 6051SOL    HW229787   1.934   2.062  16.688 -0.7099 -1.2739 -1.1360
 6052SOL     OW29788   2.344   0.751   5.904  0.0622  0.4114 -1.2758
 6052SOL    HW129789   2.375   0.717   5.987 -0.0219  0.2976 -1.2907
 6052SOL    HW229790   2.302   0.832   5.935 -0.0680  0.0048 -0.4111
 6053SOL     OW29791   3.052   3.373   7.585 -0.3720  0.7889 -0.5117
 6053SOL    HW129792   3.076   3.412   7.502  0.7741 -0.2815 -0.6849
 6053SOL    HW229793   3.081   3.442   7.645  2.1823 -2.8381  2.4369
 6054SOL     OW29794   0.815   4.354   6.954 -0.1884 -0.3097  0.3747
 6054SOL    HW129795   0.769   4.398   7.025 -0.0845  1.7130 -0.8194
 6054SOL    HW229796   0.902   4.394   6.958 -0.3586  0.0461  0.5526
 6055SOL     OW29797   1.880   1.647  17.622 -0.3294 -0.0535 -0.2941
 6055SOL    HW129798   1.954   1.601  17.661 -1.6378 -1.7600  0.1745
 6055SOL    HW229799   1.810   1.619  17.680  1.5168  1.5309  2.7167
 6056SOL     OW29800   2.691   4.175   4.563 -0.1507  0.0466  0.3321
 6056SOL    HW129801   2.696   4.106   4.497 -2.5078 -0.0154  0.1934
 6056SOL    HW229802   2.674   4.129   4.645 -0.4512 -1.1513 -0.3960
 6057SOL     OW29803   0.146   1.909   7.365 -0.2083 -0.1384 -0.0224
 6057SOL    HW129804   0.168   1.990   7.319 -0.1049 -0.9120 -1.3615
 6057SOL    HW229805   0.117   1.860   7.288 -0.4081 -0.5873  0.3359
 6058SOL     OW29806   2.493   3.808   4.624 -0.2112 -0.1881  0.2730
 6058SOL    HW129807   2.454   3.894   4.607 -0.1428 -0.6181 -2.0791
 6058SOL    HW229808   2.572   3.846   4.662  0.0965 -0.3577 -0.2029
 6059SOL     OW29809   3.540   3.992   4.076 -0.4231  0.1517 -0.7979
 6059SOL    HW129810   3.508   4.065   4.129 -3.0954 -2.0469  0.6047
 6059SOL    HW229811   3.635   4.000   4.063 -0.2884  0.3309  0.2505
 6060SOL     OW29812   1.639   0.181   5.772  0.0666  0.1726  0.0699
 6060SOL    HW129813   1.730   0.166   5.801  0.3554  1.1882 -0.3298
 6060SOL    HW229814   1.663   0.239   5.700  1.2613 -1.0969 -0.5703
 6061SOL     OW29815   3.232   1.936   4.724  0.2810  0.4155  0.8732
 6061SOL    HW129816   3.200   1.989   4.651 -0.4470 -0.5429  0.5031
 6061SOL    HW229817   3.157   1.912   4.778  0.3234  2.3501  1.8118
 6062SOL     OW29818   3.429   1.728   5.050 -0.5976 -0.0471 -0.0146
 6062SOL    HW129819   3.398   1.813   5.019 -1.0498 -0.7302 -1.4350
 6062SOL    HW229820   3.353   1.691   5.094 -0.9672  0.4092 -0.2689
 6063SOL     OW29821   0.976   2.274  10.418  0.1777  0.1989  0.2889
 6063SOL    HW129822   0.954   2.181  10.425  0.6585  0.0514 -0.1595
 6063SOL    HW229823   1.003   2.286  10.327  2.2202 -0.8633  0.7589
 6064SOL     OW29824   3.512   4.213  12.101 -0.1000  0.1416  0.2941
 6064SOL    HW129825   3.483   4.132  12.143 -0.1142  0.1386  0.2788
 6064SOL    HW229826   3.598   4.223  12.141 -0.7120  1.4503  1.2808
 6065SOL     OW29827   1.621   0.321   8.643  0.0900 -0.1225 -0.1774
 6065SOL    HW129828   1.556   0.310   8.712  0.8753  1.7959  0.8717
 6065SOL    HW229829   1.649   0.413   8.645 -1.3827  0.3035  0.8781
 6066SOL     OW29830   3.305   4.040  15.576 -0.2244 -0.2073  0.0527
 6066SOL    HW129831   3.225   4.009  15.534 -0.4831  0.3541  0.1253
 6066SOL    HW229832   3.318   3.971  15.641 -3.6181 -1.2004 -0.3432
 6067SOL     OW29833   3.494   0.521   5.930 -0.4318  0.2097  0.5444
 6067SOL    HW129834   3.521   0.439   5.970 -1.1022 -0.9377 -1.3305
 6067SOL    HW229835   3.413   0.488   5.889  0.6625 -1.8552  0.0775
 6068SOL     OW29836   1.466   0.013   1.086 -0.0129 -0.0115 -0.2707
 6068SOL    HW129837   1.428   4.728   1.171 -0.4865  1.3580 -0.1590
 6068SOL    HW229838   1.475   0.108   1.083  0.3034 -0.0016  1.0436
 6069SOL     OW29839   4.212   4.658   6.660  0.2067 -0.0370 -0.2011
 6069SOL    HW129840   4.155   4.719   6.707 -0.9130 -2.7011  1.9107
 6069SOL    HW229841   4.147   4.615   6.605  1.2687 -0.0686 -1.4297
 6070SOL     OW29842   1.446   1.888   5.432 -0.1876  0.2369 -0.0805
 6070SOL    HW129843   1.479   1.893   5.343  0.7495  0.4888  0.2829
 6070SOL    HW229844   1.506   1.945   5.480  0.2051 -0.1382 -0.1359
 6071SOL     OW29845   4.129   0.533   7.443  0.5727  0.2412 -0.1467
 6071SOL    HW129846   4.071   0.460   7.423 -0.0012  0.5984  0.2255
 6071SOL    HW229847   4.086   0.570   7.520  0.7559 -0.0957  0.1165
 6072SOL     OW29848   0.198   3.315   8.781 -0.6189  0.0886 -0.1761
 6072SOL    HW129849   0.276   3.338   8.729 -1.6325  2.2594 -0.7139
 6072SOL    HW229850   0.137   3.365   8.727 -0.9923  0.2349  0.3865
 6073SOL     OW29851   3.860   1.122  12.702  0.0278 -0.1030 -0.0583
 6073SOL    HW129852   3.940   1.081  12.667 -1.1012 -1.2123 -1.3283
 6073SOL    HW229853   3.885   1.132  12.793  1.9380  0.8801 -0.6844
 6074SOL     OW29854   3.276   4.091   3.920  0.3185 -0.2016 -0.0042
 6074SOL    HW129855   3.304   4.158   3.983 -1.0699  0.6889 -0.3336
 6074SOL    HW229856   3.334   4.101   3.844  0.3175 -0.5802 -0.0539
 6075SOL     OW29857   0.717   4.066   7.495  0.2599 -0.5301  0.3676
 6075SOL    HW129858   0.804   4.098   7.521 -0.0449  1.4474 -1.0142
 6075SOL    HW229859   0.695   4.016   7.574  0.4189  0.2653  0.9124
 6076SOL     OW29860   0.467   0.099   2.232 -0.4608  0.0515 -0.0199
 6076SOL    HW129861   0.554   0.140   2.228 -0.7007  0.4724 -0.8550
 6076SOL    HW229862   0.409   0.166   2.267 -0.0547 -0.0367  0.8319
 6077SOL     OW29863   2.827   0.618  10.364  0.1452  0.3063 -0.3389
 6077SOL    HW129864   2.733   0.606  10.379  0.1774 -0.8879 -1.0754
 6077SOL    HW229865   2.839   0.710  10.385  1.6721 -0.5643  2.5305
 6078SOL     OW29866   0.518   4.281   5.002 -0.0997 -0.1548  0.8479
 6078SOL    HW129867   0.482   4.215   5.061 -0.0005 -0.4913  0.5265
 6078SOL    HW229868   0.484   4.262   4.915  1.3280  1.7305 -0.1383
 6079SOL     OW29869   0.207   2.740   9.099  0.2091 -0.0788  0.2966
 6079SOL    HW129870   0.156   2.668   9.062 -0.2397 -0.3398  1.3991
 6079SOL    HW229871   0.137   2.804   9.085  0.5959  0.6069  1.5197
 6080SOL     OW29872   1.908   1.579  11.548  0.0783  0.0353  0.0224
 6080SOL    HW129873   1.924   1.510  11.613  2.5188  0.0658 -0.5307
 6080SOL    HW229874   1.813   1.582  11.542  0.0810  1.2162  0.4176
 6081SOL     OW29875   0.515   0.764  12.125 -0.4874  0.8338 -0.0234
 6081SOL    HW129876   0.550   0.775  12.036  0.7802 -2.7820  0.0246
 6081SOL    HW229877   0.426   0.738  12.102  0.2963 -2.6020  0.8454
 6082SOL     OW29878   4.354   3.900   4.156  0.0888 -0.0513  0.1155
 6082SOL    HW129879   4.353   3.809   4.125  0.4832  0.7559 -2.2885
 6082SOL    HW229880   4.363   3.949   4.074 -2.1096  1.3860  0.7356
 6083SOL     OW29881   4.015   0.904   4.034  0.6009  0.1847  0.2366
 6083SOL    HW129882   4.011   0.991   4.072  3.7593 -0.0805  1.2070
 6083SOL    HW229883   4.096   0.918   3.984  1.3745 -1.0738  1.1262
 6084SOL     OW29884   4.325   3.690  10.794 -0.2091  0.1798  0.2922
 6084SOL    HW129885   4.365   3.776  10.786 -1.9226  0.7415 -2.1225
 6084SOL    HW229886   4.285   3.686  10.707 -0.7657  0.1282  0.5463
 6085SOL     OW29887   3.518   4.449   2.226  0.9968  0.2921 -0.0988
 6085SOL    HW129888   3.503   4.538   2.260  1.2442  0.5611 -0.7017
 6085SOL    HW229889   3.505   4.398   2.306  1.0584  1.4996  0.6757
 6086SOL     OW29890   2.343   0.708  16.674 -0.2433 -0.2821  0.2571
 6086SOL    HW129891   2.317   0.756  16.595 -0.7385 -2.5834 -0.9994
 6086SOL    HW229892   2.254   0.689  16.706 -0.6306  3.2150  1.1947
 6087SOL     OW29893   0.229   0.597   8.450 -0.0237  0.0945  0.2311
 6087SOL    HW129894   0.256   0.663   8.385 -1.9768 -0.1575 -0.8141
 6087SOL    HW229895   0.301   0.534   8.443 -1.2431 -1.2762  0.3140
 6088SOL     OW29896   0.176   2.080  15.702 -0.2766 -0.3796  0.8562
 6088SOL    HW129897   0.131   1.996  15.708 -0.4494 -0.4397 -1.3522
 6088SOL    HW229898   0.264   2.061  15.735 -0.3361 -0.1022  1.1724
 6089SOL     OW29899   0.915   4.410   5.159  0.0111  0.1240 -0.0981
 6089SOL    HW129900   0.891   4.401   5.251  1.2415  1.3613  0.3586
 6089SOL    HW229901   0.870   4.494   5.147  2.1764  0.7658 -3.7689
 6090SOL     OW29902   3.063   4.462  12.037 -0.1318 -0.3157 -0.6961
 6090SOL    HW129903   3.055   4.541  12.090 -0.8179 -1.1128  0.3902
 6090SOL    HW229904   3.158   4.455  12.031 -0.2107 -1.8275 -0.1700
 6091SOL     OW29905   0.362   1.885   8.050  0.0660 -0.4839 -0.0579
 6091SOL    HW129906   0.312   1.919   7.976 -1.1144 -1.0327  0.4857
 6091SOL    HW229907   0.443   1.863   8.005  0.0567 -0.2435 -0.1925
 6092SOL     OW29908   0.564   2.019   8.450  0.4312 -0.2411 -0.6605
 6092SOL    HW129909   0.542   2.104   8.489 -1.2112 -1.5900  1.3148
 6092SOL    HW229910   0.562   2.034   8.355 -0.3297 -0.0407 -0.6132
 6093SOL     OW29911   4.159   1.305   6.617  0.3241 -0.0725 -0.6525
 6093SOL    HW129912   4.194   1.217   6.632 -1.1241 -0.2386  1.7965
 6093SOL    HW229913   4.129   1.290   6.527 -0.1779 -0.9763 -0.3358
 6094SOL     OW29914   0.085   1.910   9.205  0.1896 -0.4069 -0.5989
 6094SOL    HW129915   0.169   1.883   9.243 -0.0745 -0.5520 -0.1210
 6094SOL    HW229916   0.048   1.826   9.178 -2.0467  0.1392  0.7907
 6095SOL     OW29917   2.021   0.641   8.987 -0.2011  0.2303 -0.2825
 6095SOL    HW129918   1.969   0.646   9.067 -0.7074 -0.6940 -0.5556
 6095SOL    HW229919   2.070   0.722   8.999 -1.4447  0.9376  0.0033
 6096SOL     OW29920   1.562   4.647   7.701 -0.0794 -0.2706 -0.1082
 6096SOL    HW129921   1.503   4.604   7.763 -0.4665  0.6108  0.1372
 6096SOL    HW229922   1.650   4.634   7.738 -0.5471 -1.8049  0.4918
 6097SOL     OW29923   0.245   0.853   8.764  0.3310  0.0422  0.4826
 6097SOL    HW129924   0.217   0.940   8.735 -1.4310 -0.1137  1.7253
 6097SOL    HW229925   0.339   0.862   8.747 -0.1834  1.5706 -1.5757
 6098SOL     OW29926   2.247   1.660   5.420  0.5184  0.6519  0.1285
 6098SOL    HW129927   2.305   1.722   5.464  0.8392  1.3201 -1.2254
 6098SOL    HW229928   2.222   1.614   5.500  0.9264 -0.0371 -0.1385
 6099SOL     OW29929   0.152   2.751   8.194 -0.2036 -0.0013  0.1972
 6099SOL    HW129930   0.129   2.813   8.263  0.7540  1.6804 -0.9875
 6099SOL    HW229931   0.247   2.763   8.205 -0.2582 -0.2707  0.9988
 6100SOL     OW29932   0.044   0.648  11.322 -0.1520  0.0208 -0.4251
 6100SOL    HW129933   0.016   0.558  11.337 -0.7666  0.0339 -1.4901
 6100SOL    HW229934   4.701   0.701  11.336 -0.9142 -0.9500 -1.0562
 6101SOL     OW29935   2.129   4.166   8.750 -0.1616 -0.5705 -0.0360
 6101SOL    HW129936   2.179   4.215   8.815  0.6001 -2.5665  0.8534
 6101SOL    HW229937   2.145   4.073   8.765  0.2658 -0.4510  0.2429
 6102SOL     OW29938   2.931   1.224   0.503 -0.3928  0.4686  0.4616
 6102SOL    HW129939   2.946   1.156   0.438 -0.5400 -0.9597  1.9227
 6102SOL    HW229940   2.922   1.305   0.453  0.2460  1.5525  2.0736
 6103SOL     OW29941   3.782   2.665   1.051  0.4587  0.2610 -0.2223
 6103SOL    HW129942   3.779   2.732   1.119 -0.4091 -0.1876  0.1844
 6103SOL    HW229943   3.851   2.610   1.087  0.7472  0.3534 -0.6401
 6104SOL     OW29944   0.840   3.792   2.126  0.1209  0.0278 -0.5829
 6104SOL    HW129945   0.768   3.822   2.181  0.1914  0.2925 -0.6350
 6104SOL    HW229946   0.793   3.757   2.050 -0.9220  2.4261 -1.0232
 6105SOL     OW29947   0.229   3.077  12.660 -0.0499 -0.2273  0.6809
 6105SOL    HW129948   0.223   3.132  12.738  1.5673 -0.8219  1.2094
 6105SOL    HW229949   0.314   3.038  12.677 -0.8962 -3.4331 -2.3558
 6106SOL     OW29950   0.670   3.173  17.318  0.5656 -0.1287  0.9851
 6106SOL    HW129951   0.602   3.106  17.308  1.1578 -0.5090 -0.5008
 6106SOL    HW229952   0.748   3.120  17.336 -0.7526 -2.0678  1.0733
 6107SOL     OW29953   4.136   4.472  15.355  0.3353  0.0169  0.0702
 6107SOL    HW129954   4.230   4.474  15.337  0.2513 -0.3143 -0.3957
 6107SOL    HW229955   4.096   4.459  15.269  1.7021  1.3409 -0.7594
 6108SOL     OW29956   3.795   1.843  17.332 -0.3208  0.2089  0.2900
 6108SOL    HW129957   3.869   1.888  17.291  0.2527 -1.0789 -0.0812
 6108SOL    HW229958   3.810   1.758  17.291  1.5469  0.4746  0.4279
 6109SOL     OW29959   0.560   0.247   8.131 -0.4141  0.2153 -0.3425
 6109SOL    HW129960   0.536   0.165   8.088  1.3211 -0.9338  0.9395
 6109SOL    HW229961   0.479   0.295   8.110 -0.2990  1.5375  2.2387
 6110SOL     OW29962   2.434   2.290  12.975 -0.2774  0.1667 -0.0311
 6110SOL    HW129963   2.527   2.271  12.962  0.2651  1.5059  2.0099
 6110SOL    HW229964   2.416   2.229  13.046 -0.4673  0.0557 -0.1753
 6111SOL     OW29965   2.596   0.122   4.353 -0.4605  0.0991  0.1759
 6111SOL    HW129966   2.515   0.087   4.390 -1.5447  3.6685  1.1804
 6111SOL    HW229967   2.595   0.081   4.267  2.0972  0.2238  0.0941
 6112SOL     OW29968   2.271   3.142   3.743  0.9309 -0.0106 -0.7002
 6112SOL    HW129969   2.319   3.119   3.822 -1.3175  0.5765  0.8576
 6112SOL    HW229970   2.258   3.055   3.706  1.9236 -0.2044 -0.5785
 6113SOL     OW29971   0.119   3.418   9.742  0.0355 -0.1432  0.1355
 6113SOL    HW129972   0.046   3.374   9.785 -0.9311  0.2279 -1.1089
 6113SOL    HW229973   0.185   3.405   9.810  0.3740  0.8362 -0.0093
 6114SOL     OW29974   4.435   2.785  15.703 -0.1461  0.0837 -0.2282
 6114SOL    HW129975   4.420   2.814  15.613  0.3744 -0.6542 -0.5478
 6114SOL    HW229976   4.507   2.842  15.729  1.2681 -0.7428 -2.3247
 6115SOL     OW29977   2.984   4.667   3.340  0.4761 -0.3903 -0.1183
 6115SOL    HW129978   2.916   4.672   3.272 -1.8408 -2.0897  2.0469
 6115SOL    HW229979   3.017   4.579   3.324  1.6029  0.3136 -1.6586
 6116SOL     OW29980   0.872   4.731   5.360 -0.5982  0.4239  0.5904
 6116SOL    HW129981   0.822   0.074   5.337  0.2610  0.7618 -0.0859
 6116SOL    HW229982   0.810   4.665   5.391 -0.7430 -0.3496 -1.3391
 6117SOL     OW29983   4.437   4.339   5.017  0.8253 -0.3778  0.1009
 6117SOL    HW129984   4.431   4.247   4.991  0.5806 -0.9162  1.9988
 6117SOL    HW229985   4.471   4.333   5.107  0.7363 -0.9977  0.0900
 6118SOL     OW29986   2.167   3.951   3.122 -0.0013  0.2262 -1.1062
 6118SOL    HW129987   2.206   3.864   3.116 -1.3741 -0.5792  1.7829
 6118SOL    HW229988   2.140   3.945   3.214  0.2714 -1.7672 -1.1590
 6119SOL     OW29989   0.088   4.105   1.011 -0.3503 -0.4833  0.6097
 6119SOL    HW129990   0.177   4.126   0.983 -0.7014 -0.3409 -0.4084
 6119SOL    HW229991   0.077   4.023   0.962  1.3301  0.9298 -2.1136
 6120SOL     OW29992   2.497   3.385  12.141 -0.0007 -0.3419  0.0816
 6120SOL    HW129993   2.487   3.379  12.236 -0.4617 -1.2626 -0.0256
 6120SOL    HW229994   2.582   3.341  12.142  0.4924  0.5790 -1.2993
 6121SOL     OW29995   0.534   4.206  12.355  0.0162 -0.2614 -0.0355
 6121SOL    HW129996   0.522   4.193  12.449  0.8683  0.1395  0.1335
 6121SOL    HW229997   0.444   4.216  12.324  0.6693 -1.3156 -2.2186
 6122SOL     OW29998   4.567   0.303   7.611  0.2720  0.0640 -0.0084
 6122SOL    HW129999   4.553   0.364   7.683 -3.1095 -1.2124  0.4287
 6122SOL    HW230000   4.651   0.266   7.638  0.1025  0.1762  0.6708
 6123SOL     OW30001   2.096   3.471   2.978  0.0836  0.4891 -0.3748
 6123SOL    HW130002   2.080   3.378   2.964 -0.1505  0.2608  1.4891
 6123SOL    HW230003   2.182   3.485   2.938  0.7071  0.0788  0.8024
 6124SOL     OW30004   3.666   3.218   0.238 -0.3804  0.2807  0.1213
 6124SOL    HW130005   3.654   3.307   0.271 -0.0403  0.0643  0.8381
 6124SOL    HW230006   3.702   3.170   0.313  0.0767  1.2570  0.5301
 6125SOL     OW30007   4.117   0.092   7.420 -0.0039 -0.1874 -0.2409
 6125SOL    HW130008   4.112   4.732   7.407  0.9229 -0.3265  0.4040
 6125SOL    HW230009   4.207   0.117   7.398  0.0432  0.0253  0.1949
 6126SOL     OW30010   0.475   3.177  14.544  0.2808 -0.3317  0.3536
 6126SOL    HW130011   0.464   3.222  14.460  3.0341 -0.6113 -0.1426
 6126SOL    HW230012   0.449   3.086  14.527  1.5372 -0.7775  0.8467
 6127SOL     OW30013   3.099   0.526   3.827 -0.5377  0.2268 -0.1760
 6127SOL    HW130014   3.055   0.502   3.745  0.7654 -0.7840 -0.5631
 6127SOL    HW230015   3.186   0.542   3.790 -0.8652  1.2123 -0.5232
 6128SOL     OW30016   0.008   4.423   6.237  0.2734  0.3950 -0.1807
 6128SOL    HW130017   4.682   4.453   6.304 -0.3109 -3.3664  0.9243
 6128SOL    HW230018   0.086   4.447   6.286  0.5003 -1.7124  0.4796
 6129SOL     OW30019   2.952   1.478   5.588  0.0791 -0.3001  0.6494
 6129SOL    HW130020   3.033   1.528   5.590  0.0155 -0.2047  0.7986
 6129SOL    HW230021   2.884   1.546   5.589 -0.1203 -0.5163  1.8189
 6130SOL     OW30022   2.810   0.403   4.484  0.2660 -0.2322  0.0360
 6130SOL    HW130023   2.849   0.321   4.516  0.7644 -0.5460 -1.3854
 6130SOL    HW230024   2.751   0.423   4.557  0.5835  1.2727 -0.1133
 6131SOL     OW30025   2.974   1.646  13.529 -0.7308  0.2272  0.1951
 6131SOL    HW130026   2.990   1.649  13.624  0.3583 -0.3397  0.0323
 6131SOL    HW230027   3.006   1.558  13.508  0.1806  0.9302 -1.3602
 6132SOL     OW30028   3.766   2.840   8.267 -0.1008 -0.0198  0.2615
 6132SOL    HW130029   3.757   2.891   8.347  0.5623 -0.6504  0.7528
 6132SOL    HW230030   3.782   2.751   8.298  0.2669 -0.3697 -0.9257
 6133SOL     OW30031   4.001   2.383   7.187 -0.0349 -0.3331  0.2503
 6133SOL    HW130032   3.964   2.471   7.186  1.1158  0.1747  1.8492
 6133SOL    HW230033   4.011   2.362   7.095  1.8153 -0.2455  0.4322
 6134SOL     OW30034   4.559   1.844  16.952  0.1849  0.4768  0.3644
 6134SOL    HW130035   4.491   1.801  16.899  0.1618  0.2429  0.5833
 6134SOL    HW230036   4.562   1.937  16.931 -1.6218 -0.0742 -2.4039
 6135SOL     OW30037   1.002   0.621  15.724 -0.1725 -0.1568  0.4177
 6135SOL    HW130038   0.962   0.540  15.691 -2.2190  0.7065  0.7683
 6135SOL    HW230039   1.088   0.598  15.689  0.2079 -0.8413  1.7666
 6136SOL     OW30040   3.164   2.216  12.411  0.0941 -0.7149  0.1461
 6136SOL    HW130041   3.247   2.252  12.444  0.6331 -1.4176 -0.4161
 6136SOL    HW230042   3.153   2.158  12.486  1.5725 -0.3804  0.6400
 6137SOL     OW30043   4.665   4.344  14.949  0.0227  0.0723 -0.0183
 6137SOL    HW130044   4.724   4.363  15.022 -0.4042  0.9530  0.1064
 6137SOL    HW230045   4.717   4.375  14.875  0.3537  1.5347  0.8208
 6138SOL     OW30046   2.088   0.228  15.452 -0.1376  0.2470 -0.5364
 6138SOL    HW130047   2.045   0.281  15.384  3.1599  1.6435 -1.5175
 6138SOL    HW230048   2.014   0.179  15.487  1.2322  0.3912  2.5451
 6139SOL     OW30049   2.788   0.285  11.559  0.0033  0.0704  0.8132
 6139SOL    HW130050   2.829   0.359  11.605  0.2512  0.8399 -0.6527
 6139SOL    HW230051   2.705   0.318  11.525 -0.5854 -0.8592  1.3421
 6140SOL     OW30052   3.770   1.816   6.694  0.1245 -0.1356 -0.5344
 6140SOL    HW130053   3.789   1.742   6.636 -0.3155 -0.4143 -0.3234
 6140SOL    HW230054   3.731   1.771   6.769 -1.2766  1.0675 -0.5431
 6141SOL     OW30055   2.266   0.994   2.077  0.3050 -0.5573  0.0640
 6141SOL    HW130056   2.302   1.060   2.136  0.3352 -0.6231  0.1188
 6141SOL    HW230057   2.174   0.998   2.103  0.2019  1.3944 -0.5818
 6142SOL     OW30058   2.413   2.356   3.411 -0.0964 -0.0918 -0.5244
 6142SOL    HW130059   2.506   2.339   3.425  0.3447  2.0612 -0.9204
 6142SOL    HW230060   2.377   2.293   3.474 -1.3421  0.1142 -1.0204
 6143SOL     OW30061   2.320   4.129   6.135 -0.2328  0.1952  0.1722
 6143SOL    HW130062   2.316   4.062   6.067 -0.3531  1.7519 -1.3386
 6143SOL    HW230063   2.275   4.086   6.208 -1.2348  1.9893  0.6014
 6144SOL     OW30064   2.678   0.260  10.311  0.4179 -0.1015  0.0532
 6144SOL    HW130065   2.767   0.254  10.274  0.5763  0.9598  0.2555
 6144SOL    HW230066   2.633   0.188  10.267 -1.6371  1.8325 -1.0213
 6145SOL     OW30067   1.648   2.933  13.690  0.2025  0.1632  0.6571
 6145SOL    HW130068   1.735   2.927  13.728  0.0629 -3.0255  0.4741
 6145SOL    HW230069   1.593   2.935  13.768  1.1189  1.2127  1.2681
 6146SOL     OW30070   2.279   2.756   1.262  0.7054 -0.1512  0.1159
 6146SOL    HW130071   2.373   2.757   1.277  0.6930 -1.7614  0.2868
 6146SOL    HW230072   2.268   2.784   1.172  2.7997 -1.8946 -0.6703
 6147SOL     OW30073   2.716   1.243   2.342  0.2373 -0.2570 -0.4716
 6147SOL    HW130074   2.639   1.266   2.394  0.6342 -3.6439  1.6340
 6147SOL    HW230075   2.788   1.243   2.405 -0.9993 -0.7243  0.9553
 6148SOL     OW30076   1.984   2.161   3.492  0.1273 -0.0038  0.6640
 6148SOL    HW130077   2.036   2.082   3.476 -0.2327 -0.2867  0.8866
 6148SOL    HW230078   2.051   2.215   3.534  0.9978 -1.2965  0.9622
 6149SOL     OW30079   0.433   2.782   5.285 -0.3188 -0.0691  0.2904
 6149SOL    HW130080   0.436   2.823   5.198 -1.3384  0.2330  0.4041
 6149SOL    HW230081   0.519   2.741   5.287 -2.5486 -4.8800 -1.8255
 6150SOL     OW30082   2.687   1.008   0.620  0.2542 -0.0849  0.5635
 6150SOL    HW130083   2.662   1.061   0.544 -1.3863 -0.8733  0.5751
 6150SOL    HW230084   2.722   1.082   0.669  0.4845 -0.7064  1.3334
 6151SOL     OW30085   2.603   1.480   0.444  0.1185 -0.2616  0.5055
 6151SOL    HW130086   2.682   1.534   0.445 -0.3845  0.4689  0.4246
 6151SOL    HW230087   2.551   1.513   0.517  0.9769  0.8859  0.6026
 6152SOL     OW30088   4.063   0.519  12.004 -0.0346  0.2993  0.1862
 6152SOL    HW130089   4.110   0.436  12.001 -2.3092 -0.9890 -0.0598
 6152SOL    HW230090   4.092   0.561  12.084 -3.0349  2.2771  0.2320
 6153SOL     OW30091   0.522   4.126  12.063 -0.9634 -0.1542  0.1347
 6153SOL    HW130092   0.610   4.097  12.042 -1.4007  0.3259 -2.2891
 6153SOL    HW230093   0.544   4.124  12.157 -1.2956 -3.3286  0.1472
 6154SOL     OW30094   4.654   1.929   7.514 -0.1651 -0.2913 -0.0645
 6154SOL    HW130095   4.574   1.952   7.468  0.8397  0.0669 -1.6329
 6154SOL    HW230096   4.718   1.920   7.444 -1.4955 -2.7859 -0.9685
 6155SOL     OW30097   4.503   3.810   6.751  0.2190 -0.3138 -0.1993
 6155SOL    HW130098   4.477   3.718   6.756 -0.3772  0.0207  2.6073
 6155SOL    HW230099   4.498   3.824   6.656 -0.0852 -1.1746 -0.3120
 6156SOL     OW30100   1.170   4.108  13.506 -0.4475 -0.0934  0.4629
 6156SOL    HW130101   1.113   4.033  13.525 -1.2909  0.4316 -0.0040
 6156SOL    HW230102   1.142   4.126  13.417  2.5846  0.9284 -0.2571
 6157SOL     OW30103   4.467   2.157  14.743 -0.1832 -0.1241  0.9799
 6157SOL    HW130104   4.387   2.108  14.723  0.1104 -0.1966 -0.0083
 6157SOL    HW230105   4.534   2.089  14.750  1.2892  1.2823  0.5637
 6158SOL     OW30106   3.366   4.719   7.279 -0.4935  0.4866  0.1355
 6158SOL    HW130107   3.294   4.660   7.303 -0.5712  0.1694 -0.8880
 6158SOL    HW230108   3.347   4.714   7.185 -0.4870  0.8869  0.1101
 6159SOL     OW30109   4.048   4.314   8.780  0.3845  0.0565  0.1748
 6159SOL    HW130110   4.051   4.247   8.711 -0.6157  0.0145  0.1641
 6159SOL    HW230111   4.010   4.392   8.739  0.8079 -0.1355 -0.5819
 6160SOL     OW30112   0.629   3.409   6.426  0.0532  0.2433 -0.0634
 6160SOL    HW130113   0.606   3.469   6.497  0.2013  0.9485 -0.6169
 6160SOL    HW230114   0.595   3.325   6.459 -0.9480  0.0413 -1.6161
 6161SOL     OW30115   0.451   3.387  10.078 -0.1409  0.4855 -0.3630
 6161SOL    HW130116   0.460   3.365  10.171  1.8381  0.2199 -0.6135
 6161SOL    HW230117   0.461   3.482  10.085 -1.1358  0.6399 -1.0765
 6162SOL     OW30118   4.542   2.301   2.736  0.5363 -0.0284  0.4998
 6162SOL    HW130119   4.551   2.395   2.748  1.6000  0.2372 -2.4458
 6162SOL    HW230120   4.608   2.268   2.798 -0.4204 -0.5469  1.2414
 6163SOL     OW30121   0.927   3.685   6.157  0.1715  0.5237  0.3370
 6163SOL    HW130122   0.970   3.752   6.103 -0.7242  0.8701  0.0564
 6163SOL    HW230123   0.933   3.734   6.239 -0.2459 -0.9330  1.2401
 6164SOL     OW30124   2.927   1.750  12.727 -0.6246  0.2863 -0.3792
 6164SOL    HW130125   2.941   1.827  12.671  1.9723 -0.4167 -0.7000
 6164SOL    HW230126   2.943   1.684  12.659 -2.0860  0.4320 -0.8506
 6165SOL     OW30127   0.515   1.281   8.454  0.0416 -0.1494  0.1259
 6165SOL    HW130128   0.443   1.292   8.515  0.5663 -1.4313  0.9911
 6165SOL    HW230129   0.569   1.232   8.515  1.7640 -0.2972 -1.5013
 6166SOL     OW30130   3.531   0.821   3.669  0.3392  0.2286  0.2505
 6166SOL    HW130131   3.625   0.823   3.651  0.5755 -3.4054  1.0559
 6166SOL    HW230132   3.507   0.913   3.661  0.9968  0.3125 -0.7052
 6167SOL     OW30133   1.586   3.197  15.860 -0.5783 -0.9803  0.2077
 6167SOL    HW130134   1.646   3.264  15.827 -2.5810 -0.5499 -2.5926
 6167SOL    HW230135   1.550   3.245  15.935  1.2531  1.2633 -0.3567
 6168SOL     OW30136   4.379   4.449   6.125  0.0695  0.7767 -0.1655
 6168SOL    HW130137   4.371   4.483   6.214  0.1860 -0.6277  0.3920
 6168SOL    HW230138   4.382   4.527   6.070 -0.3920  1.5824  0.9534
 6169SOL     OW30139   1.504   3.647  11.982 -0.3197 -0.2268  0.2085
 6169SOL    HW130140   1.487   3.685  11.895 -0.1600 -0.9767 -0.1496
 6169SOL    HW230141   1.562   3.715  12.016 -0.0803  0.2207 -1.0781
 6170SOL     OW30142   3.662   4.534   8.799 -0.4220  0.0543  0.4189
 6170SOL    HW130143   3.592   4.492   8.750 -0.8586  1.1619  0.0824
 6170SOL    HW230144   3.679   4.603   8.734  0.8218 -0.6991 -0.0540
 6171SOL     OW30145   1.431   0.832  10.264  0.4319  1.0983 -0.1168
 6171SOL    HW130146   1.378   0.866  10.191  0.4376 -1.8147 -1.4846
 6171SOL    HW230147   1.509   0.802  10.218  0.2982  0.1636  0.2556
 6172SOL     OW30148   2.271   1.907  17.268 -0.0136  0.3461 -0.4720
 6172SOL    HW130149   2.341   1.971  17.253  0.4514 -0.4083 -1.5065
 6172SOL    HW230150   2.323   1.828  17.254 -0.6342  0.0379 -1.0040
 6173SOL     OW30151   2.679   1.311  17.571 -0.5222 -0.4836  0.7600
 6173SOL    HW130152   2.586   1.321  17.592 -0.5684  0.3624  0.1858
 6173SOL    HW230153   2.684   1.232  17.518 -0.2886 -0.1435  0.2749
 6174SOL     OW30154   3.774   4.255   5.748 -0.2041 -0.2787 -0.0412
 6174SOL    HW130155   3.703   4.203   5.711 -0.0605  0.6807 -1.6385
 6174SOL    HW230156   3.785   4.208   5.831  0.9320  2.3388  1.3231
 6175SOL     OW30157   2.485   1.260   5.355  0.1642  0.0326  0.6174
 6175SOL    HW130158   2.514   1.272   5.445  0.7715 -0.7118  0.5180
 6175SOL    HW230159   2.562   1.218   5.316  0.3337 -2.2442  3.4424
 6176SOL     OW30160   1.993   0.694   1.319  0.4787  0.3479  0.0939
 6176SOL    HW130161   1.917   0.712   1.264  0.0840 -0.0561  0.5069
 6176SOL    HW230162   1.993   0.771   1.376 -2.0955  0.4363 -0.0413
 6177SOL     OW30163   1.166   4.305   4.767 -0.4079 -0.3640 -0.0919
 6177SOL    HW130164   1.222   4.348   4.702  0.9446 -0.0323  1.2895
 6177SOL    HW230165   1.191   4.213   4.768  1.5796  0.1697 -3.0264
 6178SOL     OW30166   4.492   0.954   8.407 -0.1748 -0.1148  0.0314
 6178SOL    HW130167   4.407   0.924   8.375  1.1591  1.6691 -5.1395
 6178SOL    HW230168   4.488   0.937   8.501 -1.0856  0.4892  0.1071
 6179SOL     OW30169   0.998   1.556   5.393 -0.0781 -0.5176 -0.1571
 6179SOL    HW130170   0.920   1.509   5.364 -0.6427 -0.4059  1.1409
 6179SOL    HW230171   1.053   1.551   5.315 -0.3046  0.9928 -0.4186
 6180SOL     OW30172   4.088   0.112   5.352 -0.6907  0.2953  0.6453
 6180SOL    HW130173   4.120   0.188   5.400  1.7425  1.1231 -2.2289
 6180SOL    HW230174   4.153   0.049   5.381  1.1621  1.9276  0.0262
 6181SOL     OW30175   1.321   1.539  16.160  0.6812  0.0361  0.2422
 6181SOL    HW130176   1.362   1.457  16.132  0.9228 -0.6260  2.5660
 6181SOL    HW230177   1.239   1.500  16.190 -0.0218  0.6053 -0.9264
 6182SOL     OW30178   0.499   1.583  12.152  0.1996 -0.3945  0.5254
 6182SOL    HW130179   0.441   1.512  12.179 -0.0584 -0.1361  0.6466
 6182SOL    HW230180   0.536   1.612  12.236  1.2973  1.1623 -0.4987
 6183SOL     OW30181   0.644   2.622   8.650 -0.3667 -0.4300 -0.4812
 6183SOL    HW130182   0.658   2.704   8.604  0.0804 -1.3256 -1.9489
 6183SOL    HW230183   0.613   2.648   8.737 -0.1112 -1.2301 -0.1455
 6184SOL     OW30184   2.495   0.883   7.126  0.5537 -0.4985  0.0004
 6184SOL    HW130185   2.407   0.882   7.089 -1.0515 -1.0130  3.8171
 6184SOL    HW230186   2.477   0.862   7.218 -0.4256 -1.8346 -0.4852
 6185SOL     OW30187   3.574   4.106   4.342 -0.0870  0.4251  0.0883
 6185SOL    HW130188   3.552   4.154   4.422  1.6886  0.4487  0.5621
 6185SOL    HW230189   3.513   4.033   4.336 -0.5220  0.8660 -0.7924
 6186SOL     OW30190   2.264   0.280   7.508  0.1935 -0.1931 -0.1202
 6186SOL    HW130191   2.171   0.294   7.529  0.0249  0.2143 -1.1349
 6186SOL    HW230192   2.270   0.299   7.415 -0.2549  1.9826  0.3001
 6187SOL     OW30193   0.472   3.415   3.976 -0.6704 -0.3486 -0.1500
 6187SOL    HW130194   0.536   3.388   4.042  0.2432  1.1873 -0.3911
 6187SOL    HW230195   0.504   3.503   3.957 -2.7092  0.5810  0.6508
 6188SOL     OW30196   2.043   1.986   1.993 -0.1317 -0.3849  0.3149
 6188SOL    HW130197   1.977   1.978   2.062  0.9698  0.9311  1.5197
 6188SOL    HW230198   2.092   2.057   2.035  1.3696  0.4397 -2.8502
 6189SOL     OW30199   2.187   3.313   8.573 -0.3889 -0.0036  0.4557
 6189SOL    HW130200   2.164   3.229   8.611 -0.5606 -0.7753 -1.3387
 6189SOL    HW230201   2.177   3.372   8.648 -0.3578 -1.7658  1.8373
 6190SOL     OW30202   3.504   4.191   7.085  0.0588 -0.1710  0.2673
 6190SOL    HW130203   3.458   4.272   7.066  2.5630  0.8185 -1.6340
 6190SOL    HW230204   3.548   4.218   7.165  0.7098 -2.3470  0.6442
 6191SOL     OW30205   3.520   1.497   6.436  0.5221  0.0105  0.1525
 6191SOL    HW130206   3.480   1.473   6.520 -0.0811 -0.7655 -0.3484
 6191SOL    HW230207   3.555   1.584   6.450 -0.2179  0.0732  1.6162
 6192SOL     OW30208   3.529   0.749  17.453  0.1716 -0.3319  0.4227
 6192SOL    HW130209   3.511   0.718  17.542 -0.0564 -1.1634  0.0842
 6192SOL    HW230210   3.462   0.815  17.438 -2.7681 -3.5345 -0.5339
 6193SOL     OW30211   2.283   0.396   4.147 -0.0696 -0.1679  0.3177
 6193SOL    HW130212   2.369   0.414   4.185 -1.8811  1.6427  3.5812
 6193SOL    HW230213   2.275   0.467   4.082  1.5221 -2.4904 -2.4112
 6194SOL     OW30214   4.283   0.947  11.800 -0.2526 -0.2011  0.4367
 6194SOL    HW130215   4.194   0.982  11.794 -1.1244 -2.4892 -0.3129
 6194SOL    HW230216   4.278   0.869  11.744  3.4654 -0.8736  1.0633
 6195SOL     OW30217   0.831   3.169   3.900  0.0865  0.0509  0.1461
 6195SOL    HW130218   0.843   3.074   3.904  0.2462  0.0197 -0.9273
 6195SOL    HW230219   0.905   3.201   3.849 -0.6781  1.2645 -0.1987
 6196SOL     OW30220   2.741   1.353  15.192 -0.7110  0.1869  0.0175
 6196SOL    HW130221   2.787   1.407  15.127 -0.6255  0.4707  0.3084
 6196SOL    HW230222   2.671   1.314  15.141  0.1944  1.2747 -2.0488
 6197SOL     OW30223   3.566   0.868  13.590 -0.1038 -0.4514 -0.0785
 6197SOL    HW130224   3.633   0.815  13.547  1.0293  0.7244  0.2311
 6197SOL    HW230225   3.513   0.890  13.514  0.6942  1.1110 -0.1758
 6198SOL     OW30226   2.269   1.784  13.783  0.4880  0.1349 -0.0279
 6198SOL    HW130227   2.291   1.714  13.721 -0.8254 -0.0778 -0.2687
 6198SOL    HW230228   2.318   1.764  13.862  1.4064 -0.3802 -0.7286
 6199SOL     OW30229   2.495   3.704   5.971  0.4836 -0.0987  0.1071
 6199SOL    HW130230   2.482   3.790   5.932  2.2241  0.0028 -0.2557
 6199SOL    HW230231   2.508   3.739   6.059 -1.4263  1.1892 -0.1504
 6200SOL     OW30232   2.375   4.243   8.067 -0.4511 -0.5927  0.3828
 6200SOL    HW130233   2.462   4.219   8.034 -0.8339 -2.6887  0.8401
 6200SOL    HW230234   2.367   4.178   8.137  0.9113 -0.0298  1.0581
 6201SOL     OW30235   3.573   2.391   8.842  0.7359 -0.1049  0.9475
 6201SOL    HW130236   3.481   2.378   8.817  0.2640  3.0110  0.9938
 6201SOL    HW230237   3.614   2.323   8.789 -1.3825  0.1364 -0.9924
 6202SOL     OW30238   1.193   2.612  11.652 -0.0874  0.5590 -0.2665
 6202SOL    HW130239   1.243   2.555  11.592 -0.7013 -1.0376  0.7273
 6202SOL    HW230240   1.261   2.668  11.689 -0.2412  0.3947  0.2619
 6203SOL     OW30241   0.507   4.667   1.786 -0.2846  0.1964 -0.3915
 6203SOL    HW130242   0.571   4.599   1.763 -1.2308 -0.5116 -0.9531
 6203SOL    HW230243   0.516   4.666   1.881  0.9882 -2.4168 -0.5255
 6204SOL     OW30244   0.128   2.806   8.627 -0.2729 -0.2752  0.2137
 6204SOL    HW130245   0.039   2.795   8.660  0.7702  1.3512  3.6217
 6204SOL    HW230246   0.155   2.870   8.693  1.0371 -1.3607  0.7326
 6205SOL     OW30247   0.946   1.674   7.310  0.4035  0.1295 -0.3993
 6205SOL    HW130248   1.022   1.642   7.358  0.7836 -2.1485 -2.4747
 6205SOL    HW230249   0.979   1.747   7.258 -1.8744  0.8331 -0.8746
 6206SOL     OW30250   0.044   0.169   8.141 -0.4670  0.3305 -0.0252
 6206SOL    HW130251   4.726   0.115   8.201 -0.8650  1.8316  0.9739
 6206SOL    HW230252   0.078   0.242   8.193 -1.0839  1.0571 -0.6491
 6207SOL     OW30253   1.447   1.201   6.560 -0.2049  0.2285 -0.5572
 6207SOL    HW130254   1.368   1.251   6.582  0.1851  2.0084 -3.1275
 6207SOL    HW230255   1.466   1.241   6.475 -0.7686 -1.5810 -1.5381
 6208SOL     OW30256   2.386   0.420   1.501 -0.0129  0.1876  0.3704
 6208SOL    HW130257   2.293   0.440   1.486  0.1673 -0.2402 -1.2936
 6208SOL    HW230258   2.414   0.500   1.546 -2.1386  2.3282 -2.0892
 6209SOL     OW30259   1.306   2.136   6.963 -0.3463  0.4272  0.3720
 6209SOL    HW130260   1.221   2.101   6.937 -0.4976  0.1326  1.2696
 6209SOL    HW230261   1.358   2.056   6.977 -1.2841 -0.2275  0.0947
 6210SOL     OW30262   0.365   3.248   9.864  0.3188  0.1670 -0.5788
 6210SOL    HW130263   0.455   3.218   9.848 -0.6128 -3.1390  0.4409
 6210SOL    HW230264   0.383   3.299   9.943  1.5218 -0.4954 -0.4229
 6211SOL     OW30265   2.670   1.545   2.623 -0.3977 -0.5308 -0.6698
 6211SOL    HW130266   2.600   1.593   2.579 -1.4886 -1.2660  0.2842
 6211SOL    HW230267   2.743   1.582   2.573 -0.4658  1.6605  0.8707
 6212SOL     OW30268   0.743   0.522   2.579  0.0994 -0.6047  0.1208
 6212SOL    HW130269   0.680   0.470   2.628 -1.9977 -0.4400 -2.4396
 6212SOL    HW230270   0.811   0.544   2.642 -0.4252  1.3975 -0.0077
 6213SOL     OW30271   0.882   4.649  12.148 -0.2993 -0.5024 -0.6168
 6213SOL    HW130272   0.837   4.665  12.065  0.3670 -0.9056 -1.0553
 6213SOL    HW230273   0.974   4.645  12.121 -0.2085 -1.7369 -0.0782
 6214SOL     OW30274   3.650   3.649   3.687  0.0721 -0.5121 -0.4791
 6214SOL    HW130275   3.589   3.720   3.704 -0.9223 -1.1570 -1.3294
 6214SOL    HW230276   3.616   3.623   3.601  2.0900 -1.0100 -1.1258
 6215SOL     OW30277   1.666   4.163   7.581  0.4472 -0.4153 -0.5330
 6215SOL    HW130278   1.609   4.218   7.526  0.4423  0.4233  0.3232
 6215SOL    HW230279   1.654   4.072   7.552  3.1157 -0.8092 -0.3704
 6216SOL     OW30280   1.689   1.803   8.484 -0.1627 -0.7996  0.5849
 6216SOL    HW130281   1.699   1.796   8.579  3.3370  0.8233  0.3452
 6216SOL    HW230282   1.602   1.763   8.479 -1.0568  1.5645 -2.7573
 6217SOL     OW30283   0.040   0.949  15.058 -0.2801 -0.0200  0.2386
 6217SOL    HW130284   4.696   1.002  15.063 -0.1662  0.1164  0.6306
 6217SOL    HW230285   0.107   1.003  15.101  1.1433 -0.7583 -1.0338
 6218SOL     OW30286   3.943   3.096   9.702 -0.3221  0.3817 -0.2762
 6218SOL    HW130287   3.931   3.148   9.782 -0.5259  2.3054 -1.5422
 6218SOL    HW230288   3.894   3.015   9.715  0.3064  0.0395 -0.0152
 6219SOL     OW30289   0.103   2.763   2.521 -0.2359 -0.3139 -0.1177
 6219SOL    HW130290   0.088   2.772   2.427  0.0723 -0.2655 -0.1608
 6219SOL    HW230291   0.056   2.843   2.546 -2.7995 -1.8390 -0.0541
 6220SOL     OW30292   3.041   2.116   6.722 -0.0702  0.5083  0.0190
 6220SOL    HW130293   3.104   2.184   6.699  2.1805 -1.5668  0.0183
 6220SOL    HW230294   3.020   2.140   6.812 -0.2634 -0.8378  0.3321
 6221SOL     OW30295   2.113   2.288   6.787  0.0187 -0.1683  0.1101
 6221SOL    HW130296   2.157   2.354   6.841 -0.2890  0.1059  0.0310
 6221SOL    HW230297   2.079   2.348   6.720 -2.4509 -2.1358 -0.4127
 6222SOL     OW30298   2.082   0.005  12.479  0.1901  0.5925 -0.3932
 6222SOL    HW130299   2.104   4.678  12.548  0.1563  2.4561  1.3019
 6222SOL    HW230300   1.989   0.006  12.501  0.3470 -3.0236  0.4778
 6223SOL     OW30301   4.067   0.543   3.472 -0.4613  0.6821  0.1047
 6223SOL    HW130302   4.009   0.587   3.410  0.6796  1.8940 -0.1145
 6223SOL    HW230303   4.157   0.568   3.449  0.4079 -0.5416  2.1315
 6224SOL     OW30304   0.604   0.955   6.589  0.1780  0.0060  0.0591
 6224SOL    HW130305   0.619   0.875   6.539  0.3794 -1.0870  1.8838
 6224SOL    HW230306   0.605   1.030   6.528 -1.0808 -0.1800 -0.2067
 6225SOL     OW30307   3.638   2.347  11.032  0.7471 -0.1227  0.1529
 6225SOL    HW130308   3.731   2.365  11.050  1.3284 -2.4874 -0.4992
 6225SOL    HW230309   3.608   2.280  11.093 -3.4905 -1.0976 -3.0492
 6226SOL     OW30310   1.205   0.795   5.122  0.5508  0.5511  0.4541
 6226SOL    HW130311   1.162   0.737   5.185 -1.1272  1.8184  0.4764
 6226SOL    HW230312   1.294   0.797   5.158  0.0073  1.6576  1.7203
 6227SOL     OW30313   1.518   2.118  11.771 -0.0147  0.0492 -0.3801
 6227SOL    HW130314   1.613   2.105  11.771 -0.3221 -2.1871  0.1294
 6227SOL    HW230315   1.511   2.181  11.699 -0.2915  0.3183 -0.1167
 6228SOL     OW30316   2.893   4.595  11.064 -0.2630  0.6266  0.1327
 6228SOL    HW130317   2.903   4.660  11.134 -0.6210  1.5054 -0.6374
 6228SOL    HW230318   2.898   4.645  10.983  0.4807  0.4805  0.0886
 6229SOL     OW30319   3.932   0.958   2.206 -0.9314 -0.2681 -0.1786
 6229SOL    HW130320   3.901   0.886   2.260 -2.2857 -0.2644 -0.9361
 6229SOL    HW230321   3.972   0.915   2.131  1.0139 -0.6159  1.0650
 6230SOL     OW30322   3.960   3.143  12.825 -0.1986 -0.3508 -0.5925
 6230SOL    HW130323   4.054   3.137  12.839 -0.4355 -1.8707  0.3863
 6230SOL    HW230324   3.939   3.072  12.885  2.8747 -0.5636  0.1895
 6231SOL     OW30325   3.226   1.084   9.442  0.3839  0.0851 -0.0147
 6231SOL    HW130326   3.172   1.034   9.381 -0.8909 -0.7468  1.8037
 6231SOL    HW230327   3.243   1.018   9.509  0.5325 -0.1415 -0.2759
 6232SOL     OW30328   0.120   1.418   4.965  0.2302  0.6128  0.0187
 6232SOL    HW130329   0.186   1.397   5.031  0.4945  0.6285 -0.2461
 6232SOL    HW230330   0.040   1.392   5.012  0.7637  0.9264  1.0841
 6233SOL     OW30331   0.810   1.647   9.066 -0.7617  0.8348  0.2896
 6233SOL    HW130332   0.774   1.655   9.155 -1.0031  1.7694  0.1024
 6233SOL    HW230333   0.758   1.569   9.046  3.2803 -1.8235  0.2514
 6234SOL     OW30334   0.853   0.445   7.436 -0.4449 -0.1096 -0.4348
 6234SOL    HW130335   0.832   0.496   7.358 -2.1228  1.3136  0.9613
 6234SOL    HW230336   0.788   0.375   7.428  0.2711 -0.8846  0.5825
 6235SOL     OW30337   3.002   2.783   6.491  0.2309  0.1097 -0.7917
 6235SOL    HW130338   3.050   2.726   6.551  1.0321  2.8285  1.1487
 6235SOL    HW230339   3.024   2.746   6.406 -1.2720 -0.3720 -0.9744
 6236SOL     OW30340   2.613   3.451   3.493  0.0909  0.2005  0.5726
 6236SOL    HW130341   2.644   3.362   3.506 -1.1424 -0.5839 -1.8775
 6236SOL    HW230342   2.579   3.477   3.579 -1.4432  2.1369 -0.6115
 6237SOL     OW30343   1.703   3.192   5.435  0.3613 -0.6206  0.2101
 6237SOL    HW130344   1.747   3.111   5.407  1.3272 -0.4751  1.3073
 6237SOL    HW230345   1.694   3.179   5.529 -0.4254 -0.7437  0.1182
 6238SOL     OW30346   4.274   0.832   0.280  0.2829 -0.1527 -0.0171
 6238SOL    HW130347   4.278   0.825   0.185  0.5981  0.6169 -0.0598
 6238SOL    HW230348   4.178   0.831   0.283  0.2026  0.0342 -2.7651
 6239SOL     OW30349   1.030   2.935   8.025 -0.2533  0.6371  0.4261
 6239SOL    HW130350   0.955   2.884   7.995  1.8431  0.3135 -4.1455
 6239SOL    HW230351   1.002   3.026   8.019 -2.3634 -0.1484 -1.6347
 6240SOL     OW30352   2.139   2.499   7.637  0.3017 -0.1020 -0.3522
 6240SOL    HW130353   2.215   2.551   7.613 -0.3813  2.2709  2.6961
 6240SOL    HW230354   2.073   2.567   7.652  0.7727  0.0805  0.8689
 6241SOL     OW30355   2.663   4.033   6.794 -0.5587  1.1911 -0.2255
 6241SOL    HW130356   2.607   4.110   6.786  1.2944  2.6865  1.0460
 6241SOL    HW230357   2.678   4.015   6.701 -0.0220  1.4235 -0.1846
 6242SOL     OW30358   2.493   0.309  11.710 -0.9115 -0.1873 -0.0815
 6242SOL    HW130359   2.425   0.242  11.703  0.4809 -1.7345  1.2033
 6242SOL    HW230360   2.520   0.313  11.618 -1.1902  2.8573 -0.0337
 6243SOL     OW30361   1.761   3.627  12.976 -0.1959  0.0856 -0.0187
 6243SOL    HW130362   1.853   3.610  12.997  0.1150  1.4692 -0.2675
 6243SOL    HW230363   1.742   3.534  12.970 -1.4674  0.1552  2.8498
 6244SOL     OW30364   4.346   4.583   4.937  0.4178 -0.0262 -0.6759
 6244SOL    HW130365   4.383   4.501   4.970  1.2647  1.2017  1.3580
 6244SOL    HW230366   4.401   4.649   4.978 -0.8262  0.4587  0.2041
 6245SOL     OW30367   0.878   3.135   8.521 -0.2545  0.2456 -0.4348
 6245SOL    HW130368   0.951   3.193   8.540  0.3023 -0.4723 -0.3636
 6245SOL    HW230369   0.911   3.091   8.442  0.7928  0.2035  0.0244
 6246SOL     OW30370   3.448   0.521  16.927  0.3494 -0.2439 -0.1799
 6246SOL    HW130371   3.494   0.604  16.945 -0.3018  0.0050  0.3309
 6246SOL    HW230372   3.400   0.510  17.009 -3.9839 -1.0123 -2.8018
 6247SOL     OW30373   4.673   0.833   4.654 -0.3048  0.0600 -0.0289
 6247SOL    HW130374   4.651   0.748   4.615 -1.7811  0.4033  0.0474
 6247SOL    HW230375   4.661   0.820   4.748  0.9468 -1.9886 -0.1346
 6248SOL     OW30376   4.141   1.527  14.136  0.0520 -0.0520 -0.6622
 6248SOL    HW130377   4.111   1.580  14.062 -2.7498  0.1402  0.5769
 6248SOL    HW230378   4.068   1.534  14.198  0.4275 -0.6867 -0.1597
 6249SOL     OW30379   4.061   3.325   2.991  0.3555  0.2693 -0.0466
 6249SOL    HW130380   4.041   3.418   2.979 -1.3360 -0.1584 -0.5758
 6249SOL    HW230381   3.984   3.291   3.037  0.2093 -1.2029 -1.3823
 6250SOL     OW30382   0.973   0.811  15.904 -0.0873  0.0851 -0.0619
 6250SOL    HW130383   0.986   0.745  15.836  2.4980  0.6449 -0.1187
 6250SOL    HW230384   0.915   0.766  15.966 -0.8298 -1.0852 -1.5965
 6251SOL     OW30385   1.855   3.063   7.907  0.2819 -0.2716 -0.2594
 6251SOL    HW130386   1.921   3.091   7.971 -0.8369  1.2490  0.2093
 6251SOL    HW230387   1.813   3.147   7.892  0.3013  0.1130  1.7464
 6252SOL     OW30388   0.980   0.247   7.657 -0.4564  0.2495  0.3164
 6252SOL    HW130389   1.072   0.271   7.651 -0.2758  0.0316  2.3415
 6252SOL    HW230390   0.940   0.298   7.586  2.0237  1.3856 -0.2407
 6253SOL     OW30391   4.222   3.460   8.722 -0.0001  0.3617  0.1013
 6253SOL    HW130392   4.169   3.529   8.762  1.2820  0.7544  1.1166
 6253SOL    HW230393   4.157   3.429   8.659  0.4507 -2.2008  0.8666
 6254SOL     OW30394   4.498   3.558   5.534  0.2381  0.2991 -0.5923
 6254SOL    HW130395   4.505   3.569   5.628  1.8316  0.3272 -0.7153
 6254SOL    HW230396   4.404   3.536   5.536  0.1001  1.1060  1.7171
 6255SOL     OW30397   1.954   0.366   7.238  0.4783  0.1449  0.4447
 6255SOL    HW130398   2.041   0.362   7.277  0.7415  0.0563 -0.1600
 6255SOL    HW230399   1.911   0.420   7.305  1.3084  0.1831  0.9564
 6256SOL     OW30400   0.298   1.596   6.047 -0.1357 -0.5598  0.1156
 6256SOL    HW130401   0.248   1.515   6.041  0.6833 -1.0458 -0.2290
 6256SOL    HW230402   0.370   1.582   5.986  2.1267 -2.4952  3.1849
 6257SOL     OW30403   1.559   2.791   3.844  0.1719 -0.0559  0.1197
 6257SOL    HW130404   1.534   2.741   3.922  0.8240  0.8843  0.9335
 6257SOL    HW230405   1.564   2.722   3.778  1.2729  1.0717 -0.9881
 6258SOL     OW30406   3.226   4.709   9.553  0.3772 -0.0390  0.5140
 6258SOL    HW130407   3.256   0.045   9.609  1.4170  0.0667 -0.1811
 6258SOL    HW230408   3.242   0.004   9.464 -0.9234 -0.6482  0.0711
 6259SOL     OW30409   3.557   3.606   7.998 -0.6511 -0.1591 -0.2728
 6259SOL    HW130410   3.619   3.665   8.040 -0.2951  0.8170 -2.1418
 6259SOL    HW230411   3.553   3.552   8.077  2.5385 -1.7240 -1.1746
 6260SOL     OW30412   4.284   3.284   5.296 -0.6256 -0.0178 -0.6486
 6260SOL    HW130413   4.281   3.281   5.392 -1.6674  2.3107 -0.6049
 6260SOL    HW230414   4.276   3.376   5.272 -2.2938  0.1721  0.5953
 6261SOL     OW30415   3.212   2.032   3.684  0.5009 -0.2390 -0.6130
 6261SOL    HW130416   3.169   2.003   3.603  2.1293 -4.3629  0.0094
 6261SOL    HW230417   3.285   2.082   3.648 -2.0513  3.1278 -1.1066
 6262SOL     OW30418   2.264   1.060  12.744  0.2232 -0.0674 -0.0780
 6262SOL    HW130419   2.236   1.100  12.826  0.4028  0.2382 -0.1635
 6262SOL    HW230420   2.359   1.066  12.755 -0.1000 -1.0559  3.3151
 6263SOL     OW30421   3.494   1.242   5.502 -0.2515  0.4310 -0.1939
 6263SOL    HW130422   3.439   1.275   5.431 -1.0364 -1.3856 -0.4440
 6263SOL    HW230423   3.519   1.324   5.543  1.1541 -0.6890  1.1809
 6264SOL     OW30424   3.253   3.355  17.075  0.3869 -0.0359  0.2475
 6264SOL    HW130425   3.312   3.296  17.028  1.4133  0.5156  0.8570
 6264SOL    HW230426   3.186   3.364  17.007 -1.1862  0.4529  1.8725
 6265SOL     OW30427   3.517   2.595  16.344 -0.6168 -0.4549  0.1893
 6265SOL    HW130428   3.577   2.661  16.309 -1.6345 -0.2060 -1.0791
 6265SOL    HW230429   3.493   2.637  16.426  1.2030  2.2686 -0.6672
 6266SOL     OW30430   1.867   3.576  14.351  0.4686 -0.6761  0.6173
 6266SOL    HW130431   1.871   3.498  14.405  4.1837 -1.3799 -0.7253
 6266SOL    HW230432   1.946   3.617  14.387  0.4855 -1.3712  1.3637
 6267SOL     OW30433   0.002   1.159   2.710  0.3053 -0.1658 -0.5560
 6267SOL    HW130434   4.705   1.213   2.782  0.4981  0.3288 -0.8415
 6267SOL    HW230435   0.032   1.225   2.648  1.4563  0.1195  0.3105
 6268SOL     OW30436   4.323   4.437   7.967  0.3234 -0.1994 -0.6512
 6268SOL    HW130437   4.253   4.502   7.958  0.1499 -0.1730  0.9081
 6268SOL    HW230438   4.313   4.389   7.885 -2.5921 -0.5853 -0.0877
 6269SOL     OW30439   3.750   4.513   4.128 -0.5245  0.2636 -0.3179
 6269SOL    HW130440   3.671   4.505   4.181  0.1703 -0.2071  0.6374
 6269SOL    HW230441   3.756   4.606   4.105  1.2023 -0.3638 -2.4098
 6270SOL     OW30442   4.356   4.455   8.825  0.2133 -0.2095  0.5909
 6270SOL    HW130443   4.434   4.468   8.770 -0.1769  1.3656  0.4227
 6270SOL    HW230444   4.318   4.372   8.796  0.2428 -0.0290  0.0337
 6271SOL     OW30445   4.353   1.505  17.631 -0.0022  0.6381 -0.0845
 6271SOL    HW130446   4.420   1.444  17.600  0.6299  1.6494 -0.6895
 6271SOL    HW230447   4.278   1.445  17.637  1.5523 -1.5706 -2.6700
 6272SOL     OW30448   2.090   3.643   9.588  0.2167 -0.2832  0.4300
 6272SOL    HW130449   2.158   3.709   9.579 -0.2879  0.1547 -0.1756
 6272SOL    HW230450   2.107   3.583   9.515  1.5554 -1.3990  1.6649
 6273SOL     OW30451   2.071   1.870   6.342  0.1787  0.3948 -0.1407
 6273SOL    HW130452   2.130   1.942   6.321  1.6821 -0.3886  1.3682
 6273SOL    HW230453   2.135   1.799   6.345 -2.4675 -1.8937  3.5756
 6274SOL     OW30454   3.105   4.048   6.682  0.2046  0.0426  0.0127
 6274SOL    HW130455   3.184   4.087   6.643  0.0043  0.1153 -0.3254
 6274SOL    HW230456   3.068   4.025   6.596  0.2444 -0.1189  0.0394
 6275SOL     OW30457   2.466   2.054   4.831  0.4071  0.1265 -0.0237
 6275SOL    HW130458   2.543   2.110   4.843 -0.4833  1.0384  1.5372
 6275SOL    HW230459   2.402   2.094   4.889  1.3793 -1.3498  2.0831
 6276SOL     OW30460   4.468   1.111   4.320 -0.0436 -0.0178  0.2863
 6276SOL    HW130461   4.515   1.105   4.403 -1.3744  3.7494  1.2912
 6276SOL    HW230462   4.387   1.067   4.347 -1.3211  0.2181 -3.0793
 6277SOL     OW30463   1.885   4.345   9.636  0.3114 -0.1318 -0.4048
 6277SOL    HW130464   1.911   4.286   9.707 -1.3769 -0.8882 -0.4152
 6277SOL    HW230465   1.904   4.431   9.673  1.0802 -0.4241 -0.1263
 6278SOL     OW30466   0.472   3.029   2.411 -0.0000  0.5774 -0.1819
 6278SOL    HW130467   0.447   3.041   2.503 -1.9335  0.5373 -0.7027
 6278SOL    HW230468   0.449   2.938   2.397 -1.6990  1.0534 -0.5319
 6279SOL     OW30469   3.229   2.731   5.603 -0.8871  0.6256  0.0452
 6279SOL    HW130470   3.243   2.815   5.559  1.0595 -0.4045 -1.3163
 6279SOL    HW230471   3.319   2.702   5.592 -1.6143 -0.4470 -2.8519
 6280SOL     OW30472   4.271   3.321  16.588  0.5769 -0.4904  0.0468
 6280SOL    HW130473   4.346   3.378  16.608 -0.3651  0.1662  1.7584
 6280SOL    HW230474   4.307   3.270  16.516 -1.1456 -3.0723  1.0484
 6281SOL     OW30475   4.712   0.623   1.620 -0.3691 -0.0157 -0.4828
 6281SOL    HW130476   4.621   0.641   1.597 -0.2768 -1.0851 -1.6920
 6281SOL    HW230477   4.701   0.540   1.668 -0.2663 -0.3657 -1.0620
 6282SOL     OW30478   0.990   2.141   5.015 -0.3196 -0.3919 -0.3395
 6282SOL    HW130479   0.898   2.165   5.001 -0.6742 -1.2361  0.4665
 6282SOL    HW230480   0.993   2.061   4.962  2.7678  0.4473 -1.4356
 6283SOL     OW30481   0.762   3.810  17.139 -0.1859  0.1866  0.3698
 6283SOL    HW130482   0.844   3.811  17.188 -0.6850  1.7548  1.1495
 6283SOL    HW230483   0.699   3.782  17.206 -1.6785  0.0439 -1.0891
 6284SOL     OW30484   2.646   0.932  16.981  0.3472  0.0332 -0.1403
 6284SOL    HW130485   2.737   0.923  17.008 -0.0706  0.7910  1.5413
 6284SOL    HW230486   2.656   0.900  16.892 -0.2062  0.2672 -0.2878
 6285SOL     OW30487   4.118   3.356   9.054 -0.2586  0.1066 -0.1312
 6285SOL    HW130488   4.191   3.339   9.113 -1.0237 -0.6570  0.5877
 6285SOL    HW230489   4.135   3.448   9.033 -0.1187 -0.1108 -0.9619
 6286SOL     OW30490   2.148   1.655  15.993 -0.0625  0.4208  1.0719
 6286SOL    HW130491   2.098   1.736  15.992  2.3386  1.8945  2.2628
 6286SOL    HW230492   2.199   1.659  16.074  2.5073  0.1717 -0.5331
 6287SOL     OW30493   0.510   4.375   7.910  0.1984 -0.4534  0.1483
 6287SOL    HW130494   0.572   4.448   7.912 -0.2457  0.0294 -4.0373
 6287SOL    HW230495   0.568   4.304   7.883  1.9473  0.2364  2.0528
 6288SOL     OW30496   3.583   2.721   2.899 -0.4923 -0.2672  0.3435
 6288SOL    HW130497   3.619   2.644   2.942 -0.9845  0.4139  1.9910
 6288SOL    HW230498   3.583   2.678   2.814 -0.1156  2.9138 -1.2720
 6289SOL     OW30499   0.838   1.694  10.468 -1.1375 -0.0141  0.8869
 6289SOL    HW130500   0.760   1.641  10.483  0.4180 -2.0816  1.6684
 6289SOL    HW230501   0.857   1.729  10.555  2.0481 -0.3336  0.3400
 6290SOL     OW30502   0.223   0.302   5.299  0.3386 -0.4365 -0.1003
 6290SOL    HW130503   0.255   0.388   5.270 -4.1125  1.5182  0.7733
 6290SOL    HW230504   0.254   0.258   5.219  1.4936 -1.5507  0.9634
 6291SOL     OW30505   2.710   1.943   0.827  0.1741  0.1729 -0.4224
 6291SOL    HW130506   2.746   1.854   0.820 -0.6935 -0.3286  1.3266
 6291SOL    HW230507   2.766   1.987   0.891  0.4831 -2.9738  1.4753
 6292SOL     OW30508   3.921   0.665  17.067 -0.2417  0.3078 -0.0993
 6292SOL    HW130509   4.006   0.637  17.033  0.7665  1.1715  1.7278
 6292SOL    HW230510   3.938   0.746  17.115 -0.8007  1.2274 -1.4436
 6293SOL     OW30511   2.412   1.305   3.716 -0.6303  0.1177 -0.2456
 6293SOL    HW130512   2.460   1.229   3.681  1.1697  1.1962 -0.1516
 6293SOL    HW230513   2.383   1.271   3.801 -0.8049  1.6254  0.2872
 6294SOL     OW30514   2.890   2.129   6.200  0.0433 -0.2808  0.1668
 6294SOL    HW130515   2.859   2.193   6.264  0.7912  0.3248 -0.0841
 6294SOL    HW230516   2.819   2.126   6.136 -0.9604 -2.9561  1.4336
 6295SOL     OW30517   3.746   2.273  14.814  0.0413  0.5978 -0.1744
 6295SOL    HW130518   3.739   2.257  14.720 -1.1837  0.2678 -0.0338
 6295SOL    HW230519   3.662   2.239  14.845  1.3782 -1.9201  0.7001
 6296SOL     OW30520   4.543   1.716   7.785 -0.0543 -0.1772 -0.2306
 6296SOL    HW130521   4.618   1.692   7.731  1.4617  0.5897  1.5378
 6296SOL    HW230522   4.573   1.750   7.869 -0.1786 -0.9478  0.1285
 6297SOL     OW30523   3.685   3.981   6.194 -0.0257 -0.0463  0.1162
 6297SOL    HW130524   3.761   3.998   6.250 -1.3623  0.5208  1.7832
 6297SOL    HW230525   3.620   4.035   6.240 -0.5996 -1.3967  0.8768
 6298SOL     OW30526   4.099   2.411  15.773 -0.4752  0.0765 -0.1417
 6298SOL    HW130527   4.054   2.493  15.789  1.5307  1.2709 -0.6134
 6298SOL    HW230528   4.184   2.442  15.742  0.3510 -1.8811  0.1661
 6299SOL     OW30529   1.139   4.042  13.981  0.0944  0.0516 -0.0943
 6299SOL    HW130530   1.057   4.080  13.950  0.2055  0.8355  0.5651
 6299SOL    HW230531   1.185   4.124  14.000  0.0998  0.4547 -1.8180
 6300SOL     OW30532   3.914   4.519   6.241 -0.0258  0.2220 -0.6830
 6300SOL    HW130533   3.920   4.529   6.146 -0.2226 -0.3250 -0.7509
 6300SOL    HW230534   3.846   4.583   6.262 -0.2647 -0.6438  1.1692
 6301SOL     OW30535   1.423   2.128  13.008  0.0924  0.1280 -0.0820
 6301SOL    HW130536   1.424   2.067  13.082 -1.2620  0.5775  0.3058
 6301SOL    HW230537   1.422   2.065  12.935 -0.6908  1.0594 -0.8679
 6302SOL     OW30538   3.173   1.747   7.927 -0.2829 -0.1958  0.3791
 6302SOL    HW130539   3.175   1.662   7.884  0.0775  0.3597 -0.6932
 6302SOL    HW230540   3.102   1.794   7.883 -1.2208 -1.0287  1.0015
 6303SOL     OW30541   1.691   1.681   7.776 -0.2338 -0.4706  0.0515
 6303SOL    HW130542   1.728   1.704   7.862 -0.1009  1.7089 -0.6018
 6303SOL    HW230543   1.645   1.763   7.761 -0.3508 -0.1893  1.9053
 6304SOL     OW30544   4.433   4.545  10.311  0.5746  0.1397  0.7538
 6304SOL    HW130545   4.362   4.552  10.247  1.4489 -1.9694 -0.4294
 6304SOL    HW230546   4.499   4.497  10.261 -1.4403 -1.0681 -0.7225
 6305SOL     OW30547   4.646   2.299  11.594 -0.1013 -0.0327 -0.0231
 6305SOL    HW130548   4.564   2.292  11.642 -1.3155 -0.8219 -2.1853
 6305SOL    HW230549   4.622   2.280  11.503 -4.2917 -0.1217  1.1050
 6306SOL     OW30550   1.699   4.191   8.183 -0.0812  0.0644  0.1513
 6306SOL    HW130551   1.772   4.253   8.192  0.7316 -0.9841  0.7778
 6306SOL    HW230552   1.651   4.242   8.118 -1.7929 -1.0817  0.5336
 6307SOL     OW30553   3.465   0.268   2.623 -0.1131  0.3677 -0.3467
 6307SOL    HW130554   3.512   0.297   2.701 -2.7937  0.3420  1.2914
 6307SOL    HW230555   3.438   0.180   2.653  0.7417  0.0409 -0.5472
 6308SOL     OW30556   2.080   2.723   2.002 -0.5304  0.5512 -0.0453
 6308SOL    HW130557   2.030   2.803   1.985 -0.4514  0.6879  0.3681
 6308SOL    HW230558   2.023   2.661   1.956  0.5464 -0.4231 -0.0743
 6309SOL     OW30559   0.833   1.031   8.063  0.9249  0.3298  0.1253
 6309SOL    HW130560   0.789   1.020   7.979 -0.4661  0.7026  0.8004
 6309SOL    HW230561   0.876   0.947   8.084  1.6409  1.0583  1.6046
 6310SOL     OW30562   3.887   0.812  12.384  0.0571  0.1063 -0.0867
 6310SOL    HW130563   3.803   0.839  12.421 -0.1495 -2.3028  1.1997
 6310SOL    HW230564   3.885   0.865  12.304 -3.7470 -1.2595 -0.8973
 6311SOL     OW30565   1.719   1.788   5.515 -0.4138  0.1427  0.1669
 6311SOL    HW130566   1.667   1.803   5.435 -0.7247 -0.9204  0.1736
 6311SOL    HW230567   1.795   1.843   5.497 -0.8918  0.5478 -0.6546
 6312SOL     OW30568   1.633   2.901  17.617 -0.0350  0.5319 -0.3148
 6312SOL    HW130569   1.587   2.817  17.623  0.1284  0.3513 -1.6068
 6312SOL    HW230570   1.572   2.968  17.650 -0.6658  0.3561 -1.1168
 6313SOL     OW30571   2.848   4.029   7.400  0.1812  0.1235 -0.3322
 6313SOL    HW130572   2.777   3.967   7.419 -0.1663  0.2478 -1.2221
 6313SOL    HW230573   2.823   4.052   7.311 -0.5852  1.1149  0.1411
 6314SOL     OW30574   3.070   3.999   3.611  0.2056 -0.4632  0.3181
 6314SOL    HW130575   3.161   4.015   3.586 -0.2931  2.5852  0.5244
 6314SOL    HW230576   3.039   3.947   3.537  1.2588  0.1141 -0.5188
 6315SOL     OW30577   4.537   1.156   5.131 -0.1084 -0.0089  0.4617
 6315SOL    HW130578   4.566   1.069   5.158 -1.6939 -1.2169 -1.7177
 6315SOL    HW230579   4.507   1.140   5.042  1.0975 -1.9660  0.4095
 6316SOL     OW30580   2.368   4.433   3.736 -0.5199 -0.5021  0.0552
 6316SOL    HW130581   2.360   4.417   3.830 -0.9327 -0.0606  0.0924
 6316SOL    HW230582   2.288   4.482   3.723 -0.1816  0.0574  0.0933
 6317SOL     OW30583   3.940   4.076   4.805 -0.2345 -0.4652  0.0734
 6317SOL    HW130584   3.989   4.120   4.875  1.8944  0.5994 -2.0889
 6317SOL    HW230585   3.968   4.137   4.736 -1.6180  0.6614  0.4967
 6318SOL     OW30586   3.189   2.357  17.307 -0.3952  0.2109  0.1515
 6318SOL    HW130587   3.264   2.388  17.358  0.5203  1.5268 -1.9966
 6318SOL    HW230588   3.158   2.285  17.362  1.2215 -0.2464  0.4617
 6319SOL     OW30589   3.296   3.248   1.149 -0.2973 -0.2791  0.1279
 6319SOL    HW130590   3.261   3.242   1.060 -2.1638 -2.1723  0.9811
 6319SOL    HW230591   3.221   3.266   1.206  0.8533 -0.5350  1.7103
 6320SOL     OW30592   3.056   2.617   3.129  0.5293 -0.0555 -0.0404
 6320SOL    HW130593   3.073   2.581   3.042  0.4320 -1.4156  0.5100
 6320SOL    HW230594   3.140   2.616   3.175 -0.1370  0.2405  1.1955
 6321SOL     OW30595   2.960   1.845  17.115 -0.1543  0.2131 -0.2943
 6321SOL    HW130596   2.988   1.911  17.052  0.7470 -0.1670 -0.2803
 6321SOL    HW230597   2.982   1.756  17.088  1.4772 -0.1282  2.2508
 6322SOL     OW30598   2.734   1.589  10.910 -0.1956  0.7643 -0.0115
 6322SOL    HW130599   2.742   1.542  10.993 -2.6743  1.4053  0.5870
 6322SOL    HW230600   2.782   1.668  10.936  1.0695  0.2576 -0.7782
 6323SOL     OW30601   3.748   3.914   7.015 -0.3489 -0.0261 -0.2630
 6323SOL    HW130602   3.696   3.942   6.940 -0.3174 -1.0259 -0.6503
 6323SOL    HW230603   3.696   3.839   7.045  1.0222 -1.1304 -0.6648
 6324SOL     OW30604   3.835   4.597  11.953 -0.1268  0.1438 -0.4277
 6324SOL    HW130605   3.752   4.645  11.952 -0.7633 -0.9301  1.1435
 6324SOL    HW230606   3.893   4.656  11.904  0.9370 -0.7069 -0.1787
 6325SOL     OW30607   1.986   2.825   4.881  0.0309  0.0787 -0.3522
 6325SOL    HW130608   1.921   2.838   4.812 -0.2797  1.3249  0.1791
 6325SOL    HW230609   2.011   2.917   4.889  0.9749 -0.2345  0.2655
 6326SOL     OW30610   1.345   3.300   0.323  0.4170 -0.4012  0.1008
 6326SOL    HW130611   1.413   3.260   0.268  0.5965 -0.5214  0.4111
 6326SOL    HW230612   1.350   3.393   0.300 -0.9108 -0.7060 -1.4288
 6327SOL     OW30613   4.462   4.202   6.218  0.0136 -0.1460  0.2663
 6327SOL    HW130614   4.457   4.280   6.162 -3.9169 -0.6992 -0.1375
 6327SOL    HW230615   4.515   4.244   6.286  0.3466  0.2632 -0.2433
 6328SOL     OW30616   1.037   2.749   5.859  0.1865 -0.7517 -0.2382
 6328SOL    HW130617   0.943   2.753   5.873  0.2735 -0.1461  0.1562
 6328SOL    HW230618   1.073   2.837   5.866 -1.5560 -0.2815  2.7046
 6329SOL     OW30619   0.544   0.526   5.498 -0.4982  0.2434 -0.5160
 6329SOL    HW130620   0.599   0.499   5.425 -0.1885 -1.4367  0.3496
 6329SOL    HW230621   0.480   0.456   5.495  2.7031 -2.7224  0.1435
 6330SOL     OW30622   3.531   3.713   3.039 -0.6995 -0.2533  0.4205
 6330SOL    HW130623   3.578   3.707   3.122 -1.6959  1.0061  1.0715
 6330SOL    HW230624   3.575   3.639   2.997  0.2568  0.1110  0.7773
 6331SOL     OW30625   4.010   4.476  12.086 -0.5076 -0.2985 -0.6216
 6331SOL    HW130626   3.935   4.515  12.043 -2.2059 -0.8285  1.8268
 6331SOL    HW230627   3.989   4.485  12.179  0.9105  3.5503 -0.6824
 6332SOL     OW30628   1.771   3.416   9.490 -0.1065  0.4400  0.0246
 6332SOL    HW130629   1.750   3.333   9.448 -1.9356  0.0411  1.7378
 6332SOL    HW230630   1.848   3.377   9.532 -0.5860  0.3611  0.8279
 6333SOL     OW30631   1.797   2.614   3.646 -0.5375  0.8003  0.0969
 6333SOL    HW130632   1.705   2.618   3.672 -0.4041  0.3161  0.6386
 6333SOL    HW230633   1.803   2.560   3.567 -4.2463  1.4088 -0.5645
 6334SOL     OW30634   3.949   3.392   7.524  0.1935 -0.2403 -0.3988
 6334SOL    HW130635   3.874   3.389   7.465  1.1681 -2.1800 -1.5310
 6334SOL    HW230636   3.912   3.434   7.602  3.5743  1.7513  0.1599
 6335SOL     OW30637   2.322   0.076   8.321  0.4241  0.3095  0.6869
 6335SOL    HW130638   2.247   0.129   8.347  1.3747  1.1035  1.8414
 6335SOL    HW230639   2.396   0.129   8.352  1.7771  0.7818 -3.2763
 6336SOL     OW30640   2.307   4.358   3.989  0.8027 -0.2242 -0.3034
 6336SOL    HW130641   2.246   4.300   4.033  0.9774 -0.2880 -0.1447
 6336SOL    HW230642   2.386   4.333   4.038 -0.6378  1.6812  2.9713
 6337SOL     OW30643   2.093   2.504   3.171  0.1765  0.2581 -0.0660
 6337SOL    HW130644   2.177   2.460   3.159  0.0235 -0.1168  0.2369
 6337SOL    HW230645   2.039   2.460   3.105 -1.1988 -0.2139  1.3772
 6338SOL     OW30646   2.997   2.274   6.467  0.5568  0.6457  0.1993
 6338SOL    HW130647   2.922   2.326   6.435  1.1765  0.6895 -1.2032
 6338SOL    HW230648   2.963   2.254   6.554 -1.2006 -0.0120 -0.6251
 6339SOL     OW30649   4.019   2.200   2.149  0.0770  0.2837  0.2334
 6339SOL    HW130650   4.059   2.242   2.225  0.3455 -1.0338  0.8122
 6339SOL    HW230651   4.057   2.257   2.082 -1.8719  3.3834  1.7612
 6340SOL     OW30652   4.697   0.484   7.127 -0.2786 -0.3631  0.0418
 6340SOL    HW130653   4.649   0.467   7.209 -0.9038 -0.7877 -0.4174
 6340SOL    HW230654   4.649   0.561   7.098  1.3947  0.7466  0.2041
 6341SOL     OW30655   1.543   0.193   6.087 -0.4498  0.3247  0.8863
 6341SOL    HW130656   1.634   0.161   6.085 -1.8326 -3.4984 -1.3556
 6341SOL    HW230657   1.543   0.225   6.177 -1.0398  1.2205  0.5573
 6342SOL     OW30658   2.016   0.518  16.077  0.2942  1.0187 -0.3864
 6342SOL    HW130659   1.953   0.504  16.006  1.2412 -0.3013 -0.9618
 6342SOL    HW230660   2.094   0.484  16.034  0.1925  0.5985 -0.2390
 6343SOL     OW30661   0.957   1.976   3.649 -0.2472  0.1435 -0.1560
 6343SOL    HW130662   1.010   2.008   3.576 -1.2755  2.7614  0.2301
 6343SOL    HW230663   0.923   2.056   3.689 -0.9414  0.9243 -2.2732
 6344SOL     OW30664   0.975   2.917  11.987  0.9341  0.2650  0.2413
 6344SOL    HW130665   0.968   2.829  12.024 -1.1255  0.1665 -0.3949
 6344SOL    HW230666   0.913   2.926  11.915  1.5554  0.9967 -0.2132
 6345SOL     OW30667   3.231   1.360   1.611  0.2761 -0.2742  1.1728
 6345SOL    HW130668   3.304   1.317   1.565  0.0344  1.0211 -0.4528
 6345SOL    HW230669   3.211   1.413   1.533  0.3083 -2.2397 -0.1547
 6346SOL     OW30670   4.098   3.988   8.981 -0.6337  0.4042  0.2781
 6346SOL    HW130671   4.098   3.950   9.069 -0.7419  0.6169  0.3708
 6346SOL    HW230672   4.160   3.928   8.940 -1.2929 -0.2336  0.2023
 6347SOL     OW30673   2.171   1.440  12.823  0.3293 -0.5824 -0.0399
 6347SOL    HW130674   2.158   1.370  12.888  0.3731 -0.3268  0.2480
 6347SOL    HW230675   2.258   1.471  12.849 -0.1324  1.3359 -0.8315
 6348SOL     OW30676   2.257   2.110  17.518 -0.1862  0.0339  0.1771
 6348SOL    HW130677   2.322   2.138  17.454  0.0016  1.1655  0.8612
 6348SOL    HW230678   2.316   2.081  17.587  1.7899  1.2024 -1.0382
 6349SOL     OW30679   1.835   0.959   9.225 -0.5859  0.4862  0.1878
 6349SOL    HW130680   1.794   0.922   9.147 -0.9608 -1.2384  1.1818
 6349SOL    HW230681   1.800   0.891   9.283  0.3102  2.2391  2.8078
 6350SOL     OW30682   3.277   1.490   6.295 -0.3309  0.2207 -0.0466
 6350SOL    HW130683   3.367   1.513   6.320 -0.1146 -0.3405 -0.2993
 6350SOL    HW230684   3.287   1.411   6.242  1.7371 -0.9897  2.1386
 6351SOL     OW30685   1.406   3.434   5.384 -0.4786 -0.3864 -0.1880
 6351SOL    HW130686   1.481   3.461   5.330  0.3679 -0.5673  0.9080
 6351SOL    HW230687   1.329   3.462   5.336 -0.8248  0.6017  0.9550
 6352SOL     OW30688   2.169   0.051   5.484 -0.4650 -0.0521 -0.8295
 6352SOL    HW130689   2.083   0.092   5.482 -0.7414 -0.6146 -0.1283
 6352SOL    HW230690   2.219   0.101   5.548 -0.6915 -0.7356 -0.1214
 6353SOL     OW30691   0.891   4.528   2.024 -0.8047 -0.2887  0.0338
 6353SOL    HW130692   0.932   4.549   2.109 -1.0163  0.9561 -0.1771
 6353SOL    HW230693   0.815   4.478   2.052  0.3395 -2.0378 -0.0112
 6354SOL     OW30694   0.285   0.135   4.489  0.0408 -0.8880 -0.4735
 6354SOL    HW130695   0.347   0.190   4.537 -1.3705 -0.6709  1.0598
 6354SOL    HW230696   0.198   0.173   4.491  0.6441  0.4254  1.0802
 6355SOL     OW30697   0.720   4.372   9.889  0.2744  0.0536 -0.5139
 6355SOL    HW130698   0.627   4.351   9.895  0.0902  1.4424  1.4184
 6355SOL    HW230699   0.746   4.288   9.928 -3.3070 -0.0684  1.6224
 6356SOL     OW30700   4.357   2.916  14.746  0.2714  0.5693 -0.2469
 6356SOL    HW130701   4.287   2.977  14.767  0.1940  0.1338  0.7390
 6356SOL    HW230702   4.318   2.840  14.702 -0.9087  0.4227  1.0778
 6357SOL     OW30703   4.096   3.023  17.062 -0.1879 -0.3090 -0.0263
 6357SOL    HW130704   4.051   3.051  17.142 -0.4567  0.9132 -0.5930
 6357SOL    HW230705   4.069   3.091  17.000 -1.0811 -0.8999 -0.2765
 6358SOL     OW30706   0.327   2.467   2.444  0.6277 -0.0386  0.2968
 6358SOL    HW130707   0.236   2.472   2.471  0.9936  0.5458  1.3958
 6358SOL    HW230708   0.357   2.406   2.511 -0.9676  0.6244  1.5977
 6359SOL     OW30709   0.976   3.581   8.676 -0.1510  0.1823  0.8638
 6359SOL    HW130710   1.043   3.515   8.690 -0.8416 -0.5839  0.5146
 6359SOL    HW230711   0.954   3.555   8.587 -0.5638  2.0627  0.4108
 6360SOL     OW30712   1.827   2.010   2.238 -0.2284 -0.2529 -0.6002
 6360SOL    HW130713   1.764   2.070   2.198 -1.3925  0.4902  2.3422
 6360SOL    HW230714   1.877   2.077   2.285 -2.1231  0.5322  0.3136
 6361SOL     OW30715   3.639   3.643  14.921 -0.7458 -0.4586 -0.0394
 6361SOL    HW130716   3.660   3.728  14.958 -1.9782 -0.9417  1.7531
 6361SOL    HW230717   3.564   3.665  14.866  0.3975 -3.1386 -2.6830
 6362SOL     OW30718   0.039   4.295   4.136 -0.4339 -0.0015 -0.4204
 6362SOL    HW130719   0.081   4.245   4.207 -0.1578 -0.9077 -1.2264
 6362SOL    HW230720   0.110   4.355   4.114 -0.6461  1.1190  1.9439
 6363SOL     OW30721   1.765   1.335   8.336  0.0374 -0.1538 -0.6551
 6363SOL    HW130722   1.751   1.340   8.431  0.5224 -1.4259 -0.5167
 6363SOL    HW230723   1.722   1.257   8.301  0.6595 -1.3699  1.2933
 6364SOL     OW30724   3.603   1.263   6.732  0.0371 -0.6019 -0.6424
 6364SOL    HW130725   3.641   1.204   6.667  1.8469 -0.3479  0.1892
 6364SOL    HW230726   3.650   1.236   6.811 -0.2278 -1.9816 -0.9612
 6365SOL     OW30727   2.469   1.729   2.507 -0.5158  0.3119 -0.0273
 6365SOL    HW130728   2.549   1.772   2.476  1.1777 -0.7638  2.9283
 6365SOL    HW230729   2.417   1.806   2.529 -1.2594 -0.4916  0.9813
 6366SOL     OW30730   1.194   1.895   5.282  0.0578 -0.3702 -0.1176
 6366SOL    HW130731   1.253   1.928   5.214  0.6446 -0.9348  0.1075
 6366SOL    HW230732   1.245   1.825   5.323 -0.4678 -0.1957  0.8206
 6367SOL     OW30733   2.247   4.632   4.065  0.5667  0.0986 -0.0221
 6367SOL    HW130734   2.234   4.541   4.039 -0.3041  0.0156  0.6728
 6367SOL    HW230735   2.158   4.666   4.070  0.4047 -0.0491 -2.0499
 6368SOL     OW30736   2.477   0.199   8.523  0.1934  0.3906  0.4061
 6368SOL    HW130737   2.506   0.277   8.569 -0.7577  1.6729 -1.1643
 6368SOL    HW230738   2.542   0.132   8.544 -0.1509  0.7873  2.7106
 6369SOL     OW30739   3.368   0.914   5.085  0.1106 -0.6476  0.2003
 6369SOL    HW130740   3.427   0.875   5.020 -1.4783  0.5765 -1.9928
 6369SOL    HW230741   3.291   0.857   5.074  0.0168 -0.2458 -1.1732
 6370SOL     OW30742   4.369   3.351  10.456  0.7044 -0.2380  0.8417
 6370SOL    HW130743   4.398   3.364  10.365 -0.2981  2.1220  0.8670
 6370SOL    HW230744   4.274   3.357  10.458  0.7418 -0.0709  2.1028
 6371SOL     OW30745   3.577   1.948   8.978 -0.0667 -0.0453  0.0676
 6371SOL    HW130746   3.644   1.992   9.032  1.2081 -1.7260 -0.1407
 6371SOL    HW230747   3.507   1.915   9.033  0.8553  0.2462  1.4213
 6372SOL     OW30748   3.723   1.215  10.031  0.2271  0.7225 -0.2922
 6372SOL    HW130749   3.764   1.140   9.987 -0.7987  1.4169 -2.4479
 6372SOL    HW230750   3.784   1.287  10.015  0.0364  1.5452  2.7247
 6373SOL     OW30751   0.895   1.384   8.091 -0.2306 -1.0523 -0.2171
 6373SOL    HW130752   0.959   1.338   8.146  0.4025 -0.5291 -0.5261
 6373SOL    HW230753   0.849   1.425   8.164  0.7141  0.0577 -0.2551
 6374SOL     OW30754   3.583   1.676   3.285 -0.3821  0.0202  0.3837
 6374SOL    HW130755   3.667   1.662   3.329 -0.3496  0.0090  0.3177
 6374SOL    HW230756   3.594   1.602   3.225  0.2073  0.4406 -0.0270
 6375SOL     OW30757   1.988   3.367   3.818 -0.1575 -0.1305 -0.4115
 6375SOL    HW130758   1.971   3.290   3.765  1.2570 -0.6912 -0.0554
 6375SOL    HW230759   1.899   3.394   3.839 -1.1519 -2.3631 -1.7829
 6376SOL     OW30760   2.908   1.256  12.439 -0.0385  0.0911 -0.1530
 6376SOL    HW130761   2.889   1.174  12.485 -0.6855  0.2349 -0.1605
 6376SOL    HW230762   3.002   1.246  12.423 -0.5117 -3.5811 -0.6275
 6377SOL     OW30763   2.522   1.623   4.164  0.7003 -0.0695  0.4639
 6377SOL    HW130764   2.496   1.621   4.072  1.1199  2.3645  0.2950
 6377SOL    HW230765   2.607   1.579   4.171  1.1075  0.6898  0.2834
 6378SOL     OW30766   2.528   4.440   4.286 -0.2480  0.1652 -0.0186
 6378SOL    HW130767   2.534   4.373   4.218 -0.3710 -0.2602  0.3970
 6378SOL    HW230768   2.437   4.442   4.315 -0.3387  1.1095 -0.3599
 6379SOL     OW30769   4.449   3.741   2.932  0.1483 -0.6815 -0.0842
 6379SOL    HW130770   4.382   3.809   2.938  0.5560 -0.2282 -0.6573
 6379SOL    HW230771   4.500   3.736   3.013  2.9072 -2.0204 -1.8967
 6380SOL     OW30772   3.551   0.088   4.751  0.4394 -0.1499 -0.2252
 6380SOL    HW130773   3.508   0.003   4.762  0.9491 -0.3817 -0.0461
 6380SOL    HW230774   3.476   0.145   4.767 -0.1898 -0.2351 -2.8482
 6381SOL     OW30775   0.440   1.057   7.739 -0.6791 -0.2202  0.1711
 6381SOL    HW130776   0.363   1.065   7.794 -0.8650 -0.0363 -0.1199
 6381SOL    HW230777   0.509   1.052   7.806  0.2864 -0.3381 -0.8214
 6382SOL     OW30778   2.747   1.921   0.185 -0.2567 -0.4448 -0.0801
 6382SOL    HW130779   2.764   1.971   0.265 -2.4903  1.9398 -1.0845
 6382SOL    HW230780   2.654   1.901   0.198  0.0256 -1.2463  0.6814
 6383SOL     OW30781   3.090   2.144  17.475 -0.5895  0.2317 -0.2032
 6383SOL    HW130782   3.019   2.149  17.539 -0.5097  3.7009 -0.4112
 6383SOL    HW230783   3.074   2.063  17.426 -1.1726 -1.4024  2.6825
 6384SOL     OW30784   3.739   1.768   5.683  0.4877  0.7084 -0.0282
 6384SOL    HW130785   3.717   1.768   5.590 -0.5086 -2.6854  0.2285
 6384SOL    HW230786   3.825   1.726   5.673  0.6205  1.3295 -1.6556
 6385SOL     OW30787   4.125   2.127   4.630 -0.3855  0.5964  0.2299
 6385SOL    HW130788   4.154   2.174   4.552 -1.9623  1.4459  0.1467
 6385SOL    HW230789   4.030   2.135   4.627 -0.5599 -1.3376  0.5574
 6386SOL     OW30790   2.805   4.096   3.308  0.4330 -0.0257  0.2706
 6386SOL    HW130791   2.783   4.180   3.349  0.4673  0.2656 -0.3170
 6386SOL    HW230792   2.784   4.033   3.377 -1.2029 -1.5180 -1.5990
 6387SOL     OW30793   3.080   4.085   7.088  0.0347 -0.1095 -0.0304
 6387SOL    HW130794   2.999   4.099   7.039  0.5018  1.3595 -0.3754
 6387SOL    HW230795   3.066   3.993   7.112  2.0688  0.0392  1.6545
 6388SOL     OW30796   1.823   4.027   9.449 -0.4138  0.1415  0.0833
 6388SOL    HW130797   1.751   4.028   9.512  0.7401 -0.0470  1.3989
 6388SOL    HW230798   1.899   4.038   9.506 -2.6564  1.5697  2.7702
 6389SOL     OW30799   2.955   3.027   1.004 -0.4353  0.0942  0.0423
 6389SOL    HW130800   2.970   3.102   1.060  1.6394 -1.5379  1.6485
 6389SOL    HW230801   3.041   2.984   1.003  0.7726  2.5090  1.0320
 6390SOL     OW30802   2.878   4.201   3.721  0.9274  0.2492  0.8417
 6390SOL    HW130803   2.918   4.123   3.681  1.7417  0.2898  1.5692
 6390SOL    HW230804   2.789   4.198   3.687  2.1523 -2.1258 -2.1466
 6391SOL     OW30805   3.261   4.057   6.272 -0.0003 -0.6463 -0.0004
 6391SOL    HW130806   3.174   4.033   6.241  0.8950 -2.5258 -1.0285
 6391SOL    HW230807   3.280   4.105   6.192  2.0364 -2.1115 -0.4073
 6392SOL     OW30808   0.407   4.272   3.601  0.2594  0.1504  0.0423
 6392SOL    HW130809   0.357   4.254   3.522 -2.0835  0.5415  1.4363
 6392SOL    HW230810   0.484   4.219   3.580  0.4343  0.2471  0.4338
 6393SOL     OW30811   3.280   4.359  14.948 -0.8547 -0.7552  0.2448
 6393SOL    HW130812   3.220   4.296  14.909 -3.0105 -0.3858  3.0012
 6393SOL    HW230813   3.273   4.425  14.879  0.3065  1.2401  2.0099
 6394SOL     OW30814   2.978   1.454  13.149 -0.1004  0.0973  0.2229
 6394SOL    HW130815   3.052   1.514  13.151  0.5885 -0.7554  0.6590
 6394SOL    HW230816   2.936   1.497  13.075  3.3625  0.4928 -1.5113
 6395SOL     OW30817   4.321   3.969   2.878 -0.4239  0.2601  0.0059
 6395SOL    HW130818   4.267   4.025   2.934  1.6041  1.9207  0.3202
 6395SOL    HW230819   4.383   4.035   2.846 -0.2201  0.3674  0.6328
 6396SOL     OW30820   2.213   1.216   7.585 -0.1732  0.1223 -0.2072
 6396SOL    HW130821   2.127   1.253   7.604 -0.2612 -0.3808  0.3700
 6396SOL    HW230822   2.202   1.155   7.512  2.3225  1.2782 -1.5410
 6397SOL     OW30823   4.434   0.690   3.414  0.0402 -0.5362  0.0363
 6397SOL    HW130824   4.471   0.679   3.326 -0.8525  0.8645 -0.5191
 6397SOL    HW230825   4.361   0.630   3.398  0.5276 -1.5598  1.7202
 6398SOL     OW30826   1.730   2.993  15.795 -0.5342 -0.1173  0.1370
 6398SOL    HW130827   1.680   3.055  15.847 -0.5362 -0.3502  0.4102
 6398SOL    HW230828   1.659   2.965  15.737 -1.5221  0.4313  1.0709
 6399SOL     OW30829   0.690   0.692   7.690  0.4590  0.2987  0.2754
 6399SOL    HW130830   0.629   0.704   7.618 -1.8968 -0.4536  2.1475
 6399SOL    HW230831   0.762   0.670   7.631  0.5643 -0.3480  0.6451
 6400SOL     OW30832   0.844   3.151   6.056 -0.1360 -0.3714 -0.0970
 6400SOL    HW130833   0.759   3.107   6.055 -1.4961  2.2747  0.5173
 6400SOL    HW230834   0.825   3.245   6.048 -0.3395 -0.3216  1.0164
 6401SOL     OW30835   2.921   4.439   7.777 -0.3243  0.3261 -0.3036
 6401SOL    HW130836   2.913   4.534   7.778 -2.2176  0.1588  0.2604
 6401SOL    HW230837   3.012   4.438   7.807 -1.2186  0.2468  2.3460
 6402SOL     OW30838   1.386   0.190   1.336 -0.0934 -0.6148  0.2449
 6402SOL    HW130839   1.354   0.280   1.334 -0.0953 -0.6107  0.5143
 6402SOL    HW230840   1.478   0.201   1.312 -0.5350 -0.9135 -1.5840
 6403SOL     OW30841   4.401   0.804   4.181  0.2783  0.1660 -0.6753
 6403SOL    HW130842   4.342   0.866   4.224  0.6467  0.8023 -1.0784
 6403SOL    HW230843   4.343   0.729   4.168 -0.3242  0.4621  0.3157
 6404SOL     OW30844   4.730   2.419   7.872 -0.0701  0.8475 -0.5662
 6404SOL    HW130845   4.731   2.511   7.898 -0.6086  0.0201  2.3843
 6404SOL    HW230846   0.064   2.381   7.926 -1.2603 -0.3355  0.1399
 6405SOL     OW30847   3.343   4.543  17.302  0.0904 -0.1554  0.1097
 6405SOL    HW130848   3.388   4.459  17.291 -1.3476 -0.9557  0.2947
 6405SOL    HW230849   3.415   4.605  17.309 -1.5536  1.4793  2.7292
 6406SOL     OW30850   1.968   1.300   4.590 -0.1810  0.0707  0.0371
 6406SOL    HW130851   1.886   1.253   4.576 -0.1769 -0.2227  1.0232
 6406SOL    HW230852   1.979   1.305   4.684 -1.1304  3.1944  0.0044
 6407SOL     OW30853   4.408   4.624   3.073  0.3042 -0.6448  0.4474
 6407SOL    HW130854   4.388   4.532   3.055 -2.6218  0.3168 -1.2194
 6407SOL    HW230855   4.387   4.663   2.989  2.4087  0.1736  0.3094
 6408SOL     OW30856   4.663   4.263   8.829 -0.6048  0.0215 -0.6863
 6408SOL    HW130857   4.590   4.210   8.797 -1.4730 -0.2174  1.7002
 6408SOL    HW230858   4.646   4.337   8.771  0.3730  0.5140 -0.3417
 6409SOL     OW30859   1.391   0.231   2.667  0.0592 -0.0331 -0.1358
 6409SOL    HW130860   1.306   0.276   2.671 -0.5764 -0.9774 -2.9595
 6409SOL    HW230861   1.401   0.217   2.761 -0.6262 -0.7840 -0.1668
 6410SOL     OW30862   0.103   1.973   1.020  0.1175  0.0781 -0.9505
 6410SOL    HW130863   0.125   1.993   0.929  0.2294  2.1337 -0.4846
 6410SOL    HW230864   0.185   2.001   1.060 -0.4367 -0.4978  0.5626
 6411SOL     OW30865   3.937   1.253  16.405  0.0223 -0.1967 -0.1082
 6411SOL    HW130866   4.008   1.289  16.351  0.3381 -0.0501  0.4073
 6411SOL    HW230867   3.901   1.338  16.431  2.6708  0.3462  1.7733
 6412SOL     OW30868   3.840   2.111   3.236  0.4105  0.2461  0.1758
 6412SOL    HW130869   3.806   2.195   3.267 -1.2444  0.6440 -2.6533
 6412SOL    HW230870   3.817   2.107   3.143  1.8774  1.4289 -0.2348
 6413SOL     OW30871   0.827   1.552   3.393  0.0496  0.1957 -1.0703
 6413SOL    HW130872   0.819   1.484   3.326 -2.0533  0.3530 -0.9604
 6413SOL    HW230873   0.860   1.500   3.467  0.0002  0.3400 -0.9483
 6414SOL     OW30874   1.477   1.764  15.047  0.2056 -0.0879 -0.1259
 6414SOL    HW130875   1.531   1.820  15.102  2.3325 -2.9539  0.7136
 6414SOL    HW230876   1.469   1.820  14.970  1.7152 -0.4391 -0.5406
 6415SOL     OW30877   0.028   4.478   5.590 -0.2158  0.5788  0.2150
 6415SOL    HW130878   0.019   4.408   5.525  1.7679  0.0304  0.5256
 6415SOL    HW230879   0.038   4.551   5.529  0.5670  0.3465  0.0643
 6416SOL     OW30880   4.323   4.333   0.030  0.0202 -0.2147 -0.6920
 6416SOL    HW130881   4.330   4.361  17.679 -0.0793  0.5044 -0.4798
 6416SOL    HW230882   4.316   4.240   0.008 -0.7735 -0.4433  0.5657
 6417SOL     OW30883   1.202   2.388   6.274 -0.0391  0.4162  0.8292
 6417SOL    HW130884   1.221   2.303   6.235 -0.7908  0.0328  1.3074
 6417SOL    HW230885   1.119   2.411   6.232 -0.1492  0.7825  1.2407
 6418SOL     OW30886   0.361   4.368  11.663 -0.3200  0.3237 -0.1524
 6418SOL    HW130887   0.363   4.415  11.746  0.1583 -1.7157  1.0050
 6418SOL    HW230888   0.275   4.389  11.627 -0.4011 -1.3636 -0.9768
 6419SOL     OW30889   0.625   2.888   7.151  0.4472 -0.1376 -0.1374
 6419SOL    HW130890   0.713   2.876   7.187 -0.8325  2.7744  3.9633
 6419SOL    HW230891   0.591   2.806   7.188 -1.6583 -1.2298 -4.4845
 6420SOL     OW30892   3.736   1.886   1.541  0.0681 -0.3903 -0.4280
 6420SOL    HW130893   3.791   1.962   1.525 -0.2616  0.2963  1.7147
 6420SOL    HW230894   3.801   1.821   1.516  0.6437  0.3297 -0.8035
 6421SOL     OW30895   2.845   4.412  14.894 -0.1922  0.3963 -0.0506
 6421SOL    HW130896   2.876   4.488  14.845  1.3341 -1.7512 -2.4005
 6421SOL    HW230897   2.758   4.407  14.854 -0.0298  2.1751 -0.5996
 6422SOL     OW30898   1.662   3.203   5.725  0.2176 -0.3872 -0.5116
 6422SOL    HW130899   1.578   3.239   5.697 -0.1898  0.7649  2.2238
 6422SOL    HW230900   1.651   3.186   5.818  3.1603  3.0025  0.4592
 6423SOL     OW30901   2.939   1.972   5.613  0.3670  0.6471  0.0427
 6423SOL    HW130902   3.033   1.976   5.601  0.1760  2.6865 -0.6719
 6423SOL    HW230903   2.928   1.985   5.708  0.5297 -0.2104  0.1843
 6424SOL     OW30904   2.060   3.751   1.723 -0.1766 -0.1342 -0.5456
 6424SOL    HW130905   2.097   3.797   1.799 -1.2586 -1.7098  0.9308
 6424SOL    HW230906   2.052   3.815   1.652  1.0827 -0.7339 -1.2267
 6425SOL     OW30907   1.291   0.559   5.356 -0.8705  0.1148  0.1429
 6425SOL    HW130908   1.206   0.516   5.349 -1.9854  2.1354  1.4182
 6425SOL    HW230909   1.280   0.598   5.442  0.7887 -2.3500  1.4963
 6426SOL     OW30910   0.679   2.677   4.082  0.2114  0.4470  0.5156
 6426SOL    HW130911   0.728   2.613   4.032 -0.4006 -0.2120  0.7510
 6426SOL    HW230912   0.587   2.659   4.064  0.3293  0.6623 -0.2870
 6427SOL     OW30913   4.647   2.026  10.409  0.3175  0.2188 -0.3474
 6427SOL    HW130914   4.702   1.948  10.419  0.4886  0.4370  0.4045
 6427SOL    HW230915   4.649   2.058  10.499  2.7073 -0.8900 -0.0048
 6428SOL     OW30916   4.479   3.424   3.549  0.0612 -0.6756 -0.2279
 6428SOL    HW130917   4.442   3.402   3.635 -2.3429  0.9743 -0.8541
 6428SOL    HW230918   4.442   3.512   3.547  0.0586 -0.6047  2.6637
 6429SOL     OW30919   1.154   3.667  12.597  0.4331  0.4455 -0.2542
 6429SOL    HW130920   1.188   3.590  12.643  1.8331  2.3044  1.8521
 6429SOL    HW230921   1.105   3.623  12.527  3.4299 -4.3197  0.6935
 6430SOL     OW30922   1.085   0.799   4.025 -0.3104  0.2622  0.1857
 6430SOL    HW130923   1.156   0.754   4.071 -0.4111  1.2264  1.2882
 6430SOL    HW230924   1.110   0.888   4.048  1.9972 -0.5868  0.9536
 6431SOL     OW30925   0.643   3.804   6.179 -0.4211  0.2075  0.0280
 6431SOL    HW130926   0.641   3.709   6.185  0.5164  0.2834  1.5842
 6431SOL    HW230927   0.672   3.820   6.089 -0.2615 -1.3536 -0.1911
 6432SOL     OW30928   0.223   0.394   2.572  0.4639 -0.1379  0.2103
 6432SOL    HW130929   0.138   0.365   2.537  0.7360 -1.3180  0.5196
 6432SOL    HW230930   0.195   0.478   2.608  0.7411  0.0163  0.0657
 6433SOL     OW30931   2.539   2.341   2.862  0.1180  0.2167  0.1101
 6433SOL    HW130932   2.501   2.373   2.780 -2.6366 -2.1184  0.4926
 6433SOL    HW230933   2.634   2.354   2.854 -0.2469  2.0524 -1.3909
 6434SOL     OW30934   1.388   3.082   8.683  0.1123  0.3846 -0.3121
 6434SOL    HW130935   1.458   3.077   8.618 -0.9872  2.1016 -1.6151
 6434SOL    HW230936   1.428   3.036   8.756  2.0973  2.0327 -0.3560
 6435SOL     OW30937   0.321   0.619   9.234 -0.8198  0.0433  0.2936
 6435SOL    HW130938   0.299   0.696   9.182  0.1142 -0.5562 -0.9992
 6435SOL    HW230939   0.417   0.624   9.228 -0.7270 -0.4213  1.4366
 6436SOL     OW30940   0.917   4.481  17.338 -0.6144  0.1685  0.7905
 6436SOL    HW130941   0.924   4.557  17.395 -3.6864  1.5608 -0.6364
 6436SOL    HW230942   0.886   4.524  17.258 -0.3010 -0.4925  0.3128
 6437SOL     OW30943   2.280   3.028   3.346 -0.0010 -0.0474 -0.2476
 6437SOL    HW130944   2.309   3.106   3.394 -0.8644  0.2089 -0.1552
 6437SOL    HW230945   2.188   3.035   3.369 -0.1504 -1.0879 -0.5466
 6438SOL     OW30946   1.020   2.443   9.008 -0.2268  0.3412  0.6473
 6438SOL    HW130947   0.937   2.419   9.049  0.1393 -1.6754  0.2019
 6438SOL    HW230948   1.030   2.372   8.946 -1.2836  0.0013  0.8746
 6439SOL     OW30949   3.210   1.647   8.197  0.1534  0.5104 -0.3106
 6439SOL    HW130950   3.217   1.697   8.116 -3.1152  1.5022  0.0122
 6439SOL    HW230951   3.132   1.684   8.237  0.0539 -0.7951  0.7197
 6440SOL     OW30952   2.287   3.672   3.138  0.2063 -0.1982 -0.8825
 6440SOL    HW130953   2.353   3.610   3.170  2.3109  1.9246 -1.0879
 6440SOL    HW230954   2.205   3.634   3.169  0.2651 -0.4741 -1.0677
 6441SOL     OW30955   0.185   4.337   5.761  0.0053 -0.1712  0.2601
 6441SOL    HW130956   0.152   4.252   5.790 -2.0243  0.8731  0.9623
 6441SOL    HW230957   0.116   4.368   5.703 -1.3547  0.5598  2.2694
 6442SOL     OW30958   3.873   3.808   8.860 -0.5912  0.2372  0.2571
 6442SOL    HW130959   3.841   3.825   8.948  0.7738 -0.9865  0.9882
 6442SOL    HW230960   3.793   3.765   8.828 -0.1910 -0.6973  0.5005
 6443SOL     OW30961   4.549   0.109   2.288 -0.6493 -0.1194 -0.9096
 6443SOL    HW130962   4.556   0.113   2.193 -0.8955  0.3534 -0.9029
 6443SOL    HW230963   4.491   0.034   2.299  1.5250 -1.3331  2.7155
 6444SOL     OW30964   4.656   0.987   5.686 -0.2626  0.1361  0.3688
 6444SOL    HW130965   4.695   0.908   5.724 -0.7122  1.0529  2.7207
 6444SOL    HW230966   4.595   0.945   5.625  1.2343 -0.5366 -0.6652
 6445SOL     OW30967   1.892   0.448  15.523 -0.9175  0.4829  0.0070
 6445SOL    HW130968   1.893   0.388  15.449 -0.5872 -0.4759  0.7894
 6445SOL    HW230969   1.820   0.408  15.571 -1.9015  2.6953  0.4118
 6446SOL     OW30970   1.428   4.307   4.069 -0.0598 -0.0215  0.4883
 6446SOL    HW130971   1.372   4.299   4.146  1.6371  0.5760  1.7918
 6446SOL    HW230972   1.465   4.219   4.070 -0.0536 -0.0125  2.2017
 6447SOL     OW30973   1.120   1.718   3.778  0.1587 -0.2480 -0.0163
 6447SOL    HW130974   1.067   1.777   3.726  0.5304 -0.4441 -0.6164
 6447SOL    HW230975   1.048   1.679   3.828 -0.4334  0.6462 -0.1784
 6448SOL     OW30976   0.574   1.397   3.708  0.4003 -0.4569  0.4122
 6448SOL    HW130977   0.522   1.411   3.629  0.2096  1.1241  0.8102
 6448SOL    HW230978   0.579   1.302   3.710 -3.1312 -0.6422  0.0261
 6449SOL     OW30979   0.123   2.781  11.168  0.2364  0.0181  0.4413
 6449SOL    HW130980   0.144   2.688  11.155  1.0246  0.2567 -0.0130
 6449SOL    HW230981   0.048   2.771  11.227 -0.4315  0.0312 -0.4043
 6450SOL     OW30982   1.764   3.934  10.127  0.1080  0.5638 -0.1684
 6450SOL    HW130983   1.795   3.925  10.217  1.5449  0.7929 -0.6427
 6450SOL    HW230984   1.829   3.877  10.086  0.4839 -0.2542  1.5477
 6451SOL     OW30985   2.343   3.932   0.710 -0.1448 -0.2710  0.0885
 6451SOL    HW130986   2.278   3.863   0.722 -0.5174 -0.3113 -2.3514
 6451SOL    HW230987   2.291   4.002   0.751 -0.7784 -1.2304  0.9335
 6452SOL     OW30988   2.949   1.176   2.135 -0.5625  0.3417 -0.4812
 6452SOL    HW130989   2.882   1.217   2.190 -0.5038 -0.9996  0.5948
 6452SOL    HW230990   3.028   1.208   2.177  0.4310 -1.4321 -1.0070
 6453SOL     OW30991   1.497   1.180  12.665 -0.3864  0.3649  0.9303
 6453SOL    HW130992   1.404   1.201  12.663 -0.9436 -2.2410 -0.0243
 6453SOL    HW230993   1.497   1.084  12.671  2.2650  0.1677 -2.2828
 6454SOL     OW30994   2.070   1.629   4.362  0.7270  0.0750 -0.2417
 6454SOL    HW130995   2.024   1.708   4.334  1.4339 -0.0601 -1.8071
 6454SOL    HW230996   2.129   1.612   4.288 -1.0646 -4.8705 -0.5365
 6455SOL     OW30997   0.584   1.966  10.902  0.1356 -0.3355  0.3942
 6455SOL    HW130998   0.658   2.022  10.921 -0.8136  0.1102  2.7338
 6455SOL    HW230999   0.559   1.930  10.987  1.0506  0.5239  1.0185
 6456SOL     OW31000   3.462   2.316  10.823 -0.0299 -0.3891  0.0274
 6456SOL    HW131001   3.532   2.346  10.881  1.3758 -0.8021 -1.4557
 6456SOL    HW231002   3.488   2.228  10.795 -0.6625 -1.1228  1.7208
 6457SOL     OW31003   3.184   0.356  17.383 -0.1712  0.0389  0.5189
 6457SOL    HW131004   3.276   0.369  17.404 -0.4260  0.3261  1.5005
 6457SOL    HW231005   3.200   0.321  17.296  1.3106  1.1005  0.3611
 6458SOL     OW31006   4.667   0.866   7.348 -0.1826  0.0434 -0.4672
 6458SOL    HW131007   4.602   0.928   7.382  0.0388  1.4429 -2.6410
 6458SOL    HW231008   4.641   0.787   7.396  1.0872 -0.9977 -1.4700
 6459SOL     OW31009   3.988   4.472   0.045  0.9305  0.4697 -0.4670
 6459SOL    HW131010   3.973   4.400  17.723  2.7778 -1.6874  1.5888
 6459SOL    HW231011   4.012   4.419   0.121  0.9696  1.7850  0.4263
 6460SOL     OW31012   2.400   3.297   1.373  0.3117  0.4328  0.5312
 6460SOL    HW131013   2.335   3.235   1.341  0.3634 -0.0750  1.4099
 6460SOL    HW231014   2.410   3.255   1.459  1.6986 -0.9698 -0.3047
 6461SOL     OW31015   1.351   3.139  15.757 -0.2271 -0.3017  0.7008
 6461SOL    HW131016   1.377   3.068  15.698 -1.2526 -2.0457  2.3636
 6461SOL    HW231017   1.434   3.151  15.803  0.0171 -2.1777  0.7298
 6462SOL     OW31018   1.859   0.474  11.823 -0.4702  0.5885  0.5442
 6462SOL    HW131019   1.860   0.542  11.890  1.1038 -0.5021  1.6392
 6462SOL    HW231020   1.915   0.406  11.861 -0.3359 -0.2198 -1.1037
 6463SOL     OW31021   4.632   4.270   0.850  0.2507 -0.4540  0.2135
 6463SOL    HW131022   4.673   4.187   0.871  0.5738 -0.6667 -1.2877
 6463SOL    HW231023   4.706   4.329   0.836 -1.0036  1.2324  0.5694
 6464SOL     OW31024   1.989   0.888   7.853  0.0667  0.4235  0.2250
 6464SOL    HW131025   2.078   0.872   7.823 -0.9296 -1.8182 -1.6446
 6464SOL    HW231026   1.954   0.951   7.789 -0.4304 -0.3150 -0.2403
 6465SOL     OW31027   3.471   3.464  16.525  0.2815 -0.5360  0.1603
 6465SOL    HW131028   3.493   3.494  16.613  0.0525  0.4990 -0.1377
 6465SOL    HW231029   3.532   3.522  16.481  0.6676  0.6521  2.2779
 6466SOL     OW31030   0.439   3.074   7.301  0.0908  0.3962  0.4493
 6466SOL    HW131031   0.388   3.112   7.230  1.1444 -1.7564 -1.4415
 6466SOL    HW231032   0.489   3.006   7.256  0.6428  1.5489 -0.6863
 6467SOL     OW31033   3.182   4.399   0.234 -0.3821 -0.6324 -0.3236
 6467SOL    HW131034   3.120   4.421   0.303  0.6328  1.5481 -0.1052
 6467SOL    HW231035   3.249   4.468   0.232 -0.2657 -0.7705 -1.2315
 6468SOL     OW31036   0.210   1.154   7.214  0.5279  0.4051 -0.1008
 6468SOL    HW131037   0.257   1.074   7.192  0.4261  0.5822 -0.9630
 6468SOL    HW231038   0.282   1.215   7.231 -0.1237  0.7426  1.4682
 6469SOL     OW31039   4.694   0.675   8.507  0.0476 -0.0771 -0.8045
 6469SOL    HW131040   4.735   0.757   8.481  0.7182 -1.1642 -3.1551
 6469SOL    HW231041   0.038   0.623   8.521  0.0070  0.1258  0.2069
 6470SOL     OW31042   4.523   2.895  14.987 -0.3511  0.0096  0.1679
 6470SOL    HW131043   4.495   2.806  15.008 -0.1261 -0.0213  0.3365
 6470SOL    HW231044   4.448   2.925  14.936  0.8844  0.4227 -1.4123
 6471SOL     OW31045   1.134   1.632  11.736 -0.2686  0.2246  0.4532
 6471SOL    HW131046   1.069   1.626  11.805 -1.0155  1.0065 -0.1739
 6471SOL    HW231047   1.093   1.588  11.661 -3.6642 -0.7429  2.8886
 6472SOL     OW31048   3.667   2.309   1.200  0.2063 -0.4496  0.3392
 6472SOL    HW131049   3.726   2.317   1.275  2.2256 -0.6959 -1.1955
 6472SOL    HW231050   3.647   2.216   1.197 -0.8587 -0.1890 -0.6517
 6473SOL     OW31051   0.111   4.088   8.756 -0.8333 -0.3995 -0.0945
 6473SOL    HW131052   0.156   4.084   8.672  1.1349  2.0914  0.8449
 6473SOL    HW231053   0.055   4.165   8.760 -0.7235 -0.3875  1.1546
 6474SOL     OW31054   0.145   2.941   9.323 -0.2756  0.8012  0.3036
 6474SOL    HW131055   0.135   2.932   9.228  2.2240  1.6901 -0.0292
 6474SOL    HW231056   0.179   2.860   9.360  0.8542  1.9647  1.8385
 6475SOL     OW31057   2.215   1.563   8.135  0.1246 -0.2491 -0.1911
 6475SOL    HW131058   2.172   1.486   8.172  1.6595 -0.4755  1.1606
 6475SOL    HW231059   2.174   1.556   8.049 -2.6665 -0.5978  1.1600
 6476SOL     OW31060   0.405   0.678   3.065 -0.3998 -0.0081  0.3981
 6476SOL    HW131061   0.448   0.658   3.149  1.3287 -2.6212 -1.1061
 6476SOL    HW231062   0.342   0.606   3.065 -0.3499 -0.0520  0.1450
 6477SOL     OW31063   3.244   1.986  15.053  0.4494  0.4247 -0.4532
 6477SOL    HW131064   3.282   2.068  15.022 -1.6060  1.7677  0.5622
 6477SOL    HW231065   3.218   1.954  14.967 -2.0833  1.9189 -0.2615
 6478SOL     OW31066   3.103   0.937   5.940 -0.0390 -0.8957 -0.0571
 6478SOL    HW131067   3.160   1.013   5.934 -1.0894 -0.0217  1.1414
 6478SOL    HW231068   3.132   0.887   5.864 -0.4628  0.2136 -0.9304
 6479SOL     OW31069   0.811   3.903  10.225 -0.0432  0.0045 -0.0383
 6479SOL    HW131070   0.724   3.922  10.259 -0.8056 -1.2485 -1.2973
 6479SOL    HW231071   0.786   3.815  10.196 -1.3829 -1.0635  4.4329
 6480SOL     OW31072   2.883   2.067   1.037  0.1900 -0.4272 -0.0228
 6480SOL    HW131073   2.934   2.076   1.118  0.6187 -1.9581 -0.1350
 6480SOL    HW231074   2.838   2.152   1.038 -0.3172 -0.6965 -0.1308
 6481SOL     OW31075   2.063   2.261  10.842 -0.2082 -0.0027  0.3474
 6481SOL    HW131076   2.153   2.255  10.875 -0.2713 -0.7783  0.3820
 6481SOL    HW231077   2.022   2.187  10.888 -0.1671  0.5792  1.3241
 6482SOL     OW31078   0.084   2.461   2.559  0.1138  0.2884  0.8619
 6482SOL    HW131079   0.068   2.547   2.519  0.2432 -1.0332 -2.0412
 6482SOL    HW231080   4.731   2.425   2.560 -0.0436  0.6833  1.1468
 6483SOL     OW31081   2.008   0.200  15.980 -0.0621  0.0775 -0.1697
 6483SOL    HW131082   1.964   0.272  15.934  1.7160 -0.6737 -3.0640
 6483SOL    HW231083   1.966   0.119  15.951 -0.5217  0.4222 -0.4687
 6484SOL     OW31084   2.427   2.949  10.467 -0.0145 -0.9439  0.3680
 6484SOL    HW131085   2.502   2.969  10.410  0.1388 -0.7162  0.6457
 6484SOL    HW231086   2.457   2.874  10.518 -1.2512 -0.3812  1.9187
 6485SOL     OW31087   2.969   2.711   1.638 -0.0642  0.4941  0.4241
 6485SOL    HW131088   2.936   2.725   1.727  0.7487  1.2715  0.6113
 6485SOL    HW231089   2.924   2.778   1.586 -2.7774 -0.4947  1.4722
 6486SOL     OW31090   3.753   3.243   6.985 -0.0166 -0.2926 -0.6582
 6486SOL    HW131091   3.805   3.169   6.953  2.0612  1.1982 -0.6947
 6486SOL    HW231092   3.689   3.248   6.914 -0.4904  1.7238 -0.0878
 6487SOL     OW31093   2.021   2.161   2.462  0.2292  1.0760  0.0683
 6487SOL    HW131094   2.089   2.228   2.463 -0.1339  1.4413  0.8892
 6487SOL    HW231095   1.941   2.210   2.444 -0.1774  0.0159 -1.0171
 6488SOL     OW31096   4.500   1.919   8.754  0.0440  0.8427  0.1584
 6488SOL    HW131097   4.581   1.886   8.793 -0.4097 -0.5799 -0.1062
 6488SOL    HW231098   4.498   1.852   8.686 -1.1262  0.5548  0.4933
 6489SOL     OW31099   0.435   2.757  17.064 -0.2022  0.1928  0.5224
 6489SOL    HW131100   0.448   2.769  17.158 -0.7366 -1.0339  0.7623
 6489SOL    HW231101   0.433   2.661  17.056  1.0371  0.3362 -1.5369
 6490SOL     OW31102   2.186   0.875   2.456 -0.1006 -0.5712 -0.0157
 6490SOL    HW131103   2.092   0.855   2.461  0.3149 -2.4063  0.3025
 6490SOL    HW231104   2.188   0.943   2.524 -0.7578 -0.0796 -0.4866
 6491SOL     OW31105   0.917   3.762   9.534 -0.2082 -0.3576 -0.3992
 6491SOL    HW131106   0.860   3.716   9.596  2.2589 -0.9365  1.4689
 6491SOL    HW231107   0.862   3.788   9.460 -0.2407  1.1184  0.1333
 6492SOL     OW31108   3.850   1.472   4.369  0.3589  0.6771  0.0555
 6492SOL    HW131109   3.886   1.384   4.358 -0.6285 -0.3229  4.7890
 6492SOL    HW231110   3.922   1.521   4.330  1.3596 -1.4041 -0.6829
 6493SOL     OW31111   2.112   0.031   6.584 -0.1242 -0.8664  0.4184
 6493SOL    HW131112   2.040   0.088   6.611  1.1489  1.3306 -0.8256
 6493SOL    HW231113   2.089   4.735   6.496 -0.8972  1.4756 -0.2142
 6494SOL     OW31114   0.566   2.047   4.202  0.6596 -0.5658 -0.0806
 6494SOL    HW131115   0.608   2.123   4.163 -1.4875  2.1840  2.8414
 6494SOL    HW231116   0.548   1.983   4.133  0.9593  0.8178 -1.4318
 6495SOL     OW31117   2.425   3.815   5.118  0.1942  0.0842  0.0450
 6495SOL    HW131118   2.457   3.840   5.204  0.5297  0.9256 -0.3234
 6495SOL    HW231119   2.403   3.723   5.136 -0.1240  0.0509 -0.5004
 6496SOL     OW31120   3.696   0.976   8.982 -0.7263  0.0318  0.0012
 6496SOL    HW131121   3.656   0.889   8.975  1.8074 -1.0607 -1.0765
 6496SOL    HW231122   3.623   1.032   8.957  0.9076  2.3555  0.5305
 6497SOL     OW31123   2.729   2.783   6.572  0.0782 -0.4404  0.2668
 6497SOL    HW131124   2.812   2.798   6.527  0.9276 -0.9143  1.6957
 6497SOL    HW231125   2.755   2.779   6.663 -0.1572  1.2225  0.4101
 6498SOL     OW31126   0.718   4.363   2.891  0.4125  0.0345 -0.4445
 6498SOL    HW131127   0.779   4.437   2.887 -0.9897  1.1556 -0.9946
 6498SOL    HW231128   0.787   4.297   2.897  0.7168  0.3709 -0.2447
 6499SOL     OW31129   4.110   0.397   4.930  0.1767  0.2454 -0.1464
 6499SOL    HW131130   4.088   0.449   4.853  1.8993  2.2815  0.7176
 6499SOL    HW231131   4.054   0.433   4.998  0.9804  0.0859  0.6017
 6500SOL     OW31132   2.314   3.907   5.692 -0.3082 -0.2730 -0.4984
 6500SOL    HW131133   2.404   3.915   5.725 -0.3424 -0.4690 -0.3535
 6500SOL    HW231134   2.268   3.902   5.776 -0.3780  1.3148 -0.4497
 6501SOL     OW31135   2.503   2.976   3.567  0.4735 -0.4074 -0.0639
 6501SOL    HW131136   2.467   2.945   3.651  2.4147 -0.5151  0.7386
 6501SOL    HW231137   2.440   3.040   3.534  2.1555  0.9982 -0.5098
 6502SOL     OW31138   2.639   3.922   4.053  0.3965 -0.1176 -0.1128
 6502SOL    HW131139   2.552   3.892   4.025  1.4069 -0.5876 -2.7933
 6502SOL    HW231140   2.658   3.856   4.119 -0.9354 -1.4077 -1.0150
 6503SOL     OW31141   1.399   2.150   4.080 -0.0279 -0.3555 -0.1386
 6503SOL    HW131142   1.430   2.060   4.091  0.3716 -0.2468 -0.3677
 6503SOL    HW231143   1.420   2.158   3.987  1.1421  1.2758  0.2755
 6504SOL     OW31144   4.174   1.098   0.007  0.6517 -0.0870 -0.0172
 6504SOL    HW131145   4.161   1.085   0.101 -0.2827  0.7125 -0.0351
 6504SOL    HW231146   4.141   1.014  17.715 -1.6137  0.7222  0.1892
 6505SOL     OW31147   4.635   0.814  10.232 -0.2033 -0.1822  0.2034
 6505SOL    HW131148   4.713   0.832  10.284  1.1631 -1.0131 -1.5621
 6505SOL    HW231149   4.636   0.900  10.190  1.5182 -0.7625 -0.9748
 6506SOL     OW31150   1.273   0.594   7.445 -0.2944  0.0343 -0.8165
 6506SOL    HW131151   1.197   0.649   7.427 -0.0288  0.3722 -0.9209
 6506SOL    HW231152   1.226   0.512   7.457 -2.2884  1.8386  3.5855
 6507SOL     OW31153   0.429   4.187   4.751 -0.0478  0.2807 -0.7655
 6507SOL    HW131154   0.466   4.114   4.702  1.4111  0.3025  0.2866
 6507SOL    HW231155   0.380   4.240   4.688 -1.3261 -0.3678 -0.3239
 6508SOL     OW31156   1.261   2.442   2.331  0.1222  0.6116 -0.1998
 6508SOL    HW131157   1.312   2.372   2.292 -1.2375 -0.1601 -0.5885
 6508SOL    HW231158   1.302   2.447   2.417  1.6604 -1.5315 -0.8148
 6509SOL     OW31159   3.131   2.647   3.797 -0.3194 -0.1686  0.1477
 6509SOL    HW131160   3.068   2.576   3.782  0.2715 -0.6378 -0.0926
 6509SOL    HW231161   3.074   2.708   3.843 -1.0188  0.5746 -1.7342
 6510SOL     OW31162   0.952   4.152   7.608  0.3397  0.3196 -0.4216
 6510SOL    HW131163   0.931   4.245   7.616  0.6158  0.1153  2.4510
 6510SOL    HW231164   0.960   4.121   7.698  3.1872 -0.5852 -0.9946
 6511SOL     OW31165   3.162   0.994  12.203  0.1931  0.5082 -0.3618
 6511SOL    HW131166   3.118   1.013  12.120 -1.2398 -0.2835  0.2163
 6511SOL    HW231167   3.089   0.951  12.247  0.6245 -2.5177 -2.6476
 6512SOL     OW31168   4.134   3.020  11.526 -0.9679  0.7521  0.2380
 6512SOL    HW131169   4.075   2.947  11.510 -0.6019  1.0161 -2.2561
 6512SOL    HW231170   4.127   3.067  11.443 -0.7952  0.0302 -0.1889
 6513SOL     OW31171   2.873   1.005   2.885 -0.2075  0.5372 -0.3491
 6513SOL    HW131172   2.894   1.009   2.978  0.8900  2.5940 -0.7038
 6513SOL    HW231173   2.930   0.937   2.848 -1.4896 -0.4944 -0.4770
 6514SOL     OW31174   3.984   3.950   4.371 -0.3211 -0.2706  0.7061
 6514SOL    HW131175   4.062   4.000   4.347 -0.6268 -0.2322 -0.2236
 6514SOL    HW231176   3.911   3.993   4.326 -0.5234  0.2718  1.5561
 6515SOL     OW31177   0.473   4.412   9.731  0.1558 -0.4216  0.2800
 6515SOL    HW131178   0.513   4.492   9.697  0.7856  0.2286  2.5686
 6515SOL    HW231179   0.417   4.452   9.798  0.6181  0.2215  0.2905
 6516SOL     OW31180   3.371   0.890   8.858  0.3535  0.5182  0.0454
 6516SOL    HW131181   3.336   0.847   8.936 -0.0461  2.0348  0.7058
 6516SOL    HW231182   3.418   0.824   8.807 -0.9857 -2.1206  2.2081
 6517SOL     OW31183   0.075   2.495   7.247  0.1873  0.2713 -0.0889
 6517SOL    HW131184   0.127   2.558   7.196  1.9711 -1.5864 -0.5274
 6517SOL    HW231185   0.013   2.559   7.283 -0.2957 -1.0427  1.3919
 6518SOL     OW31186   0.237   1.597   6.331  0.3853  0.1786 -0.2497
 6518SOL    HW131187   0.268   1.574   6.243 -2.2668  1.8196 -1.6060
 6518SOL    HW231188   0.225   1.692   6.330 -0.6710  0.0415 -0.4948
 6519SOL     OW31189   1.300   2.328   4.787  0.1603  0.1877  0.4362
 6519SOL    HW131190   1.270   2.238   4.796 -1.7239  0.7871  0.1075
 6519SOL    HW231191   1.330   2.338   4.697 -0.8307  0.8652  0.1779
 6520SOL     OW31192   0.898   1.779  16.767 -0.3442 -0.8995  0.1114
 6520SOL    HW131193   0.918   1.765  16.675 -2.1128  0.1954 -0.4273
 6520SOL    HW231194   0.851   1.862  16.766 -0.4309 -0.8763  4.2847
 6521SOL     OW31195   1.616   1.952   3.384  0.1563 -0.5197  0.2594
 6521SOL    HW131196   1.638   1.916   3.470 -2.7279 -1.8531  0.4314
 6521SOL    HW231197   1.659   1.884   3.331  0.3518 -0.8190  0.8066
 6522SOL     OW31198   1.668   3.152  14.364  0.2917 -0.1850 -0.8569
 6522SOL    HW131199   1.642   3.117  14.279  0.2688 -0.5403 -0.7018
 6522SOL    HW231200   1.584   3.150  14.411  2.8385 -1.5107  3.6168
 6523SOL     OW31201   2.130   2.843   8.519  0.1372 -0.0965  0.0451
 6523SOL    HW131202   2.222   2.823   8.536  0.0369 -1.5160 -1.0545
 6523SOL    HW231203   2.118   2.785   8.444  0.9750 -0.3399  0.1043
 6524SOL     OW31204   2.629   3.197   4.799 -0.2074  0.2972 -0.4245
 6524SOL    HW131205   2.562   3.130   4.788 -1.5537  1.2280  2.2854
 6524SOL    HW231206   2.585   3.266   4.849 -0.7905 -0.7660  0.4993
 6525SOL     OW31207   0.795   0.054   7.664 -0.0004  0.2937  0.1496
 6525SOL    HW131208   0.850   4.721   7.703  1.6362  0.2364 -2.2840
 6525SOL    HW231209   0.845   0.134   7.680  1.6393 -1.0721  1.9035
 6526SOL     OW31210   4.271   1.255  12.493 -0.4875  0.0785 -0.1330
 6526SOL    HW131211   4.330   1.274  12.566 -0.5351  0.2473 -0.1384
 6526SOL    HW231212   4.243   1.168  12.521 -2.7882  0.8052 -0.1626
 6527SOL     OW31213   3.404   0.374  11.132 -0.7967  0.3663 -0.0828
 6527SOL    HW131214   3.404   0.431  11.055  0.0550 -2.0431 -1.8469
 6527SOL    HW231215   3.470   0.406  11.194 -1.3094  1.4700 -0.1033
 6528SOL     OW31216   0.699   1.040  12.539  0.3071  0.6585 -0.1575
 6528SOL    HW131217   0.777   1.092  12.518  1.7006  0.1066  3.6108
 6528SOL    HW231218   0.684   1.002  12.452  2.8202 -0.2721 -0.1860
 6529SOL     OW31219   4.597   2.663   0.247 -0.6235 -0.2982  0.7264
 6529SOL    HW131220   4.677   2.613   0.228 -0.4554  0.5321 -0.7923
 6529SOL    HW231221   4.544   2.622   0.178  0.3279  1.8883 -1.3303
 6530SOL     OW31222   4.190   0.167   8.614  0.2707  0.2946  0.0762
 6530SOL    HW131223   4.285   0.159   8.618  0.2051 -0.0542  0.8858
 6530SOL    HW231224   4.161   0.105   8.681 -0.2708 -1.1340 -1.4635
 6531SOL     OW31225   1.929   1.721  16.729  0.2784  0.0535  0.1338
 6531SOL    HW131226   2.009   1.671  16.714  0.5479  0.1913  1.0859
 6531SOL    HW231227   1.936   1.759  16.817 -0.6376  1.8458 -0.5735
 6532SOL     OW31228   3.373   4.262   5.330 -0.5165  0.0871  0.3918
 6532SOL    HW131229   3.425   4.187   5.360 -1.0340  0.3071  1.8235
 6532SOL    HW231230   3.291   4.225   5.299 -0.8229 -1.5217  3.1049
 6533SOL     OW31231   4.268   2.998   5.597 -0.2287 -0.2250 -0.1819
 6533SOL    HW131232   4.309   3.023   5.514 -1.2406 -0.6439 -0.8120
 6533SOL    HW231233   4.184   2.972   5.557 -0.6874  0.9701  0.0034
 6534SOL     OW31234   1.853   3.421   9.141  0.2415  0.3457  0.2649
 6534SOL    HW131235   1.791   3.370   9.090  2.2539 -0.9698 -0.8759
 6534SOL    HW231236   1.828   3.369   9.217 -1.7465 -0.3445 -0.8532
 6535SOL     OW31237   3.482   4.057   6.413 -0.8314 -0.6180  0.2182
 6535SOL    HW131238   3.459   4.109   6.491  0.8939 -1.9991  1.6372
 6535SOL    HW231239   3.399   4.053   6.366 -1.0208 -0.2250  0.5135
 6536SOL     OW31240   0.078   0.787  15.293 -0.3508  0.1273 -0.0230
 6536SOL    HW131241   0.090   0.865  15.348 -0.4451  0.5820 -0.6553
 6536SOL    HW231242   0.088   0.825  15.206 -0.1345  0.0614 -0.0282
 6537SOL     OW31243   0.044   3.234   4.234  0.0589  0.0126 -0.7788
 6537SOL    HW131244   0.078   3.275   4.155  0.3645  3.0480  0.9404
 6537SOL    HW231245   0.122   3.185   4.259  1.4108  2.6834  0.2152
 6538SOL     OW31246   0.215   4.095   8.476  0.1328 -0.0973  0.1898
 6538SOL    HW131247   0.228   4.023   8.414  1.2181 -0.2358  0.5754
 6538SOL    HW231248   0.257   4.167   8.429  4.1374 -0.6583  2.9202
 6539SOL     OW31249   4.447   0.083  10.198  0.9816 -0.4457  0.0157
 6539SOL    HW131250   4.483   0.082  10.109  1.3045  1.9989  0.1340
 6539SOL    HW231251   4.454   4.729  10.231  0.5595 -0.8933 -1.0965
 6540SOL     OW31252   4.488   2.009  13.942 -0.2576 -0.2637  0.1691
 6540SOL    HW131253   4.546   2.078  13.912  0.9556 -0.9428  0.9453
 6540SOL    HW231254   4.424   2.060  13.993  0.4431 -0.4350  1.2228
 6541SOL     OW31255   1.296   1.296   6.851  0.2769  0.3932  0.4513
 6541SOL    HW131256   1.287   1.252   6.936  0.3698  0.2490  0.3859
 6541SOL    HW231257   1.272   1.225   6.792 -1.0536  0.6841  0.6378
 6542SOL     OW31258   4.557   0.527   8.347  0.3132 -0.9971 -0.1623
 6542SOL    HW131259   4.564   0.438   8.380  0.8543 -0.6490  0.6842
 6542SOL    HW231260   4.612   0.573   8.411  0.0260 -0.9075  0.0239
 6543SOL     OW31261   1.511   1.036   2.894  0.0585  0.1347 -0.3082
 6543SOL    HW131262   1.603   1.058   2.905  0.0429  0.0130  0.0675
 6543SOL    HW231263   1.475   1.090   2.964  1.3286 -0.8879  1.1288
 6544SOL     OW31264   0.010   1.828   3.398 -0.1711 -0.1129  0.4165
 6544SOL    HW131265   0.100   1.820   3.365  0.4763  2.0943  1.6008
 6544SOL    HW231266   0.013   1.921   3.421  0.7369 -0.8316  3.2216
 6545SOL     OW31267   3.169   2.461   6.322 -0.1019  0.2879 -0.5866
 6545SOL    HW131268   3.098   2.418   6.370  0.4856 -0.8729 -0.7726
 6545SOL    HW231269   3.120   2.534   6.283 -1.0291 -0.1243 -0.2001
 6546SOL     OW31270   4.140   1.730   4.555  0.2064 -0.0595  0.1916
 6546SOL    HW131271   4.112   1.789   4.485 -2.0234  0.6702  1.7221
 6546SOL    HW231272   4.122   1.642   4.522  2.0234 -0.1033 -0.6725
 6547SOL     OW31273   2.359   4.127   4.512 -0.0061  0.4531 -0.0862
 6547SOL    HW131274   2.281   4.144   4.563 -0.3189 -0.8140 -0.1429
 6547SOL    HW231275   2.326   4.170   4.433  0.1164  0.9408  0.1261
 6548SOL     OW31276   1.999   2.973   1.925  0.3232  0.5334  0.1279
 6548SOL    HW131277   1.987   3.013   1.840 -0.6592  1.1502  0.5650
 6548SOL    HW231278   2.057   3.041   1.959  1.0917  0.1197 -0.3287
 6549SOL     OW31279   4.447   0.058  14.024 -0.0052 -0.0066 -0.0858
 6549SOL    HW131280   4.431   0.015  14.108 -2.8824 -0.8110 -1.0791
 6549SOL    HW231281   4.477   4.718  13.973  2.6050  0.3400  0.8951
 6550SOL     OW31282   0.821   4.321  12.546  0.2859 -0.0647 -0.3269
 6550SOL    HW131283   0.762   4.352  12.478 -2.1791 -0.3960  1.6306
 6550SOL    HW231284   0.864   4.244  12.510  2.1883  0.4633  0.8164
 6551SOL     OW31285   0.271   3.622   7.158 -0.2585  0.1121  0.2175
 6551SOL    HW131286   0.219   3.572   7.222  1.6708 -1.0153  0.8916
 6551SOL    HW231287   0.347   3.649   7.209 -0.2978 -0.3138  0.5022
 6552SOL     OW31288   1.934   1.055   2.937 -0.2329  0.2223  0.1561
 6552SOL    HW131289   1.904   1.082   2.850  0.8131  0.3143 -0.1711
 6552SOL    HW231290   1.951   1.138   2.980 -0.6817  0.3768  0.0357
 6553SOL     OW31291   1.433   1.372  15.806  0.2439 -0.2132 -0.0539
 6553SOL    HW131292   1.342   1.403  15.813  0.2297 -0.5787  1.3865
 6553SOL    HW231293   1.484   1.452  15.790 -2.0048  1.2547  0.0609
 6554SOL     OW31294   3.030   1.916  12.526 -0.0139  0.0232  0.1095
 6554SOL    HW131295   3.043   1.907  12.432  0.9127 -0.9520  0.3384
 6554SOL    HW231296   3.113   1.957  12.549 -0.3396  0.8774 -0.2440
 6555SOL     OW31297   2.672   0.660   9.681 -0.3135  0.5472  0.1419
 6555SOL    HW131298   2.631   0.606   9.614  1.0048 -0.2596 -0.0148
 6555SOL    HW231299   2.753   0.679   9.633 -0.1178 -0.1148  0.2091
 6556SOL     OW31300   2.060   0.580   2.446  0.3402 -0.0550 -0.5635
 6556SOL    HW131301   2.034   0.617   2.531 -0.5539 -0.3219 -0.7234
 6556SOL    HW231302   1.983   0.526   2.426  1.2289 -1.2694 -0.7438
 6557SOL     OW31303   0.721   1.999  16.768  0.4012 -0.2345 -0.1086
 6557SOL    HW131304   0.640   1.954  16.789  1.7978 -2.6970 -0.0269
 6557SOL    HW231305   0.760   2.041  16.845  0.5964 -0.7629  0.0797
 6558SOL     OW31306   4.050   0.049   2.450  0.2021  0.1870 -0.6641
 6558SOL    HW131307   4.009   0.117   2.504  0.2421 -0.7398  0.5224
 6558SOL    HW231308   4.121   0.099   2.408 -0.5566  1.6461 -0.2074
 6559SOL     OW31309   1.944   4.200   7.126  0.0214 -0.1307 -0.3827
 6559SOL    HW131310   1.938   4.289   7.159  1.0122  0.1016 -0.8198
 6559SOL    HW231311   1.904   4.155   7.200 -0.3055  0.4826 -0.1943
 6560SOL     OW31312   4.150   1.461   7.250 -0.1929 -0.0006 -0.1507
 6560SOL    HW131313   4.243   1.464   7.227 -0.0375 -1.6284  0.2211
 6560SOL    HW231314   4.134   1.367   7.244 -1.5192  0.3363 -1.8508
 6561SOL     OW31315   2.955   2.630   3.543  0.2235  0.5462  0.1699
 6561SOL    HW131316   2.906   2.626   3.461  1.1803 -0.3148 -0.3579
 6561SOL    HW231317   2.924   2.711   3.584 -1.6362  0.6576 -1.4461
 6562SOL     OW31318   4.129   2.454   4.552 -0.2024 -0.1304  0.2076
 6562SOL    HW131319   4.056   2.490   4.501  0.5308 -0.1502 -0.8546
 6562SOL    HW231320   4.142   2.374   4.501  0.1218  0.3442 -0.4448
 6563SOL     OW31321   4.579   0.293   0.761 -0.4870 -0.3175  0.0713
 6563SOL    HW131322   4.658   0.335   0.795 -0.3649 -1.5693  1.3187
 6563SOL    HW231323   4.584   0.311   0.667  1.7316  0.3250  0.3155
 6564SOL     OW31324   4.183   0.538   8.082  0.3838  0.4230 -0.3354
 6564SOL    HW131325   4.184   0.530   7.987 -2.1666 -0.4854 -0.2861
 6564SOL    HW231326   4.276   0.523   8.099  0.1943 -1.9003 -1.3121
 6565SOL     OW31327   2.693   1.201   8.487  0.0054 -0.1662 -0.3251
 6565SOL    HW131328   2.788   1.199   8.485 -0.0954 -1.8890 -3.8564
 6565SOL    HW231329   2.679   1.125   8.430  0.0184  0.7983 -1.6026
 6566SOL     OW31330   0.319   3.540   8.460  0.2504 -0.1830 -0.2758
 6566SOL    HW131331   0.342   3.597   8.534 -2.6675 -0.5876  0.9372
 6566SOL    HW231332   0.340   3.454   8.496  1.8658  0.4782  0.3944
 6567SOL     OW31333   2.421   1.276   6.851  0.2287  0.0133 -0.3797
 6567SOL    HW131334   2.390   1.248   6.937 -0.0282  1.6024  0.0423
 6567SOL    HW231335   2.351   1.252   6.790 -0.1354 -0.4362  0.2089
 6568SOL     OW31336   3.864   3.238   2.762  0.4719 -0.1576  0.0582
 6568SOL    HW131337   3.801   3.272   2.825 -0.8262 -0.6855 -0.9606
 6568SOL    HW231338   3.909   3.320   2.742 -0.0710  0.1449  0.0809
 6569SOL     OW31339   1.758   3.935   1.624 -0.5373  0.3619 -0.4786
 6569SOL    HW131340   1.727   3.905   1.710  0.5890  1.7016  0.3959
 6569SOL    HW231341   1.699   4.010   1.628  0.1149  0.8099  0.8473
 6570SOL     OW31342   3.885   0.700   6.154  0.2392 -0.1219  0.2303
 6570SOL    HW131343   3.823   0.628   6.151 -0.7489  0.7687 -1.0478
 6570SOL    HW231344   3.951   0.669   6.216  1.4796  0.2728 -0.8689
 6571SOL     OW31345   2.569   4.023  13.101 -0.1970 -0.0027  0.2405
 6571SOL    HW131346   2.475   4.025  13.087 -0.1838  0.4930  0.2445
 6571SOL    HW231347   2.601   4.023  13.010 -1.6699 -0.7566 -0.2826
 6572SOL     OW31348   3.991   3.834   5.085 -0.0336 -0.0654 -0.3774
 6572SOL    HW131349   3.970   3.814   5.176  0.9645  1.8894  0.2827
 6572SOL    HW231350   4.053   3.906   5.098  0.6929 -1.1364  1.9713
 6573SOL     OW31351   2.704   2.062  16.565 -0.1071 -0.4367  0.2810
 6573SOL    HW131352   2.762   2.117  16.513 -0.4278 -2.5394 -2.3259
 6573SOL    HW231353   2.774   2.012  16.607 -0.5366  0.1582  1.6866
 6574SOL     OW31354   0.850   3.685   0.935  0.3343 -1.0321  0.2726
 6574SOL    HW131355   0.935   3.728   0.923  1.0464 -2.5358 -0.0593
 6574SOL    HW231356   0.815   3.746   1.000  1.5958  1.3486 -1.3087
 6575SOL     OW31357   4.426   1.085   6.047  0.1512  0.0735 -0.0648
 6575SOL    HW131358   4.339   1.086   6.007 -0.2011 -2.8916  0.6866
 6575SOL    HW231359   4.442   0.995   6.073  0.6197  0.2033  0.1024
 6576SOL     OW31360   0.183   0.649   7.069 -0.0789  0.2438  0.0340
 6576SOL    HW131361   0.161   0.742   7.072 -1.9627 -0.2183  1.0145
 6576SOL    HW231362   0.095   0.614   7.084  0.0185 -0.1788 -0.3943
 6577SOL     OW31363   1.991   0.339   5.200  0.0289  0.3308  0.1665
 6577SOL    HW131364   1.900   0.357   5.176 -0.4556 -0.2269  1.5698
 6577SOL    HW231365   2.015   0.431   5.207  4.0249 -0.6083 -1.0864
 6578SOL     OW31366   2.458   1.908   8.043 -0.1624  0.7253 -0.0757
 6578SOL    HW131367   2.467   1.869   8.130 -0.2766 -0.1883 -0.4724
 6578SOL    HW231368   2.380   1.961   8.056 -0.1551  0.7686 -0.2122
 6579SOL     OW31369   0.464   2.213  14.762  0.5159 -0.4557 -0.4186
 6579SOL    HW131370   0.385   2.217  14.816  0.5924  0.8838 -0.4204
 6579SOL    HW231371   0.528   2.174  14.821  1.0913  2.2145  0.7280
 6580SOL     OW31372   3.726   4.687   9.159 -0.3823 -0.0005  0.0082
 6580SOL    HW131373   3.765   4.682   9.246 -0.8176  1.3441  0.2864
 6580SOL    HW231374   3.739   0.044   9.135  1.6527  0.8582  4.6164
 6581SOL     OW31375   3.029   1.946   2.326  0.1207  0.1323  0.2937
 6581SOL    HW131376   3.056   1.858   2.352  1.2301  0.3978  0.0378
 6581SOL    HW231377   2.986   1.930   2.243 -0.2514 -0.1919  0.5498
 6582SOL     OW31378   0.515   0.245   3.615  0.5863  0.2375  0.1514
 6582SOL    HW131379   0.594   0.225   3.565 -0.7630 -0.5342 -1.7001
 6582SOL    HW231380   0.472   0.308   3.557 -2.6636 -0.0038  2.3440
 6583SOL     OW31381   1.486   3.081   7.850 -0.0890  0.9331  0.1536
 6583SOL    HW131382   1.545   3.143   7.892  1.7875 -0.4803 -0.3667
 6583SOL    HW231383   1.432   3.136   7.793 -0.2124 -0.2664 -0.9054
 6584SOL     OW31384   3.443   1.397   4.789  0.0730  0.2972 -0.1027
 6584SOL    HW131385   3.446   1.360   4.700  1.8738  0.6204 -0.1941
 6584SOL    HW231386   3.502   1.472   4.783  2.0959 -1.0967  2.3040
 6585SOL     OW31387   0.936   0.489   5.558  0.0452  0.2454 -0.1027
 6585SOL    HW131388   0.991   0.466   5.484 -0.3938 -1.0607 -0.0341
 6585SOL    HW231389   0.962   0.419   5.618  0.2992  1.6711  1.4688
 6586SOL     OW31390   3.135   2.832   7.528 -0.4534  0.3701  0.4223
 6586SOL    HW131391   3.230   2.827   7.538 -0.2423 -0.4861 -1.9468
 6586SOL    HW231392   3.118   2.899   7.594  0.7239 -0.5987  1.6987
 6587SOL     OW31393   2.787   2.073   7.454 -0.2103  0.2765  0.2551
 6587SOL    HW131394   2.762   1.999   7.399  0.2213 -0.4124  0.9810
 6587SOL    HW231395   2.866   2.112   7.419 -1.2065  1.0647 -1.1100
 6588SOL     OW31396   2.696   1.296   1.939 -0.1656 -0.1665  0.0600
 6588SOL    HW131397   2.782   1.315   1.901  0.2456 -1.0051  0.5834
 6588SOL    HW231398   2.699   1.361   2.009 -1.1189  0.1648 -0.1987
 6589SOL     OW31399   2.432   3.150  11.253  0.0014 -0.3930 -0.2803
 6589SOL    HW131400   2.389   3.067  11.232 -1.3692  0.5170 -1.0666
 6589SOL    HW231401   2.510   3.117  11.297 -1.5193  0.4321  3.1086
 6590SOL     OW31402   1.008   0.044   3.910  0.3114 -0.5612  0.2284
 6590SOL    HW131403   0.925   0.088   3.891  1.2209  1.5328  1.1709
 6590SOL    HW231404   1.031   0.020   3.820  1.3288 -2.4470  0.9748
 6591SOL     OW31405   0.689   2.883   3.212 -0.3018  0.2327  0.0512
 6591SOL    HW131406   0.678   2.935   3.292 -1.4585  2.6682 -1.6752
 6591SOL    HW231407   0.706   2.947   3.142  0.4269  0.2063  0.1995
 6592SOL     OW31408   1.473   3.226   2.484 -0.1901  0.6704 -1.1195
 6592SOL    HW131409   1.557   3.270   2.475  0.4384 -0.2142  0.3999
 6592SOL    HW231410   1.408   3.288   2.450 -0.1485  1.8657  0.9726
 6593SOL     OW31411   2.142   1.434   2.795 -0.1507 -0.1310  0.1314
 6593SOL    HW131412   2.124   1.371   2.864 -2.8498  0.3267 -0.1595
 6593SOL    HW231413   2.096   1.395   2.720  2.0373 -2.8360  0.1896
 6594SOL     OW31414   3.638   0.957  16.387 -0.3138 -0.0314  0.0921
 6594SOL    HW131415   3.652   0.885  16.326  1.8364 -0.9606  1.6533
 6594SOL    HW231416   3.725   0.971  16.425  0.0147 -0.7678 -0.3810
 6595SOL     OW31417   0.690   3.913   1.060 -0.2392  0.6479 -0.4012
 6595SOL    HW131418   0.753   3.953   1.000  0.0008  0.2252 -0.4298
 6595SOL    HW231419   0.660   3.985   1.116 -0.1090  1.0247 -0.8142
 6596SOL     OW31420   2.108   0.613  16.813  0.0988 -0.0613 -0.4709
 6596SOL    HW131421   2.020   0.577  16.815  0.2683 -0.4775 -0.5807
 6596SOL    HW231422   2.154   0.577  16.888  0.7614 -0.1920 -0.9353
 6597SOL     OW31423   1.675   0.342  15.655 -0.1470  0.5409  0.3948
 6597SOL    HW131424   1.586   0.346  15.688  0.3849  0.9058  1.7693
 6597SOL    HW231425   1.658   0.284  15.580 -1.4959  0.1506  1.0146
 6598SOL     OW31426   1.242   4.261   7.012  0.0954 -0.1010 -0.2706
 6598SOL    HW131427   1.278   4.254   7.100  0.1954  1.6163 -0.1756
 6598SOL    HW231428   1.160   4.214   7.027  0.5492 -0.8794 -0.2470
 6599SOL     OW31429   3.131   1.745   7.049  0.0873 -0.5004 -0.6654
 6599SOL    HW131430   3.077   1.776   6.976  0.5529 -1.9365 -1.6144
 6599SOL    HW231431   3.094   1.657   7.047 -0.7526 -0.1687  0.3579
 6600SOL     OW31432   3.804   0.575   8.955 -0.3238  0.3605  0.1974
 6600SOL    HW131433   3.743   0.591   8.882 -0.7619  1.6754  0.8366
 6600SOL    HW231434   3.884   0.569   8.902 -1.7999  0.6762 -2.0861
 6601SOL     OW31435   1.392   4.348   7.614 -0.0309  0.2841 -0.3489
 6601SOL    HW131436   1.327   4.279   7.625  0.7853 -0.1999  1.4769
 6601SOL    HW231437   1.440   4.337   7.696 -3.1833 -1.1106  1.2856
 6602SOL     OW31438   2.659   0.235   1.316  0.4136 -0.2406  0.2521
 6602SOL    HW131439   2.598   0.233   1.390 -1.5887 -0.0477 -1.4045
 6602SOL    HW231440   2.660   0.147   1.279  0.5508 -0.0578 -0.1764
 6603SOL     OW31441   1.390   3.658   3.217  0.3587  0.4004  0.2411
 6603SOL    HW131442   1.441   3.714   3.159  0.0461  1.4237  0.9521
 6603SOL    HW231443   1.432   3.574   3.199 -0.8138 -0.1823  0.1883
 6604SOL     OW31444   4.325   4.703   3.965 -0.2705 -0.0196 -0.1164
 6604SOL    HW131445   4.325   0.008   4.052  2.4503  1.7297 -0.9008
 6604SOL    HW231446   4.403   0.010   3.928 -0.7886  0.1665 -0.9906
 6605SOL     OW31447   2.097   1.488   0.298 -0.2956 -0.3297  0.0049
 6605SOL    HW131448   2.157   1.418   0.325  1.3070  0.1184 -2.3678
 6605SOL    HW231449   2.009   1.452   0.289 -0.2664 -0.3826 -0.0695
 6606SOL     OW31450   3.722   1.616  17.120  0.0365 -0.9197  0.2409
 6606SOL    HW131451   3.733   1.533  17.075 -0.6807 -2.1827  2.4106
 6606SOL    HW231452   3.787   1.666  17.070 -1.0290  1.7552  1.5148
 6607SOL     OW31453   1.970   0.630   7.964  0.0363 -0.0861  0.5714
 6607SOL    HW131454   1.944   0.717   7.936  0.4229 -0.3294 -0.5208
 6607SOL    HW231455   1.952   0.643   8.057 -0.3495  0.4276  0.4177
 6608SOL     OW31456   4.036   1.154   4.101 -0.0452  0.6104 -0.7606
 6608SOL    HW131457   4.126   1.175   4.123  1.2583 -1.6861 -3.8288
 6608SOL    HW231458   4.032   1.210   4.023  0.1725  2.6434  0.6786
 6609SOL     OW31459   0.846   1.317   5.112 -0.6386 -0.3870 -0.5725
 6609SOL    HW131460   0.911   1.248   5.098 -1.4475 -0.7081 -2.7532
 6609SOL    HW231461   0.794   1.279   5.183  1.4523  0.8069  1.5595
 6610SOL     OW31462   2.854   2.611   3.298 -0.7197  0.2359  0.8239
 6610SOL    HW131463   2.926   2.619   3.236 -1.1306  0.3185  0.3613
 6610SOL    HW231464   2.808   2.534   3.265 -2.7042  1.4255  0.8112
 6611SOL     OW31465   0.923   0.700   6.870  0.4097  0.1288  0.5310
 6611SOL    HW131466   1.014   0.697   6.899  0.9217  3.2511 -0.7768
 6611SOL    HW231467   0.915   0.611   6.836  0.2481  0.6707 -0.8605
 6612SOL     OW31468   1.651   3.457   8.257  0.4083  0.0131  0.1707
 6612SOL    HW131469   1.586   3.471   8.326  0.1376  1.6319 -0.4266
 6612SOL    HW231470   1.650   3.361   8.251 -4.0322  0.0212  0.3480
 6613SOL     OW31471   4.597   2.835   3.308  0.1632  0.2721 -0.2237
 6613SOL    HW131472   4.548   2.756   3.328 -0.3857  0.7704  0.4308
 6613SOL    HW231473   4.673   2.802   3.259  0.8577  0.6466  0.5915
 6614SOL     OW31474   2.667   1.991   6.665 -1.1278  0.7278  0.5274
 6614SOL    HW131475   2.682   1.952   6.751  1.6835 -2.1345 -1.2325
 6614SOL    HW231476   2.705   2.078   6.681 -1.2248  0.6986  0.9000
 6615SOL     OW31477   4.131   3.646   4.226 -0.0073  0.3947 -0.2532
 6615SOL    HW131478   4.179   3.725   4.251  0.8021  0.2259 -1.2305
 6615SOL    HW231479   4.069   3.634   4.297  0.5376 -0.2377  0.1148
 6616SOL     OW31480   4.365   3.322   4.598 -0.1798  0.2798  0.5471
 6616SOL    HW131481   4.350   3.241   4.646 -1.7161  0.0460 -0.3472
 6616SOL    HW231482   4.402   3.286   4.518 -0.4101 -1.9628  1.4556
 6617SOL     OW31483   1.735   0.883  13.097 -0.5639  0.1446 -0.1401
 6617SOL    HW131484   1.681   0.940  13.042 -1.7735 -0.6930  0.1821
 6617SOL    HW231485   1.790   0.856  13.024 -0.6148  0.0999 -0.1620
 6618SOL     OW31486   1.795   0.926  10.335  0.0035  0.0653  0.1581
 6618SOL    HW131487   1.748   0.935  10.417  0.5900 -0.8373  0.5925
 6618SOL    HW231488   1.871   0.878  10.368 -0.4647  0.3114  1.5868
 6619SOL     OW31489   0.524   3.885  17.040 -1.0729 -0.3499  0.3340
 6619SOL    HW131490   0.610   3.897  17.079 -0.6935  0.3513 -0.7349
 6619SOL    HW231491   0.485   3.825  17.105  1.2620 -1.7883  0.4143
 6620SOL     OW31492   3.808   1.848   8.869 -0.6528  0.2585 -0.0910
 6620SOL    HW131493   3.735   1.865   8.928  0.2007 -2.3421  1.7144
 6620SOL    HW231494   3.866   1.780   8.903 -1.1238 -0.0977 -0.0129
 6621SOL     OW31495   1.054   0.464  15.444 -0.1592 -0.6934  0.4557
 6621SOL    HW131496   1.099   0.428  15.367 -0.1120  0.7130 -0.1859
 6621SOL    HW231497   0.988   0.513  15.396  1.8174  0.6125 -0.9636
 6622SOL     OW31498   0.931   4.097   0.580  0.5113 -0.2566  0.6226
 6622SOL    HW131499   0.904   4.015   0.539 -0.6121  1.3487 -1.8607
 6622SOL    HW231500   0.912   4.158   0.508 -1.4877 -1.1465  0.3934
 6623SOL     OW31501   1.421   3.066  11.044 -0.5276 -0.1581  0.3511
 6623SOL    HW131502   1.429   2.971  11.045 -0.2245 -0.1258  1.2230
 6623SOL    HW231503   1.423   3.079  11.139 -0.9973 -0.3148  0.3823
 6624SOL     OW31504   1.734   3.268   1.619 -0.0672  0.3741 -0.1134
 6624SOL    HW131505   1.685   3.262   1.701  1.3490  2.2969  0.8573
 6624SOL    HW231506   1.810   3.219   1.650  1.1903  2.5406  0.1986
 6625SOL     OW31507   1.662   0.170  15.446 -0.1683  0.0850  0.7297
 6625SOL    HW131508   1.729   0.212  15.393 -1.1940  2.4256  1.3087
 6625SOL    HW231509   1.639   0.098  15.387  1.5216 -0.6585  0.9968
 6626SOL     OW31510   1.283   3.161   4.809 -0.1001  0.6077 -0.2239
 6626SOL    HW131511   1.337   3.103   4.862  1.1666  2.0770  0.0942
 6626SOL    HW231512   1.343   3.198   4.744  0.5792  0.0454  0.0817
 6627SOL     OW31513   1.597   1.492   9.724 -0.1890  0.0726  0.0001
 6627SOL    HW131514   1.640   1.418   9.768  0.6873  0.9662  0.6245
 6627SOL    HW231515   1.540   1.526   9.792  0.0247  1.0313 -0.3071
 6628SOL     OW31516   1.753   2.307   1.234 -0.4161  0.3165 -0.2380
 6628SOL    HW131517   1.742   2.339   1.145  0.7388  1.0221 -0.1230
 6628SOL    HW231518   1.846   2.287   1.245 -0.7412  0.1119  2.1647
 6629SOL     OW31519   3.223   1.554   4.835 -0.1343  0.3788 -0.3801
 6629SOL    HW131520   3.155   1.514   4.781  1.1766 -2.5578  0.1462
 6629SOL    HW231521   3.303   1.507   4.812 -2.4489 -2.8996 -1.6907
 6630SOL     OW31522   0.354   1.008  14.854 -0.5205  0.0212  0.1156
 6630SOL    HW131523   0.436   0.983  14.812  0.1030 -0.1633  1.4354
 6630SOL    HW231524   0.381   1.068  14.923 -1.1078 -1.1676  1.3799
 6631SOL     OW31525   1.320   3.360   6.928 -0.1092 -0.0945  0.4807
 6631SOL    HW131526   1.373   3.315   6.994  1.7169 -0.1508 -1.0325
 6631SOL    HW231527   1.298   3.445   6.965 -1.6029 -0.8874  1.4046
 6632SOL     OW31528   2.411   2.284  14.741  0.7673 -0.1130  0.4489
 6632SOL    HW131529   2.388   2.306  14.831 -1.2282  4.2618 -1.0979
 6632SOL    HW231530   2.486   2.340  14.722 -0.0489  0.1652 -1.9689
 6633SOL     OW31531   3.267   3.146   8.631 -0.1784 -0.2053 -0.4227
 6633SOL    HW131532   3.353   3.112   8.605  0.2401 -0.1976  0.9095
 6633SOL    HW231533   3.239   3.097   8.708  0.2143  0.0752 -0.0986
 6634SOL     OW31534   4.638   3.028   9.379 -0.4131 -0.0161 -0.1511
 6634SOL    HW131535   4.714   2.986   9.339  0.7486  0.3760  1.6417
 6634SOL    HW231536   4.651   3.120   9.357 -0.4596  0.2816  1.0229
 6635SOL     OW31537   3.644   4.394   4.876  0.1453 -0.0159 -0.7366
 6635SOL    HW131538   3.737   4.414   4.872  0.3880 -1.2102 -1.0446
 6635SOL    HW231539   3.656   4.300   4.888 -0.6111 -0.1547 -1.0733
 6636SOL     OW31540   4.607   2.021   7.188 -0.3382 -0.1320 -0.5400
 6636SOL    HW131541   4.631   1.929   7.178  1.5173  0.3477 -0.4993
 6636SOL    HW231542   4.531   2.021   7.246  0.6712  0.7554  0.7914
 6637SOL     OW31543   2.967   1.924   8.432 -0.0632  0.3496 -0.6596
 6637SOL    HW131544   2.958   1.837   8.393  0.4909 -0.1043  0.2300
 6637SOL    HW231545   2.880   1.964   8.423 -0.7582 -0.6583  1.6879
 6638SOL     OW31546   2.967   0.820   6.129  0.0466  0.5991  0.1398
 6638SOL    HW131547   2.993   0.843   6.218  0.5896 -0.9864  0.3871
 6638SOL    HW231548   3.034   0.866   6.078 -0.1770 -0.3595 -1.0319
 6639SOL     OW31549   3.715   0.770   2.457 -0.1594  0.1029 -0.0693
 6639SOL    HW131550   3.634   0.740   2.417 -1.1645 -0.2068  2.2200
 6639SOL    HW231551   3.712   0.866   2.452 -1.6194  0.1503  1.9625
 6640SOL     OW31552   1.743   0.570  10.796  0.0870 -0.0534 -0.3810
 6640SOL    HW131553   1.713   0.582  10.886  1.2459  0.7005 -0.0999
 6640SOL    HW231554   1.817   0.511  10.813  1.5476  1.8249 -0.3267
 6641SOL     OW31555   1.202   4.078   9.665 -0.0808  0.2366 -0.4673
 6641SOL    HW131556   1.124   4.050   9.617  0.4439 -0.3304 -0.9773
 6641SOL    HW231557   1.243   4.128   9.594  0.0470  1.9389  0.7903
 6642SOL     OW31558   4.526   1.217   3.795  0.1881  0.3029  0.4213
 6642SOL    HW131559   4.570   1.141   3.834 -0.9600 -0.3061  0.5410
 6642SOL    HW231560   4.556   1.286   3.854  0.2496  0.6913 -0.0624
 6643SOL     OW31561   0.115   2.122   7.160  0.2638 -0.2665 -0.1005
 6643SOL    HW131562   0.112   2.138   7.065  0.5933  3.6099  0.5538
 6643SOL    HW231563   0.027   2.092   7.182  0.8858 -2.0507 -0.0512
 6644SOL     OW31564   4.576   2.537   3.533 -0.3151 -0.3136  0.3899
 6644SOL    HW131565   4.659   2.585   3.529 -0.9021  0.5441 -1.3274
 6644SOL    HW231566   4.530   2.576   3.459  0.4378  1.0185  0.6194
 6645SOL     OW31567   3.278   1.385   8.280  0.1046 -0.2780  0.3834
 6645SOL    HW131568   3.218   1.453   8.249  1.1201 -0.2835 -1.5834
 6645SOL    HW231569   3.235   1.350   8.358  1.2512  0.1686  1.2256
 6646SOL     OW31570   1.168   0.316  12.504 -0.1388  0.0372 -0.0844
 6646SOL    HW131571   1.155   0.236  12.555 -0.4920  0.0963 -0.0855
 6646SOL    HW231572   1.121   0.292  12.424 -0.8648  0.4830  0.2107
 6647SOL     OW31573   3.568   2.801   1.425  0.2450 -0.5906 -0.6544
 6647SOL    HW131574   3.565   2.712   1.391 -0.5762 -1.0719  0.6724
 6647SOL    HW231575   3.653   2.790   1.467 -0.5433 -0.3236  1.0364
 6648SOL     OW31576   0.275   3.640  10.739  0.1566  0.8332 -0.2629
 6648SOL    HW131577   0.192   3.592  10.738 -0.2941  1.5992 -0.2224
 6648SOL    HW231578   0.333   3.576  10.699  1.5975  1.5084  0.7771
 6649SOL     OW31579   2.394   3.080   9.595 -0.3039 -0.3238  0.0043
 6649SOL    HW131580   2.477   3.098   9.550  0.3002 -0.8886  0.9028
 6649SOL    HW231581   2.371   2.993   9.563  1.0395  0.0785 -2.0356
 6650SOL     OW31582   2.495   3.541   5.470 -0.1078 -0.0705  0.4042
 6650SOL    HW131583   2.521   3.566   5.559  0.8940  0.1078  0.0617
 6650SOL    HW231584   2.401   3.550   5.485 -0.2345  2.6360 -1.8005
 6651SOL     OW31585   3.972   1.287   3.162  0.0608  0.2767 -0.5403
 6651SOL    HW131586   3.963   1.280   3.257  0.6389  0.0738 -0.4957
 6651SOL    HW231587   4.001   1.378   3.154  0.0696  0.2112 -1.2530
 6652SOL     OW31588   1.851   2.809   7.993  0.3673 -0.3972 -0.1038
 6652SOL    HW131589   1.828   2.768   7.910 -0.7512  0.1619 -0.0703
 6652SOL    HW231590   1.864   2.897   7.957 -1.4282 -0.5689 -1.1700
 6653SOL     OW31591   3.896   1.832  16.682  0.3309 -0.3400 -0.4934
 6653SOL    HW131592   3.969   1.852  16.625  1.1329  1.4773  1.1358
 6653SOL    HW231593   3.834   1.899  16.652 -0.2679 -1.0370 -0.8215
 6654SOL     OW31594   2.146   3.197   6.343  0.4897  0.3927  0.0261
 6654SOL    HW131595   2.077   3.178   6.406  0.1964  1.0410 -0.1036
 6654SOL    HW231596   2.103   3.175   6.260  0.6772 -1.9011  0.5168
 6655SOL     OW31597   1.532   2.586   3.669  0.2314  0.2645  0.0736
 6655SOL    HW131598   1.527   2.527   3.594 -0.6333 -0.6776  0.8871
 6655SOL    HW231599   1.441   2.604   3.694 -0.0293 -1.3128  0.2539
 6656SOL     OW31600   3.894   1.534  14.885 -0.0598 -0.1495  0.2728
 6656SOL    HW131601   3.836   1.503  14.816  1.3328 -0.7659 -0.6378
 6656SOL    HW231602   3.895   1.625  14.857  1.6803  0.1417  1.2545
 6657SOL     OW31603   1.107   4.295   0.389 -0.6688  0.2332  0.1447
 6657SOL    HW131604   1.022   4.273   0.351 -1.9958  2.9774  1.4722
 6657SOL    HW231605   1.084   4.387   0.406  0.2331  0.0995  2.1393
 6658SOL     OW31606   3.247   0.049   6.018  0.3521 -0.1786  0.3731
 6658SOL    HW131607   3.262   0.120   6.080  1.2003 -0.0436  0.0014
 6658SOL    HW231608   3.200   0.093   5.947  0.9331 -0.3608 -0.1252
 6659SOL     OW31609   4.363   3.789   6.248  0.0656 -0.0078  0.3085
 6659SOL    HW131610   4.437   3.847   6.234 -0.4489 -0.2890 -3.5527
 6659SOL    HW231611   4.308   3.843   6.304 -1.2311 -0.6081 -0.3712
 6660SOL     OW31612   0.893   4.119  15.884 -0.0017  0.7392 -0.1165
 6660SOL    HW131613   0.936   4.159  15.959  2.5920 -0.1841 -1.1207
 6660SOL    HW231614   0.917   4.027  15.896 -3.2324  0.0016  0.7151
 6661SOL     OW31615   1.128   1.342  10.453 -0.2126  0.4843 -0.4900
 6661SOL    HW131616   1.219   1.368  10.466 -0.5183  0.8270  0.9496
 6661SOL    HW231617   1.074   1.413  10.488  1.3608  1.9066 -0.9663
 6662SOL     OW31618   3.875   2.941   7.374  0.3460 -0.2071  0.0321
 6662SOL    HW131619   3.958   2.978   7.343  0.2633 -0.1037 -0.0677
 6662SOL    HW231620   3.821   3.013   7.342  0.4118  0.2970  1.0741
 6663SOL     OW31621   1.804   4.056   4.456  0.7193 -0.5202 -0.4381
 6663SOL    HW131622   1.772   4.124   4.516  0.5069  0.5033 -1.7009
 6663SOL    HW231623   1.751   3.981   4.483 -1.3782  1.7085  1.6301
 6664SOL     OW31624   2.692   1.738   7.381  0.0308  0.3189  0.0247
 6664SOL    HW131625   2.608   1.778   7.405  0.6896  1.4662  0.4295
 6664SOL    HW231626   2.689   1.735   7.286  1.2438 -2.8304  0.0690
 6665SOL     OW31627   2.360   0.540  15.414  0.0934 -0.2258  0.2489
 6665SOL    HW131628   2.425   0.601  15.450 -0.1449 -0.0705  0.4243
 6665SOL    HW231629   2.300   0.536  15.489  1.3956 -0.4566  1.2741
 6666SOL     OW31630   3.895   1.213   4.318  0.0516 -0.2276  0.4410
 6666SOL    HW131631   3.923   1.197   4.228 -1.7768 -1.3908  0.0587
 6666SOL    HW231632   3.908   1.129   4.363 -0.0443  0.2893  1.4393
 6667SOL     OW31633   1.434   1.331   7.280 -0.4181 -0.2356  0.1815
 6667SOL    HW131634   1.457   1.400   7.218  1.2856  0.2840  1.3901
 6667SOL    HW231635   1.383   1.374   7.349  1.9603  2.3397  0.3425
 6668SOL     OW31636   3.093   1.638   5.078 -0.0394 -0.0790 -0.3114
 6668SOL    HW131637   3.151   1.618   5.151 -0.9985  0.8954  0.7232
 6668SOL    HW231638   3.156   1.637   5.006  0.7206  0.8325  0.3443
 6669SOL     OW31639   3.017   3.468   4.336  0.4474 -0.0834  0.2425
 6669SOL    HW131640   3.098   3.448   4.383 -0.8537 -1.5325  1.8683
 6669SOL    HW231641   3.048   3.515   4.259 -0.2731 -0.0211 -0.0151
 6670SOL     OW31642   0.443   2.379   8.818  0.6011 -0.1352  0.3895
 6670SOL    HW131643   0.494   2.372   8.737  0.1301  3.3082 -0.2430
 6670SOL    HW231644   0.400   2.463   8.802  0.2009 -0.2685  0.7767
 6671SOL     OW31645   0.861   3.441   6.023  0.1976 -0.1670 -0.2889
 6671SOL    HW131646   0.931   3.431   5.958  0.3010 -0.8327 -0.0696
 6671SOL    HW231647   0.879   3.527   6.061  2.4807 -0.1035 -1.4686
 6672SOL     OW31648   0.362   2.494   8.155  0.2592 -0.0618 -0.0840
 6672SOL    HW131649   0.458   2.492   8.151  0.4184  1.4884  2.4711
 6672SOL    HW231650   0.338   2.581   8.123  1.0181  0.2763  0.2531
 6673SOL     OW31651   0.917   4.487   4.718  0.1806 -0.4071  0.4198
 6673SOL    HW131652   0.966   4.518   4.793  1.1834 -0.6347 -0.1393
 6673SOL    HW231653   0.831   4.494   4.758 -0.8203 -0.5619 -1.7019
 6674SOL     OW31654   1.475   1.160  10.192  0.0310  0.0906  0.1728
 6674SOL    HW131655   1.415   1.096  10.153  2.6840 -2.2502 -0.0419
 6674SOL    HW231656   1.533   1.174  10.118  1.7274  0.9603  1.6726
 6675SOL     OW31657   3.807   3.843   9.141 -0.0629 -0.1288 -0.0719
 6675SOL    HW131658   3.772   3.925   9.177  0.9461  1.9384 -3.6809
 6675SOL    HW231659   3.763   3.770   9.183 -0.2676 -1.3226 -2.3275
 6676SOL     OW31660   0.359   0.798  12.504 -0.9689 -0.4935 -0.2994
 6676SOL    HW131661   0.280   0.759  12.542 -1.0885 -0.8047 -0.8737
 6676SOL    HW231662   0.428   0.781  12.568  0.1785  0.4694 -1.2810
 6677SOL     OW31663   3.145   4.604  12.800  0.0589 -0.7342  0.4991
 6677SOL    HW131664   3.104   4.600  12.714 -2.2229 -0.9609  1.6050
 6677SOL    HW231665   3.149   4.512  12.823  0.8586 -0.5273  1.1843
 6678SOL     OW31666   1.007   0.197   8.689 -0.1116 -0.7806  0.4378
 6678SOL    HW131667   0.977   0.145   8.615 -0.5992  2.4764 -1.6522
 6678SOL    HW231668   0.939   0.264   8.683  2.7387  2.0192 -0.7004
 6679SOL     OW31669   3.830   4.164   4.269  0.4856 -0.2320  0.3528
 6679SOL    HW131670   3.735   4.171   4.280  0.2932 -2.7499  0.2935
 6679SOL    HW231671   3.856   4.250   4.304  1.6971 -0.1060 -0.8702
 6680SOL     OW31672   0.709   2.538   8.944 -0.3182 -0.3810 -0.5213
 6680SOL    HW131673   0.621   2.554   8.977  0.7511  1.3845  1.4963
 6680SOL    HW231674   0.749   2.480   9.009  0.4808 -0.6059 -1.2025
 6681SOL     OW31675   2.273   3.509  10.576 -0.0019 -0.5854  0.2066
 6681SOL    HW131676   2.337   3.497  10.646  0.8248 -0.9632 -0.6080
 6681SOL    HW231677   2.209   3.441  10.597 -2.1179  1.5317  0.6257
 6682SOL     OW31678   3.721   2.868   7.831  0.1261 -0.2042  0.0483
 6682SOL    HW131679   3.671   2.924   7.890 -2.9046  1.2333 -3.9290
 6682SOL    HW231680   3.689   2.898   7.746 -0.2547  1.9201  0.9555
 6683SOL     OW31681   3.734   3.030  17.729  0.5895  0.5365 -0.0447
 6683SOL    HW131682   3.788   3.085  17.672 -0.8534 -0.8706 -2.8184
 6683SOL    HW231683   3.724   3.083   0.068  0.8676  0.2414  0.1809
 6684SOL     OW31684   1.950   0.207   0.188 -0.4608 -0.0597 -0.2294
 6684SOL    HW131685   1.987   0.160   0.262 -0.5516 -1.4814 -1.0900
 6684SOL    HW231686   1.949   0.136   0.124  0.7616 -2.5005  2.4510
 6685SOL     OW31687   2.965   3.321  17.370 -0.3265 -0.2002  0.0930
 6685SOL    HW131688   3.002   3.336  17.456 -1.6868  1.9277  0.2951
 6685SOL    HW231689   2.940   3.411  17.351  4.6678  1.4020  1.2001
 6686SOL     OW31690   1.685   2.106   6.055 -0.4406  0.1244  0.4458
 6686SOL    HW131691   1.612   2.090   5.995  0.2768  1.1192 -0.6977
 6686SOL    HW231692   1.656   2.184   6.102 -4.2777 -1.4403  0.6803
 6687SOL     OW31693   0.962   2.176  12.727  0.7110  0.6007  0.0782
 6687SOL    HW131694   0.880   2.155  12.773  0.1238  0.2191 -1.1380
 6687SOL    HW231695   0.936   2.142  12.641 -0.5399 -0.1993  0.7641
 6688SOL     OW31696   0.995   0.367   4.002 -0.7243 -0.2393 -1.0223
 6688SOL    HW131697   1.018   0.281   4.038 -0.5684 -0.2365 -1.1176
 6688SOL    HW231698   1.073   0.410   4.036 -0.9326 -0.3424 -0.4030
 6689SOL     OW31699   3.408   1.662  16.223  0.3712 -0.1091 -0.0599
 6689SOL    HW131700   3.355   1.598  16.176  0.5402  0.3614 -0.8927
 6689SOL    HW231701   3.376   1.652  16.312  1.3296 -0.0096  0.3015
 6690SOL     OW31702   2.054   0.104   8.763  0.0677  0.3230 -0.8321
 6690SOL    HW131703   2.118   0.074   8.698  0.9392  1.4495 -0.4782
 6690SOL    HW231704   2.042   0.025   8.816 -2.0420  0.0937 -1.6227
 6691SOL     OW31705   3.597   1.288   9.298 -0.3072 -0.3225  0.1832
 6691SOL    HW131706   3.526   1.225   9.284  1.3095 -2.2101  0.3111
 6691SOL    HW231707   3.627   1.261   9.385  1.2459  0.4646 -0.1158
 6692SOL     OW31708   0.839   3.434   3.327  0.6248 -0.4728  0.2497
 6692SOL    HW131709   0.747   3.446   3.302  0.7551 -1.1964 -0.5583
 6692SOL    HW231710   0.825   3.344   3.356  0.5401  0.1395  2.1186
 6693SOL     OW31711   4.063   1.647   0.327 -0.2715  0.0662 -0.6815
 6693SOL    HW131712   4.043   1.733   0.289  2.6638  0.6608 -0.9080
 6693SOL    HW231713   4.116   1.617   0.253  1.4499 -0.7526  0.9060
 6694SOL     OW31714   3.260   3.262   3.229  0.1161 -0.2170 -0.3181
 6694SOL    HW131715   3.257   3.170   3.255 -0.5181 -0.6427 -1.9677
 6694SOL    HW231716   3.196   3.250   3.159 -1.8726 -3.5692  2.1022
 6695SOL     OW31717   3.654   3.608   8.370 -0.0894 -0.3690 -0.0501
 6695SOL    HW131718   3.601   3.683   8.395  0.4020  0.4425 -1.4289
 6695SOL    HW231719   3.650   3.554   8.448 -2.6365  0.1596  0.1545
 6696SOL     OW31720   0.765   2.972   3.485 -0.2713 -0.6783 -0.0754
 6696SOL    HW131721   0.759   2.894   3.541 -3.5421 -0.0081  0.4807
 6696SOL    HW231722   0.685   3.003   3.528 -1.7290 -1.2310 -2.3680
 6697SOL     OW31723   1.442   4.370   0.596  0.4300 -0.0405  0.3258
 6697SOL    HW131724   1.395   4.320   0.662  3.5522 -0.9718  1.8617
 6697SOL    HW231725   1.381   4.441   0.575 -0.0700 -0.2349  1.1381
 6698SOL     OW31726   0.155   3.968  12.373  0.0039  0.1423  0.0086
 6698SOL    HW131727   0.246   3.940  12.365 -0.6980 -1.9046 -0.7320
 6698SOL    HW231728   0.148   4.052  12.419 -0.0737  1.0492 -1.6422
 6699SOL     OW31729   2.738   0.647   6.097 -0.5538  0.6675 -0.3032
 6699SOL    HW131730   2.731   0.652   6.193  1.9196  1.9638 -0.1814
 6699SOL    HW231731   2.810   0.707   6.078 -3.0371  4.3591  1.8870
 6700SOL     OW31732   0.907   3.013   7.734 -0.1601 -0.0193 -0.4299
 6700SOL    HW131733   0.893   2.920   7.716 -0.2786 -0.3930  1.5867
 6700SOL    HW231734   0.817   3.044   7.730 -0.1104  0.2595  0.6257
 6701SOL     OW31735   2.406   2.338  11.201  0.3098  0.6329 -0.5976
 6701SOL    HW131736   2.379   2.361  11.290  0.6707  1.5914 -0.7397
 6701SOL    HW231737   2.476   2.396  11.173 -1.2852  1.8433 -2.1268
 6702SOL     OW31738   4.183   3.814   0.834 -0.1110 -0.5486  0.0320
 6702SOL    HW131739   4.237   3.852   0.904  0.5950  1.1854 -1.4550
 6702SOL    HW231740   4.148   3.734   0.873 -1.0402 -0.9543 -1.6758
 6703SOL     OW31741   4.120   2.928   8.877  0.0245 -0.3490 -0.5757
 6703SOL    HW131742   4.183   2.958   8.941 -1.0098 -0.9356  0.7318
 6703SOL    HW231743   4.140   2.834   8.871 -0.0081 -0.5693  2.5019
 6704SOL     OW31744   1.376   3.749   8.930  0.4149  0.5942  0.0926
 6704SOL    HW131745   1.403   3.817   8.992  0.9121 -0.4361  1.0215
 6704SOL    HW231746   1.457   3.698   8.921  0.1630  0.2269 -0.1177
 6705SOL     OW31747   3.017   0.093   4.418 -0.6881  0.2572 -0.1758
 6705SOL    HW131748   3.089   0.083   4.481  0.7203  1.0070 -1.6550
 6705SOL    HW231749   2.944   0.078   4.478 -2.0148 -1.9596 -2.3532
 6706SOL     OW31750   3.351   2.622   0.022 -0.4634  0.0258  0.4995
 6706SOL    HW131751   3.349   2.703   0.073  0.5829  1.5334 -1.8830
 6706SOL    HW231752   3.274   2.633  17.705  0.5761  1.9290 -0.5119
 6707SOL     OW31753   1.152   4.632  10.401 -0.8979  0.1028 -0.1236
 6707SOL    HW131754   1.108   4.716  10.391 -2.0778 -0.4215  0.7568
 6707SOL    HW231755   1.217   4.657  10.467  1.3045 -1.5390 -1.6482
 6708SOL     OW31756   1.817   3.798   5.981 -0.1681  0.1996 -0.2172
 6708SOL    HW131757   1.813   3.886   5.942 -2.9487  0.0543 -0.2467
 6708SOL    HW231758   1.857   3.743   5.914  1.6555  0.3007  0.7766
 6709SOL     OW31759   3.030   2.589   4.943 -0.1860 -0.0967  0.5376
 6709SOL    HW131760   2.987   2.663   4.900 -1.2167  0.3591  2.3573
 6709SOL    HW231761   3.055   2.634   5.024  1.4567 -2.0886  1.1446
 6710SOL     OW31762   2.957   2.456   1.338  0.0722  0.3294 -0.3340
 6710SOL    HW131763   2.985   2.397   1.268 -0.1035 -1.2749  0.9583
 6710SOL    HW231764   2.968   2.545   1.304 -2.3436  0.4069 -0.9202
 6711SOL     OW31765   4.265   2.816   3.963  0.1614  0.2227  1.0334
 6711SOL    HW131766   4.282   2.908   3.942  2.2072 -0.7480 -1.6195
 6711SOL    HW231767   4.311   2.777   3.888  1.3753  0.4015  1.6881
 6712SOL     OW31768   4.523   0.383  15.919 -0.0128 -0.4600  0.1624
 6712SOL    HW131769   4.509   0.288  15.909  1.1383 -0.5567 -0.4160
 6712SOL    HW231770   4.442   0.421  15.954 -0.6993 -3.1285  1.5297
 6713SOL     OW31771   3.417   0.650   2.617 -0.6632  0.0399 -0.2498
 6713SOL    HW131772   3.407   0.716   2.686  2.7343  1.3030 -0.9584
 6713SOL    HW231773   3.457   0.578   2.666 -0.1129 -0.9777 -2.2072
 6714SOL     OW31774   4.508   2.575   3.055  0.2986  0.1890  0.3604
 6714SOL    HW131775   4.586   2.539   3.096 -0.2725 -2.5022 -0.9453
 6714SOL    HW231776   4.545   2.568   2.967 -0.4675 -0.0122  0.0475
 6715SOL     OW31777   2.474   3.590   5.734  0.1437 -0.1858 -0.0790
 6715SOL    HW131778   2.478   3.512   5.790 -2.0866 -1.7889 -2.1505
 6715SOL    HW231779   2.441   3.652   5.798 -2.4205 -0.9501 -0.6736
 6716SOL     OW31780   3.076   2.243  12.829  0.3173 -0.4501 -0.4771
 6716SOL    HW131781   3.041   2.220  12.915  1.0352  0.1931 -0.0166
 6716SOL    HW231782   2.999   2.229  12.773  0.5276  0.5278 -0.9991
 6717SOL     OW31783   3.902   3.697   6.362 -0.7212 -0.6068  0.3522
 6717SOL    HW131784   3.962   3.757   6.317 -0.9777 -0.5740  0.0572
 6717SOL    HW231785   3.873   3.759   6.429 -0.5359  1.0120 -1.0866
 6718SOL     OW31786   4.572   1.693   3.935  0.3507 -0.1258 -0.1962
 6718SOL    HW131787   4.513   1.621   3.915 -1.3318  1.1662  0.0865
 6718SOL    HW231788   4.584   1.741   3.852  0.8640  0.0209 -0.0411
 6719SOL     OW31789   1.589   4.038   5.797  0.0337 -0.4582  0.0391
 6719SOL    HW131790   1.536   4.018   5.719 -0.8741  0.9558  0.2887
 6719SOL    HW231791   1.678   4.052   5.763 -0.1260  0.3374 -0.0690
 6720SOL     OW31792   0.283   2.467   2.810  0.4088 -0.3447  0.2905
 6720SOL    HW131793   0.320   2.403   2.750 -2.0709 -0.2953 -1.3201
 6720SOL    HW231794   0.304   2.541   2.754  0.2364 -1.9840 -1.9275
 6721SOL     OW31795   2.852   4.680  15.623  0.6968 -1.1049 -0.2520
 6721SOL    HW131796   2.841   4.606  15.683  0.4434 -1.8545 -1.2167
 6721SOL    HW231797   2.843   4.637  15.538  1.2852 -0.9144 -0.4120
 6722SOL     OW31798   0.906   2.320   2.874 -0.3374  0.0169  0.1120
 6722SOL    HW131799   0.857   2.347   2.797  0.6401 -0.0499 -0.5315
 6722SOL    HW231800   0.987   2.368   2.855 -1.9838  2.7601 -0.0381
 6723SOL     OW31801   2.349   2.783   3.243 -0.1473 -0.0648 -0.5636
 6723SOL    HW131802   2.357   2.863   3.295  0.5935 -1.2540  1.1557
 6723SOL    HW231803   2.428   2.742   3.278 -0.6604 -0.3389  0.2801
 6724SOL     OW31804   2.520   4.286  15.757 -0.3681 -0.0538 -0.4393
 6724SOL    HW131805   2.524   4.375  15.722  2.5458 -0.2757 -0.6086
 6724SOL    HW231806   2.540   4.311  15.847 -1.5514  1.4273 -0.5827
 6725SOL     OW31807   1.873   3.212   7.604 -0.6271  0.1397  0.3846
 6725SOL    HW131808   1.780   3.222   7.622 -0.3553  2.6426  0.3411
 6725SOL    HW231809   1.913   3.268   7.670 -0.3101  1.7177 -1.1528
 6726SOL     OW31810   4.610   3.095  11.584  0.0991 -0.0402 -0.5867
 6726SOL    HW131811   4.559   3.176  11.572  1.7081  1.2331  1.3393
 6726SOL    HW231812   4.554   3.054  11.650 -0.2601 -0.8800 -1.3959
 6727SOL     OW31813   4.230   4.489   7.115  0.1822 -0.3055 -0.6165
 6727SOL    HW131814   4.138   4.491   7.087 -0.3638 -0.1508  1.2256
 6727SOL    HW231815   4.221   4.521   7.204 -2.0719  3.6229 -2.2386
 6728SOL     OW31816   1.976   4.317   4.898 -0.3694  0.0856  0.1620
 6728SOL    HW131817   1.927   4.398   4.883  1.1635  0.6746 -1.6099
 6728SOL    HW231818   1.915   4.258   4.942  0.6381  0.3775  1.9527
 6729SOL     OW31819   1.283   0.716   4.209  0.8244  0.4584 -0.0869
 6729SOL    HW131820   1.287   0.737   4.303 -0.5021  0.0204  0.0688
 6729SOL    HW231821   1.376   0.725   4.187  0.6483  0.1970 -0.8930
 6730SOL     OW31822   0.983   1.689  16.224  0.6653 -0.2538  0.5982
 6730SOL    HW131823   1.037   1.617  16.192 -1.8282 -0.2494 -3.5879
 6730SOL    HW231824   1.024   1.763  16.180  1.9438 -1.3536 -0.0688
 6731SOL     OW31825   3.279   3.187   0.417 -0.6444 -0.1236  0.2127
 6731SOL    HW131826   3.337   3.227   0.482  0.9192  0.4797 -1.5506
 6731SOL    HW231827   3.255   3.105   0.462  1.4768  0.5062  2.5009
 6732SOL     OW31828   2.172   3.406  10.304 -0.3949  1.0040  0.0412
 6732SOL    HW131829   2.196   3.424  10.395 -0.6689  1.3504  0.0459
 6732SOL    HW231830   2.143   3.316  10.318 -0.0842  0.3835 -3.2798
 6733SOL     OW31831   0.675   0.335   9.806  0.0020  0.7910 -0.2478
 6733SOL    HW131832   0.601   0.395   9.800  0.4491  1.5942  2.3785
 6733SOL    HW231833   0.733   0.381   9.745  0.8985 -1.5206 -1.1546
 6734SOL     OW31834   1.776   3.889  10.801 -0.5264 -0.0379 -0.3596
 6734SOL    HW131835   1.759   3.839  10.722  1.0302 -2.4492  0.8302
 6734SOL    HW231836   1.870   3.908  10.801 -0.1362 -1.9497  2.2602
 6735SOL     OW31837   4.707   3.579   8.935  0.7048 -0.1052  0.3475
 6735SOL    HW131838   4.693   3.584   8.841  1.0301 -0.7488  0.2623
 6735SOL    HW231839   0.065   3.598   8.936  0.8238 -0.6522 -0.3293
 6736SOL     OW31840   4.444   0.275   2.669 -0.0510  1.0164 -0.1975
 6736SOL    HW131841   4.451   0.351   2.727  1.3572 -0.4435  1.5585
 6736SOL    HW231842   4.383   0.225   2.722 -0.6927  0.8106 -1.1363
 6737SOL     OW31843   0.829   1.734   9.513  0.4130  0.4448 -0.3734
 6737SOL    HW131844   0.836   1.748   9.608  2.1095 -0.7834 -0.3139
 6737SOL    HW231845   0.841   1.823   9.478 -0.9972  1.1983  1.0526
 6738SOL     OW31846   2.949   0.957   3.173 -0.5044 -0.0951  0.2058
 6738SOL    HW131847   2.948   0.862   3.187  0.9576 -0.0522  0.5635
 6738SOL    HW231848   2.918   0.989   3.257  0.1030 -1.2077  0.8468
 6739SOL     OW31849   2.722   0.524   9.093  0.0929  0.4213 -0.0134
 6739SOL    HW131850   2.766   0.541   9.010  1.3161 -2.6885 -0.0226
 6739SOL    HW231851   2.635   0.505   9.058 -0.9650  0.8832  2.3890
 6740SOL     OW31852   0.981   2.583  15.274 -0.1620 -0.1219  0.2176
 6740SOL    HW131853   0.983   2.533  15.356  1.5232 -0.1257  0.1744
 6740SOL    HW231854   0.987   2.511  15.211 -0.3785  1.2583 -1.3688
 6741SOL     OW31855   3.976   2.286   8.274  0.1173  0.1019  0.3549
 6741SOL    HW131856   3.957   2.366   8.225  0.8639  0.2612  0.3380
 6741SOL    HW231857   3.999   2.231   8.198 -0.7939 -0.6525  0.6232
 6742SOL     OW31858   1.391   1.568   7.125  0.5985  0.5425  0.1937
 6742SOL    HW131859   1.298   1.588   7.114  0.5560  0.2627  0.0408
 6742SOL    HW231860   1.409   1.563   7.031 -0.2736 -0.8249  0.0915
 6743SOL     OW31861   4.162   1.802   9.247 -0.5235  0.2962  0.0389
 6743SOL    HW131862   4.108   1.723   9.243 -0.4835  0.2370  0.6348
 6743SOL    HW231863   4.093   1.869   9.242 -2.2865 -1.5500 -0.3998
 6744SOL     OW31864   0.334   2.139   5.999 -0.4067  0.4917 -0.3219
 6744SOL    HW131865   0.332   2.047   6.028 -0.4669  0.8920  0.9394
 6744SOL    HW231866   0.271   2.148   5.928 -0.3239  0.6608 -0.3736
 6745SOL     OW31867   4.443   2.967   4.213 -0.2125 -0.3141  0.0506
 6745SOL    HW131868   4.523   3.011   4.244  0.6253 -0.3764 -2.0207
 6745SOL    HW231869   4.485   2.881   4.216  0.2413 -0.0938  0.0121
 6746SOL     OW31870   1.702   4.306  11.787  0.1946  0.9355 -0.5989
 6746SOL    HW131871   1.793   4.309  11.815  0.5547  2.5514 -1.9788
 6746SOL    HW231872   1.709   4.283  11.695 -2.0662 -1.4847 -0.1782
 6747SOL     OW31873   2.049   3.033   4.402 -0.3995 -0.1655 -0.0350
 6747SOL    HW131874   2.031   3.057   4.493 -1.3414 -1.3139  0.0799
 6747SOL    HW231875   2.144   3.023   4.402 -0.1791  1.9506  0.4516
 6748SOL     OW31876   1.041   0.345   6.488 -0.3026  0.0683  0.6849
 6748SOL    HW131877   1.125   0.358   6.531 -0.0994 -0.6270  0.4890
 6748SOL    HW231878   1.020   0.253   6.504  0.9362 -0.6538 -1.9468
 6749SOL     OW31879   1.291   2.615   7.185  0.3637  0.0538 -0.2364
 6749SOL    HW131880   1.319   2.701   7.153  2.4774  0.0540  1.6173
 6749SOL    HW231881   1.340   2.560   7.124  0.3831  0.1119 -0.2736
 6750SOL     OW31882   2.655   3.930  12.230  0.3863  0.1590 -0.7096
 6750SOL    HW131883   2.708   4.000  12.192  0.7383 -0.8042 -2.0103
 6750SOL    HW231884   2.566   3.938  12.193  0.4980  2.8530 -0.4212
 6751SOL     OW31885   2.118   3.695   7.178  0.1617  0.2520  0.7318
 6751SOL    HW131886   2.106   3.712   7.271  1.2692  0.7622  0.7760
 6751SOL    HW231887   2.212   3.679   7.183  0.3159  0.5345 -1.2274
 6752SOL     OW31888   4.502   1.833   5.566 -0.4633  0.3890 -0.0876
 6752SOL    HW131889   4.420   1.854   5.522 -0.8937  0.3212  0.6775
 6752SOL    HW231890   4.545   1.917   5.551  1.6616 -1.0895 -2.2974
 6753SOL     OW31891   2.944   1.749   7.474 -0.0483 -0.1206  0.1314
 6753SOL    HW131892   2.977   1.660   7.457 -1.0447 -0.5255  0.3021
 6753SOL    HW231893   2.854   1.744   7.443 -0.3236 -2.2724  1.2243
 6754SOL     OW31894   1.089   3.553  10.046  0.3932 -0.1044 -0.5703
 6754SOL    HW131895   1.037   3.504  10.109  1.0038  0.1318  0.1243
 6754SOL    HW231896   1.150   3.604  10.100  0.2470 -0.5881  0.0483
 6755SOL     OW31897   3.213   4.481   4.540 -0.5902 -0.0075 -0.7913
 6755SOL    HW131898   3.184   4.570   4.559  1.0408  0.8500 -2.3118
 6755SOL    HW231899   3.183   4.435   4.618 -3.8989  1.3538 -1.2612
 6756SOL     OW31900   1.837   1.754   2.331 -0.5657 -0.7967  0.1287
 6756SOL    HW131901   1.824   1.829   2.272 -0.8639 -2.5273 -1.9863
 6756SOL    HW231902   1.836   1.807   2.410 -0.7429 -1.1286  0.3460
 6757SOL     OW31903   3.426   4.658  15.098  0.0278  0.3579 -0.0647
 6757SOL    HW131904   3.375   4.691  15.172  1.3356 -0.4853  1.2087
 6757SOL    HW231905   3.432   0.005  15.050 -0.6771 -0.0726 -0.8724
 6758SOL     OW31906   0.486   4.568   6.915  0.2794 -0.3847  0.8709
 6758SOL    HW131907   0.570   4.527   6.936  1.0103  0.2482 -0.7631
 6758SOL    HW231908   0.425   4.498   6.940 -0.5613 -0.7817 -2.2809
 6759SOL     OW31909   2.519   1.455  10.784  0.5691  0.0441 -0.4240
 6759SOL    HW131910   2.574   1.527  10.815  0.6644  0.5486 -1.7375
 6759SOL    HW231911   2.517   1.462  10.688  2.8234  0.4990 -0.4341
 6760SOL     OW31912   3.152   1.572   0.669  0.7082  0.2470 -0.2768
 6760SOL    HW131913   3.247   1.561   0.670  0.5006 -1.7247 -0.8842
 6760SOL    HW231914   3.131   1.568   0.575  0.3035  1.2935 -0.2285
 6761SOL     OW31915   3.568   2.691   8.624 -0.3309  0.9238 -0.0778
 6761SOL    HW131916   3.524   2.686   8.538 -1.4772  0.2369  0.5471
 6761SOL    HW231917   3.577   2.597   8.639  0.9463  1.3136  1.4817
 6762SOL     OW31918   2.383   2.103  13.210 -0.3404 -0.2672 -0.0602
 6762SOL    HW131919   2.326   2.026  13.203  0.1305 -0.5890 -0.3611
 6762SOL    HW231920   2.356   2.115  13.301  0.7574  3.8569 -0.2686
 6763SOL     OW31921   2.505   2.909   6.480 -1.0196 -0.9034 -0.5151
 6763SOL    HW131922   2.544   2.987   6.521 -3.0338 -0.4419  0.5392
 6763SOL    HW231923   2.569   2.846   6.513  0.1136  0.7171  0.4048
 6764SOL     OW31924   3.329   4.463   6.421  0.8986 -0.9573 -0.3459
 6764SOL    HW131925   3.267   4.396   6.394 -0.4542 -0.0375  0.5032
 6764SOL    HW231926   3.382   4.476   6.342 -2.3404  0.5792 -2.2353
 6765SOL     OW31927   2.603   2.416   4.436 -0.7530 -0.2005 -0.3378
 6765SOL    HW131928   2.625   2.325   4.454  0.0604  0.3560  1.4229
 6765SOL    HW231929   2.652   2.470   4.498 -1.7833  1.1128 -0.6566
 6766SOL     OW31930   1.551   0.522   6.633 -0.2724 -0.0564  0.5581
 6766SOL    HW131931   1.629   0.483   6.671  0.3161 -0.6551 -1.2354
 6766SOL    HW231932   1.485   0.489   6.694 -1.4251  2.2547  0.5816
 6767SOL     OW31933   4.700   0.449   9.790 -0.5004  0.3020  0.2974
 6767SOL    HW131934   4.624   0.467   9.845 -0.0790  1.2537  0.5645
 6767SOL    HW231935   0.026   0.503   9.842  2.0542 -1.6201 -0.7086
 6768SOL     OW31936   2.702   3.581  15.601  0.2669  0.3493  0.0986
 6768SOL    HW131937   2.652   3.628  15.534 -2.1154 -1.8236  0.3366
 6768SOL    HW231938   2.789   3.606  15.571  1.4335 -3.0900  0.6498
 6769SOL     OW31939   0.636   1.678   6.826  0.4459  0.0858 -0.3589
 6769SOL    HW131940   0.584   1.738   6.880  0.1887 -1.1543  0.7830
 6769SOL    HW231941   0.711   1.654   6.880  0.3934 -0.9800 -0.7474
 6770SOL     OW31942   0.182   3.235   8.245  0.2340  0.4026  0.3386
 6770SOL    HW131943   0.089   3.248   8.226  0.6060  2.3857 -0.2212
 6770SOL    HW231944   0.214   3.195   8.164 -1.5788 -1.4532  0.5364
 6771SOL     OW31945   3.177   1.055  16.105  0.3041 -0.0808  0.3753
 6771SOL    HW131946   3.088   1.032  16.131  0.4895 -0.5588  0.5968
 6771SOL    HW231947   3.188   1.130  16.163  2.0168  0.3907 -0.5536
 6772SOL     OW31948   1.735   4.533   2.292  0.3855  0.4726 -0.1436
 6772SOL    HW131949   1.677   4.461   2.267  0.9728 -0.4324  1.1137
 6772SOL    HW231950   1.683   4.574   2.361 -0.8973 -1.6590  0.1649
 6773SOL     OW31951   0.522   0.857   6.321  0.1514 -0.4788  0.2116
 6773SOL    HW131952   0.504   0.791   6.254 -0.2137  0.0354 -0.1991
 6773SOL    HW231953   0.527   0.931   6.260  1.2481 -1.5051 -0.9200
 6774SOL     OW31954   1.158   2.363  10.902  0.3333  0.1883  0.4471
 6774SOL    HW131955   1.180   2.358  10.809 -2.2279  0.3750 -0.1866
 6774SOL    HW231956   1.146   2.270  10.922 -1.0391 -0.0158 -1.3687
 6775SOL     OW31957   2.711   1.814   1.534 -0.3586 -0.4777  0.0672
 6775SOL    HW131958   2.802   1.821   1.562  0.6792  1.9010 -3.8997
 6775SOL    HW231959   2.687   1.906   1.521  0.5879 -0.1755  0.4455
 6776SOL     OW31960   2.578   1.091   3.652  0.3950 -0.2627  0.0325
 6776SOL    HW131961   2.604   1.120   3.565  0.0260  0.7091  0.2476
 6776SOL    HW231962   2.645   1.130   3.707 -0.4860  3.7070 -1.7465
 6777SOL     OW31963   0.187   0.794   9.066 -0.0200  0.0546  0.3372
 6777SOL    HW131964   0.094   0.794   9.044  0.1789  1.2637 -0.4953
 6777SOL    HW231965   0.222   0.836   8.988 -4.8544 -0.9363 -2.4025
 6778SOL     OW31966   1.152   4.536   4.580  0.4349 -0.1624  0.6148
 6778SOL    HW131967   1.114   4.489   4.505 -0.5686  0.7284  0.5622
 6778SOL    HW231968   1.081   4.524   4.644  0.1087 -0.0134  0.2847
 6779SOL     OW31969   0.112   4.596   2.457 -1.2674 -0.7784  0.2026
 6779SOL    HW131970   0.144   4.571   2.543 -0.2548 -0.5903 -0.1113
 6779SOL    HW231971   0.173   4.668   2.437  0.7880 -2.2748  1.1242
 6780SOL     OW31972   1.523   0.152  16.565  0.2181 -0.0745  0.3990
 6780SOL    HW131973   1.524   0.109  16.651  0.1034 -1.7156 -0.4041
 6780SOL    HW231974   1.610   0.190  16.557  0.6104 -0.8868  0.7299
 6781SOL     OW31975   1.573   2.588  12.745  0.2083 -0.0725 -0.2500
 6781SOL    HW131976   1.503   2.606  12.807  0.3698 -4.7716  1.2951
 6781SOL    HW231977   1.623   2.669  12.756 -1.2403  0.8032 -0.0546
 6782SOL     OW31978   2.393   2.454   8.367  0.3944 -0.0013 -0.0410
 6782SOL    HW131979   2.306   2.420   8.385  1.1359 -2.1577 -0.4519
 6782SOL    HW231980   2.384   2.523   8.301  3.2818 -0.4530 -0.9312
 6783SOL     OW31981   0.710   0.416  13.365  0.3745 -0.3393  0.2594
 6783SOL    HW131982   0.695   0.421  13.459 -2.6436 -1.9971 -0.1337
 6783SOL    HW231983   0.693   0.509  13.350 -0.3013 -0.2255  1.7299
 6784SOL     OW31984   0.634   0.051   2.960  0.3479  0.0406 -0.6546
 6784SOL    HW131985   0.722   0.020   2.981  0.6912  0.4613 -1.5040
 6784SOL    HW231986   0.640   0.062   2.866 -1.4901  1.1170 -0.6448
 6785SOL     OW31987   4.369   0.892   6.419 -0.3179 -0.3883  0.1786
 6785SOL    HW131988   4.320   0.907   6.338 -0.7341 -1.7177  0.1778
 6785SOL    HW231989   4.340   0.801   6.433 -2.2768  0.3509  0.9355
 6786SOL     OW31990   1.977   1.347   7.618 -0.5387  0.3216  0.2209
 6786SOL    HW131991   1.901   1.306   7.658 -0.3444 -0.3150 -0.0561
 6786SOL    HW231992   1.965   1.441   7.629  2.2753  0.5461  1.4579
 6787SOL     OW31993   0.424   2.965   4.039 -0.0438 -0.0441 -0.1234
 6787SOL    HW131994   0.404   2.885   3.991  0.8085 -0.9315  1.0040
 6787SOL    HW231995   0.464   3.016   3.969 -1.8759  1.7615  0.1574
 6788SOL     OW31996   1.438   1.736   8.602  0.5018  0.6456 -0.5333
 6788SOL    HW131997   1.387   1.742   8.683 -0.6147  2.9553 -1.4064
 6788SOL    HW231998   1.417   1.652   8.560  0.4320  0.6350 -0.4762
 6789SOL     OW31999   3.194   2.763  10.551 -0.6531  0.9416  0.0423
 6789SOL    HW132000   3.187   2.851  10.590  2.0510  0.2597  2.1094
 6789SOL    HW232001   3.182   2.710  10.630  0.0797 -0.8970 -1.1075
 6790SOL     OW32002   2.181   4.398  13.498 -0.1163  0.2027  0.0365
 6790SOL    HW132003   2.113   4.392  13.432  0.3424  1.1696 -0.5248
 6790SOL    HW232004   2.230   4.322  13.467  1.8882  1.9579 -1.0854
 6791SOL     OW32005   0.720   4.243   3.458 -0.0477 -0.2216 -0.4287
 6791SOL    HW132006   0.742   4.250   3.365  0.6682  1.2812 -0.1376
 6791SOL    HW232007   0.664   4.165   3.462  1.8925 -1.6231 -0.2286
 6792SOL     OW32008   0.918   4.229  12.767 -0.2549 -0.8109  0.3066
 6792SOL    HW132009   0.908   4.292  12.838  4.1297  1.5760 -1.2085
 6792SOL    HW232010   0.881   4.275  12.692 -1.0793  2.1303  2.5525
 6793SOL     OW32011   1.867   0.556   6.918  0.4301 -0.8561 -0.4139
 6793SOL    HW132012   1.953   0.587   6.947 -0.8054  1.2717  0.9455
 6793SOL    HW232013   1.873   0.460   6.925  3.4985 -0.4872  1.9104
 6794SOL     OW32014   1.084   4.521   4.916  0.7968 -0.6352 -0.2603
 6794SOL    HW132015   1.143   4.457   4.876 -0.0852 -2.4531  1.3617
 6794SOL    HW232016   1.066   4.489   5.004  1.8244 -0.4781  0.0024
 6795SOL     OW32017   2.589   2.709  13.051  0.7525  0.4328 -0.6821
 6795SOL    HW132018   2.669   2.749  13.087  1.7227 -1.1557 -1.0580
 6795SOL    HW232019   2.609   2.619  13.078  0.4466 -0.2704 -2.8180
 6796SOL     OW32020   2.466   1.628   4.830 -0.1323  0.4113  0.5127
 6796SOL    HW132021   2.463   1.676   4.748 -3.7295  3.0750  2.2073
 6796SOL    HW232022   2.538   1.679   4.870  1.5655 -1.0449 -0.7059
 6797SOL     OW32023   4.550   0.689   7.091  0.2665 -0.0351  0.6670
 6797SOL    HW132024   4.499   0.755   7.137 -1.8038 -0.4398 -1.0273
 6797SOL    HW232025   4.488   0.662   7.023  0.5854 -1.3618  0.9046
 6798SOL     OW32026   2.020   1.017   0.049 -0.1323  0.2985 -0.6589
 6798SOL    HW132027   2.057   0.962  17.720 -2.7754  0.3730 -2.1524
 6798SOL    HW232028   2.046   0.965   0.125 -0.7352 -0.6801 -1.1305
 6799SOL     OW32029   2.161   2.164   2.150 -0.0651  0.6074 -0.7429
 6799SOL    HW132030   2.247   2.142   2.185 -0.0461  0.2551 -1.0039
 6799SOL    HW232031   2.166   2.258   2.168 -3.0434  0.2172  2.0805
 6800SOL     OW32032   3.065   1.025   5.178  0.0406  0.1652  0.3232
 6800SOL    HW132033   2.992   1.068   5.134  0.5434 -1.4640 -2.0777
 6800SOL    HW232034   3.140   1.079   5.157 -1.1244  1.0372 -1.5520
 6801SOL     OW32035   1.580   0.462  11.559 -0.3837  0.1302  0.3241
 6801SOL    HW132036   1.499   0.481  11.606 -1.2404  3.1703 -2.3689
 6801SOL    HW232037   1.641   0.507  11.618  0.7811  0.1799 -0.9323
 6802SOL     OW32038   3.472   3.012   4.914 -0.6478  0.2638  0.2275
 6802SOL    HW132039   3.445   3.094   4.956 -0.7333 -0.0610  0.8094
 6802SOL    HW232040   3.420   3.015   4.834  0.7053  0.2247 -0.6583
 6803SOL     OW32041   3.924   3.553   6.025  0.1099  0.2664  0.2410
 6803SOL    HW132042   4.001   3.565   6.081 -0.1341 -0.6034  0.7713
 6803SOL    HW232043   3.866   3.620   6.061 -0.0337  0.0355  0.4444
 6804SOL     OW32044   4.521   4.482   4.738  0.0386 -0.3341  0.4018
 6804SOL    HW132045   4.493   4.405   4.788 -0.4401  0.8460  1.9309
 6804SOL    HW232046   4.588   4.523   4.792 -1.5514  1.2436  1.1820
 6805SOL     OW32047   1.049   3.511   2.817  0.0858 -0.4226 -0.7860
 6805SOL    HW132048   1.027   3.460   2.738  3.7295  1.5832 -3.1288
 6805SOL    HW232049   1.035   3.436   2.875 -1.4768  1.0303  0.7032
 6806SOL     OW32050   0.831   0.495   9.651 -0.2813 -0.3228  0.4248
 6806SOL    HW132051   0.841   0.585   9.681  1.9772 -1.0501  1.8801
 6806SOL    HW232052   0.856   0.483   9.559  1.1994 -1.6212  1.0065
 6807SOL     OW32053   4.108   4.426   9.035  0.3503  0.3551  0.4642
 6807SOL    HW132054   4.019   4.453   9.058 -0.8283 -0.2544 -3.2822
 6807SOL    HW232055   4.095   4.391   8.946 -1.2301  1.3194  0.3245
 6808SOL     OW32056   3.084   4.594  17.409  0.4666 -0.3777 -0.3424
 6808SOL    HW132057   3.038   4.510  17.415 -2.2069  1.0406 -0.8427
 6808SOL    HW232058   3.174   4.569  17.388  0.5695  0.6030 -1.0513
 6809SOL     OW32059   0.536   1.387   1.575  0.0746 -0.2150 -0.0715
 6809SOL    HW132060   0.514   1.321   1.509 -0.6885  0.0879 -0.1203
 6809SOL    HW232061   0.584   1.338   1.642  0.9308  1.3566  0.4681
 6810SOL     OW32062   3.013   3.196   0.033 -0.6274  0.2559 -0.9620
 6810SOL    HW132063   2.927   3.238   0.027 -0.4836  0.6556 -0.2099
 6810SOL    HW232064   3.018   3.148  17.690 -0.4871 -0.5293 -0.5002
 6811SOL     OW32065   3.175   3.145  14.214 -0.3175 -0.3307  0.0421
 6811SOL    HW132066   3.166   3.052  14.193  2.3197 -0.8517  1.2468
 6811SOL    HW232067   3.089   3.163  14.252 -0.7623 -0.3381 -0.9568
 6812SOL     OW32068   2.861   3.696   4.704  0.5098  0.4114 -0.0395
 6812SOL    HW132069   2.949   3.670   4.677  0.0389 -0.0374 -1.1476
 6812SOL    HW232070   2.848   3.755   4.630  0.9844  0.4085 -0.1257
 6813SOL     OW32071   0.305   1.525   1.686  0.1260 -0.0904  0.3144
 6813SOL    HW132072   0.359   1.477   1.623 -1.3461  1.0293 -1.8132
 6813SOL    HW232073   0.260   1.588   1.629 -0.4559  0.0071  0.8786
 6814SOL     OW32074   4.192   2.899   6.832  0.4358  0.1834 -0.3759
 6814SOL    HW132075   4.267   2.959   6.830  1.7416 -1.3727  2.6872
 6814SOL    HW232076   4.147   2.927   6.912  0.9585 -1.0806  0.3623
 6815SOL     OW32077   2.202   1.468  10.949 -0.0875 -0.0921 -0.1615
 6815SOL    HW132078   2.147   1.428  10.883 -1.0297 -0.9543  1.1444
 6815SOL    HW232079   2.206   1.559  10.919 -3.1561  1.1237  3.0548
 6816SOL     OW32080   3.518   3.427   2.189  0.2710  0.1574  0.3708
 6816SOL    HW132081   3.436   3.429   2.140  1.2436  0.1929 -1.2593
 6816SOL    HW232082   3.575   3.415   2.113  0.0206 -0.8050  0.3349
 6817SOL     OW32083   4.602   3.719  13.821  0.3810  0.0098 -0.4419
 6817SOL    HW132084   4.536   3.772  13.776 -0.7466 -0.1560  1.0119
 6817SOL    HW232085   4.571   3.708  13.911  1.1646  1.9543  0.0591
 6818SOL     OW32086   2.879   2.767   7.528  1.0129 -0.5129  0.0360
 6818SOL    HW132087   2.884   2.684   7.575 -1.7126 -1.0593 -0.5962
 6818SOL    HW232088   2.971   2.789   7.519  0.4450  2.4213  1.2914
 6819SOL     OW32089   0.829   2.109   7.330 -0.4660  0.4293  0.0480
 6819SOL    HW132090   0.765   2.042   7.307 -1.7087  0.9544  1.9787
 6819SOL    HW232091   0.884   2.111   7.252 -1.5097 -0.0322 -0.6992
 6820SOL     OW32092   2.369   2.206   1.123 -0.3335  0.2581 -0.3152
 6820SOL    HW132093   2.293   2.257   1.094 -0.3917  0.8136  0.8002
 6820SOL    HW232094   2.426   2.282   1.137 -0.6752  0.1912  1.4922
 6821SOL     OW32095   0.136   0.346   4.172  0.0388  0.4191 -0.2331
 6821SOL    HW132096   0.113   0.255   4.186 -2.0371  1.0532  0.4872
 6821SOL    HW232097   0.134   0.394   4.255  1.7445 -1.6495  0.9928
 6822SOL     OW32098   2.104   1.912   5.051 -0.1222  0.1501  0.2603
 6822SOL    HW132099   2.128   1.861   4.973 -1.2774  0.0492 -0.0282
 6822SOL    HW232100   2.080   1.992   5.003  0.7125  0.3844  0.2256
 6823SOL     OW32101   3.594   4.103   0.852  0.7113 -0.0691 -0.2260
 6823SOL    HW132102   3.671   4.049   0.872  0.6487 -0.2397 -0.4425
 6823SOL    HW232103   3.558   4.110   0.940  2.2080 -1.8432  0.5409
 6824SOL     OW32104   2.281   4.451  12.859  0.3592 -0.2988  0.8287
 6824SOL    HW132105   2.360   4.500  12.884  1.8068 -1.0335 -2.2455
 6824SOL    HW232106   2.263   4.419  12.947  1.5772  0.6735  1.4352
 6825SOL     OW32107   1.138   3.589   8.962  0.0341  0.1936 -0.5534
 6825SOL    HW132108   1.170   3.678   8.950 -0.9232  0.5896 -0.1955
 6825SOL    HW232109   1.067   3.580   8.899 -1.1717 -1.5072  1.0053
 6826SOL     OW32110   2.022   2.312   6.404  0.2168  0.1160 -0.0644
 6826SOL    HW132111   2.111   2.279   6.387  1.0147  2.1333  0.2517
 6826SOL    HW232112   1.976   2.233   6.375 -1.3275  0.5954  1.1072
 6827SOL     OW32113   4.721   1.302   9.120  0.0204  0.5528 -0.3363
 6827SOL    HW132114   4.648   1.364   9.118  0.2478  0.7932 -0.9347
 6827SOL    HW232115   0.058   1.362   9.138  1.2708 -0.4197 -2.0764
 6828SOL     OW32116   2.719   1.698   7.682  0.7358  0.1569  0.2874
 6828SOL    HW132117   2.748   1.752   7.608  1.0973  0.8239  0.9107
 6828SOL    HW232118   2.724   1.761   7.755  0.4408  0.8788 -0.3196
 6829SOL     OW32119   0.591   2.880   9.178 -0.1598  0.0778 -0.4058
 6829SOL    HW132120   0.667   2.878   9.120 -0.5243  0.6733 -0.9075
 6829SOL    HW232121   0.554   2.968   9.175  0.8715  0.6077  2.5025
 6830SOL     OW32122   4.208   0.519   9.145  0.2261 -0.4068  0.0162
 6830SOL    HW132123   4.166   0.530   9.230 -0.8887 -1.0668 -0.4462
 6830SOL    HW232124   4.206   0.606   9.106 -1.1028 -2.2031 -3.9583
 6831SOL     OW32125   3.635   1.381   7.338  0.1112  0.0514 -0.4043
 6831SOL    HW132126   3.689   1.334   7.402  0.2906  1.7528  0.7007
 6831SOL    HW232127   3.581   1.436   7.394  0.8390 -0.5812  0.9018
 6832SOL     OW32128   2.357   0.059   2.558  0.1418  0.0539  0.0558
 6832SOL    HW132129   2.402   4.710   2.564  2.0053  0.9140 -1.7710
 6832SOL    HW232130   2.282   0.051   2.617  0.6958  0.5285  0.8254
 6833SOL     OW32131   4.317   3.313   5.697 -0.0234 -0.2408  0.6118
 6833SOL    HW132132   4.254   3.306   5.769  0.5304  1.1564  1.2169
 6833SOL    HW232133   4.290   3.394   5.655  0.8098 -0.4472 -0.3369
 6834SOL     OW32134   0.017   4.159   6.161 -0.1405 -0.4093  0.2775
 6834SOL    HW132135   0.006   4.247   6.199 -0.5793  0.0462 -0.9282
 6834SOL    HW232136   0.111   4.152   6.177  0.0249  0.6883 -0.2299
 6835SOL     OW32137   0.164   2.929   2.876 -0.1101 -0.4085 -0.4613
 6835SOL    HW132138   0.095   2.994   2.887  0.0442 -0.6191  1.7440
 6835SOL    HW232139   0.230   2.963   2.937 -2.0790 -0.4362  1.6700
 6836SOL     OW32140   4.712   2.429   0.469  0.0779 -0.0086 -0.6154
 6836SOL    HW132141   0.000   2.412   0.378 -2.1472  2.1342 -1.5889
 6836SOL    HW232142   0.040   2.498   0.489 -0.1965 -0.0716  0.4827
 6837SOL     OW32143   4.623   3.009  12.232 -0.1941 -0.0633  0.0235
 6837SOL    HW132144   4.543   2.957  12.224  0.1468 -0.6593  0.4468
 6837SOL    HW232145   4.634   3.040  12.142 -2.1542  2.5373  0.7002
 6838SOL     OW32146   2.477   2.768  16.057 -0.3559  0.3501 -0.7354
 6838SOL    HW132147   2.504   2.680  16.084  1.0150  0.8576 -0.4401
 6838SOL    HW232148   2.386   2.763  16.086 -0.3239 -1.4847 -0.9161
 6839SOL     OW32149   0.531   4.131   8.786 -0.4737  0.0379  0.3217
 6839SOL    HW132150   0.499   4.141   8.697 -0.5286 -0.0756  0.3297
 6839SOL    HW232151   0.463   4.186   8.825  0.2479  0.5155  0.9142
 6840SOL     OW32152   3.861   2.958   6.540 -0.3010  0.3892 -0.4725
 6840SOL    HW132153   3.867   3.005   6.457  0.9396 -1.9432 -1.7048
 6840SOL    HW232154   3.767   2.958   6.558  0.0155  0.7297  1.2202
 6841SOL     OW32155   0.985   3.910   3.088 -0.2917 -0.6382  0.2564
 6841SOL    HW132156   0.967   3.944   3.176  0.5608 -1.6294  0.8072
 6841SOL    HW232157   0.995   3.816   3.104 -3.3283 -0.9895  0.0096
 6842SOL     OW32158   2.682   3.848   6.986  0.0704 -0.1282  0.4769
 6842SOL    HW132159   2.699   3.913   6.918 -0.8288  1.1179  1.4332
 6842SOL    HW232160   2.597   3.808   6.967 -1.0993  1.5070  2.2935
 6843SOL     OW32161   2.802   3.361   2.997  0.1668  0.0345  0.0974
 6843SOL    HW132162   2.712   3.382   3.019  0.2605  0.1953  0.3280
 6843SOL    HW232163   2.825   3.428   2.933  1.3674  0.9015  1.4286
 6844SOL     OW32164   1.820   1.429   3.180 -0.8075 -0.3188 -0.2080
 6844SOL    HW132165   1.745   1.375   3.153 -1.0580 -0.0014 -0.1390
 6844SOL    HW232166   1.785   1.516   3.160  0.1353  0.1677  0.3083
 6845SOL     OW32167   1.177   1.574   7.415  0.0090  0.4209  0.1424
 6845SOL    HW132168   1.270   1.564   7.396 -0.1056 -0.4570  0.0268
 6845SOL    HW232169   1.198   1.640   7.481  5.3723  0.3224 -1.4789
 6846SOL     OW32170   0.871   2.772   1.577  0.2191 -0.4277  0.1579
 6846SOL    HW132171   0.852   2.684   1.609  3.9088 -1.4141 -0.3391
 6846SOL    HW232172   0.904   2.756   1.488  1.3963 -0.7780  0.6486
 6847SOL     OW32173   0.267   3.273   5.560  0.3136  0.2661 -0.0563
 6847SOL    HW132174   0.287   3.344   5.621  1.4784 -0.4807  0.4363
 6847SOL    HW232175   0.323   3.293   5.486  0.9026  1.4638  0.7139
 6848SOL     OW32176   2.806   2.881   5.408  0.0265  0.2372  0.1928
 6848SOL    HW132177   2.868   2.908   5.340 -0.2580  0.0529 -0.1414
 6848SOL    HW232178   2.759   2.962   5.429 -0.8595 -0.7050  1.8812
 6849SOL     OW32179   0.220   3.585   9.560  0.4027  0.1442  0.6992
 6849SOL    HW132180   0.165   3.535   9.620  1.0096 -0.6775  0.5588
 6849SOL    HW232181   0.260   3.514   9.511 -0.1899 -1.1055  2.0157
 6850SOL     OW32182   4.477   3.966   3.275 -0.1451 -0.0999  0.1484
 6850SOL    HW132183   4.456   3.886   3.323 -3.2108 -0.0047 -1.0416
 6850SOL    HW232184   4.393   3.985   3.234 -0.6863 -1.4617  0.6121
 6851SOL     OW32185   2.425   0.707   4.687  0.6247  0.3501  0.1431
 6851SOL    HW132186   2.372   0.779   4.652  1.1286  0.4217 -0.4646
 6851SOL    HW232187   2.504   0.719   4.635  0.1035  2.7055 -0.1365
 6852SOL     OW32188   3.521   4.302  10.004 -0.1136  0.3089 -0.4723
 6852SOL    HW132189   3.478   4.375  10.048  0.4975 -0.4537  1.3997
 6852SOL    HW232190   3.451   4.236  10.007  0.2004 -0.0075 -0.0369
 6853SOL     OW32191   0.049   0.171  12.034 -0.6059 -0.2716  0.2608
 6853SOL    HW132192   0.011   0.172  11.945  0.2058  0.4411 -0.0771
 6853SOL    HW232193   4.731   0.237  12.078 -0.5439  0.0619 -0.1630
 6854SOL     OW32194   1.367   3.385   4.101 -0.5317  0.1277 -1.0318
 6854SOL    HW132195   1.395   3.450   4.166  1.6991  0.4487 -2.3267
 6854SOL    HW232196   1.285   3.356   4.142  0.3065  2.2502  2.1420
 6855SOL     OW32197   0.073   4.504   3.829  0.3519 -0.0374  0.1983
 6855SOL    HW132198   0.138   4.444   3.792 -0.8484 -0.8823 -0.5804
 6855SOL    HW232199   0.003   4.438   3.832  1.2395 -0.9279  1.0626
 6856SOL     OW32200   4.096   2.032   8.823 -0.7061 -0.0174 -0.0090
 6856SOL    HW132201   4.124   2.043   8.914 -0.1776 -0.5958 -0.1058
 6856SOL    HW232202   4.038   1.956   8.832  1.9506 -1.5428  4.3022
 6857SOL     OW32203   0.797   2.592   2.294 -0.6149  0.0938  0.1108
 6857SOL    HW132204   0.712   2.548   2.285  0.3201 -1.9802  1.4178
 6857SOL    HW232205   0.851   2.513   2.301  1.1006  1.3630  1.1417
 6858SOL     OW32206   2.274   2.349   3.835 -0.5413 -0.4914 -0.1833
 6858SOL    HW132207   2.262   2.366   3.929 -1.1127 -0.0254 -0.3437
 6858SOL    HW232208   2.183   2.371   3.815 -0.6410  0.8887  1.7828
 6859SOL     OW32209   2.756   0.901   9.162  0.4446  0.5728 -0.1585
 6859SOL    HW132210   2.724   0.986   9.192  0.8215  0.9360 -0.7823
 6859SOL    HW232211   2.793   0.863   9.242  2.5170 -0.4354 -1.6088
 6860SOL     OW32212   1.849   0.840   4.376 -0.1163 -0.2271 -0.3874
 6860SOL    HW132213   1.906   0.898   4.427 -0.6522  1.9448 -2.2612
 6860SOL    HW232214   1.857   0.767   4.438  1.5335  0.3321  0.0622
 6861SOL     OW32215   2.953   4.632   7.521  0.0066  0.0929 -0.2706
 6861SOL    HW132216   2.873   4.580   7.513  0.5283 -0.8337  0.5019
 6861SOL    HW232217   2.978   4.668   7.435  0.4608  1.1942  0.3284
 6862SOL     OW32218   0.874   4.190  13.069  0.7687  0.5282  0.1628
 6862SOL    HW132219   0.805   4.126  13.054 -0.4975  1.7993  0.6435
 6862SOL    HW232220   0.954   4.137  13.061 -0.9917 -1.9364 -0.9250
 6863SOL     OW32221   2.146   1.916  10.767  0.4300  0.0437 -0.2124
 6863SOL    HW132222   2.165   1.823  10.780 -1.6458 -0.1208  1.5365
 6863SOL    HW232223   2.144   1.938  10.860  2.6499 -0.0972 -0.1216
 6864SOL     OW32224   2.001   1.100   8.455  0.4186  0.1148 -0.2071
 6864SOL    HW132225   2.038   1.098   8.366  0.3807 -0.0045 -0.2197
 6864SOL    HW232226   1.946   1.022   8.455 -1.4337  1.4148 -0.7635
 6865SOL     OW32227   3.486   1.397   0.054  0.0288 -0.1237  0.1180
 6865SOL    HW132228   3.462   1.473   0.001  0.6614  0.0016  0.0170
 6865SOL    HW232229   3.578   1.391   0.030 -0.9760  1.2629 -4.0229
 6866SOL     OW32230   3.786   4.486  15.301  0.0692 -0.0566 -0.2447
 6866SOL    HW132231   3.852   4.501  15.234  1.3002  2.9939  1.6249
 6866SOL    HW232232   3.813   4.401  15.337  0.3715 -0.3227 -1.1151
 6867SOL     OW32233   1.693   0.389   1.092  0.1391 -0.1120 -0.0220
 6867SOL    HW132234   1.783   0.404   1.063 -0.1301 -1.1371 -1.4080
 6867SOL    HW232235   1.653   0.475   1.086  0.9611  0.2987  0.3947
 6868SOL     OW32236   0.054   1.321   8.419 -0.2284  0.0157 -0.4624
 6868SOL    HW132237   0.133   1.278   8.388  1.2534  0.7303  2.3305
 6868SOL    HW232238   0.030   1.369   8.340  0.2718  1.1328  0.0772
 6869SOL     OW32239   1.969   0.869  12.446 -0.4247 -0.3276 -0.5867
 6869SOL    HW132240   2.032   0.939  12.461 -1.1615  0.6276 -1.9920
 6869SOL    HW232241   1.891   0.922  12.430 -1.0918 -1.5410 -1.4345
 6870SOL     OW32242   1.006   4.115   5.925 -0.2762  0.3266 -0.4276
 6870SOL    HW132243   1.059   4.045   5.963 -0.3687  0.4166 -0.1353
 6870SOL    HW232244   1.018   4.175   5.999 -3.1977  1.2777 -0.7576
 6871SOL     OW32245   1.359   4.191   7.269 -0.3608 -0.1639  0.0969
 6871SOL    HW132246   1.409   4.109   7.264 -0.9317 -0.3344 -2.6720
 6871SOL    HW232247   1.295   4.163   7.334 -0.1292 -0.3922  0.2285
 6872SOL     OW32248   0.678   0.951   5.061 -0.1770 -0.3315  0.4863
 6872SOL    HW132249   0.763   0.983   5.032 -0.1693 -1.7417 -1.0447
 6872SOL    HW232250   0.620   1.002   5.004  1.2859  1.0876  0.2555
 6873SOL     OW32251   3.148   2.558   8.164 -0.7009  0.0545  0.0110
 6873SOL    HW132252   3.216   2.592   8.107 -0.9083  0.7757  0.1874
 6873SOL    HW232253   3.120   2.482   8.114  0.8740 -1.7756  1.9025
 6874SOL     OW32254   0.673   2.394   4.502  0.1316 -0.5844 -0.1138
 6874SOL    HW132255   0.750   2.389   4.446  1.4682 -1.0927  1.7387
 6874SOL    HW232256   0.617   2.455   4.454 -1.2453 -0.9429  0.9987
 6875SOL     OW32257   2.872   0.889   4.502 -0.1160  0.4724  0.0494
 6875SOL    HW132258   2.967   0.900   4.493 -0.1270  0.4712 -0.0699
 6875SOL    HW232259   2.851   0.906   4.410  4.6931 -0.8249 -1.2934
 6876SOL     OW32260   0.910   1.718   7.867  1.0801  0.2100  0.3311
 6876SOL    HW132261   0.952   1.800   7.890  0.3817  0.2521  1.5120
 6876SOL    HW232262   0.821   1.742   7.842  1.0952  1.2397  1.2558
 6877SOL     OW32263   0.256   0.386  12.124  0.1557  0.5595 -0.2338
 6877SOL    HW132264   0.208   0.304  12.137 -0.8917  0.7492 -2.9326
 6877SOL    HW232265   0.255   0.435  12.207  3.3206  0.9304 -0.3984
 6878SOL     OW32266   4.325   1.801  17.360  0.3170 -0.4428  0.5520
 6878SOL    HW132267   4.385   1.741  17.314 -0.7143  0.0572 -1.4493
 6878SOL    HW232268   4.333   1.882  17.309  2.9054  0.0376  1.7233
 6879SOL     OW32269   3.595   3.704   6.910 -0.6754  0.3201 -0.6726
 6879SOL    HW132270   3.597   3.632   6.973  0.0339  1.2651  0.3953
 6879SOL    HW232271   3.682   3.702   6.871  0.9484 -0.6337  3.0570
 6880SOL     OW32272   4.344   0.896   7.176  0.3176 -0.5771 -0.0338
 6880SOL    HW132273   4.278   0.843   7.219  0.4606 -1.2411 -0.6367
 6880SOL    HW232274   4.395   0.936   7.247 -2.0844  1.2665  0.6309
 6881SOL     OW32275   1.572   4.608   3.079 -0.3350 -0.4089  0.0631
 6881SOL    HW132276   1.521   4.643   3.007  1.3895  3.0530  0.4868
 6881SOL    HW232277   1.596   4.519   3.053  0.5536 -0.4332  0.9493
 6882SOL     OW32278   2.264   1.120   6.384  0.4148  0.0157  0.1444
 6882SOL    HW132279   2.248   1.211   6.360 -0.9017  0.2999  2.1052
 6882SOL    HW232280   2.351   1.122   6.425  0.3272  2.7347  0.2023
 6883SOL     OW32281   1.784   3.388   4.659  0.1946  0.6757 -0.6830
 6883SOL    HW132282   1.692   3.412   4.648 -0.8618 -2.0700  2.3800
 6883SOL    HW232283   1.815   3.437   4.735  0.1703 -1.2067  0.5222
 6884SOL     OW32284   0.083   3.917   9.287 -0.0960  0.4904  0.0388
 6884SOL    HW132285   4.731   3.917   9.248 -0.2060 -3.0255  0.3508
 6884SOL    HW232286   0.139   3.915   9.209  1.3476 -1.8417  1.1282
 6885SOL     OW32287   0.203   3.431  16.953  0.2900 -0.0226  0.4987
 6885SOL    HW132288   0.289   3.473  16.957  0.9940 -1.3776 -0.4608
 6885SOL    HW232289   0.217   3.395  16.866 -1.3479  2.4663 -0.8092
 6886SOL     OW32290   2.687   1.621   0.965  0.7462  0.3857 -0.1101
 6886SOL    HW132291   2.738   1.541   0.977 -1.6698 -1.4028 -1.7466
 6886SOL    HW232292   2.692   1.685   1.036 -0.9728  1.9043 -1.3655
 6887SOL     OW32293   2.725   2.478  12.331  0.4207 -0.0335  0.0761
 6887SOL    HW132294   2.727   2.486  12.427 -2.1487 -0.7608  0.1982
 6887SOL    HW232295   2.802   2.527  12.303  1.2114 -1.5163 -0.3224
 6888SOL     OW32296   3.608   1.117   4.297  0.2664  0.2122 -0.5680
 6888SOL    HW132297   3.684   1.164   4.331  2.0250 -2.0931 -1.2840
 6888SOL    HW232298   3.579   1.078   4.380  2.9786  0.5914  0.5802
 6889SOL     OW32299   0.287   1.447   8.832 -0.2737 -0.2882  0.0476
 6889SOL    HW132300   0.322   1.506   8.765 -2.3640  0.2156 -0.5956
 6889SOL    HW232301   0.310   1.479   8.919 -0.0091 -0.4344  0.0301
 6890SOL     OW32302   4.129   3.758   0.548  0.1082  1.0177  0.4075
 6890SOL    HW132303   4.158   3.785   0.636  1.7184 -0.3204  0.2945
 6890SOL    HW232304   4.215   3.732   0.515 -0.6003 -0.6791 -0.0513
 6891SOL     OW32305   4.415   2.356   8.595 -0.6972  0.1141 -0.4969
 6891SOL    HW132306   4.336   2.328   8.548 -0.7606 -0.3094 -0.1416
 6891SOL    HW232307   4.471   2.325   8.524  0.7072 -1.2699  1.2260
 6892SOL     OW32308   3.665   1.295   0.966  0.2419  0.3189 -0.5349
 6892SOL    HW132309   3.589   1.314   1.021  0.7931 -0.7595  0.5983
 6892SOL    HW232310   3.688   1.207   0.997  1.7785  0.5329 -1.0545
 6893SOL     OW32311   0.978   0.156   8.411 -0.0783 -0.2392 -0.0370
 6893SOL    HW132312   0.932   0.216   8.352 -1.0827 -1.5391 -0.5799
 6893SOL    HW232313   0.944   0.073   8.378  3.3729 -0.9304 -1.8450
 6894SOL     OW32314   0.526   0.393   6.542 -0.0385 -0.1082  0.3655
 6894SOL    HW132315   0.591   0.332   6.577  0.5816  0.1182 -0.3967
 6894SOL    HW232316   0.571   0.473   6.567  0.8983 -1.0742  1.7260
 6895SOL     OW32317   3.223   4.524   5.945 -0.1164 -0.0131  0.2016
 6895SOL    HW132318   3.217   4.611   5.984  0.8214 -0.8243  2.1805
 6895SOL    HW232319   3.188   4.542   5.858  0.7542 -1.6539 -0.4881
 6896SOL     OW32320   0.054   1.735   1.646  0.7605 -0.6507 -0.0992
 6896SOL    HW132321   0.055   1.655   1.698 -1.5741  0.9992  2.5073
 6896SOL    HW232322   0.072   1.803   1.711 -0.2037  1.0999 -1.6545
 6897SOL     OW32323   2.543   1.006  15.405  0.1705 -0.0102  0.6321
 6897SOL    HW132324   2.505   1.000  15.493 -0.9707  0.9501  0.2033
 6897SOL    HW232325   2.611   1.070  15.427  1.1540 -1.4765  1.8800
 6898SOL     OW32326   3.892   1.187   2.447 -0.0651 -0.0355 -0.7020
 6898SOL    HW132327   3.825   1.242   2.406 -0.6754 -0.9861 -0.9800
 6898SOL    HW232328   3.840   1.107   2.456  2.1375 -1.1638  1.9843
 6899SOL     OW32329   0.855   0.162   7.247  0.0445 -0.4840 -0.1122
 6899SOL    HW132330   0.778   0.189   7.296 -0.3046  0.7376 -1.3398
 6899SOL    HW232331   0.915   0.147   7.320  1.6552  0.0010 -1.3356
 6900SOL     OW32332   2.739   4.629  15.881 -0.0118 -0.0578  0.1644
 6900SOL    HW132333   2.774   4.674  15.958 -0.1460 -0.4831  0.4750
 6900SOL    HW232334   2.682   4.561  15.916  1.4754 -2.0925 -1.3865
 6901SOL     OW32335   3.129   2.961  13.937  0.2152  0.0968 -0.3012
 6901SOL    HW132336   3.040   2.964  13.902  0.0574 -2.3859 -0.1175
 6901SOL    HW232337   3.179   2.996  13.864 -0.6213 -0.5762 -1.1937
 6902SOL     OW32338   1.229   0.477   4.079 -0.2668 -0.0950 -0.1922
 6902SOL    HW132339   1.221   0.554   4.135 -1.5416  1.1400 -2.1243
 6902SOL    HW232340   1.291   0.510   4.015 -2.2344  0.5844 -1.7295
 6903SOL     OW32341   0.256   1.324   9.312 -0.2174 -0.2881 -0.1383
 6903SOL    HW132342   0.203   1.395   9.274 -1.1082 -1.6468 -1.4439
 6903SOL    HW232343   0.347   1.351   9.302 -0.2915  0.0511  0.0820
 6904SOL     OW32344   4.172   3.612   6.190 -0.1491 -0.7961 -0.2730
 6904SOL    HW132345   4.208   3.699   6.206 -1.8963 -0.0111 -0.5172
 6904SOL    HW232346   4.223   3.553   6.246 -0.6613 -0.9376  0.0427
 6905SOL     OW32347   3.789   1.487   7.684 -0.2940  0.5232  0.2952
 6905SOL    HW132348   3.823   1.576   7.699  1.6070 -0.4960  2.0955
 6905SOL    HW232349   3.723   1.493   7.615  0.5411 -0.1331 -0.5491
 6906SOL     OW32350   4.398   2.949   4.893  0.0392 -0.2626 -0.6006
 6906SOL    HW132351   4.361   2.926   4.979  1.2084 -1.1626 -0.3433
 6906SOL    HW232352   4.412   3.043   4.902 -0.0612 -0.4027  1.2146
 6907SOL     OW32353   0.472   1.549  12.904  0.2419  0.5905 -0.1376
 6907SOL    HW132354   0.382   1.582  12.908  0.6524  1.5367  1.3010
 6907SOL    HW232355   0.470   1.475  12.965  0.2919  0.5690 -0.1617
 6908SOL     OW32356   2.795   0.818  10.139  0.7937 -0.2002  0.9511
 6908SOL    HW132357   2.805   0.731  10.101  0.9601 -0.6348  1.9974
 6908SOL    HW232358   2.843   0.821  10.222  0.4738 -0.5296  1.1488
 6909SOL     OW32359   3.386   0.677  17.674 -0.2085 -0.5521  0.6021
 6909SOL    HW132360   3.445   0.702   0.005  0.8780 -0.3251 -0.4010
 6909SOL    HW232361   3.313   0.640  17.724 -0.2274  1.0438  1.7537
 6910SOL     OW32362   1.968   0.775   3.420  0.2014 -0.0387  0.7733
 6910SOL    HW132363   2.061   0.798   3.420  0.3127 -0.5080 -1.4295
 6910SOL    HW232364   1.953   0.710   3.489  1.3372 -0.4262  0.6438
 6911SOL     OW32365   1.905   1.873   8.314  0.3468  0.2758 -0.7949
 6911SOL    HW132366   1.942   1.959   8.332  0.8798  0.0432 -0.8079
 6911SOL    HW232367   1.831   1.877   8.375 -0.1785 -3.3598 -1.1861
 6912SOL     OW32368   3.416   1.783   9.143 -0.1983  0.6122  0.1607
 6912SOL    HW132369   3.404   1.702   9.194 -2.8529  0.5450 -0.5932
 6912SOL    HW232370   3.449   1.842   9.211 -1.6733 -0.1666  1.5592
 6913SOL     OW32371   1.176   0.587  10.579 -0.0739  0.0884  0.1787
 6913SOL    HW132372   1.181   0.495  10.553 -0.3594  0.3538 -0.8084
 6913SOL    HW232373   1.120   0.581  10.656  1.8089 -0.8863  1.4858
 6914SOL     OW32374   3.981   3.337   3.835  0.2250  0.1944  0.6254
 6914SOL    HW132375   3.894   3.359   3.871 -0.9594 -0.6138 -1.7484
 6914SOL    HW232376   4.004   3.420   3.794  0.4063 -0.2699 -0.1993
 6915SOL     OW32377   1.228   3.280  10.917 -0.6549  0.3455  0.5273
 6915SOL    HW132378   1.203   3.211  10.855 -0.9852  0.8521  0.0994
 6915SOL    HW232379   1.277   3.224  10.977 -2.1480 -1.7311 -0.1855
 6916SOL     OW32380   3.317   0.935   0.198 -0.3956 -0.1434 -0.9076
 6916SOL    HW132381   3.349   1.023   0.216 -1.2654 -0.0741  0.2741
 6916SOL    HW232382   3.228   0.952   0.167 -1.0220 -2.3284 -0.3160
 6917SOL     OW32383   3.455   3.317   7.859  0.1373  0.1323 -0.5925
 6917SOL    HW132384   3.361   3.303   7.854  0.1548 -0.5824  1.2837
 6917SOL    HW232385   3.453   3.411   7.872 -1.0245  0.1238 -0.7467
 6918SOL     OW32386   1.550   0.774   5.484  0.1194  0.0696 -0.3808
 6918SOL    HW132387   1.567   0.855   5.437  1.4297 -0.3850 -0.6997
 6918SOL    HW232388   1.465   0.788   5.525  0.6506 -1.0078  1.1008
 6919SOL     OW32389   4.131   1.818   5.695 -0.2162  0.4898  0.2343
 6919SOL    HW132390   4.057   1.831   5.636 -0.6257 -1.5059  0.3124
 6919SOL    HW232391   4.199   1.863   5.644  1.5365 -1.6909  0.6363
 6920SOL     OW32392   1.115   1.181   2.564 -0.4457  0.5374 -0.8867
 6920SOL    HW132393   1.120   1.090   2.595  0.2441  0.9066  0.0974
 6920SOL    HW232394   1.033   1.197   2.611 -0.1905  1.1235 -0.6423
 6921SOL     OW32395   4.364   4.614   5.329  0.5091  0.1970  0.1761
 6921SOL    HW132396   4.401   4.630   5.416 -1.6583  1.8843  0.7565
 6921SOL    HW232397   4.420   4.543   5.297 -1.9560 -1.1842 -1.0996
 6922SOL     OW32398   0.874   3.792  14.581 -0.6722 -0.2288 -0.4680
 6922SOL    HW132399   0.942   3.809  14.646 -1.6683  2.6835 -0.1701
 6922SOL    HW232400   0.801   3.750  14.626 -1.8920  2.4227  0.0312
 6923SOL     OW32401   2.394   4.573   5.148 -0.1877 -0.0492  0.1333
 6923SOL    HW132402   2.374   4.666   5.134  2.1297  0.6725  1.6126
 6923SOL    HW232403   2.434   4.556   5.062  0.5673  0.4781  0.3788
 6924SOL     OW32404   2.928   0.640   2.015  0.3458 -0.5112  0.1177
 6924SOL    HW132405   2.993   0.693   2.060  0.6107 -0.5205 -0.2590
 6924SOL    HW232406   2.865   0.711   2.003  0.1604 -0.7132 -0.0918
 6925SOL     OW32407   0.820   1.335  15.925 -0.1146  0.2654 -0.2532
 6925SOL    HW132408   0.847   1.244  15.914  1.8824  0.8203  0.1494
 6925SOL    HW232409   0.726   1.329  15.906 -0.1349 -2.1038  0.5589
 6926SOL     OW32410   3.440   4.668  11.935 -0.1714 -0.4757  0.0471
 6926SOL    HW132411   3.408   4.580  11.915 -1.7134 -0.1650  1.1489
 6926SOL    HW232412   3.465   4.658  12.027 -1.2554  0.3741  0.4288
 6927SOL     OW32413   1.641   2.284   5.732 -0.0945 -0.0942  0.2974
 6927SOL    HW132414   1.693   2.311   5.807  1.5117  1.2132 -1.3041
 6927SOL    HW232415   1.563   2.274   5.787  0.5785 -1.2424  1.0501
 6928SOL     OW32416   1.299   1.171  14.619  0.2552  0.5508  0.6482
 6928SOL    HW132417   1.364   1.240  14.628 -0.0080  0.9321 -0.3931
 6928SOL    HW232418   1.337   1.129  14.542  1.2351  0.9082  0.9408
 6929SOL     OW32419   2.686   4.417   1.372 -1.1462  0.0677  0.0340
 6929SOL    HW132420   2.725   4.499   1.403 -0.5473 -0.6051  1.0763
 6929SOL    HW232421   2.672   4.447   1.282  0.9716  0.3769 -0.2004
 6930SOL     OW32422   3.236   3.548   4.150  0.4532 -0.5921  0.5524
 6930SOL    HW132423   3.239   3.517   4.059  0.8047 -1.1122  0.7407
 6930SOL    HW232424   3.270   3.637   4.148 -0.1807 -0.3874 -1.3450
 6931SOL     OW32425   2.629   4.562   0.368 -0.1922 -0.3568  0.1057
 6931SOL    HW132426   2.669   4.503   0.304  0.2034  2.3202 -2.0908
 6931SOL    HW232427   2.557   4.601   0.318 -2.2062 -0.6760  2.7716
 6932SOL     OW32428   1.567   3.207   4.075  0.3320  0.2501  0.4872
 6932SOL    HW132429   1.492   3.265   4.087  0.7973  0.7328  1.0855
 6932SOL    HW232430   1.638   3.246   4.126 -0.4427  0.7573  1.1649
 6933SOL     OW32431   3.236   4.678   6.998 -0.3310  0.4109 -0.6332
 6933SOL    HW132432   3.148   4.715   6.985 -0.6380 -0.1565 -0.1911
 6933SOL    HW232433   3.285   4.714   6.924  1.7219 -0.9946  0.0501
 6934SOL     OW32434   4.315   0.891   2.015  0.0380  0.6452 -0.1818
 6934SOL    HW132435   4.292   0.962   2.075  0.8588  2.3154 -1.8238
 6934SOL    HW232436   4.357   0.944   1.946 -0.3654  3.1624  1.5134
 6935SOL     OW32437   4.325   0.794   0.005  0.3652 -0.7237  0.0771
 6935SOL    HW132438   4.372   0.789  17.662  0.8345  3.4826  0.0972
 6935SOL    HW232439   4.260   0.726  17.728 -1.0591  0.4014  1.0605
 6936SOL     OW32440   3.006   4.389   3.562 -0.0704 -0.4630  0.2265
 6936SOL    HW132441   3.060   4.424   3.633  0.6278  1.5796 -1.3315
 6936SOL    HW232442   2.945   4.334   3.612  1.0265 -0.8461  1.1231
 6937SOL     OW32443   4.153   1.096  16.717 -0.0597 -0.6186  0.1842
 6937SOL    HW132444   4.159   1.033  16.789  0.0494  0.3286  0.9977
 6937SOL    HW232445   4.166   1.038  16.642  2.9825 -1.3265  1.2415
 6938SOL     OW32446   0.513   3.162   3.847  0.3727 -0.4407 -0.1903
 6938SOL    HW132447   0.488   3.249   3.879 -0.2736 -0.4233 -0.7402
 6938SOL    HW232448   0.604   3.164   3.875  0.7993  0.7159 -1.6765
 6939SOL     OW32449   3.508   0.087   6.375 -0.2772 -0.0140  0.1354
 6939SOL    HW132450   3.515   0.042   6.459  0.1519 -1.6332 -0.7519
 6939SOL    HW232451   3.598   0.113   6.357 -0.2319 -1.4783 -1.8474
 6940SOL     OW32452   1.419   3.297   5.619  0.1121  0.0811 -0.0484
 6940SOL    HW132453   1.424   3.333   5.530  0.3215 -0.6321 -0.3271
 6940SOL    HW232454   1.328   3.309   5.644 -0.0706  1.2623 -1.3322
 6941SOL     OW32455   0.281   2.730  13.386 -0.0018  0.3415  0.1993
 6941SOL    HW132456   0.208   2.722  13.447  0.9148 -1.3297  1.0546
 6941SOL    HW232457   0.346   2.710  13.453  0.1058  1.5013  0.4509
 6942SOL     OW32458   0.107   3.439   3.645  0.0770 -0.1277 -0.0808
 6942SOL    HW132459   0.064   3.521   3.668 -0.4092  0.1716 -2.0585
 6942SOL    HW232460   0.195   3.468   3.668 -0.8017  1.9625  0.5810
 6943SOL     OW32461   0.857   1.047   3.904  0.4060  0.4444 -0.0590
 6943SOL    HW132462   0.782   1.008   3.949 -0.3493  1.6922 -0.2158
 6943SOL    HW232463   0.833   1.009   3.819 -0.1353 -0.2385  0.4069
 6944SOL     OW32464   1.328   3.970  10.264  0.1222  0.5001  0.2874
 6944SOL    HW132465   1.361   3.979  10.174  1.1020 -0.8407  0.5213
 6944SOL    HW232466   1.243   3.929  10.252  1.6622 -3.2258  2.3018
 6945SOL     OW32467   1.276   2.989   6.792 -0.3421 -0.1976  0.2229
 6945SOL    HW132468   1.355   2.987   6.847 -0.9374 -2.7490  0.9807
 6945SOL    HW232469   1.236   2.902   6.804 -0.3645 -0.1976  0.1527
 6946SOL     OW32470   1.934   3.793   1.194 -0.5302 -0.0390  0.0173
 6946SOL    HW132471   1.867   3.824   1.255 -0.5894  1.1714 -0.6510
 6946SOL    HW232472   1.987   3.873   1.202  2.8837 -2.3009  0.2499
 6947SOL     OW32473   0.083   2.762  11.558  0.1846 -0.1169 -0.1276
 6947SOL    HW132474   4.734   2.727  11.529  0.0293 -1.3704  1.8332
 6947SOL    HW232475   0.070   2.734  11.649 -2.9891 -0.9787 -0.8573
 6948SOL     OW32476   1.361   3.250  13.191  0.1503 -0.0865 -0.4419
 6948SOL    HW132477   1.339   3.165  13.231 -1.5981  0.6907  0.2471
 6948SOL    HW232478   1.289   3.302  13.227  0.7426 -0.4917  1.3204
 6949SOL     OW32479   1.232   3.463   3.775 -0.6622  0.1340 -0.2734
 6949SOL    HW132480   1.218   3.411   3.854  0.0765 -1.1207 -0.9770
 6949SOL    HW232481   1.185   3.410   3.711 -0.7074 -0.5494  0.3362
 6950SOL     OW32482   3.556   3.540  17.634 -0.0523 -0.2691 -0.1271
 6950SOL    HW132483   3.597   3.469  17.584  3.8184  1.6352  0.4109
 6950SOL    HW232484   3.493   3.577  17.571 -0.8765 -0.4711  0.5800
 6951SOL     OW32485   2.451   3.150   9.863  0.4224  0.4526 -0.4130
 6951SOL    HW132486   2.434   3.062   9.897  1.2377 -0.2819 -1.9268
 6951SOL    HW232487   2.456   3.133   9.769  3.4179  1.2845 -0.4046
 6952SOL     OW32488   0.758   1.100   6.000  0.0403 -0.1469 -0.0768
 6952SOL    HW132489   0.679   1.137   5.960  1.3783  0.9873 -1.6521
 6952SOL    HW232490   0.816   1.074   5.929  1.6468 -1.6699  1.8184
 6953SOL     OW32491   3.880   2.489   4.138  0.1577 -0.5248  0.2833
 6953SOL    HW132492   3.794   2.481   4.096  0.2130 -0.7624  0.2162
 6953SOL    HW232493   3.929   2.431   4.081 -1.3179 -1.6647  0.1805
 6954SOL     OW32494   0.200   3.925   2.329 -0.1961  0.0693  0.0303
 6954SOL    HW132495   0.175   3.904   2.419 -0.5769 -1.4291 -0.4338
 6954SOL    HW232496   0.112   3.926   2.291 -0.4434 -0.9991  0.5778
 6955SOL     OW32497   4.610   3.929   3.697  0.4640 -0.0203  0.2586
 6955SOL    HW132498   4.529   3.975   3.716 -1.1393 -3.4754  1.7129
 6955SOL    HW232499   4.610   3.854   3.757  0.0663  0.2538  0.5991
 6956SOL     OW32500   1.279   3.767   6.233  0.4177  0.6193  0.2321
 6956SOL    HW132501   1.216   3.703   6.267 -0.1742  0.9107 -0.3156
 6956SOL    HW232502   1.275   3.832   6.302  0.1967  0.0106  0.7924
 6957SOL     OW32503   0.915   4.577   2.937 -0.4363 -0.6026 -0.0140
 6957SOL    HW132504   0.969   4.602   2.862  1.4057 -1.1673  1.1167
 6957SOL    HW232505   0.975   4.607   3.006 -0.1584  0.7170 -0.8241
 6958SOL     OW32506   4.091   3.347   3.297  0.1274  0.6701  0.5280
 6958SOL    HW132507   4.034   3.270   3.299  1.2168 -0.1977 -2.6460
 6958SOL    HW232508   4.181   3.319   3.282 -0.9273 -2.7856  0.4834
 6959SOL     OW32509   2.777   0.459   4.198  0.4795  0.1430  0.1644
 6959SOL    HW132510   2.856   0.422   4.157  0.7527  0.5569  0.3120
 6959SOL    HW232511   2.803   0.457   4.290  0.0687  1.5463  0.3240
 6960SOL     OW32512   2.223   1.987   9.748  0.1760 -0.4140 -0.7850
 6960SOL    HW132513   2.137   1.999   9.786  0.1648 -0.0961 -0.9161
 6960SOL    HW232514   2.203   1.982   9.655 -1.6174 -2.2239 -0.2924
 6961SOL     OW32515   4.197   3.588  11.020 -0.0442 -0.2553  0.1331
 6961SOL    HW132516   4.124   3.580  10.958  1.2925  1.4810 -1.6818
 6961SOL    HW232517   4.259   3.613  10.952 -3.3383  0.0058 -2.8190
 6962SOL     OW32518   3.618   4.112  16.302  0.2715  0.5914  0.1306
 6962SOL    HW132519   3.555   4.040  16.299  1.7140 -0.6676  0.4135
 6962SOL    HW232520   3.695   4.065  16.336 -0.8821  0.3809  2.5070
 6963SOL     OW32521   3.299   2.385   5.439  0.3752 -0.3308 -0.3156
 6963SOL    HW132522   3.208   2.408   5.458  0.8275  1.1092  0.1327
 6963SOL    HW232523   3.336   2.364   5.524  1.1661 -0.7540 -0.7721
 6964SOL     OW32524   0.002   1.626   7.633 -0.5596  0.1306  0.6945
 6964SOL    HW132525   0.036   1.702   7.586 -2.0673  0.9454  0.9107
 6964SOL    HW232526   4.720   1.558   7.568 -4.7418  1.2260  0.6627
 6965SOL     OW32527   0.870   0.984   9.274 -0.0482 -0.2393  0.1516
 6965SOL    HW132528   0.948   1.000   9.221 -2.2119  3.6344 -1.8235
 6965SOL    HW232529   0.895   0.997   9.365 -1.7307 -1.4156  0.7781
 6966SOL     OW32530   1.515   0.790   2.187  0.0814 -0.2999 -0.5955
 6966SOL    HW132531   1.549   0.866   2.234 -2.0089  0.0075  0.4087
 6966SOL    HW232532   1.593   0.735   2.180  0.6252  0.3208  0.7588
 6967SOL     OW32533   2.036   1.153  14.083  0.1140  0.5235  0.2807
 6967SOL    HW132534   1.989   1.146  14.167  1.5199 -0.8274  0.9630
 6967SOL    HW232535   1.979   1.205  14.026 -1.1335 -0.3819  0.7081
 6968SOL     OW32536   0.371   0.372  17.486  0.1126  0.3146 -0.1086
 6968SOL    HW132537   0.449   0.392  17.433  1.5209 -2.2929  0.9622
 6968SOL    HW232538   0.325   0.456  17.494 -0.4552 -0.0389  0.3113
 6969SOL     OW32539   3.758   3.716   1.418 -0.2481  0.4807 -0.1921
 6969SOL    HW132540   3.753   3.794   1.363  0.0438  1.1526  0.7425
 6969SOL    HW232541   3.702   3.660   1.364  1.0065 -0.6898 -0.2876
 6970SOL     OW32542   1.336   0.109   7.542  0.1060 -0.2080  0.4046
 6970SOL    HW132543   1.327   0.135   7.634 -0.7953 -3.2270  1.1771
 6970SOL    HW232544   1.334   0.014   7.548 -0.6643 -0.1581  1.0249
 6971SOL     OW32545   2.306   4.563   5.957 -0.1626  0.1966 -0.1436
 6971SOL    HW132546   2.258   4.562   5.875 -3.1749  1.3943  1.5896
 6971SOL    HW232547   2.341   4.475   5.953  0.3827  0.4004  0.1481
 6972SOL     OW32548   1.598   1.725  10.471 -0.3080 -0.3207  0.4053
 6972SOL    HW132549   1.618   1.818  10.462 -0.9436 -0.1428  0.8596
 6972SOL    HW232550   1.681   1.687  10.500 -0.4853  0.0105  1.3420
 6973SOL     OW32551   0.773   0.885  17.398  0.2432 -0.2571 -0.4605
 6973SOL    HW132552   0.721   0.806  17.410 -2.4131  1.8807  2.2597
 6973SOL    HW232553   0.707   0.952  17.378  1.9191  1.1523 -1.3266
 6974SOL     OW32554   3.693   3.114  11.758 -0.0306 -0.2985  0.1809
 6974SOL    HW132555   3.755   3.182  11.782  1.1768 -1.2898 -0.0847
 6974SOL    HW232556   3.616   3.171  11.756 -0.6152 -1.0492  1.6239
 6975SOL     OW32557   1.551   0.984   3.224  0.4667  0.0923  0.7296
 6975SOL    HW132558   1.630   0.953   3.180 -1.6150 -1.9067 -1.5726
 6975SOL    HW232559   1.579   0.989   3.315  1.8176  0.4661  0.3034
 6976SOL     OW32560   0.180   4.446   3.258  0.4718  0.3127  0.3805
 6976SOL    HW132561   0.229   4.493   3.191 -0.3418  0.3845 -0.1695
 6976SOL    HW232562   0.223   4.475   3.339 -2.5905 -2.5568  3.0321
 6977SOL     OW32563   1.410   1.649  13.718 -0.6261  0.8138  0.1457
 6977SOL    HW132564   1.321   1.681  13.736 -0.7013  0.8259 -0.2312
 6977SOL    HW232565   1.451   1.720  13.669  2.7086 -0.2335  1.4332
 6978SOL     OW32566   3.979   2.145   5.592 -0.2180 -0.0863  0.5376
 6978SOL    HW132567   4.068   2.164   5.623  1.3831 -4.0051 -1.7509
 6978SOL    HW232568   4.007   2.131   5.502 -3.9203 -0.4262 -0.5254
 6979SOL     OW32569   4.097   3.245  17.310 -0.5619 -0.1667  0.0167
 6979SOL    HW132570   4.111   3.271  17.219  0.9982 -1.5724 -0.1462
 6979SOL    HW232571   4.162   3.303  17.351  0.7634 -0.4383 -1.6953
 6980SOL     OW32572   4.515   0.890  15.920 -0.1386  0.1904 -0.0936
 6980SOL    HW132573   4.600   0.933  15.930 -0.4499  1.0152 -0.9658
 6980SOL    HW232574   4.468   0.967  15.888 -0.4584  0.2142  0.4250
 6981SOL     OW32575   3.990   3.020   2.886  0.3977  0.8355 -0.1539
 6981SOL    HW132576   3.980   3.099   2.833 -3.2662 -0.0267 -0.7579
 6981SOL    HW232577   3.897   2.998   2.897  1.1404 -1.3906  1.7134
 6982SOL     OW32578   3.197   2.509  12.700  0.2692  0.1472  0.1509
 6982SOL    HW132579   3.201   2.457  12.781  1.2205 -0.7451 -0.4687
 6982SOL    HW232580   3.236   2.590  12.732 -0.3785  0.7706 -0.6680
 6983SOL     OW32581   0.069   0.019   4.689  0.1783  0.0985 -0.1704
 6983SOL    HW132582   0.002   0.072   4.646  2.1171  1.9012 -0.9926
 6983SOL    HW232583   0.020   4.712   4.759 -3.7681  1.8210 -1.8718
 6984SOL     OW32584   1.264   2.419   3.820  0.1775  0.0333  0.1476
 6984SOL    HW132585   1.227   2.478   3.755  2.3754 -0.3740 -1.4720
 6984SOL    HW232586   1.202   2.415   3.893  1.6511 -0.3458  1.3760
 6985SOL     OW32587   0.454   2.841   5.024 -0.2552  0.1960 -0.0092
 6985SOL    HW132588   0.514   2.773   4.995 -1.9800 -0.6880 -1.4746
 6985SOL    HW232589   0.376   2.839   4.969 -0.6052 -1.1695  0.5376
 6986SOL     OW32590   2.995   2.890   5.206  0.3995 -0.4122 -0.4858
 6986SOL    HW132591   3.073   2.944   5.198 -1.3512  2.0839 -0.7714
 6986SOL    HW232592   3.035   2.803   5.202  0.1626 -0.5654  0.6570
 6987SOL     OW32593   3.322   2.688  15.843 -0.0811 -0.0819  0.4480
 6987SOL    HW132594   3.269   2.767  15.848  1.3855  1.0247 -1.6868
 6987SOL    HW232595   3.290   2.648  15.924 -1.6570  1.8780  0.7713
 6988SOL     OW32596   2.861   1.416   3.803 -0.1766  0.4076 -0.2725
 6988SOL    HW132597   2.770   1.415   3.834  0.1288 -0.6235  0.5799
 6988SOL    HW232598   2.896   1.399   3.891  3.2893  1.8582 -1.3553
 6989SOL     OW32599   1.091   0.559  12.582 -0.6246  0.0972 -0.3146
 6989SOL    HW132600   1.120   0.518  12.663 -0.3157 -0.1660 -0.5549
 6989SOL    HW232601   1.089   0.486  12.520 -2.1108 -0.0583 -0.0916
 6990SOL     OW32602   2.692   4.559   0.632 -0.9602 -0.8460  0.0734
 6990SOL    HW132603   2.656   4.559   0.543 -0.7665  0.6345 -0.0072
 6990SOL    HW232604   2.706   4.652   0.650 -0.2662 -0.5154 -2.1287
 6991SOL     OW32605   1.540   4.717  16.756 -0.1250 -0.5486 -0.2423
 6991SOL    HW132606   1.507   4.648  16.814 -0.0877 -1.1201 -0.9021
 6991SOL    HW232607   1.544   4.677  16.669  0.4428 -1.4506  0.1974
 6992SOL     OW32608   1.513   0.550   9.593 -0.1316 -0.4418  0.1149
 6992SOL    HW132609   1.492   0.632   9.638  0.2249  0.0122 -0.5436
 6992SOL    HW232610   1.522   0.499   9.673 -1.3420 -0.7199  0.0857
 6993SOL     OW32611   1.424   2.328   5.901 -0.1722 -0.2721 -0.2466
 6993SOL    HW132612   1.371   2.279   5.963 -2.0095  1.2455 -0.6213
 6993SOL    HW232613   1.363   2.388   5.858 -0.7205 -0.0902  0.7956
 6994SOL     OW32614   3.676   0.037   3.842 -0.1532  0.6631  0.1552
 6994SOL    HW132615   3.622   0.095   3.788  0.8481 -0.3127 -1.9003
 6994SOL    HW232616   3.602   4.723   3.877  1.6292 -1.5689  0.7336
 6995SOL     OW32617   4.215   1.282   3.878 -0.0754  0.5926 -0.0413
 6995SOL    HW132618   4.299   1.305   3.837 -0.2956  2.5468  0.6116
 6995SOL    HW232619   4.241   1.254   3.965  0.1776  0.1938 -0.2436
 6996SOL     OW32620   1.287   0.752   4.845 -0.3377 -0.0324 -0.0370
 6996SOL    HW132621   1.381   0.742   4.858 -0.2836 -1.5281 -1.4710
 6996SOL    HW232622   1.257   0.772   4.933  1.5539 -0.6808  0.7500
 6997SOL     OW32623   1.067   1.503   5.099  0.5914 -0.1018  0.1912
 6997SOL    HW132624   0.987   1.458   5.073  0.1840  0.2256  0.8995
 6997SOL    HW232625   1.028   1.590   5.111  0.8708 -0.2286  2.0457
 6998SOL     OW32626   0.379   2.568   7.886 -0.1479 -0.1632 -0.8193
 6998SOL    HW132627   0.396   2.559   7.792 -1.5763 -1.9698 -0.9008
 6998SOL    HW232628   0.439   2.505   7.927 -0.9877 -0.8227 -0.6098
 6999SOL     OW32629   2.389   3.415   9.884 -0.8142  0.2815 -0.3853
 6999SOL    HW132630   2.414   3.327   9.854  1.4138  0.1744  1.8263
 6999SOL    HW232631   2.399   3.399   9.978 -1.7549 -0.4666 -0.4117
 7000SOL     OW32632   3.044   4.417   7.182  0.1280  0.1717 -0.2172
 7000SOL    HW132633   3.094   4.465   7.248 -1.2986  1.5390 -0.1291
 7000SOL    HW232634   3.107   4.349   7.157 -0.4928 -0.2250 -0.7101
 7001SOL     OW32635   0.019   4.559  16.188  1.0143 -0.3374  0.0685
 7001SOL    HW132636   0.107   4.523  16.182  1.6880  1.3693 -0.3265
 7001SOL    HW232637   4.713   4.567  16.102  1.1506 -0.2405  0.0126
 7002SOL     OW32638   1.347   1.526   3.338  0.3727 -0.2154  0.1086
 7002SOL    HW132639   1.264   1.547   3.381 -0.6438 -1.3425 -1.2768
 7002SOL    HW232640   1.410   1.522   3.409  1.4874 -0.2274 -0.8944
 7003SOL     OW32641   2.291   0.990   5.241 -0.6523  0.7611 -0.5507
 7003SOL    HW132642   2.310   0.993   5.147 -1.0802 -0.2928 -0.6722
 7003SOL    HW232643   2.258   1.079   5.252 -3.3127 -0.4778  1.3497
 7004SOL     OW32644   1.025   3.900   7.818  0.3989  0.1501  0.9004
 7004SOL    HW132645   1.113   3.909   7.854  0.6072  0.2546  0.3606
 7004SOL    HW232646   0.969   3.924   7.891 -0.0277  0.8584  0.3464
 7005SOL     OW32647   1.348   1.438   9.091 -0.2379  0.5505  0.6343
 7005SOL    HW132648   1.277   1.383   9.059  0.6787 -0.3496  0.1737
 7005SOL    HW232649   1.289   1.506   9.123 -0.7210  1.3700 -2.0081
 7006SOL     OW32650   4.634   1.752   4.389  0.1336  0.2965  0.0643
 7006SOL    HW132651   4.684   1.776   4.466  0.5926  1.7845 -0.6983
 7006SOL    HW232652   4.662   1.661   4.380 -2.1331 -0.3012 -1.0909
 7007SOL     OW32653   0.120   3.578   5.161 -0.6061 -0.5587  0.2274
 7007SOL    HW132654   0.195   3.596   5.104 -1.0893  0.2561 -0.1535
 7007SOL    HW232655   0.073   3.658   5.136  0.3039  0.9405  3.2760
 7008SOL     OW32656   0.076   1.324   1.649 -0.1296 -0.1640  0.9557
 7008SOL    HW132657   4.721   1.357   1.645  0.3535  1.3026  2.2779
 7008SOL    HW232658   0.122   1.405   1.671 -3.3415  1.9741 -0.1534
 7009SOL     OW32659   0.335   3.361   5.025 -0.7923  0.1760 -0.1646
 7009SOL    HW132660   0.371   3.424   4.964 -1.3644 -1.0246 -1.7438
 7009SOL    HW232661   0.398   3.289   5.019  0.4357  1.2589 -0.0206
 7010SOL     OW32662   1.841   1.497   5.539  1.1213  0.1357  0.1350
 7010SOL    HW132663   1.778   1.558   5.500 -1.0324 -0.7911  2.1573
 7010SOL    HW232664   1.807   1.487   5.628 -2.8737  0.1385 -1.3773
 7011SOL     OW32665   3.142   3.561  15.317 -0.2010  0.2660 -0.1979
 7011SOL    HW132666   3.148   3.595  15.228 -1.4316 -1.9152 -1.1181
 7011SOL    HW232667   3.059   3.513  15.319 -0.0547 -0.1006 -2.2997
 7012SOL     OW32668   3.949   1.729   1.475  0.0331 -0.3924  0.1756
 7012SOL    HW132669   3.971   1.640   1.500  1.8189 -0.6155 -2.2843
 7012SOL    HW232670   3.940   1.709   1.382 -0.6477  2.1642 -0.3250
 7013SOL     OW32671   1.942   3.609   2.792 -0.3241  0.3590 -0.0286
 7013SOL    HW132672   1.992   3.549   2.847 -0.7429 -0.6444 -0.7447
 7013SOL    HW232673   2.003   3.683   2.789  1.6974 -1.3084 -0.5276
 7014SOL     OW32674   2.948   1.982   3.116 -0.1197 -0.0817  0.0179
 7014SOL    HW132675   2.884   2.032   3.167  1.3713  1.4931  0.3444
 7014SOL    HW232676   2.894   1.932   3.055  1.5354 -0.0328 -1.4970
 7015SOL     OW32677   4.256   0.123   4.243  0.1665 -0.5495 -0.3034
 7015SOL    HW132678   4.213   0.198   4.204  0.3821 -0.9772 -1.3653
 7015SOL    HW232679   4.218   0.131   4.330  1.9803  0.2025  0.4247
 7016SOL     OW32680   0.644   4.677   4.161  0.2995  0.2403 -0.2429
 7016SOL    HW132681   0.658   0.030   4.193 -3.2173  1.1228 -1.1369
 7016SOL    HW232682   0.548   4.668   4.158  0.0997  1.3086  3.0090
 7017SOL     OW32683   1.477   3.120  11.476  0.1163  0.1348 -0.0823
 7017SOL    HW132684   1.420   3.138  11.401  0.3337 -0.4074 -0.3783
 7017SOL    HW232685   1.444   3.181  11.541  1.2573 -1.2107  1.7448
 7018SOL     OW32686   0.835   2.284  15.377  0.2453 -0.2777 -0.1440
 7018SOL    HW132687   0.875   2.344  15.438 -1.9775 -0.2750  1.3231
 7018SOL    HW232688   0.916   2.273  15.327  1.8608 -0.0527  2.4186
 7019SOL     OW32689   0.725   3.191   5.447  0.1261 -0.2755  0.7940
 7019SOL    HW132690   0.739   3.102   5.414  1.3248 -1.4252  4.3122
 7019SOL    HW232691   0.670   3.178   5.525 -1.4917  0.4454 -0.2385
 7020SOL     OW32692   1.293   3.519   4.770 -0.3091 -0.2652 -0.1910
 7020SOL    HW132693   1.368   3.469   4.801  1.2172  0.9387 -1.9151
 7020SOL    HW232694   1.244   3.520   4.852  0.4137 -0.8861  0.2501
 7021SOL     OW32695   1.082   3.690  13.734  0.9032 -1.1510  0.0144
 7021SOL    HW132696   1.127   3.668  13.652  2.1560 -1.4643  0.7877
 7021SOL    HW232697   1.150   3.698  13.800  0.5569 -1.7715  0.4497
 7022SOL     OW32698   0.789   2.671   2.569  0.6117 -0.1992  0.0614
 7022SOL    HW132699   0.715   2.731   2.576  0.6251 -0.4571  2.2473
 7022SOL    HW232700   0.786   2.652   2.475  1.3558  1.3933 -0.2853
 7023SOL     OW32701   2.367   2.716   2.963  0.4855  0.4390  0.2603
 7023SOL    HW132702   2.453   2.709   3.004  0.8069  0.1982 -0.4429
 7023SOL    HW232703   2.317   2.760   3.031 -2.8049  0.0816 -1.9182
 7024SOL     OW32704   1.928   3.082  13.018  0.2084 -0.0697  0.3707
 7024SOL    HW132705   1.873   3.113  12.946 -0.1748 -0.9335  0.2855
 7024SOL    HW232706   2.008   3.134  13.023 -0.2386  0.5154  1.2609
 7025SOL     OW32707   0.740   3.212   8.239 -0.5081  0.4720  0.5708
 7025SOL    HW132708   0.833   3.214   8.217 -0.6117  1.9188  0.2758
 7025SOL    HW232709   0.706   3.225   8.151 -2.5718  2.6496  1.6950
 7026SOL     OW32710   4.050   3.753   8.452 -0.1417  0.1856  0.4680
 7026SOL    HW132711   4.038   3.807   8.530 -2.3088  1.4926 -0.7678
 7026SOL    HW232712   4.002   3.798   8.383  0.6203  0.1530 -0.0854
 7027SOL     OW32713   2.144   0.513   2.770 -0.4676 -0.1851  0.2615
 7027SOL    HW132714   2.104   0.432   2.802  1.2394 -1.2492 -0.3172
 7027SOL    HW232715   2.072   0.547   2.717 -1.5199 -1.3662  0.9265
 7028SOL     OW32716   3.867   4.414   3.623  0.7970 -0.6539  0.2448
 7028SOL    HW132717   3.805   4.391   3.554  0.8883 -1.7312  0.5249
 7028SOL    HW232718   3.936   4.347   3.626 -0.3118 -1.8864 -1.7653
 7029SOL     OW32719   0.476   3.781   1.957  0.4512 -0.0399 -0.4110
 7029SOL    HW132720   0.442   3.709   2.009  1.2883 -0.4294 -0.4091
 7029SOL    HW232721   0.440   3.855   2.007 -1.3170 -1.9557  1.1265
 7030SOL     OW32722   1.318   1.511   1.777 -0.1224  0.5178  0.3691
 7030SOL    HW132723   1.376   1.540   1.847  0.8162 -0.5983  0.0444
 7030SOL    HW232724   1.241   1.504   1.834 -0.5093  1.9876  0.0234
 7031SOL     OW32725   2.830   3.679   7.345 -0.1983  0.5539  0.7530
 7031SOL    HW132726   2.743   3.704   7.313  0.1130  0.1534 -0.3968
 7031SOL    HW232727   2.838   3.699   7.438 -1.8696  1.1052  0.7918
 7032SOL     OW32728   4.710   1.620   2.877 -0.8212  0.1732  0.4118
 7032SOL    HW132729   0.054   1.610   2.823 -0.4399  1.4042  0.7330
 7032SOL    HW232730   4.696   1.715   2.875 -4.5939 -0.3764  1.1179
 7033SOL     OW32731   1.874   0.760  15.878 -0.3433 -0.7193 -0.0826
 7033SOL    HW132732   1.801   0.710  15.916  0.1650 -1.3001  0.1259
 7033SOL    HW232733   1.834   0.846  15.867  1.2981  0.0833  0.3989
 7034SOL     OW32734   3.872   0.572   8.274  0.9534 -0.3149  0.4500
 7034SOL    HW132735   3.908   0.622   8.348 -0.1470  1.0595  0.0641
 7034SOL    HW232736   3.779   0.591   8.282  0.6176 -1.4873 -0.8046
 7035SOL     OW32737   2.389   4.721   6.214 -0.0376 -0.0974  0.4816
 7035SOL    HW132738   2.377   0.077   6.188  0.5772 -0.8762 -2.4873
 7035SOL    HW232739   2.405   4.677   6.131  1.0767 -0.7365  1.0322
 7036SOL     OW32740   2.191   1.400   4.469  0.2325  0.1095 -0.6764
 7036SOL    HW132741   2.172   1.486   4.432 -0.2277  1.1183  1.8677
 7036SOL    HW232742   2.109   1.377   4.513  0.4106  0.9415  0.0928
 7037SOL     OW32743   2.976   2.415   5.132 -0.0508  0.0145 -0.0508
 7037SOL    HW132744   2.882   2.431   5.140  0.8025  3.5926  2.4136
 7037SOL    HW232745   3.002   2.462   5.053  3.6878  0.8930  1.6987
 7038SOL     OW32746   1.819   4.296   6.438  0.3127 -0.4180 -0.6493
 7038SOL    HW132747   1.852   4.368   6.384  1.9069 -0.7186 -0.0719
 7038SOL    HW232748   1.773   4.238   6.378 -0.2871 -0.3202 -0.2759
 7039SOL     OW32749   3.661   2.175   4.316  0.3854  0.4491 -0.0932
 7039SOL    HW132750   3.680   2.261   4.353 -0.0419 -0.3072  1.8840
 7039SOL    HW232751   3.618   2.127   4.387  1.2441  0.0919  0.1823
 7040SOL     OW32752   4.377   1.678   0.531 -0.0098 -0.0962  0.0638
 7040SOL    HW132753   4.420   1.724   0.603  1.5870 -2.5712  0.7002
 7040SOL    HW232754   4.307   1.625   0.568 -0.9814  1.8396  0.9622
 7041SOL     OW32755   1.280   0.091   4.344 -0.1274  0.0790 -0.5717
 7041SOL    HW132756   1.319   0.122   4.263 -0.2821 -2.7964 -1.7638
 7041SOL    HW232757   1.210   0.155   4.355 -0.5561 -0.2811 -1.1990
 7042SOL     OW32758   4.605   2.293   3.382  0.1810  0.2575 -0.3306
 7042SOL    HW132759   4.600   2.376   3.428 -0.4840  0.0960 -0.1214
 7042SOL    HW232760   4.659   2.319   3.307  3.1968 -1.9109  1.0580
 7043SOL     OW32761   1.552   3.053   3.027 -0.0620 -0.4352 -0.0624
 7043SOL    HW132762   1.608   3.042   2.951  0.7661  1.2844  0.3001
 7043SOL    HW232763   1.613   3.035   3.099 -1.0874 -2.7172  0.2390
 7044SOL     OW32764   2.968   2.192  16.474 -0.1022  0.7605  0.1824
 7044SOL    HW132765   3.035   2.252  16.443  0.9964 -0.5637  0.0003
 7044SOL    HW232766   2.927   2.170  16.390  3.0688  1.3941 -1.5198
 7045SOL     OW32767   0.207   3.821  14.610 -0.3056 -0.6366 -0.1223
 7045SOL    HW132768   0.241   3.762  14.678  0.6918  0.9994  0.7886
 7045SOL    HW232769   0.257   3.797  14.533  0.1998  2.3267 -0.7056
 7046SOL     OW32770   3.412   0.723  16.100  0.1805 -0.4549 -0.2833
 7046SOL    HW132771   3.375   0.797  16.053 -1.2932 -0.3264  1.1094
 7046SOL    HW232772   3.415   0.659  16.028  0.7594  0.8342 -1.3937
 7047SOL     OW32773   4.492   1.957   6.795 -0.1377  0.2276  0.6116
 7047SOL    HW132774   4.416   1.913   6.832 -1.5504  2.5060  0.4142
 7047SOL    HW232775   4.504   2.037   6.846  2.3993  0.1421  0.1618
 7048SOL     OW32776   1.272   4.434   5.868  0.5153  0.1374  0.1044
 7048SOL    HW132777   1.213   4.382   5.813 -0.3391 -1.6118  2.7195
 7048SOL    HW232778   1.357   4.407   5.833 -0.2540  0.9179 -2.3653
 7049SOL     OW32779   2.004   4.622   4.401 -0.0713  0.4912  0.1671
 7049SOL    HW132780   1.919   4.577   4.402 -0.5626  1.4012 -1.1825
 7049SOL    HW232781   2.026   4.611   4.494 -3.1765 -0.4522  0.8103
 7050SOL     OW32782   3.984   4.372   9.612 -0.3524 -0.0520 -0.2211
 7050SOL    HW132783   4.013   4.329   9.531  1.4088 -1.5965  1.2287
 7050SOL    HW232784   3.910   4.315   9.632  0.7112  0.0179  3.9255
 7051SOL     OW32785   1.281   3.897  15.215  0.5680  0.1617 -0.2208
 7051SOL    HW132786   1.287   3.910  15.309 -0.1408  1.4446 -0.3583
 7051SOL    HW232787   1.350   3.955  15.185  0.9038 -0.7907 -1.2661
 7052SOL     OW32788   3.052   4.726  12.243  0.0201 -0.2134  0.0450
 7052SOL    HW132789   2.971   4.680  12.225 -0.3345  0.6273 -0.4969
 7052SOL    HW232790   3.041   0.080  12.211  0.6349  0.2910  1.2071
 7053SOL     OW32791   2.060   0.182   8.252  0.0915  0.1097 -0.1211
 7053SOL    HW132792   1.987   0.162   8.193 -0.9713  0.4370  1.0713
 7053SOL    HW232793   2.050   0.272   8.281 -1.7830  0.5897 -2.2498
 7054SOL     OW32794   0.352   3.291   8.571 -0.0691  0.3375  0.1335
 7054SOL    HW132795   0.280   3.234   8.596 -1.0257  1.3417 -0.3408
 7054SOL    HW232796   0.408   3.227   8.527  1.3122  1.7417 -0.1585
 7055SOL     OW32797   0.132   4.719   2.014 -0.6350  0.1549 -0.1083
 7055SOL    HW132798   0.036   4.718   2.022 -0.6872 -0.6755 -0.8672
 7055SOL    HW232799   0.149   4.656   1.944  0.9175 -0.6517  0.9934
 7056SOL     OW32800   3.642   0.603   8.738 -0.1866 -0.2813 -0.0406
 7056SOL    HW132801   3.647   0.671   8.671 -1.2130 -0.6012 -0.4575
 7056SOL    HW232802   3.547   0.590   8.734 -0.2648  0.3497 -0.2975
 7057SOL     OW32803   2.571   2.958   2.168  0.2711 -0.0409 -0.2497
 7057SOL    HW132804   2.643   3.020   2.180 -0.6266  0.7137  1.2285
 7057SOL    HW232805   2.568   2.959   2.072  0.1030 -2.1584 -0.2688
 7058SOL     OW32806   1.224   2.750   2.505 -0.6652  0.6022  0.6036
 7058SOL    HW132807   1.289   2.820   2.511  0.0859 -0.1006  0.5918
 7058SOL    HW232808   1.190   2.777   2.420  1.2970  0.5808 -0.1744
 7059SOL     OW32809   3.357   2.912  14.076  0.2727 -0.1250 -0.0809
 7059SOL    HW132810   3.385   2.827  14.043  2.1664  0.2664  0.5280
 7059SOL    HW232811   3.273   2.918  14.030  1.4363 -0.1112 -2.2278
 7060SOL     OW32812   2.305   1.287   1.452  0.4649 -0.4210  0.1046
 7060SOL    HW132813   2.224   1.312   1.497 -0.3706 -0.4810 -1.3690
 7060SOL    HW232814   2.273   1.262   1.366  1.1901 -1.5778  0.1751
 7061SOL     OW32815   3.216   2.688   4.704  0.4256 -0.3016  0.1953
 7061SOL    HW132816   3.201   2.718   4.794 -1.0274  1.2767 -0.5859
 7061SOL    HW232817   3.128   2.672   4.669  0.9175 -0.7050 -0.8702
 7062SOL     OW32818   2.374   2.006   9.954  0.4769  0.2264 -0.0405
 7062SOL    HW132819   2.334   2.008   9.867 -2.6186  1.6021  1.4013
 7062SOL    HW232820   2.436   1.935   9.936  0.8043  1.0042 -1.9477
 7063SOL     OW32821   1.965   2.828   3.532  0.0800  0.0277 -0.1797
 7063SOL    HW132822   1.930   2.748   3.495 -0.2839  0.9834 -1.8939
 7063SOL    HW232823   1.941   2.817   3.624  4.6323 -3.1642  0.6177
 7064SOL     OW32824   2.662   4.403   7.751  0.2517 -0.0144 -0.4882
 7064SOL    HW132825   2.755   4.416   7.766  0.4172 -0.9938 -0.7019
 7064SOL    HW232826   2.654   4.314   7.717 -0.2749 -0.6256  1.2438
 7065SOL     OW32827   0.374   2.560   5.766  0.4274 -0.2327 -0.4284
 7065SOL    HW132828   0.394   2.653   5.752 -0.4506  0.3635  2.2767
 7065SOL    HW232829   0.348   2.559   5.858  2.5825  1.6111  0.2024
 7066SOL     OW32830   3.042   2.385  12.217 -0.7142  0.3814 -0.3196
 7066SOL    HW132831   3.069   2.338  12.296 -1.1461  1.9217  0.7587
 7066SOL    HW232832   2.953   2.356  12.202  0.4520 -3.4173  0.1403
 7067SOL     OW32833   1.710   1.614   6.538 -0.2250  0.3975 -0.2399
 7067SOL    HW132834   1.736   1.658   6.456  0.9583 -2.2115 -1.2569
 7067SOL    HW232835   1.620   1.593   6.517  0.8497 -3.8221 -0.5037
 7068SOL     OW32836   1.401   0.431   5.769  0.3497 -0.5216 -0.3523
 7068SOL    HW132837   1.430   0.403   5.682  2.2400 -0.2199  0.1793
 7068SOL    HW232838   1.324   0.483   5.746  1.4184 -0.5566 -4.0385
 7069SOL     OW32839   1.313   2.897   3.101 -0.0050 -0.1639  0.0951
 7069SOL    HW132840   1.247   2.966   3.091 -0.7184 -1.0115 -0.9743
 7069SOL    HW232841   1.396   2.935   3.073  0.2729 -0.2870  0.7372
 7070SOL     OW32842   2.772   0.179   7.517  0.9050  0.2527  0.4684
 7070SOL    HW132843   2.720   0.156   7.594  0.8998 -2.3065 -0.2995
 7070SOL    HW232844   2.861   0.146   7.533  0.8424  0.6809  1.6674
 7071SOL     OW32845   4.681   4.555  16.446  0.1622  0.2328  0.0227
 7071SOL    HW132846   4.715   4.579  16.359  1.0797  1.6469  0.7641
 7071SOL    HW232847   4.607   4.499  16.423  0.9839 -1.1275  0.6979
 7072SOL     OW32848   1.329   2.601   6.592 -0.1768  0.2239 -0.6393
 7072SOL    HW132849   1.318   2.672   6.655  2.1307 -0.5706  0.6351
 7072SOL    HW232850   1.250   2.560   6.625 -0.0760 -0.9379 -1.8551
 7073SOL     OW32851   3.512   1.816  14.378 -0.2722 -0.1798 -0.0769
 7073SOL    HW132852   3.543   1.776  14.459  0.7064 -0.2324 -0.4826
 7073SOL    HW232853   3.468   1.899  14.397  0.1291  0.1342 -0.4989
 7074SOL     OW32854   3.971   2.523   5.381  0.0342  0.4527 -0.3776
 7074SOL    HW132855   4.002   2.606   5.419  1.8407 -1.0974  1.4900
 7074SOL    HW232856   3.883   2.537   5.348  0.6410  0.6032 -1.9111
 7075SOL     OW32857   1.084   1.584  11.255  0.5420 -0.1077 -0.2949
 7075SOL    HW132858   1.169   1.551  11.227  0.9190  0.2617  0.4100
 7075SOL    HW232859   1.041   1.593  11.170 -2.4302  0.3619  1.2751
 7076SOL     OW32860   3.938   0.534   4.736 -0.7237 -0.0020  0.3065
 7076SOL    HW132861   3.970   0.595   4.803 -0.4752  0.7255 -0.4594
 7076SOL    HW232862   3.979   0.570   4.656 -1.2339  1.2214  0.6011
 7077SOL     OW32863   4.392   1.783  13.806  0.1780  0.6955  0.3098
 7077SOL    HW132864   4.434   1.868  13.819 -0.0802  1.0904 -1.5709
 7077SOL    HW232865   4.441   1.748  13.732 -2.6751  1.1532 -1.8069
 7078SOL     OW32866   2.778   1.528   8.554  0.0913 -0.1635  0.2066
 7078SOL    HW132867   2.747   1.467   8.621  0.5684 -1.0920 -0.4129
 7078SOL    HW232868   2.835   1.587   8.603 -0.2662 -0.7053  1.2806
 7079SOL     OW32869   3.112   3.079   4.227 -0.1918 -0.1721  0.3811
 7079SOL    HW132870   3.087   3.045   4.313  1.9590 -0.2718  0.9458
 7079SOL    HW232871   3.185   3.138   4.244 -1.5581  1.9686 -1.0889
 7080SOL     OW32872   2.148   2.812   7.487 -0.5635  0.2662 -0.3551
 7080SOL    HW132873   2.077   2.776   7.539 -0.9010  1.0396 -0.2783
 7080SOL    HW232874   2.129   2.906   7.494  1.6462  0.8532 -2.3564
 7081SOL     OW32875   1.601   2.122   6.444  0.2001  0.0007  0.1109
 7081SOL    HW132876   1.532   2.056   6.446 -1.2850  1.5701  0.7597
 7081SOL    HW232877   1.619   2.117   6.538  1.2774  2.0169  0.0277
 7082SOL     OW32878   2.246   0.187   5.249 -0.0910  0.3445  0.2487
 7082SOL    HW132879   2.308   0.145   5.189 -0.4957 -0.7830  0.6304
 7082SOL    HW232880   2.244   0.129   5.325  0.9988 -0.8496 -0.6420
 7083SOL     OW32881   4.584   0.469   7.392 -0.2147 -0.4427 -0.4707
 7083SOL    HW132882   4.590   0.407   7.465 -1.4160  1.6393  1.4019
 7083SOL    HW232883   4.548   0.552   7.425  1.2471  0.6014 -1.5317
 7084SOL     OW32884   2.423   4.185  15.171  0.1517  0.3861  0.2428
 7084SOL    HW132885   2.425   4.187  15.267  3.9538  0.0766  0.1360
 7084SOL    HW232886   2.360   4.251  15.140 -0.5146  0.6146  2.0905
 7085SOL     OW32887   0.801   1.212   4.710 -0.3475  0.1049  0.1653
 7085SOL    HW132888   0.764   1.165   4.786  0.3804  2.1357  1.7699
 7085SOL    HW232889   0.794   1.144   4.643  3.5847  0.8147 -0.9348
 7086SOL     OW32890   0.276   1.802   7.561 -0.4443 -0.1843  0.3631
 7086SOL    HW132891   0.222   1.838   7.491  0.1312  0.3611  0.2050
 7086SOL    HW232892   0.301   1.721   7.517 -2.9406  0.2933 -1.9365
 7087SOL     OW32893   0.361   3.749  10.982 -0.6097 -0.0766  0.2103
 7087SOL    HW132894   0.379   3.675  10.923 -2.3098 -0.1557 -0.2023
 7087SOL    HW232895   0.269   3.764  10.963 -0.7016 -0.6296  0.2275
 7088SOL     OW32896   2.323   2.329   0.395  0.5910  0.9557  0.6649
 7088SOL    HW132897   2.252   2.389   0.373  3.2734  3.9604  0.1622
 7088SOL    HW232898   2.395   2.370   0.346 -0.5956  0.4465 -1.5074
 7089SOL     OW32899   1.181   4.101  17.374  0.9296  0.0645  0.0549
 7089SOL    HW132900   1.173   4.140  17.461 -0.2101  1.3145 -0.6234
 7089SOL    HW232901   1.274   4.118  17.359  1.7411 -2.6592  1.8871
 7090SOL     OW32902   1.774   3.534   6.996  0.5007  0.9051 -0.1222
 7090SOL    HW132903   1.846   3.492   6.948 -2.2128 -0.8335 -2.6564
 7090SOL    HW232904   1.710   3.473   6.958  1.3632 -0.4317  0.5438
 7091SOL     OW32905   2.724   2.814   8.623  0.1441  0.2562 -0.0458
 7091SOL    HW132906   2.674   2.817   8.705 -1.5343 -0.2401 -1.0382
 7091SOL    HW232907   2.697   2.730   8.586 -1.5047  1.4386 -1.5846
 7092SOL     OW32908   3.815   4.100   1.025  0.1168 -0.1962  1.0433
 7092SOL    HW132909   3.903   4.086   0.991  0.2687  0.7156  1.0710
 7092SOL    HW232910   3.826   4.177   1.080 -1.6842 -0.9025  2.3852
 7093SOL     OW32911   3.953   4.553   5.318  0.3023 -0.1111  0.1960
 7093SOL    HW132912   3.943   4.648   5.308 -2.3640 -0.5012 -0.8503
 7093SOL    HW232913   3.871   4.527   5.275  0.1751 -2.6985  2.0406
 7094SOL     OW32914   3.994   1.615  13.356  0.1882 -0.2353 -0.3976
 7094SOL    HW132915   3.977   1.534  13.308 -2.1538  0.6626 -1.0942
 7094SOL    HW232916   3.979   1.678  13.285  0.8855  0.1065 -0.2446
 7095SOL     OW32917   3.975   0.958   4.422 -0.2317 -0.5707  0.6999
 7095SOL    HW132918   3.918   0.948   4.499  2.8019 -1.3371  2.8645
 7095SOL    HW232919   3.929   0.912   4.353  0.2520 -1.5831  1.0597
 7096SOL     OW32920   3.006   3.005   4.500  0.3630  0.1301  0.6488
 7096SOL    HW132921   3.059   2.926   4.502  1.0864  0.5054 -5.2106
 7096SOL    HW232922   2.917   2.984   4.529  0.5497 -3.8262 -1.7704
 7097SOL     OW32923   4.480   2.659   2.327  0.1180 -0.0231 -0.4650
 7097SOL    HW132924   4.390   2.643   2.299 -0.4244 -2.7298  2.7270
 7097SOL    HW232925   4.462   2.689   2.416 -1.5521 -1.4743 -0.3048
 7098SOL     OW32926   4.311   0.090   6.299 -0.5940 -0.4100  0.3229
 7098SOL    HW132927   4.342   0.170   6.342 -1.2527  0.5879 -1.0688
 7098SOL    HW232928   4.351   0.013   6.338  2.2322  1.1132  0.3960
 7099SOL     OW32929   3.838   0.736   3.884 -0.0831  0.1359  0.3473
 7099SOL    HW132930   3.883   0.802   3.937 -0.2961 -0.4545  1.2831
 7099SOL    HW232931   3.882   0.743   3.799 -0.3388 -2.0832  0.0431
 7100SOL     OW32932   0.433   4.356   5.432 -0.4768 -0.1660  0.0249
 7100SOL    HW132933   0.355   4.377   5.381 -0.8796  1.6835  1.3860
 7100SOL    HW232934   0.427   4.414   5.508  0.0878 -0.8939  0.6266
 7101SOL     OW32935   2.826   0.880   9.424  0.2052 -0.5168 -0.2046
 7101SOL    HW132936   2.823   0.831   9.506  2.0441 -0.8962 -0.3493
 7101SOL    HW232937   2.847   0.970   9.450 -1.8731 -0.4137  1.0932
 7102SOL     OW32938   4.005   3.236  16.879 -0.3000 -0.4446  0.3522
 7102SOL    HW132939   3.979   3.252  16.788 -1.0707 -0.0281  0.6411
 7102SOL    HW232940   4.089   3.282  16.883  0.0324 -1.0131 -0.2562
 7103SOL     OW32941   2.384   3.592   7.100  0.3378  0.3745  0.1582
 7103SOL    HW132942   2.464   3.592   7.153  0.0869  0.1860  0.5343
 7103SOL    HW232943   2.392   3.677   7.056 -0.9501  0.3508 -0.1175
 7104SOL     OW32944   0.756   1.773   7.491  0.3617 -0.8491  0.6448
 7104SOL    HW132945   0.805   1.837   7.543  1.2397 -0.7772 -0.2666
 7104SOL    HW232946   0.824   1.730   7.438  0.6219 -0.4474  0.6462
 7105SOL     OW32947   2.560   0.563   8.576  0.0510  0.1686 -0.2755
 7105SOL    HW132948   2.570   0.652   8.609  0.5547  0.5892 -1.5679
 7105SOL    HW232949   2.466   0.565   8.555 -0.0018 -0.1239 -0.0610
 7106SOL     OW32950   0.898   3.062   2.641  0.3657 -0.1544 -0.0831
 7106SOL    HW132951   0.872   3.053   2.550 -0.6671 -2.2102  0.4378
 7106SOL    HW232952   0.963   2.992   2.644  1.9730  1.3095 -0.2435
 7107SOL     OW32953   3.441   2.458  10.197 -0.8220 -0.0309 -0.1499
 7107SOL    HW132954   3.452   2.475  10.291 -0.4213  3.7174 -0.8827
 7107SOL    HW232955   3.474   2.368  10.202 -0.2425  0.2062  0.4535
 7108SOL     OW32956   3.189   3.687   3.236 -0.0661 -0.1556  0.6538
 7108SOL    HW132957   3.250   3.634   3.288  1.3066  1.2918  0.5352
 7108SOL    HW232958   3.127   3.619   3.210 -0.9143  0.4772  1.0403
 7109SOL     OW32959   1.268   2.424   2.655 -0.6306 -0.3268  0.2852
 7109SOL    HW132960   1.302   2.513   2.663  0.8573 -1.0510  2.1180
 7109SOL    HW232961   1.209   2.422   2.730  1.1887 -2.0990  1.6848
 7110SOL     OW32962   3.285   0.361   3.138 -0.8618  0.0794  0.0544
 7110SOL    HW132963   3.271   0.384   3.046 -0.6778  0.6568  0.1668
 7110SOL    HW232964   3.195   0.345   3.167 -0.5435  1.1367  1.6595
 7111SOL     OW32965   1.684   2.979   3.505  0.1900 -0.3432  0.2187
 7111SOL    HW132966   1.749   2.934   3.559 -1.1184 -1.2652  1.0396
 7111SOL    HW232967   1.711   3.069   3.520 -0.4876 -0.3301  1.3617
 7112SOL     OW32968   0.482   2.985  16.672 -0.1149 -0.1583  0.0618
 7112SOL    HW132969   0.548   2.946  16.614 -1.0593 -1.2294 -0.3100
 7112SOL    HW232970   0.408   2.940  16.631 -0.3229  0.8427 -0.6594
 7113SOL     OW32971   0.867   3.723   2.926 -0.1680 -0.4619  0.0248
 7113SOL    HW132972   0.892   3.684   3.010 -1.5039 -1.3562 -0.0037
 7113SOL    HW232973   0.902   3.663   2.860 -2.9901 -1.9194 -0.1320
 7114SOL     OW32974   3.796   1.699   3.753 -0.2688 -0.4315  0.5106
 7114SOL    HW132975   3.735   1.771   3.767 -1.4739 -1.0372 -1.4878
 7114SOL    HW232976   3.744   1.620   3.735  0.2611 -1.0144  1.5681
 7115SOL     OW32977   4.117   0.515   3.901 -0.0014 -0.8836 -0.8562
 7115SOL    HW132978   4.069   0.586   3.860 -1.7219 -0.4317  1.9251
 7115SOL    HW232979   4.208   0.525   3.872  0.5300 -0.2925  1.0116
 7116SOL     OW32980   1.842   2.414  10.900  0.2363  0.0074 -0.5453
 7116SOL    HW132981   1.904   2.353  10.860 -0.8518 -0.0353 -2.1641
 7116SOL    HW232982   1.897   2.460  10.963  1.1032  0.2364 -1.4608
 7117SOL     OW32983   0.590   3.759  17.326  0.1485  0.1241  0.5467
 7117SOL    HW132984   0.521   3.694  17.314  0.9904 -0.1805 -2.4946
 7117SOL    HW232985   0.586   3.775  17.420 -0.2498  2.8251  0.0729
 7118SOL     OW32986   2.863   3.815   2.649 -0.2395  0.2748 -0.7546
 7118SOL    HW132987   2.937   3.864   2.685 -0.0071  0.4857 -1.5073
 7118SOL    HW232988   2.794   3.880   2.663  0.8830  1.0136  1.3030
 7119SOL     OW32989   3.482   2.158   0.514  0.4351  0.0608  0.3355
 7119SOL    HW132990   3.513   2.221   0.580  1.2105  0.3500 -0.2986
 7119SOL    HW232991   3.528   2.077   0.535  2.7218  0.8002 -1.7707
 7120SOL     OW32992   1.242   1.419   4.005 -0.1056 -0.1724 -0.7735
 7120SOL    HW132993   1.285   1.352   4.057 -2.6886 -2.1298 -1.1359
 7120SOL    HW232994   1.160   1.374   3.986 -1.3837  1.3261  1.2009
 7121SOL     OW32995   2.057   3.786   7.753 -0.2097  0.8255 -0.6586
 7121SOL    HW132996   1.972   3.788   7.708 -1.2123  1.1946  1.2367
 7121SOL    HW232997   2.046   3.842   7.830  2.1380 -0.6579  0.7464
 7122SOL     OW32998   1.474   2.990   2.010  0.3149 -0.4454  0.2203
 7122SOL    HW132999   1.564   2.958   2.024  1.1766  1.5700 -0.6515
 7122SOL    HW233000   1.457   2.949   1.926  0.8818  0.6113 -0.4099
 7123SOL     OW33001   4.523   1.359  16.217 -0.2097 -0.0622  0.1758
 7123SOL    HW133002   4.571   1.431  16.256 -1.9120  1.1605  0.0049
 7123SOL    HW233003   4.470   1.323  16.289  1.3456 -2.0371  0.3410
 7124SOL     OW33004   4.123   1.961   6.221 -0.9858  0.0117 -0.0523
 7124SOL    HW133005   4.192   1.968   6.287 -1.4147  0.0474  0.3890
 7124SOL    HW233006   4.178   1.954   6.143 -0.1505 -0.8404  0.6034
 7125SOL     OW33007   3.076   1.670   6.217  0.0755  0.9598  0.5569
 7125SOL    HW133008   3.094   1.730   6.288 -1.4394  0.5165  1.3201
 7125SOL    HW233009   3.148   1.609   6.230 -0.7285 -0.6842 -2.5287
 7126SOL     OW33010   3.346   0.401   9.522  0.3874  0.6343  0.3186
 7126SOL    HW133011   3.303   0.359   9.447  1.2540  2.9337 -1.4775
 7126SOL    HW233012   3.358   0.321   9.574 -0.4497  0.0057 -0.4540
 7127SOL     OW33013   0.705   1.071  16.359  0.2140 -0.2409 -0.2707
 7127SOL    HW133014   0.705   0.998  16.296 -0.5126  0.0314 -0.5775
 7127SOL    HW233015   0.695   1.028  16.444  0.3355 -0.2661 -0.2686
 7128SOL     OW33016   0.145   2.208   5.013  0.4248  0.4875 -0.0502
 7128SOL    HW133017   0.191   2.145   4.958  3.7447  2.1473  0.8289
 7128SOL    HW233018   0.200   2.286   4.999  1.4287 -0.1184  0.5112
 7129SOL     OW33019   1.509   2.202   2.968 -0.0879  0.6185 -0.1107
 7129SOL    HW133020   1.549   2.244   2.892  1.2377  0.7327  0.6478
 7129SOL    HW233021   1.586   2.198   3.025  0.2954  0.9773 -0.6097
 7130SOL     OW33022   2.215   3.833   4.416  0.0787  0.7609  0.2290
 7130SOL    HW133023   2.250   3.747   4.392 -0.8156  0.1207  1.2070
 7130SOL    HW233024   2.185   3.817   4.505  1.9140 -2.6686  0.2374
 7131SOL     OW33025   2.702   4.200   5.399 -0.5716 -0.0941  0.4225
 7131SOL    HW133026   2.714   4.241   5.485  1.9451 -1.7152  0.8639
 7131SOL    HW233027   2.608   4.189   5.387 -0.8177  1.8623  0.5634
 7132SOL     OW33028   2.225   4.319   7.424 -0.1535  0.5532  0.1133
 7132SOL    HW133029   2.314   4.322   7.389 -0.7906  1.7595 -1.3781
 7132SOL    HW233030   2.212   4.225   7.440  1.2949  0.1577 -1.0062
 7133SOL     OW33031   0.472   3.952   9.891  0.2388 -0.3242 -0.4110
 7133SOL    HW133032   0.488   4.032   9.842  0.0143 -0.9089 -1.4314
 7133SOL    HW233033   0.377   3.959   9.904 -0.2996 -2.7108 -3.1905
 7134SOL     OW33034   1.821   4.293   7.749 -0.2215  0.4541 -0.0801
 7134SOL    HW133035   1.761   4.263   7.680 -0.1854  0.4045 -0.0898
 7134SOL    HW233036   1.874   4.346   7.690 -1.9700  0.3143 -1.7634
 7135SOL     OW33037   2.549   1.115   6.444  0.8840 -0.0590  0.1011
 7135SOL    HW133038   2.623   1.056   6.455  0.8525  0.0414  0.9048
 7135SOL    HW233039   2.581   1.189   6.392 -0.0865 -1.0627 -1.9049
 7136SOL     OW33040   0.897   1.648   4.238 -0.3357 -0.0413 -0.1684
 7136SOL    HW133041   0.819   1.696   4.265  0.8607  2.4741 -1.1334
 7136SOL    HW233042   0.842   1.585   4.191  1.2595 -2.7789  1.6266
 7137SOL     OW33043   4.609   2.664  16.770  0.1715 -0.0595  0.1952
 7137SOL    HW133044   4.691   2.678  16.818 -0.1844 -1.4890  1.2210
 7137SOL    HW233045   4.573   2.582  16.803 -1.1424  0.5265  0.2153
 7138SOL     OW33046   0.494   1.832   8.784 -0.1394  0.0586 -0.5888
 7138SOL    HW133047   0.444   1.829   8.702 -0.7300 -0.3763 -0.2078
 7138SOL    HW233048   0.576   1.786   8.770 -0.2429 -0.3889  0.3007
 7139SOL     OW33049   0.064   4.004   9.014  0.5661 -0.0636 -0.6187
 7139SOL    HW133050   0.065   4.019   8.919  2.6799 -1.3947 -0.8193
 7139SOL    HW233051   4.716   4.041   9.043  0.8856  0.2694 -0.1348
 7140SOL     OW33052   1.232   2.609   9.915 -0.2749 -0.5649  0.5029
 7140SOL    HW133053   1.176   2.608   9.993  1.0287 -0.8808  1.4320
 7140SOL    HW233054   1.275   2.694   9.923  0.7800 -1.4364  3.8299
 7141SOL     OW33055   4.105   3.964  16.858 -0.9257 -0.1567 -0.2222
 7141SOL    HW133056   4.199   3.977  16.862 -0.8950 -0.8751  1.3294
 7141SOL    HW233057   4.068   4.051  16.843  1.2545  0.8155  0.1189
 7142SOL     OW33058   2.131   1.497   1.614 -0.2192  0.1374  0.5501
 7142SOL    HW133059   2.121   1.551   1.536  1.0790  0.5030  0.6291
 7142SOL    HW233060   2.208   1.526   1.664  0.0420  0.6034 -0.1234
 7143SOL     OW33061   1.742   4.688   8.242  0.0120 -0.0228  0.0454
 7143SOL    HW133062   1.825   4.706   8.286 -0.1832  0.6521  0.1328
 7143SOL    HW233063   1.675   4.687   8.310 -1.8473  0.5347 -1.7911
 7144SOL     OW33064   4.693   0.295   8.474  0.2207 -0.3304 -0.4637
 7144SOL    HW133065   0.022   0.337   8.418 -0.2368  0.3523 -0.4678
 7144SOL    HW233066   0.000   0.210   8.490  1.3405  0.4123  0.5153
 7145SOL     OW33067   3.276   2.302   5.715  0.0666 -0.1362 -0.3151
 7145SOL    HW133068   3.241   2.374   5.769 -0.0966  0.7277 -1.5600
 7145SOL    HW233069   3.332   2.260   5.780  0.0884  0.8055  0.2831
 7146SOL     OW33070   0.160   1.348   9.708 -0.0202  0.1892  0.6241
 7146SOL    HW133071   0.112   1.390   9.637 -1.3433 -1.8245  0.3230
 7146SOL    HW233072   0.249   1.348   9.672 -1.2381  1.3404 -2.4471
 7147SOL     OW33073   3.436   0.747   5.316 -0.6295  0.0183 -0.4936
 7147SOL    HW133074   3.527   0.718   5.317 -0.5684  0.2494  3.7680
 7147SOL    HW233075   3.452   0.841   5.305  0.1802 -0.1808 -1.0414
 7148SOL     OW33076   1.616   1.454   9.229  0.0075  0.2230  0.1891
 7148SOL    HW133077   1.611   1.518   9.300  0.1274  0.9970 -0.4910
 7148SOL    HW233078   1.534   1.466   9.182 -0.7715  0.2129  1.5823
 7149SOL     OW33079   3.143   2.505   2.657  0.0403 -0.1391 -0.2364
 7149SOL    HW133080   3.161   2.474   2.745  1.9522 -2.2205 -1.3526
 7149SOL    HW233081   3.118   2.596   2.675  1.1173  0.0501  0.2790
 7150SOL     OW33082   3.740   1.762   2.877 -0.1325 -0.5895 -0.3199
 7150SOL    HW133083   3.750   1.708   2.955 -0.5286  0.5013  0.4904
 7150SOL    HW233084   3.832   1.777   2.856  0.0785 -2.0032 -0.4109
 7151SOL     OW33085   1.813   1.803   3.247 -0.1431  0.4804 -0.6103
 7151SOL    HW133086   1.894   1.793   3.198 -0.2768 -0.2551 -0.6776
 7151SOL    HW233087   1.834   1.792   3.340  0.4435 -0.4177 -0.8471
 7152SOL     OW33088   0.478   1.920   6.878  1.0340  0.2379 -0.1541
 7152SOL    HW133089   0.396   1.918   6.829  2.5886 -0.2204 -2.7536
 7152SOL    HW233090   0.539   1.979   6.833 -0.2885  1.3110 -0.5313
 7153SOL     OW33091   2.886   4.662   6.290 -0.1238  0.6818 -0.0179
 7153SOL    HW133092   2.800   4.679   6.252  1.2594  2.7995 -2.1838
 7153SOL    HW233093   2.942   4.659   6.212 -0.6386 -2.3735 -0.2788
 7154SOL     OW33094   0.770   2.355   4.888 -0.2115  0.6551  0.8618
 7154SOL    HW133095   0.863   2.373   4.873  0.5381 -1.8856  2.4212
 7154SOL    HW233096   0.750   2.298   4.814  1.6007  1.1234  0.0061
 7155SOL     OW33097   2.113   3.452   6.757  0.0406  0.0885  0.0092
 7155SOL    HW133098   2.139   3.421   6.844  2.5451 -0.3589 -0.9053
 7155SOL    HW233099   2.153   3.539   6.760  0.7911 -0.2380 -0.3727
 7156SOL     OW33100   2.427   2.859  13.260  0.1437  0.1264 -0.6365
 7156SOL    HW133101   2.496   2.816  13.210  0.8763  1.5931 -0.8965
 7156SOL    HW233102   2.349   2.814  13.229 -0.2642  1.5452 -1.6798
 7157SOL     OW33103   1.770   0.081   8.672  0.2909 -0.1934 -0.4396
 7157SOL    HW133104   1.815   0.106   8.591 -0.2262 -0.3303 -0.7667
 7157SOL    HW233105   1.718   0.159   8.687  0.9519 -0.0153  0.9887
 7158SOL     OW33106   2.440   4.220  13.526 -0.5018 -0.2620 -0.1887
 7158SOL    HW133107   2.456   4.285  13.594 -0.3413 -2.3787  1.8046
 7158SOL    HW233108   2.461   4.140  13.574  2.3495  1.2874  1.1363
 7159SOL     OW33109   1.402   3.678   6.785  0.0338 -0.8203  0.1829
 7159SOL    HW133110   1.470   3.687   6.718 -1.5733 -0.5610 -1.4468
 7159SOL    HW233111   1.344   3.752   6.763  0.0089 -0.5706  1.0774
 7160SOL     OW33112   2.459   3.009   4.821 -0.0538 -0.3303 -0.3161
 7160SOL    HW133113   2.384   2.984   4.767  1.4699 -1.1569 -2.0311
 7160SOL    HW233114   2.461   2.933   4.880 -0.5511  0.6472  0.9488
 7161SOL     OW33115   0.678   1.781   3.487  0.1027 -0.5394  0.0406
 7161SOL    HW133116   0.626   1.832   3.425 -0.1308 -0.2900  0.4383
 7161SOL    HW233117   0.707   1.703   3.440  0.1537 -0.0095 -0.8140
 7162SOL     OW33118   1.075   0.017   3.646 -0.1183  0.1352  0.3577
 7162SOL    HW133119   1.001   0.013   3.585 -1.6472  2.0673  2.0817
 7162SOL    HW233120   1.122   4.669   3.648  1.3994  0.9575 -0.9051
 7163SOL     OW33121   1.994   2.567   8.058 -0.0373 -0.8570  0.0660
 7163SOL    HW133122   2.026   2.618   7.983  1.8808 -1.1027  0.7202
 7163SOL    HW233123   1.933   2.630   8.097  0.1200  0.2020 -1.4057
 7164SOL     OW33124   1.007   1.286   3.957  0.1521 -0.7812  0.7078
 7164SOL    HW133125   0.958   1.366   3.939  0.0971 -0.6492  1.4518
 7164SOL    HW233126   0.951   1.208   3.946  0.3928 -0.8121 -0.3043
 7165SOL     OW33127   2.065   3.696   8.520 -0.1559 -0.3395  0.3379
 7165SOL    HW133128   2.042   3.757   8.590 -1.0343  0.2608 -0.4615
 7165SOL    HW233129   1.987   3.707   8.465  0.6311  0.0822 -0.7061
 7166SOL     OW33130   2.749   2.867  10.631 -0.9686  0.3461 -0.1129
 7166SOL    HW133131   2.688   2.795  10.615 -0.5288  0.1667 -1.0056
 7166SOL    HW233132   2.691   2.919  10.687 -2.1628 -0.9299 -0.1551
 7167SOL     OW33133   0.389   0.121  14.695  0.5241  0.2463 -0.6289
 7167SOL    HW133134   0.448   0.189  14.727 -1.0439  0.9544  0.8432
 7167SOL    HW233135   0.437   0.093  14.618  2.0699  1.0408  0.0559
 7168SOL     OW33136   0.524   3.251  16.728 -0.2515  0.1171 -0.1864
 7168SOL    HW133137   0.434   3.281  16.739 -0.0284  1.1799 -1.2806
 7168SOL    HW233138   0.506   3.166  16.687  1.9701 -0.5821  0.2921
 7169SOL     OW33139   1.679   1.481   7.404  0.4688  0.2674  0.4054
 7169SOL    HW133140   1.727   1.445   7.330 -1.4737 -1.1840 -0.1396
 7169SOL    HW233141   1.744   1.498   7.473 -0.4009  2.6615  0.6313
 7170SOL     OW33142   0.146   4.155  13.122  0.2881 -0.0325  0.2263
 7170SOL    HW133143   0.064   4.109  13.139  2.0951 -3.4530 -0.4494
 7170SOL    HW233144   0.199   4.093  13.073 -0.2240 -0.1992 -0.1238
 7171SOL     OW33145   3.321   3.118   4.612 -0.0748  0.7396 -0.0742
 7171SOL    HW133146   3.259   3.172   4.564 -0.9374 -1.1717 -1.1041
 7171SOL    HW233147   3.290   3.028   4.616  1.5891  0.1706  0.2852
 7172SOL     OW33148   1.193   4.551   8.264  0.1017 -0.1571 -1.1040
 7172SOL    HW133149   1.219   4.529   8.354  0.2117  1.7196 -0.6738
 7172SOL    HW233150   1.276   4.583   8.230  0.2905  0.7319  0.1746
 7173SOL     OW33151   2.285   3.354   4.033 -0.5173  0.2520 -0.5780
 7173SOL    HW133152   2.251   3.267   4.057 -0.7944  0.0789 -1.5962
 7173SOL    HW233153   2.269   3.349   3.939  1.5930 -0.6317 -0.8944
 7174SOL     OW33154   3.019   4.042   5.867  0.3374  0.1255 -0.3885
 7174SOL    HW133155   3.110   4.034   5.894  0.1971 -2.4445 -0.6577
 7174SOL    HW233156   2.976   4.038   5.953 -0.3973  1.5398 -0.6903
 7175SOL     OW33157   2.166   4.408  16.640  0.0112  0.2502  0.2214
 7175SOL    HW133158   2.126   4.408  16.727  1.7963  2.6330  1.0324
 7175SOL    HW233159   2.113   4.478  16.603  0.6665  1.0589  0.8193
 7176SOL     OW33160   1.875   4.503   5.567  0.4808 -0.4622 -0.2620
 7176SOL    HW133161   1.924   4.508   5.485  0.6348  1.8519 -0.0134
 7176SOL    HW233162   1.821   4.581   5.562 -1.0663 -1.5168 -0.1634
 7177SOL     OW33163   2.343   3.959  15.666 -0.1054 -0.6656 -0.0343
 7177SOL    HW133164   2.413   4.003  15.619  0.4638 -1.7153 -0.1696
 7177SOL    HW233165   2.378   3.872  15.686 -1.5505 -1.3385 -0.4885
 7178SOL     OW33166   3.972   1.649  15.325 -0.9823 -0.8320  0.0741
 7178SOL    HW133167   3.955   1.559  15.353 -0.7285 -1.5373 -2.0402
 7178SOL    HW233168   4.059   1.664  15.363  0.2224 -2.5729 -2.0239
 7179SOL     OW33169   2.256   0.264   4.406  0.5360  0.0407  0.2129
 7179SOL    HW133170   2.309   0.264   4.326  0.9743  0.5878  0.4954
 7179SOL    HW233171   2.280   0.354   4.431 -0.7803  0.4840 -0.1091
 7180SOL     OW33172   3.181   4.431   2.656 -0.0421  1.0458 -0.4974
 7180SOL    HW133173   3.158   4.382   2.735 -1.2365 -0.4244 -1.7757
 7180SOL    HW233174   3.101   4.405   2.610  1.7563 -0.2506 -2.8566
 7181SOL     OW33175   3.891   2.249   7.408 -0.3569  0.2120 -0.4026
 7181SOL    HW133176   3.913   2.291   7.325  1.3606  1.4376  0.6732
 7181SOL    HW233177   3.868   2.161   7.379 -0.2178 -0.9466  2.9956
 7182SOL     OW33178   3.911   3.176  17.593  0.1270 -0.1808 -0.0842
 7182SOL    HW133179   3.975   3.162  17.663  0.0953  0.3368  0.0508
 7182SOL    HW233180   3.971   3.212  17.528  0.2798 -0.8381 -0.3053
 7183SOL     OW33181   1.363   1.650   4.144  0.7856  0.2987  0.3577
 7183SOL    HW133182   1.288   1.697   4.181 -1.3047 -4.4529  2.1771
 7183SOL    HW233183   1.320   1.585   4.088  0.0510  0.3745  0.8409
 7184SOL     OW33184   0.976   1.079   4.318 -0.0408  0.1357 -0.1183
 7184SOL    HW133185   1.018   1.079   4.232  0.6021 -1.1965  0.2092
 7184SOL    HW233186   0.884   1.073   4.291 -0.7903  0.9544  2.2249
 7185SOL     OW33187   3.055   1.242  11.975  0.9761 -0.6957  0.1688
 7185SOL    HW133188   2.972   1.273  12.012  1.6203 -0.8859  1.7919
 7185SOL    HW233189   3.046   1.147  11.977 -0.3331 -0.5671  0.7282
 7186SOL     OW33190   3.508   3.906   2.826 -0.5624  0.6310 -0.8407
 7186SOL    HW133191   3.518   3.826   2.878  1.3257  0.7008 -1.0892
 7186SOL    HW233192   3.570   3.887   2.756 -0.4837  1.1102 -0.9027
 7187SOL     OW33193   0.551   3.424   8.163  0.3112 -0.0718 -0.0990
 7187SOL    HW133194   0.623   3.483   8.180  1.2335 -0.9517 -0.9453
 7187SOL    HW233195   0.485   3.484   8.129  0.9683  1.1642  0.8496
 7188SOL     OW33196   4.196   1.554   2.792 -0.0193 -0.0325  0.0930
 7188SOL    HW133197   4.253   1.621   2.753  0.1960 -1.7465 -2.5385
 7188SOL    HW233198   4.196   1.492   2.719 -2.0786  0.0494  0.0244
 7189SOL     OW33199   1.061   1.513   7.928 -0.5018 -0.4532  0.5808
 7189SOL    HW133200   1.009   1.591   7.909  2.1076  1.1232 -0.0810
 7189SOL    HW233201   1.018   1.477   8.005 -0.2843  0.7077  1.2483
 7190SOL     OW33202   1.271   4.444  12.334  0.0965  0.0376  0.2139
 7190SOL    HW133203   1.323   4.506  12.386  1.0418  0.6442 -1.4292
 7190SOL    HW233204   1.233   4.506  12.271  0.6954  0.0632 -0.1247
 7191SOL     OW33205   1.291   0.889   9.545  0.5761  0.8665  0.2411
 7191SOL    HW133206   1.274   0.983   9.539  0.1837  0.9802  3.4816
 7191SOL    HW233207   1.256   0.883   9.633  1.3625  0.8627  0.5602
 7192SOL     OW33208   2.457   4.103   1.993  0.0150  0.0497  0.6374
 7192SOL    HW133209   2.454   4.148   1.909  0.4135 -2.7502 -0.8704
 7192SOL    HW233210   2.367   4.108   2.027  0.2779  1.8663  1.0837
 7193SOL     OW33211   0.922   0.784   2.769 -0.0480 -0.0798  0.0557
 7193SOL    HW133212   0.856   0.761   2.703  1.5455 -0.1803 -1.5183
 7193SOL    HW233213   0.869   0.799   2.847  1.0540  0.9268  0.6249
 7194SOL     OW33214   4.128   0.894  16.955  0.7210  0.2133  0.6916
 7194SOL    HW133215   4.133   0.800  16.937  1.4213  0.0954  1.5245
 7194SOL    HW233216   4.141   0.896  17.050  1.4217  0.3642  0.5925
 7195SOL     OW33217   1.992   4.107   1.251  0.1888 -0.1291 -0.1395
 7195SOL    HW133218   1.977   4.191   1.208 -2.4999 -1.1045 -1.0923
 7195SOL    HW233219   1.933   4.120   1.325  1.6494  1.4874  0.7497
 7196SOL     OW33220   2.612   3.368   7.453  0.9020 -0.5616 -0.0611
 7196SOL    HW133221   2.667   3.370   7.532 -0.6975  4.2275  0.8949
 7196SOL    HW233222   2.561   3.289   7.471 -1.5524  1.5530  2.1703
 7197SOL     OW33223   2.205   1.659  10.730  0.2770 -0.5100  0.7095
 7197SOL    HW133224   2.162   1.652  10.645 -0.1941  2.7385  0.6738
 7197SOL    HW233225   2.297   1.645  10.710  0.3671  1.9851 -0.7393
 7198SOL     OW33226   0.226   2.344  17.329 -0.2932  0.0183  0.7906
 7198SOL    HW133227   0.152   2.362  17.271  0.2348 -0.2595  0.0296
 7198SOL    HW233228   0.296   2.394  17.288 -0.0168  0.3955  1.7082
 7199SOL     OW33229   1.071   0.777   9.973  0.7334 -0.2368 -0.2325
 7199SOL    HW133230   1.022   0.848  10.015 -1.5089 -3.0969  1.9388
 7199SOL    HW233231   1.005   0.709   9.981 -0.1672  0.7338  0.5815
 7200SOL     OW33232   2.385   0.427   2.826  0.0441 -0.2549 -0.4700
 7200SOL    HW133233   2.352   0.381   2.903 -1.0156  0.2072 -0.6368
 7200SOL    HW233234   2.304   0.468   2.794  1.1232  1.8441 -0.5008
 7201SOL     OW33235   3.271   0.506   1.713 -0.1333  0.2193 -0.0220
 7201SOL    HW133236   3.227   0.591   1.705 -0.4815  0.0601  0.2312
 7201SOL    HW233237   3.236   0.469   1.632  0.7174 -2.2462  0.7490
 7202SOL     OW33238   4.350   1.817  13.491  0.6605 -0.0725  0.5364
 7202SOL    HW133239   4.366   1.911  13.500 -0.9140  0.2204  0.2245
 7202SOL    HW233240   4.434   1.781  13.519  1.7137  1.5438 -0.5175
 7203SOL     OW33241   1.863   4.375   4.405  0.7032 -0.0897 -0.1979
 7203SOL    HW133242   1.787   4.320   4.388 -0.1486  1.0270  0.0088
 7203SOL    HW233243   1.893   4.381   4.314  1.1191  0.5838 -0.0151
 7204SOL     OW33244   4.560   0.662   2.630  0.2097 -0.4865  0.3471
 7204SOL    HW133245   4.547   0.615   2.712  0.5493  2.0925  1.9006
 7204SOL    HW233246   4.653   0.652   2.611  0.4472  1.1810  0.6142
 7205SOL     OW33247   3.839   4.427   5.938  0.2217 -0.0848 -0.3427
 7205SOL    HW133248   3.770   4.494   5.934 -0.9875 -1.2993  0.4219
 7205SOL    HW233249   3.829   4.384   5.853  0.0934  0.4081 -0.5797
 7206SOL     OW33250   2.281   2.322   9.011  0.1320 -0.5516  0.0959
 7206SOL    HW133251   2.287   2.380   8.935 -0.6350 -1.1960 -0.4379
 7206SOL    HW233252   2.374   2.318   9.035  0.6198 -2.0339 -2.0441
 7207SOL     OW33253   1.461   0.221   7.307 -0.0755  0.8902  0.3148
 7207SOL    HW133254   1.441   0.196   7.397  1.6354  1.6137  0.8981
 7207SOL    HW233255   1.555   0.225   7.292 -0.2391  1.1651 -0.6812
 7208SOL     OW33256   3.890   3.068   4.273 -0.6211  0.0108  0.2249
 7208SOL    HW133257   3.964   3.070   4.212 -1.5342  1.1996 -0.8510
 7208SOL    HW233258   3.939   3.091   4.352 -0.5120  1.9906 -0.4041
 7209SOL     OW33259   4.372   2.000   5.136  0.9672  0.3818  0.8663
 7209SOL    HW133260   4.358   2.029   5.046 -1.9249  1.3129  1.6072
 7209SOL    HW233261   4.360   2.086   5.177  0.0005  0.5861  0.1597
 7210SOL     OW33262   1.204   1.131   6.278 -0.3856  0.4959 -0.1836
 7210SOL    HW133263   1.125   1.092   6.241  0.8135 -2.4146  0.2730
 7210SOL    HW233264   1.270   1.062   6.266  0.4279  1.3716 -0.6587
 7211SOL     OW33265   2.040   2.165   9.554 -0.6513 -0.0939 -0.0299
 7211SOL    HW133266   2.053   2.182   9.461 -1.0638 -0.1838 -0.1053
 7211SOL    HW233267   2.122   2.193   9.595  0.3528 -3.3265  0.2086
 7212SOL     OW33268   1.270   0.791   9.289  0.1739 -0.1052 -0.1227
 7212SOL    HW133269   1.313   0.870   9.256 -0.8463  0.4990  0.0255
 7212SOL    HW233270   1.279   0.806   9.383  0.8655 -1.2187 -0.0061
 7213SOL     OW33271   3.301   3.234   6.134 -0.6123 -0.0535 -0.3983
 7213SOL    HW133272   3.283   3.326   6.113  0.5627  0.4706  0.8877
 7213SOL    HW233273   3.222   3.211   6.182  0.0951  0.2885  0.9222
 7214SOL     OW33274   0.535   3.682   4.226  0.1489  0.0930  0.0369
 7214SOL    HW133275   0.611   3.665   4.169 -1.0737  0.6383 -1.7628
 7214SOL    HW233276   0.558   3.629   4.302  0.6191 -1.3987 -1.1561
 7215SOL     OW33277   3.650   1.900   1.069  0.5210  0.7483 -0.0055
 7215SOL    HW133278   3.643   1.965   1.139 -5.3544 -2.8258  2.7569
 7215SOL    HW233279   3.576   1.935   1.018 -0.8017 -1.3374  0.4798
 7216SOL     OW33280   0.050   4.413   7.427 -0.5178  0.4820 -0.5891
 7216SOL    HW133281   0.120   4.432   7.490 -1.2188  2.2660 -0.3474
 7216SOL    HW233282   4.705   4.415   7.479  0.8204 -0.0535  1.4986
 7217SOL     OW33283   2.882   1.346   7.184  0.0745 -0.2540 -0.1292
 7217SOL    HW133284   2.865   1.267   7.235  1.8552 -1.2063 -1.0218
 7217SOL    HW233285   2.802   1.398   7.193  1.7626  2.7331 -2.4454
 7218SOL     OW33286   4.640   3.653   6.251  0.3322 -0.4206 -0.3945
 7218SOL    HW133287   4.704   3.690   6.190 -1.8755  1.2882 -1.6452
 7218SOL    HW233288   4.562   3.695   6.216  0.8833  1.5297  0.7231
 7219SOL     OW33289   2.907   0.279   4.899 -0.3943 -0.0306  0.1247
 7219SOL    HW133290   2.870   0.192   4.919  0.6055 -0.1766  1.2658
 7219SOL    HW233291   2.847   0.299   4.826 -0.4027  3.2213  1.0305
 7220SOL     OW33292   4.524   0.084   9.944  0.2604  0.2534 -0.0244
 7220SOL    HW133293   4.457   0.099   9.877  0.3686  0.5182 -0.0714
 7220SOL    HW233294   4.605   0.082   9.894 -0.3996  1.6288 -1.1699
 7221SOL     OW33295   0.458   4.729   8.503 -0.1375 -0.1759  0.0553
 7221SOL    HW133296   0.544   4.697   8.474  0.3903  0.9647  0.3593
 7221SOL    HW233297   0.473   4.706   8.595  0.7858  2.6820  0.5909
 7222SOL     OW33298   1.544   3.991   5.514  0.5215 -0.2048 -0.2925
 7222SOL    HW133299   1.555   3.900   5.487  1.2526  0.7184 -3.1052
 7222SOL    HW233300   1.595   4.048   5.456 -0.8094  0.1652 -1.0861
 7223SOL     OW33301   2.391   2.033   1.326  0.1459  0.0260 -0.2041
 7223SOL    HW133302   2.401   2.117   1.371 -4.2196  0.8108 -0.6198
 7223SOL    HW233303   2.386   2.063   1.235  0.8690 -0.7797 -0.5070
 7224SOL     OW33304   3.197   2.724  13.254  0.1392  0.0155 -0.1204
 7224SOL    HW133305   3.137   2.757  13.186  0.9891 -0.6786 -1.1982
 7224SOL    HW233306   3.211   2.635  13.224 -0.3126 -0.5061  1.2170
 7225SOL     OW33307   3.285   2.295  15.274  0.3832 -0.0210  0.1425
 7225SOL    HW133308   3.211   2.238  15.296 -1.0007  1.5257 -0.5019
 7225SOL    HW233309   3.243   2.376  15.246  2.0501 -0.3162 -3.2172
 7226SOL     OW33310   0.772   0.936   2.589  0.3291  0.6945  0.5985
 7226SOL    HW133311   0.854   0.954   2.636 -0.5649  0.3897  2.2555
 7226SOL    HW233312   0.813   0.897   2.512 -0.4349  0.9739  0.0495
 7227SOL     OW33313   3.599   3.315   9.653  0.5857 -0.4498  0.4116
 7227SOL    HW133314   3.512   3.350   9.634  0.8028 -0.0663  0.1276
 7227SOL    HW233315   3.593   3.227   9.617  2.2975  0.3565 -1.8404
 7228SOL     OW33316   1.703   0.517  10.374 -0.2868  0.2189 -0.2395
 7228SOL    HW133317   1.769   0.468  10.423  0.7109 -0.4912 -2.3191
 7228SOL    HW233318   1.746   0.534  10.290 -1.3716  0.8411 -0.6705
 7229SOL     OW33319   0.519   0.148   1.102  0.1377  0.3477 -0.2541
 7229SOL    HW133320   0.502   0.166   1.009 -0.7040 -0.5845 -0.2898
 7229SOL    HW233321   0.443   0.180   1.150 -0.1981  0.2268 -0.7041
 7230SOL     OW33322   0.743   4.339   4.318  0.2044  0.4982  0.4937
 7230SOL    HW133323   0.661   4.335   4.367  1.5723  0.2408  2.7723
 7230SOL    HW233324   0.725   4.288   4.239  0.5171 -0.3019  0.9412
 7231SOL     OW33325   1.153   1.433   1.073  0.1896  0.2277 -0.0072
 7231SOL    HW133326   1.166   1.503   1.138  1.2582  0.5898 -0.6198
 7231SOL    HW233327   1.167   1.479   0.991 -3.5083  0.3513 -0.5838
 7232SOL     OW33328   0.620   1.210   1.771  0.1022  0.1097  0.4347
 7232SOL    HW133329   0.543   1.251   1.809  0.2478  0.4890  0.3218
 7232SOL    HW233330   0.617   1.117   1.794  0.4919  0.1424  0.6214
 7233SOL     OW33331   2.288   4.458   6.748 -0.2910  0.7535  0.5065
 7233SOL    HW133332   2.262   4.550   6.754 -2.6541  0.0560  1.0944
 7233SOL    HW233333   2.220   4.429   6.688 -0.1149  0.3218  0.5193
 7234SOL     OW33334   3.645   1.393  12.542 -0.7156  0.2510 -0.6662
 7234SOL    HW133335   3.718   1.410  12.481  0.1162 -2.8439 -0.5548
 7234SOL    HW233336   3.676   1.434  12.623  0.3805 -0.1193 -0.8932
 7235SOL     OW33337   1.402   0.529   1.825 -0.7014 -0.1031 -0.3473
 7235SOL    HW133338   1.409   0.613   1.871  1.2270 -0.0367 -0.7432
 7235SOL    HW233339   1.445   0.551   1.743 -0.5802 -0.5388 -0.3987
 7236SOL     OW33340   0.834   0.328  16.151 -0.1689 -0.5745 -0.2960
 7236SOL    HW133341   0.786   0.247  16.130 -2.2362  0.7442 -0.7163
 7236SOL    HW233342   0.918   0.291  16.125 -0.4566 -1.1328 -0.4445
 7237SOL     OW33343   3.143   4.361   4.291  0.1668 -0.6728 -0.5255
 7237SOL    HW133344   3.062   4.325   4.329  1.0993  0.2494  2.3221
 7237SOL    HW233345   3.183   4.411   4.361  0.5670  0.0160 -1.2455
 7238SOL     OW33346   0.546   1.936   7.607  0.1547 -0.0899 -0.1901
 7238SOL    HW133347   0.477   1.870   7.610 -1.4035  1.6002  2.0150
 7238SOL    HW233348   0.601   1.907   7.535 -0.7031  1.1987 -1.3730
 7239SOL     OW33349   4.215   4.580   5.693 -0.5810  0.0004 -0.0494
 7239SOL    HW133350   4.125   4.603   5.668 -0.4704  2.0170  1.3757
 7239SOL    HW233351   4.207   4.587   5.789 -0.4898 -1.9330  0.1026
 7240SOL     OW33352   2.231   0.852   6.356  0.2761 -0.0211  0.3641
 7240SOL    HW133353   2.322   0.847   6.327  0.8597 -2.0164  2.5651
 7240SOL    HW233354   2.244   0.944   6.381  1.2992 -0.8336  2.7902
 7241SOL     OW33355   0.169   4.574   9.835 -0.4810  0.0284 -0.2555
 7241SOL    HW133356   0.125   4.568   9.750  0.1130  1.1182 -0.6433
 7241SOL    HW233357   0.095   4.590   9.894 -0.9019 -2.3918 -0.1316
 7242SOL     OW33358   2.671   0.376   7.359 -0.2481  0.1321 -0.2059
 7242SOL    HW133359   2.694   0.293   7.401 -1.5803  0.5503  1.3493
 7242SOL    HW233360   2.620   0.419   7.428 -0.0190 -2.4889  1.5828
 7243SOL     OW33361   1.473   0.462   9.122 -0.0902 -0.2102  0.3418
 7243SOL    HW133362   1.503   0.497   9.206  0.3888 -2.1724  0.9818
 7243SOL    HW233363   1.516   0.377   9.116  0.1905 -0.0262 -0.2712
 7244SOL     OW33364   1.129   0.775   9.023 -0.7196 -0.0750  0.3007
 7244SOL    HW133365   1.166   0.739   9.104  2.7033  1.1567 -0.7460
 7244SOL    HW233366   1.058   0.711   9.014 -0.3616 -0.0378 -2.6680
 7245SOL     OW33367   3.961   3.719   7.807  0.2200  0.4997  0.0452
 7245SOL    HW133368   4.001   3.716   7.894 -0.2791  1.1957  0.3028
 7245SOL    HW233369   3.921   3.632   7.807  1.5372 -0.1049 -2.0679
 7246SOL     OW33370   1.239   4.525   5.172  0.2121 -0.4628 -0.0618
 7246SOL    HW133371   1.270   4.449   5.222  1.6657 -0.2374 -0.6504
 7246SOL    HW233372   1.308   4.543   5.109  0.0461 -2.0363 -0.6938
 7247SOL     OW33373   1.794   3.542  12.162  0.4313  0.1459  0.6083
 7247SOL    HW133374   1.704   3.508  12.159 -0.0706  1.3962  1.2157
 7247SOL    HW233375   1.813   3.511  12.250  2.1429  1.8280  0.8250
 7248SOL     OW33376   1.346   4.059   3.111 -0.5545 -0.4378 -0.0495
 7248SOL    HW133377   1.289   3.988   3.140  0.3713 -1.4195 -0.6217
 7248SOL    HW233378   1.381   4.086   3.196  2.9312 -0.4856 -1.4794
 7249SOL     OW33379   3.157   2.150   8.200  0.1131  0.0756  0.4385
 7249SOL    HW133380   3.208   2.092   8.256 -0.7227 -1.3303 -0.2477
 7249SOL    HW233381   3.225   2.170   8.136  1.0728  0.3281  1.5469
 7250SOL     OW33382   3.163   3.420   8.930  0.4303 -0.3408 -0.4183
 7250SOL    HW133383   3.154   3.473   9.009  1.0142  0.8326 -1.1312
 7250SOL    HW233384   3.226   3.362   8.972 -0.5368  0.4472  2.0788
 7251SOL     OW33385   2.159   3.472   6.239 -0.1090  0.5857 -0.6391
 7251SOL    HW133386   2.124   3.505   6.322 -0.0335  1.5334 -0.9810
 7251SOL    HW233387   2.158   3.379   6.259  4.6107  0.7308  0.3057
 7252SOL     OW33388   1.477   2.919   5.490 -0.3115  0.1582  0.7583
 7252SOL    HW133389   1.483   2.995   5.433  0.0474  0.5799  1.3672
 7252SOL    HW233390   1.422   2.961   5.556 -0.1312  0.4921  0.6918
 7253SOL     OW33391   2.393   2.108   2.840  0.6668 -0.1048 -0.5130
 7253SOL    HW133392   2.389   2.203   2.848  1.7121 -0.3873  3.7427
 7253SOL    HW233393   2.300   2.094   2.861  0.8157 -3.4730 -2.1060
 7254SOL     OW33394   3.255   3.520   7.050 -0.3494  0.0196 -0.1843
 7254SOL    HW133395   3.269   3.594   7.108  0.6410  0.0834 -0.5015
 7254SOL    HW233396   3.160   3.517   7.043 -0.2833 -0.9147 -0.6946
 7255SOL     OW33397   0.917   4.732  10.625  0.1096  0.3234  0.4654
 7255SOL    HW133398   0.910   4.642  10.593 -0.7421  0.9202 -1.0782
 7255SOL    HW233399   1.009   4.731  10.650 -0.3673 -0.8332  2.1963
 7256SOL     OW33400   1.714   2.560   0.926 -0.1715 -0.9252 -0.1820
 7256SOL    HW133401   1.790   2.572   0.869 -0.7045  0.1273 -0.6773
 7256SOL    HW233402   1.735   2.624   0.994 -1.9432 -0.5348 -0.0003
 7257SOL     OW33403   0.422   3.250   7.552 -0.4400  0.1965  0.4084
 7257SOL    HW133404   0.513   3.239   7.523 -0.2904  2.4293  0.0465
 7257SOL    HW233405   0.376   3.193   7.489  0.2509  1.2340 -1.0465
 7258SOL     OW33406   3.681   2.719   4.497  0.2822 -0.3395 -0.7731
 7258SOL    HW133407   3.752   2.772   4.460  1.3845 -0.0243  1.8014
 7258SOL    HW233408   3.619   2.789   4.518 -0.1922 -1.0619  0.2074
 7259SOL     OW33409   2.609   0.541  17.154 -0.0456  0.0935  0.2748
 7259SOL    HW133410   2.585   0.577  17.069  1.7507  0.8075  0.0676
 7259SOL    HW233411   2.654   0.616  17.191  0.2894  0.7199 -1.4256
 7260SOL     OW33412   3.398   4.075  13.695 -0.5873  0.2796  0.2032
 7260SOL    HW133413   3.338   4.150  13.704  2.2782  2.6513 -0.5693
 7260SOL    HW233414   3.363   4.040  13.613  0.1333  0.0368  0.0014
 7261SOL     OW33415   3.903   2.828   5.255 -0.0335 -0.3982 -0.0230
 7261SOL    HW133416   3.962   2.764   5.215 -2.0994 -0.4999 -2.9432
 7261SOL    HW233417   3.951   2.847   5.335  1.2990 -2.0873 -0.4364
 7262SOL     OW33418   4.441   1.616   4.207  0.2099  0.2347  0.1930
 7262SOL    HW133419   4.508   1.548   4.206  1.6711  1.6579  1.0471
 7262SOL    HW233420   4.483   1.683   4.262 -2.9061  2.3764 -0.0563
 7263SOL     OW33421   1.316   2.647   4.797  0.0396  0.2489 -0.4747
 7263SOL    HW133422   1.285   2.558   4.784 -0.0091  0.2956 -0.6769
 7263SOL    HW233423   1.302   2.650   4.891 -3.0987  0.0469 -0.9441
 7264SOL     OW33424   3.329   0.679  13.569  0.0303 -0.9391 -0.2864
 7264SOL    HW133425   3.411   0.727  13.584  1.2914 -2.3374 -2.7840
 7264SOL    HW233426   3.296   0.691  13.658  3.2635  0.0895  0.8029
 7265SOL     OW33427   2.494   3.444   8.490  0.1013  0.3582  0.1485
 7265SOL    HW133428   2.417   3.470   8.541  1.9744  1.1415  2.5333
 7265SOL    HW233429   2.474   3.483   8.405  0.7010 -0.1966 -0.2457
 7266SOL     OW33430   3.995   3.520   5.327 -0.0895 -0.4512 -0.1398
 7266SOL    HW133431   3.968   3.612   5.323 -1.7617 -0.9520 -0.4923
 7266SOL    HW233432   3.989   3.491   5.236  1.8998 -0.8036 -0.1480
 7267SOL     OW33433   3.970   2.211  17.255 -0.2666 -0.3294 -0.0394
 7267SOL    HW133434   4.036   2.281  17.262 -1.1758  0.4991  0.3437
 7267SOL    HW233435   3.903   2.252  17.311  0.9645 -0.7210  1.7198
 7268SOL     OW33436   4.484   4.690  15.537  0.4560  0.4141 -0.0589
 7268SOL    HW133437   4.522   0.030  15.492  0.1343  0.3810 -0.3879
 7268SOL    HW233438   4.445   4.641  15.464 -1.8887 -0.1323  1.5548
 7269SOL     OW33439   4.609   2.504   7.640  0.1041  0.1972  0.0879
 7269SOL    HW133440   4.655   2.448   7.704  1.2085  1.8776  0.7850
 7269SOL    HW233441   4.518   2.489   7.665  0.5996 -1.1993  1.0997
 7270SOL     OW33442   1.815   0.967   7.405 -0.6038 -0.0156 -0.0037
 7270SOL    HW133443   1.741   1.020   7.374 -0.0034  0.9460  0.2381
 7270SOL    HW233444   1.823   0.917   7.324  0.4001  0.5560 -0.2540
 7271SOL     OW33445   2.120   0.542   1.533  0.2875 -0.1746  0.5229
 7271SOL    HW133446   2.089   0.596   1.460  0.9344 -1.1399 -0.4711
 7271SOL    HW233447   2.108   0.585   1.617 -0.5182  0.0322  0.3013
 7272SOL     OW33448   2.653   2.985   3.111  0.5070  0.2030 -0.4904
 7272SOL    HW133449   2.558   2.987   3.115  0.3527 -0.4392 -3.2213
 7272SOL    HW233450   2.663   3.047   3.039 -1.4133  1.1218  0.0585
 7273SOL     OW33451   1.094   0.944   2.241 -0.1132  0.4968 -0.9767
 7273SOL    HW133452   1.186   0.928   2.220  0.2730 -0.6680  1.6175
 7273SOL    HW233453   1.071   1.002   2.169 -0.1172  1.7868  0.0676
 7274SOL     OW33454   3.666   1.608   2.677 -0.2268  0.5388  0.2576
 7274SOL    HW133455   3.747   1.573   2.638 -0.6719  0.2588 -0.4237
 7274SOL    HW233456   3.706   1.681   2.724  0.1645 -0.6226  1.7160
 7275SOL     OW33457   3.312   1.145  17.089 -0.7897  0.8682  0.2328
 7275SOL    HW133458   3.307   1.213  17.155 -1.2231  1.2573 -0.2053
 7275SOL    HW233459   3.364   1.192  17.024 -2.5607  2.6310  0.1034
 7276SOL     OW33460   1.130   2.758   8.202  0.1275  0.0806  0.1957
 7276SOL    HW133461   1.212   2.713   8.181  0.5478  1.1213 -0.3616
 7276SOL    HW233462   1.110   2.803   8.120  0.1322 -0.6656 -0.2083
 7277SOL     OW33463   4.556   1.254   6.218 -0.4002 -0.4965 -0.2569
 7277SOL    HW133464   4.530   1.330   6.167  0.7876  2.0279  2.9035
 7277SOL    HW233465   4.524   1.184   6.162  0.1795  0.4790 -1.7982
 7278SOL     OW33466   2.403   3.866   3.891  0.2229  0.3887  0.3011
 7278SOL    HW133467   2.328   3.862   3.832 -0.5544 -1.2612  1.3968
 7278SOL    HW233468   2.368   3.811   3.960 -1.4828  1.9553  0.6590
 7279SOL     OW33469   0.710   4.583   7.092  0.2811 -0.3688 -0.4607
 7279SOL    HW133470   0.651   4.658   7.084  0.6654 -0.1209 -1.0301
 7279SOL    HW233471   0.791   4.633   7.107  0.1569 -0.2284 -0.2627
 7280SOL     OW33472   3.765   2.278   5.959  0.6372  0.1327  0.3027
 7280SOL    HW133473   3.754   2.203   5.901 -1.2369 -0.2881  1.1884
 7280SOL    HW233474   3.723   2.232   6.032  0.2625 -1.3153 -0.8474
 7281SOL     OW33475   3.495   3.405   8.240  0.0719  0.0953  0.9214
 7281SOL    HW133476   3.431   3.336   8.257 -0.5481  0.2801 -0.6702
 7281SOL    HW233477   3.458   3.475   8.293 -2.6637 -2.0180  1.8218
 7282SOL     OW33478   2.609   1.830   6.100  0.3884 -1.1960  0.3298
 7282SOL    HW133479   2.554   1.893   6.148  1.4843 -1.1148  1.4594
 7282SOL    HW233480   2.681   1.805   6.157  0.5540 -0.5279  0.4075
 7283SOL     OW33481   2.047   1.614  10.471 -0.2778  0.2063 -0.4582
 7283SOL    HW133482   2.077   1.535  10.426  1.5177 -0.1698  1.3917
 7283SOL    HW233483   1.961   1.591  10.508 -0.6052 -1.1345 -2.0691
 7284SOL     OW33484   0.352   4.191   0.979  0.5418  0.6349  0.1835
 7284SOL    HW133485   0.332   4.224   1.067 -1.1429 -0.8977  0.3783
 7284SOL    HW233486   0.446   4.205   0.966  0.1297  0.2592 -3.0672
 7285SOL     OW33487   1.598   0.118  12.514 -0.0463  0.7269  0.5496
 7285SOL    HW133488   1.644   0.137  12.432 -3.3288  2.4955 -0.9022
 7285SOL    HW233489   1.585   0.208  12.546 -1.0001 -0.4443  3.4559
 7286SOL     OW33490   4.698   3.781   8.632  0.3959  0.0968  0.1361
 7286SOL    HW133491   4.679   3.688   8.640 -3.1063  0.9703  2.3815
 7286SOL    HW233492   0.047   3.794   8.588 -0.3668  0.4393 -1.2414
 7287SOL     OW33493   3.547   0.983  10.457 -0.4145 -0.3180  0.0783
 7287SOL    HW133494   3.518   1.067  10.420 -1.3515 -0.3657  0.6872
 7287SOL    HW233495   3.608   0.960  10.388 -3.9769 -2.4660 -2.3257
 7288SOL     OW33496   3.335   4.431  11.943 -0.5024 -0.0951 -0.4026
 7288SOL    HW133497   3.397   4.383  11.888 -0.9918  1.8944 -2.6617
 7288SOL    HW233498   3.381   4.416  12.025 -0.3264  0.2937 -0.4320
 7289SOL     OW33499   1.880   4.199  10.630 -0.2713  0.4282 -1.1859
 7289SOL    HW133500   1.940   4.219  10.558 -0.6066 -0.9384 -1.8571
 7289SOL    HW233501   1.806   4.254  10.607  0.1534  1.8603  0.8854
 7290SOL     OW33502   2.547   4.009  13.673  0.1362  0.0024 -0.1515
 7290SOL    HW133503   2.498   3.943  13.625 -2.4986  1.8988 -0.1020
 7290SOL    HW233504   2.587   3.967  13.749  0.5819 -1.6987 -1.3333
 7291SOL     OW33505   4.340   1.090  14.353 -0.0140 -0.2254 -0.0726
 7291SOL    HW133506   4.346   1.153  14.281  1.4141 -0.1061  0.1531
 7291SOL    HW233507   4.274   1.028  14.322  0.3418 -1.0059  0.7390
 7292SOL     OW33508   2.965   4.077  16.103 -0.6142 -0.5043  0.0243
 7292SOL    HW133509   2.966   4.163  16.062  0.3760 -0.5251 -0.0118
 7292SOL    HW233510   2.927   4.103  16.187  1.2022  0.9715  0.4004
 7293SOL     OW33511   0.570   1.964   3.875  0.3287  0.4297 -0.5135
 7293SOL    HW133512   0.609   1.890   3.922 -0.4910  0.5122  0.2730
 7293SOL    HW233513   0.505   1.910   3.830  0.2610 -1.6035  2.0521
 7294SOL     OW33514   0.072   0.788   6.089 -0.0310 -0.0345 -0.0054
 7294SOL    HW133515   4.720   0.808   6.124  0.5126  1.7830  0.3288
 7294SOL    HW233516   0.126   0.788   6.168 -0.2801 -0.2282  0.1646
 7295SOL     OW33517   3.828   3.047  15.288 -0.1902 -0.4104  0.2780
 7295SOL    HW133518   3.778   3.086  15.359  0.8557  2.1953 -0.4109
 7295SOL    HW233519   3.914   3.044  15.330  0.3335  0.4268 -0.7117
 7296SOL     OW33520   0.296   0.984   9.237  0.0867  0.0167  0.0780
 7296SOL    HW133521   0.251   0.915   9.188  2.2201  0.6866 -2.8733
 7296SOL    HW233522   0.389   0.961   9.230 -0.0377 -0.4057 -0.2451
 7297SOL     OW33523   3.021   0.541   4.704 -0.7880  0.2050  0.1307
 7297SOL    HW133524   2.989   0.546   4.614  1.7591  2.2635 -0.6421
 7297SOL    HW233525   2.948   0.487   4.734  0.0102  0.9725  3.4485
 7298SOL     OW33526   3.208   2.196  17.098  0.2640 -0.6701 -0.0108
 7298SOL    HW133527   3.294   2.226  17.068  0.1043  1.5526  1.7679
 7298SOL    HW233528   3.190   2.249  17.176 -1.7328 -0.1552 -0.8170
 7299SOL     OW33529   3.130   2.470   3.407 -0.0797  0.1407  0.0021
 7299SOL    HW133530   3.077   2.396   3.379  0.5000 -0.0717 -0.5575
 7299SOL    HW233531   3.065   2.521   3.456 -1.3555 -1.3255 -0.1802
 7300SOL     OW33532   1.634   3.664   6.629 -0.3870 -0.1884 -0.3795
 7300SOL    HW133533   1.603   3.630   6.545 -0.2686 -1.6636  0.1789
 7300SOL    HW233534   1.688   3.592   6.662  0.9153  1.2573  0.6407
 7301SOL     OW33535   2.676   0.940  12.301  0.3629  0.0159 -0.2722
 7301SOL    HW133536   2.685   0.911  12.391 -0.8108 -0.5698 -0.3401
 7301SOL    HW233537   2.598   0.888  12.284 -0.2628  0.8154  0.1333
 7302SOL     OW33538   3.556   1.194   2.642  0.7691 -0.0183 -0.4154
 7302SOL    HW133539   3.644   1.231   2.648  1.2223 -0.6303 -3.1118
 7302SOL    HW233540   3.501   1.269   2.662  1.4810  0.1311  0.9592
 7303SOL     OW33541   1.232   4.172   2.900 -0.3919  0.2539 -0.4193
 7303SOL    HW133542   1.279   4.103   2.853 -2.7682 -1.5307 -0.1984
 7303SOL    HW233543   1.262   4.149   2.988 -1.7509  1.6005  0.4033
 7304SOL     OW33544   1.403   1.044   3.854  0.0435  0.0201  0.0565
 7304SOL    HW133545   1.309   1.061   3.848  0.5324  1.8460 -2.3393
 7304SOL    HW233546   1.410   0.956   3.819  1.1284  0.6147 -1.2463
 7305SOL     OW33547   1.205   4.251  15.006  0.5486 -0.0531 -0.1408
 7305SOL    HW133548   1.163   4.166  15.019 -0.4967  0.3642 -0.7875
 7305SOL    HW233549   1.154   4.305  15.067  0.2060  0.6650 -1.0723
 7306SOL     OW33550   0.029   2.789   3.075  0.0932  0.3173 -0.3626
 7306SOL    HW133551   0.038   2.721   3.009  0.9144  0.5597 -0.5051
 7306SOL    HW233552   0.036   2.870   3.024  2.0545  1.0398  1.0220
 7307SOL     OW33553   4.401   2.007   0.042 -0.6583  0.6574  0.0744
 7307SOL    HW133554   4.316   1.995   0.082  0.9301  0.5629  3.4283
 7307SOL    HW233555   4.403   1.927  17.730  0.0646 -0.3366  1.6174
 7308SOL     OW33556   3.243   1.165   3.402 -0.0814  0.1006  0.0653
 7308SOL    HW133557   3.156   1.142   3.435  0.0763  1.8387  1.6726
 7308SOL    HW233558   3.249   1.099   3.333  1.5854  0.8701 -0.5027
 7309SOL     OW33559   1.786   4.232   6.704  0.2324  0.6064  0.3481
 7309SOL    HW133560   1.872   4.246   6.745 -0.0591 -0.2945  1.2677
 7309SOL    HW233561   1.804   4.272   6.619  0.2773  0.0363  0.0892
 7310SOL     OW33562   1.189   4.055   4.212 -0.0284  0.3626  0.5043
 7310SOL    HW133563   1.179   4.052   4.117  3.3224 -1.8638  0.2282
 7310SOL    HW233564   1.104   4.047   4.257  0.2532 -2.7821  0.4968
 7311SOL     OW33565   4.146   0.940  13.032  0.1469 -0.1844  0.6326
 7311SOL    HW133566   4.109   0.989  12.959 -0.0742  0.2789  1.0555
 7311SOL    HW233567   4.180   1.013  13.083  0.2709  0.8051 -0.8711
 7312SOL     OW33568   2.559   2.862  11.101  0.6760 -0.1343  0.1568
 7312SOL    HW133569   2.486   2.875  11.161  0.2418  1.0138 -0.6313
 7312SOL    HW233570   2.539   2.779  11.058 -1.3018  0.3884  0.0975
 7313SOL     OW33571   2.665   1.554   5.989 -0.3419 -0.2855  0.0523
 7313SOL    HW133572   2.667   1.649   5.975  0.7083 -0.4303 -0.7769
 7313SOL    HW233573   2.759   1.535   5.983  0.0979  1.9288 -0.1198
 7314SOL     OW33574   3.668   1.119  16.032 -0.3496  0.6558 -0.3378
 7314SOL    HW133575   3.673   1.140  15.939 -2.4641  0.1976 -0.5748
 7314SOL    HW233576   3.720   1.039  16.033 -2.5419 -0.7797  0.1773
 7315SOL     OW33577   3.118   0.297  11.154  0.3848 -0.4119  0.0392
 7315SOL    HW133578   3.211   0.285  11.134  0.3985  0.9676 -0.7288
 7315SOL    HW233579   3.087   0.355  11.084  0.9775 -1.4261 -1.0543
 7316SOL     OW33580   4.402   2.661   4.404  0.1054 -0.6996  0.4346
 7316SOL    HW133581   4.375   2.640   4.494  0.7331  0.6410  0.9277
 7316SOL    HW233582   4.369   2.586   4.354  1.0353 -0.9523  0.2165
 7317SOL     OW33583   1.555   0.571   5.304  0.1164 -0.0127 -0.4288
 7317SOL    HW133584   1.547   0.631   5.378  0.8575 -0.0028 -0.3587
 7317SOL    HW233585   1.463   0.567   5.279  0.1213 -0.4881 -0.3739
 7318SOL     OW33586   0.949   3.616   2.405 -0.1342 -0.0255 -0.6799
 7318SOL    HW133587   0.868   3.576   2.375  1.0591 -2.2271 -0.9668
 7318SOL    HW233588   0.957   3.689   2.343 -1.6633 -0.6345 -1.6111
 7319SOL     OW33589   1.379   0.045   5.779 -0.3926  0.6056  0.5191
 7319SOL    HW133590   1.411   4.691   5.790  0.0442  0.5517 -1.1128
 7319SOL    HW233591   1.284   0.030   5.781 -0.1855 -0.5125  2.2718
 7320SOL     OW33592   2.837   2.082  16.269 -0.4106  0.3046  0.6146
 7320SOL    HW133593   2.908   2.028  16.233 -0.3148  0.6488  0.2818
 7320SOL    HW233594   2.792   2.112  16.190 -0.1195  2.3974  1.2475
 7321SOL     OW33595   3.214   2.984  11.004  0.3335 -0.0635 -0.1167
 7321SOL    HW133596   3.176   2.908  11.047 -0.6721  1.2878  1.3820
 7321SOL    HW233597   3.155   3.057  11.024 -0.0049 -0.5441  0.6247
 7322SOL     OW33598   4.430   1.198  10.732 -0.4593 -0.2267 -0.1770
 7322SOL    HW133599   4.380   1.119  10.711 -2.1093  0.8852 -0.3863
 7322SOL    HW233600   4.449   1.178  10.824  1.6939 -3.5954 -1.3666
 7323SOL     OW33601   0.820   0.483   7.136  0.2363  0.3802 -0.1876
 7323SOL    HW133602   0.872   0.415   7.092  1.0964  2.1442 -1.9095
 7323SOL    HW233603   0.746   0.488   7.076  1.5168  2.7695 -1.5801
 7324SOL     OW33604   4.056   2.231   5.975 -0.1510  0.2351  0.4507
 7324SOL    HW133605   3.962   2.239   5.989 -0.4106 -0.8977 -0.5904
 7324SOL    HW233606   4.067   2.270   5.888 -2.0581 -2.3020 -0.9683
 7325SOL     OW33607   1.903   0.011  16.759  0.4282  0.7707  0.3918
 7325SOL    HW133608   1.869   4.682  16.821  1.8774 -1.4076 -1.0494
 7325SOL    HW233609   1.856   0.089  16.788 -0.1393  0.6013 -0.0653
 7326SOL     OW33610   4.334   1.487   5.043  0.1607  0.7292  0.1458
 7326SOL    HW133611   4.250   1.462   5.004  1.5472 -2.5154 -0.7589
 7326SOL    HW233612   4.320   1.450   5.131 -0.1874  0.4155 -0.0415
 7327SOL     OW33613   4.553   2.333  10.528 -0.2555 -0.0203 -0.7842
 7327SOL    HW133614   4.630   2.335  10.586 -0.6762  1.9106 -0.3048
 7327SOL    HW233615   4.488   2.355  10.594  2.8839  0.2793  2.2279
 7328SOL     OW33616   0.575   4.137   2.877  0.1182  0.4098  0.0960
 7328SOL    HW133617   0.594   4.097   2.792  3.5343  0.1543  0.9581
 7328SOL    HW233618   0.637   4.210   2.881 -0.8029  1.1787  0.2364
 7329SOL     OW33619   4.506   4.179   2.812  0.5417 -0.3504 -0.2817
 7329SOL    HW133620   4.578   4.120   2.830 -0.5535 -1.2076  1.3718
 7329SOL    HW233621   4.547   4.257   2.775  0.8051  0.0793  0.9032
 7330SOL     OW33622   1.486   4.144   1.189  0.2489  0.2127  0.0487
 7330SOL    HW133623   1.395   4.168   1.173 -0.0288 -1.2018 -0.4929
 7330SOL    HW233624   1.484   4.140   1.284  1.2963 -2.6001 -0.0402
 7331SOL     OW33625   0.898   2.862   2.913  0.1292  0.0170  0.0879
 7331SOL    HW133626   0.950   2.823   2.843  0.0907  0.7593 -0.3611
 7331SOL    HW233627   0.961   2.928   2.941  2.2065 -2.8305  2.1322
 7332SOL     OW33628   2.270   0.735   8.192 -0.2986  0.1058 -0.0737
 7332SOL    HW133629   2.363   0.741   8.216 -0.0335 -0.7722 -0.8659
 7332SOL    HW233630   2.282   0.684   8.112  1.1650  0.8447 -0.3213
 7333SOL     OW33631   4.611   0.424  11.442 -0.2436 -0.2612 -0.2616
 7333SOL    HW133632   4.534   0.370  11.459 -1.4725  2.0617  1.4569
 7333SOL    HW233633   4.600   0.488  11.512  2.2969  1.4349 -1.4239
 7334SOL     OW33634   2.135   2.396  12.978  0.0112 -0.1317 -0.1798
 7334SOL    HW133635   2.154   2.424  12.888 -1.5736  0.5972 -0.2805
 7334SOL    HW233636   2.215   2.345  12.994 -0.4255 -0.9565 -0.6017
 7335SOL     OW33637   0.483   4.100   7.323 -0.2393  0.1011 -0.4157
 7335SOL    HW133638   0.516   4.078   7.410  1.4671  0.0944 -1.0797
 7335SOL    HW233639   0.567   4.111   7.279  0.6015  1.1299  1.4464
 7336SOL     OW33640   1.509   3.410   4.598 -0.4144  0.2095 -0.2763
 7336SOL    HW133641   1.458   3.353   4.540  1.9710 -0.7669 -1.4196
 7336SOL    HW233642   1.449   3.482   4.615  0.1004  1.1127 -2.2516
 7337SOL     OW33643   1.942   3.187  12.756 -0.1506 -0.0934 -0.5463
 7337SOL    HW133644   1.924   3.204  12.663 -2.9433  0.6138  0.1073
 7337SOL    HW233645   2.027   3.227  12.774 -0.2555  1.3888 -3.4171
 7338SOL     OW33646   2.777   3.611  14.712  0.2311  0.6836 -0.4855
 7338SOL    HW133647   2.723   3.532  14.720 -1.7468  1.8997 -1.9598
 7338SOL    HW233648   2.855   3.564  14.743  0.0857  0.1139 -0.9684
 7339SOL     OW33649   4.042   2.311   5.059  0.3320 -0.2885 -0.1486
 7339SOL    HW133650   4.017   2.338   5.148 -0.6390  0.1940 -0.5566
 7339SOL    HW233651   4.033   2.216   5.064 -1.1837 -0.2621 -2.3872
 7340SOL     OW33652   2.577   1.087   4.859 -0.2828 -0.2222  0.6323
 7340SOL    HW133653   2.603   1.045   4.777 -1.8039 -1.9037  0.9980
 7340SOL    HW233654   2.525   1.159   4.825  1.6958  0.0496 -1.7565
 7341SOL     OW33655   3.585   4.704   8.355  0.3265  0.9446 -0.3135
 7341SOL    HW133656   3.647   4.651   8.305 -2.7808 -1.6275 -1.4441
 7341SOL    HW233657   3.638   0.045   8.377  1.3628  1.0969 -3.2205
 7342SOL     OW33658   2.723   4.212   5.737 -0.0929  0.2453 -0.3672
 7342SOL    HW133659   2.709   4.274   5.666 -0.2223  0.0952 -0.4733
 7342SOL    HW233660   2.792   4.253   5.789  1.0121  0.7000 -2.1935
 7343SOL     OW33661   1.700   4.673  13.128  0.1392 -0.7961 -0.0561
 7343SOL    HW133662   1.692   0.027  13.096  1.1778 -1.8269 -3.2043
 7343SOL    HW233663   1.646   4.626  13.065 -0.6487  0.2864 -0.1813
 7344SOL     OW33664   3.654   3.510   7.079  0.4464  0.0949  0.8262
 7344SOL    HW133665   3.748   3.508   7.098 -0.1492  1.0325  3.7978
 7344SOL    HW233666   3.627   3.419   7.061 -0.2466  0.5259 -0.3406
 7345SOL     OW33667   0.053   0.688   3.855  0.2996 -0.2348  0.2132
 7345SOL    HW133668   0.077   0.701   3.947 -2.3989  1.5667  0.6463
 7345SOL    HW233669   4.703   0.644   3.858  0.5794 -0.8248 -0.2989
 7346SOL     OW33670   1.747   2.373   7.248  0.4572 -0.3867 -0.8547
 7346SOL    HW133671   1.753   2.436   7.320 -0.0096  0.7730 -1.8325
 7346SOL    HW233672   1.679   2.314   7.279 -0.1096 -0.4867 -2.2691
 7347SOL     OW33673   0.937   4.508   1.753 -0.1900  0.5335 -0.1266
 7347SOL    HW133674   0.927   4.508   1.848  0.6943  0.2699 -0.0356
 7347SOL    HW233675   0.989   4.587   1.739  2.2647 -1.0645 -0.0336
 7348SOL     OW33676   0.206   1.550  16.892  0.3222 -0.0799  0.7166
 7348SOL    HW133677   0.279   1.603  16.925 -0.4499  0.5604  1.4053
 7348SOL    HW233678   0.209   1.572  16.800 -2.5321 -0.7619  0.4529
 7349SOL     OW33679   3.812   3.167   9.205  0.7048 -0.1610  0.0925
 7349SOL    HW133680   3.790   3.157   9.298 -0.5293 -1.0137 -0.2800
 7349SOL    HW233681   3.741   3.117   9.164  2.6059 -3.0796  0.3558
 7350SOL     OW33682   0.828   1.360   6.463 -0.0443  0.2074  0.2316
 7350SOL    HW133683   0.852   1.267   6.470  0.4440 -0.0505 -5.0147
 7350SOL    HW233684   0.733   1.347   6.455 -0.4041  2.0821  1.4373
 7351SOL     OW33685   4.478   3.079   3.368  0.0485  0.5980 -0.1057
 7351SOL    HW133686   4.529   3.114   3.441  1.4531 -0.5968 -0.4994
 7351SOL    HW233687   4.540   3.009   3.345  1.4196  1.1745  1.7597
 7352SOL     OW33688   3.386   3.776   3.717 -0.3876 -0.2322  0.1545
 7352SOL    HW133689   3.368   3.844   3.652  0.7095 -0.5879 -0.5207
 7352SOL    HW233690   3.312   3.717   3.707 -0.4796 -0.1715  0.4681
 7353SOL     OW33691   1.880   3.339  14.489  0.0020  0.8572  0.0002
 7353SOL    HW133692   1.839   3.279  14.427  0.6907 -0.0413  0.4089
 7353SOL    HW233693   1.975   3.332  14.478  0.1855 -0.0429  2.1177
 7354SOL     OW33694   0.230   0.219   2.019 -0.1973 -0.2850 -0.4143
 7354SOL    HW133695   0.314   0.174   2.016 -0.6926 -1.1155 -1.6432
 7354SOL    HW233696   0.182   0.139   1.999  1.1931 -0.9424 -1.1223
 7355SOL     OW33697   0.592   2.229   6.044 -0.2716 -0.4809 -0.4907
 7355SOL    HW133698   0.510   2.213   5.997 -0.5613 -1.1482  0.2616
 7355SOL    HW233699   0.581   2.192   6.131 -0.3390  2.5197  0.7768
 7356SOL     OW33700   3.441   4.635   6.175  0.3518 -0.0428  0.0788
 7356SOL    HW133701   3.458   4.698   6.245 -1.0858 -1.7213  1.9478
 7356SOL    HW233702   3.388   4.681   6.110 -0.0527 -1.7706 -0.8123
 7357SOL     OW33703   3.218   3.297   2.212 -0.4969  0.2198  0.1567
 7357SOL    HW133704   3.198   3.281   2.304  1.7267  2.3577  0.9920
 7357SOL    HW233705   3.207   3.211   2.170 -0.5078 -1.1801  3.0222
 7358SOL     OW33706   4.340   2.546   4.667 -0.1898  0.2916  0.2903
 7358SOL    HW133707   4.266   2.502   4.625  0.1043  1.6480 -1.6478
 7358SOL    HW233708   4.342   2.509   4.756  2.0378  0.8433  0.4848
 7359SOL     OW33709   0.443   0.170   3.139 -0.2091 -0.2091  0.2741
 7359SOL    HW133710   0.528   0.152   3.098  0.9671  1.4356  1.9776
 7359SOL    HW233711   0.394   0.114   3.079  2.7320 -1.2810 -1.1368
 7360SOL     OW33712   3.963   0.451  15.310 -0.3091 -0.4928 -0.4178
 7360SOL    HW133713   3.927   0.368  15.341 -0.2777  0.0333  0.9966
 7360SOL    HW233714   4.057   0.438  15.308  0.0662  2.4088 -1.8212
 7361SOL     OW33715   0.022   0.186   5.431 -0.3262 -0.4175  0.5157
 7361SOL    HW133716   0.082   0.202   5.358  0.9984  3.9183  2.5557
 7361SOL    HW233717   0.056   0.239   5.502 -3.4541  0.6303  1.2541
 7362SOL     OW33718   0.854   0.612   4.059 -0.5720  0.0239 -0.1932
 7362SOL    HW133719   0.890   0.701   4.060  2.1400 -1.0780 -1.0169
 7362SOL    HW233720   0.932   0.560   4.042  1.2838  2.8550 -0.1873
 7363SOL     OW33721   4.221   3.689   7.052  0.2080  0.1368  0.2949
 7363SOL    HW133722   4.308   3.690   7.091 -0.1078 -1.8430  1.0012
 7363SOL    HW233723   4.179   3.724   7.130  0.6890  0.5845  0.3555
 7364SOL     OW33724   4.517   0.688  11.599  0.2583 -0.6259  0.1994
 7364SOL    HW133725   4.508   0.783  11.585  2.3214 -0.4977 -0.3295
 7364SOL    HW233726   4.444   0.673  11.659  0.0666 -0.5234 -0.0102
 7365SOL     OW33727   0.788   3.687   4.974 -0.3045  0.0500  0.1460
 7365SOL    HW133728   0.796   3.779   4.949  1.8719  0.9720  4.4006
 7365SOL    HW233729   0.765   3.696   5.066  1.0334 -0.3560  0.5174
 7366SOL     OW33730   3.851   0.042   8.652  0.1230 -0.7046 -0.5900
 7366SOL    HW133731   3.870   0.096   8.728 -2.0190 -0.0460 -0.5215
 7366SOL    HW233732   3.759   0.067   8.639 -0.2217 -0.6796  1.8496
 7367SOL     OW33733   2.883   2.646   1.891 -0.4359  0.0819  0.0006
 7367SOL    HW133734   2.898   2.610   1.978 -0.9473  0.4465  0.2391
 7367SOL    HW233735   2.867   2.734   1.924 -0.4267  0.1246 -0.1089
 7368SOL     OW33736   1.972   4.559   2.150  0.1283 -0.0379  0.0670
 7368SOL    HW133737   1.947   4.621   2.081  0.4869 -0.5968 -0.5689
 7368SOL    HW233738   1.889   4.520   2.179  1.4849 -2.2033  0.9952
 7369SOL     OW33739   4.457   1.438   7.231 -0.4237 -0.6834  0.1708
 7369SOL    HW133740   4.513   1.387   7.173 -0.1141 -0.6284  0.4218
 7369SOL    HW233741   4.418   1.371   7.287 -0.8042 -0.8844 -0.3319
 7370SOL     OW33742   1.449   2.940   8.084  0.1430  0.2562 -0.4356
 7370SOL    HW133743   1.400   3.005   8.135  0.8360  0.7812 -0.4456
 7370SOL    HW233744   1.464   2.984   8.000  0.6925  0.3694 -0.2786
 7371SOL     OW33745   3.409   2.661  17.151 -0.0733 -0.3461  0.1623
 7371SOL    HW133746   3.411   2.626  17.240  0.5340 -2.1520 -0.5645
 7371SOL    HW233747   3.343   2.608  17.106 -0.7362  0.8901 -0.3116
 7372SOL     OW33748   3.629   1.657  11.049 -0.4919  0.1668 -0.2378
 7372SOL    HW133749   3.691   1.664  10.977 -1.9065 -0.8589 -1.5401
 7372SOL    HW233750   3.674   1.677  11.132 -1.6337 -2.0688  0.9158
 7373SOL     OW33751   2.729   0.376   9.405 -0.2038 -0.1899 -0.0287
 7373SOL    HW133752   2.702   0.462   9.372  2.4250  1.3420  1.8660
 7373SOL    HW233753   2.669   0.371   9.479  1.0079 -0.1169  0.9541
 7374SOL     OW33754   1.093   2.531   7.500  0.9724 -0.7300  0.0854
 7374SOL    HW133755   1.110   2.524   7.406  1.5961 -1.2233  0.2373
 7374SOL    HW233756   1.075   2.625   7.495  0.0460 -0.9349 -0.4132
 7375SOL     OW33757   2.734   0.734   4.680 -0.7006  0.0975  0.0402
 7375SOL    HW133758   2.697   0.719   4.592  1.7056  1.9362 -1.2851
 7375SOL    HW233759   2.792   0.806   4.655  3.0023 -2.9960 -0.2956
 7376SOL     OW33760   2.462   1.364   1.163  0.3158 -0.2323  0.0415
 7376SOL    HW133761   2.476   1.311   1.084 -0.7822  0.5551 -0.6786
 7376SOL    HW233762   2.379   1.336   1.200  1.0933 -2.7409 -0.1169
 7377SOL     OW33763   3.574   4.473   7.823  0.2240 -0.4570  0.0200
 7377SOL    HW133764   3.658   4.489   7.781  0.1512  1.7656  0.7206
 7377SOL    HW233765   3.530   4.406   7.771 -1.5473  0.5418  0.2233
 7378SOL     OW33766   3.146   3.932   8.244  0.2749  0.2741 -0.7107
 7378SOL    HW133767   3.236   3.910   8.218  0.2305 -0.4989 -0.2078
 7378SOL    HW233768   3.139   3.925   8.339 -0.4896 -0.7555 -0.8409
 7379SOL     OW33769   4.604   4.244   0.013  0.0800 -0.2019 -0.5697
 7379SOL    HW133770   4.529   4.304   0.018  1.1571  1.1295 -0.2972
 7379SOL    HW233771   4.609   4.203   0.100  1.4545  0.2413 -0.4434
 7380SOL     OW33772   0.095   2.766  13.597 -0.5588  0.2227 -1.2611
 7380SOL    HW133773   0.012   2.810  13.578 -0.7829  0.0592 -0.6726
 7380SOL    HW233774   0.132   2.814  13.671  3.2470 -1.2509 -2.2222
 7381SOL     OW33775   1.821   3.577   1.862  0.1233  0.3244 -0.6909
 7381SOL    HW133776   1.774   3.540   1.937  1.5719  2.2895  1.2118
 7381SOL    HW233777   1.778   3.661   1.848  1.2747  0.5581 -2.7477
 7382SOL     OW33778   4.365   1.721   1.247 -0.0324 -0.2258  0.1758
 7382SOL    HW133779   4.409   1.646   1.207 -2.4454 -2.0087  0.8771
 7382SOL    HW233780   4.340   1.686   1.332 -0.6494 -1.8140 -0.6755
 7383SOL     OW33781   1.720   1.521   7.095 -0.4762 -0.1223 -0.7366
 7383SOL    HW133782   1.701   1.612   7.075 -0.8900  0.4337  2.2075
 7383SOL    HW233783   1.816   1.527   7.096 -0.5507  0.7222  0.7670
 7384SOL     OW33784   0.626   3.317   8.815 -0.0539  0.6368 -0.8100
 7384SOL    HW133785   0.710   3.281   8.842  0.1300  1.2791 -0.5411
 7384SOL    HW233786   0.597   3.254   8.749 -0.4237  1.5238 -1.4957
 7385SOL     OW33787   3.301   1.121   5.679  0.6566 -0.2093  0.2588
 7385SOL    HW133788   3.374   1.131   5.617 -1.2876  3.6734 -1.3917
 7385SOL    HW233789   3.234   1.154   5.619  1.0042  0.3511  0.1816
 7386SOL     OW33790   2.947   3.368   5.982 -0.0626  0.3996 -0.3561
 7386SOL    HW133791   2.939   3.297   5.918  1.5285 -0.0996  0.0031
 7386SOL    HW233792   2.996   3.329   6.054 -1.9038  0.4219  0.9032
 7387SOL     OW33793   0.932   0.838   1.801 -0.0649  0.1927  0.1825
 7387SOL    HW133794   0.929   0.807   1.710 -0.4206  0.8131 -0.0132
 7387SOL    HW233795   1.008   0.789   1.833 -0.4309  0.5851  1.6445
 7388SOL     OW33796   1.230   3.711   7.676  0.6973  0.0510  0.1568
 7388SOL    HW133797   1.211   3.666   7.758  0.7337  0.4885  0.4093
 7388SOL    HW233798   1.239   3.802   7.704  0.2373  1.0111 -2.7473
 7389SOL     OW33799   0.414   2.456   7.394  0.6695 -0.3712 -0.6574
 7389SOL    HW133800   0.458   2.403   7.327 -0.2286  0.3787 -1.8427
 7389SOL    HW233801   0.335   2.402   7.398  0.1716  0.4234  0.0460
 7390SOL     OW33802   1.919   4.381   1.885 -0.0962  0.3682  0.3904
 7390SOL    HW133803   1.846   4.390   1.946 -0.7941 -0.2262 -0.3654
 7390SOL    HW233804   1.898   4.449   1.821 -0.8682 -0.7692 -0.5649
 7391SOL     OW33805   3.127   1.920   7.600 -0.8732 -0.2763  0.0697
 7391SOL    HW133806   3.075   1.855   7.554  0.8492 -3.0427  2.0450
 7391SOL    HW233807   3.065   1.948   7.668 -0.3523  2.0738 -0.4089
 7392SOL     OW33808   0.091   4.579  16.673  0.1779 -0.0126 -0.1557
 7392SOL    HW133809   0.027   4.568  16.602  0.8309 -1.0995 -0.5708
 7392SOL    HW233810   0.163   4.613  16.620 -1.4177  2.0626 -1.0090
 7393SOL     OW33811   4.068   0.746   3.722  0.5045  0.2337 -0.3010
 7393SOL    HW133812   4.145   0.799   3.742  0.3136  0.8676 -1.2472
 7393SOL    HW233813   4.058   0.769   3.629 -0.7958 -1.0186 -0.4707
 7394SOL     OW33814   0.576   4.714  14.232 -0.0048  0.1689 -0.1708
 7394SOL    HW133815   0.556   0.020  14.316  1.1418 -0.5794  0.4627
 7394SOL    HW233816   0.641   4.646  14.247  2.2104  2.1393 -0.9385
 7395SOL     OW33817   1.612   2.868  13.131  0.0306 -0.1658  0.8282
 7395SOL    HW133818   1.614   2.892  13.224  0.3937 -1.8721  1.2531
 7395SOL    HW233819   1.656   2.783  13.126  0.2077  0.1320 -2.7928
 7396SOL     OW33820   4.654   3.032   2.219 -0.0349  0.0064  0.3506
 7396SOL    HW133821   4.607   3.044   2.301 -0.4515  0.4273  0.0536
 7396SOL    HW233822   4.665   3.124   2.193  0.0336 -0.1622 -0.2346
 7397SOL     OW33823   1.340   3.839   3.992 -0.2688 -0.3192  0.0298
 7397SOL    HW133824   1.300   3.915   3.951  0.3761 -0.7240 -1.3560
 7397SOL    HW233825   1.263   3.786   4.016  1.5457 -1.6089  3.0984
 7398SOL     OW33826   2.874   3.237  12.403  0.0035 -0.1387 -0.0110
 7398SOL    HW133827   2.918   3.299  12.344 -0.0650 -1.4296 -1.4215
 7398SOL    HW233828   2.798   3.222  12.348 -1.3064  3.6489  0.7694
 7399SOL     OW33829   1.766   3.280   8.669  0.1943  0.2066  0.4951
 7399SOL    HW133830   1.861   3.269   8.673  0.0979 -1.1969 -1.2941
 7399SOL    HW233831   1.758   3.359   8.615  0.0943  0.6007  1.0888
 7400SOL     OW33832   2.940   2.412   6.728  0.4655  0.2065 -0.1446
 7400SOL    HW133833   2.974   2.499   6.706 -1.8383  1.3492  0.7478
 7400SOL    HW233834   3.012   2.391   6.787  0.2885  1.8069  0.6439
 7401SOL     OW33835   1.482   2.970  15.588  0.0412  0.4274 -0.6088
 7401SOL    HW133836   1.541   3.041  15.564  2.3252 -1.5234 -0.7559
 7401SOL    HW233837   1.503   2.905  15.521  0.5092  0.4668 -0.5032
 7402SOL     OW33838   3.734   0.333   8.756 -0.3197 -0.0462 -0.1639
 7402SOL    HW133839   3.795   0.348   8.683 -1.5703 -2.2509 -1.6664
 7402SOL    HW233840   3.653   0.370   8.720 -0.3225 -0.3726 -0.4965
 7403SOL     OW33841   1.442   0.122  14.241 -0.7255  0.2677  0.2115
 7403SOL    HW133842   1.425   0.212  14.212  2.6891  0.7248 -0.3572
 7403SOL    HW233843   1.410   0.069  14.168 -1.5459  2.2114 -0.8531
 7404SOL     OW33844   4.529   1.674  13.617  0.7519 -0.5218 -0.4333
 7404SOL    HW133845   4.616   1.713  13.618 -0.6618  2.6918 -2.2695
 7404SOL    HW233846   4.544   1.582  13.638 -1.9591 -0.3193  2.4089
 7405SOL     OW33847   4.615   2.761   4.758  0.8094  0.0937 -0.0761
 7405SOL    HW133848   4.529   2.787   4.791  0.8834 -1.0230  0.9992
 7405SOL    HW233849   4.669   2.821   4.809  0.6145 -0.5367  0.8694
 7406SOL     OW33850   1.853   3.247   3.566  0.2632  0.0331 -0.3174
 7406SOL    HW133851   1.919   3.311   3.540 -1.5404  2.3313  0.7356
 7406SOL    HW233852   1.774   3.301   3.574  0.4568  0.6403 -2.5364
 7407SOL     OW33853   4.291   2.190   3.647 -0.4818 -0.0835 -0.2643
 7407SOL    HW133854   4.276   2.156   3.735 -1.1458  2.0917  0.4809
 7407SOL    HW233855   4.201   2.212   3.621 -1.0220 -2.5749 -0.4303
 7408SOL     OW33856   3.997   2.036   8.128  0.6260  0.1126 -0.5270
 7408SOL    HW133857   3.995   1.973   8.201  2.7524 -0.9153 -1.3541
 7408SOL    HW233858   4.051   1.984   8.069  0.3830  1.8704 -2.2795
 7409SOL     OW33859   3.076   3.955   8.517 -1.0696 -0.0523  0.0979
 7409SOL    HW133860   3.135   4.023   8.549 -0.1556 -0.5519 -0.5440
 7409SOL    HW233861   3.102   3.884   8.574 -2.0016  1.3647  2.2810
 7410SOL     OW33862   3.689   4.272   3.966  0.1276  0.5322 -0.4845
 7410SOL    HW133863   3.718   4.336   4.031 -3.5969  0.6830  0.9991
 7410SOL    HW233864   3.771   4.223   3.959  0.6292  1.1749  0.7783
 7411SOL     OW33865   3.322   4.639   8.279 -0.1487  0.0758 -0.4820
 7411SOL    HW133866   3.351   4.628   8.189 -1.5061  0.6684 -0.9875
 7411SOL    HW233867   3.400   4.686   8.309 -0.3774  0.8806 -1.1786
 7412SOL     OW33868   0.212   0.268   3.776  0.7902 -0.8806  0.6468
 7412SOL    HW133869   0.120   0.289   3.757 -0.2914 -3.7236  2.6151
 7412SOL    HW233870   0.217   0.182   3.734 -2.7164 -0.1014 -1.4195
 7413SOL     OW33871   3.311   2.941   8.383  0.5198 -0.5391  0.0641
 7413SOL    HW133872   3.347   2.957   8.296  1.3778  0.2922  0.5661
 7413SOL    HW233873   3.380   2.983   8.435 -0.1057  1.1749 -0.4892
 7414SOL     OW33874   1.201   0.844   3.403  0.5714  0.2494 -0.1033
 7414SOL    HW133875   1.185   0.938   3.412 -0.1660 -0.1222  2.4426
 7414SOL    HW233876   1.122   0.809   3.445  2.0615 -0.3435  2.2153
 7415SOL     OW33877   2.045   2.903   1.512  0.2941 -0.8334  0.3795
 7415SOL    HW133878   2.083   2.986   1.480 -0.1600 -0.4136  0.9413
 7415SOL    HW233879   2.122   2.876   1.562  0.1550 -1.5627  0.1905
 7416SOL     OW33880   0.207   3.741   3.818  0.4542  0.5810  0.2875
 7416SOL    HW133881   0.266   3.687   3.765  0.9562  0.4828  0.9415
 7416SOL    HW233882   0.122   3.702   3.800  1.4693 -1.7735  0.6000
 7417SOL     OW33883   1.866   2.695   6.328 -0.5398 -0.0278 -0.4617
 7417SOL    HW133884   1.846   2.772   6.382 -0.0006 -0.7914  0.8296
 7417SOL    HW233885   1.956   2.674   6.350 -0.2701  3.7873  2.1548
 7418SOL     OW33886   0.890   0.078   3.262 -0.3157 -0.1959  0.6256
 7418SOL    HW133887   0.837   0.148   3.225 -0.8832 -1.4336 -0.9229
 7418SOL    HW233888   0.829   0.034   3.322 -1.4158 -0.4449 -0.6702
 7419SOL     OW33889   4.586   0.900  11.185  0.4511  0.0466  0.7375
 7419SOL    HW133890   4.544   0.815  11.200 -0.9839 -0.0693 -3.8990
 7419SOL    HW233891   4.518   0.955  11.223 -2.2239 -1.3953 -1.9367
 7420SOL     OW33892   3.619   1.150  17.390 -0.1723  0.4445  0.0507
 7420SOL    HW133893   3.667   1.141  17.473  0.2920 -0.8345 -0.3550
 7420SOL    HW233894   3.690   1.119  17.334  0.0832 -1.0572  1.2015
 7421SOL     OW33895   3.327   3.504   3.362 -0.2374  0.2662 -0.5021
 7421SOL    HW133896   3.286   3.435   3.310 -0.5929 -0.3239  0.5505
 7421SOL    HW233897   3.397   3.455   3.405 -0.9095  1.0080  1.4237
 7422SOL     OW33898   2.659   1.311   6.239 -0.5048 -0.3819 -0.0643
 7422SOL    HW133899   2.664   1.317   6.143 -2.6447 -0.8765 -0.2246
 7422SOL    HW233900   2.741   1.358   6.254 -0.5343 -0.9742  1.8628
 7423SOL     OW33901   3.973   3.169   5.505  0.5477  0.2913  0.2630
 7423SOL    HW133902   3.972   3.095   5.445 -3.8469  0.6897 -0.1858
 7423SOL    HW233903   3.964   3.229   5.431 -2.7426 -3.3367 -2.2693
 7424SOL     OW33904   0.108   0.910   8.458  0.5628 -0.0005 -0.2326
 7424SOL    HW133905   0.082   0.963   8.383 -0.4465 -0.2815 -0.0832
 7424SOL    HW233906   0.198   0.889   8.434  0.8561  0.3950  0.5244
 7425SOL     OW33907   1.833   4.603   7.222  0.1237  0.4140 -0.0305
 7425SOL    HW133908   1.884   4.525   7.244  0.5777  0.5596 -0.5517
 7425SOL    HW233909   1.771   4.601   7.294 -0.0084  2.0751 -0.1000
 7426SOL     OW33910   0.940   4.129   2.008  0.1557  0.5810 -0.3653
 7426SOL    HW133911   0.850   4.137   2.038 -0.6539 -1.1285 -2.3597
 7426SOL    HW233912   0.916   4.078   1.931  0.0321 -1.3088  0.9214
 7427SOL     OW33913   3.816   0.388  10.265 -0.0575 -0.1089 -0.0242
 7427SOL    HW133914   3.879   0.352  10.327  1.7465  0.2368 -1.6912
 7427SOL    HW233915   3.879   0.416  10.199 -0.6217  2.2410  0.4120
 7428SOL     OW33916   1.110   0.399   2.005 -0.2443  0.2382 -0.0852
 7428SOL    HW133917   1.058   0.416   1.926 -0.0962  0.9720 -0.0244
 7428SOL    HW233918   1.086   0.308   2.020  1.9609 -0.3208  0.0513
 7429SOL     OW33919   0.274   4.404   9.361  0.1075 -0.1306 -0.5563
 7429SOL    HW133920   0.363   4.434   9.342  0.6175  0.5179  2.8900
 7429SOL    HW233921   0.283   4.318   9.403 -0.0507  0.0188 -0.2141
 7430SOL     OW33922   2.988   0.668   3.219 -0.1209  0.1611  0.0701
 7430SOL    HW133923   3.006   0.584   3.177 -0.0032  0.1083  0.2266
 7430SOL    HW233924   2.910   0.650   3.271 -0.7939  1.0204 -0.6468
 7431SOL     OW33925   0.640   3.426  12.111 -0.1919  0.0745 -0.2676
 7431SOL    HW133926   0.656   3.370  12.034 -0.9101  1.1438 -1.1992
 7431SOL    HW233927   0.723   3.471  12.126  0.1534 -1.3796  2.0702
 7432SOL     OW33928   1.828   4.609   7.797  0.1655 -0.5593 -0.4618
 7432SOL    HW133929   1.835   4.557   7.717  0.0735  0.3681 -1.0759
 7432SOL    HW233930   1.901   4.671   7.799 -1.3954  1.2738 -0.1266
 7433SOL     OW33931   0.953   0.000   1.488 -0.3088  0.6146 -0.0239
 7433SOL    HW133932   0.972   0.031   1.399 -1.9119 -0.1469 -0.6242
 7433SOL    HW233933   1.043   4.732   1.522 -1.5356 -0.7169  3.0183
 7434SOL     OW33934   3.777   0.195  11.266 -0.4426  0.1507 -0.1360
 7434SOL    HW133935   3.810   0.241  11.188 -0.2587  0.1498 -0.0579
 7434SOL    HW233936   3.837   0.122  11.258 -0.5229  0.2503 -1.6588
 7435SOL     OW33937   0.488   4.734   9.238 -0.4800  0.0146  1.1681
 7435SOL    HW133938   0.518   0.065   9.300  0.8639 -0.6264  1.1978
 7435SOL    HW233939   0.494   0.045   9.155 -1.9729  0.3428  1.2515
 7436SOL     OW33940   2.231   0.889  10.677  0.3008  0.0729 -0.3702
 7436SOL    HW133941   2.256   0.825  10.744  1.4672  0.6422 -0.2754
 7436SOL    HW233942   2.306   0.947  10.666  1.1727 -0.7098  1.4497
 7437SOL     OW33943   0.303   0.588   1.659  0.1899  0.2807 -0.1278
 7437SOL    HW133944   0.208   0.585   1.673  0.0422  0.8411 -1.0306
 7437SOL    HW233945   0.318   0.671   1.613 -1.3479  0.6756  0.0756
 7438SOL     OW33946   3.339   2.827   0.235  0.1391  0.9015 -0.3831
 7438SOL    HW133947   3.276   2.894   0.261 -1.3623 -0.4557 -0.5709
 7438SOL    HW233948   3.416   2.868   0.275 -0.4589  2.2689 -0.6178
 7439SOL     OW33949   2.369   1.660  17.465  0.2223 -0.6914  0.2641
 7439SOL    HW133950   2.402   1.655  17.376  0.4942  0.7384  0.2967
 7439SOL    HW233951   2.284   1.704  17.462  0.2900 -0.6818 -1.2889
 7440SOL     OW33952   3.680   1.989   0.271 -0.7063  0.0518  0.2692
 7440SOL    HW133953   3.729   1.909   0.253 -0.0718  0.5182 -0.0812
 7440SOL    HW233954   3.671   1.989   0.366  0.0110 -1.2903  0.3212
 7441SOL     OW33955   1.052   1.596   9.714 -0.2393 -0.4778  0.1172
 7441SOL    HW133956   1.085   1.681   9.687  0.1174 -0.8235 -0.5168
 7441SOL    HW233957   1.125   1.547   9.677  1.2995  1.6308  0.3818
 7442SOL     OW33958   0.237   2.507  15.357  0.3879 -0.1386  0.0430
 7442SOL    HW133959   0.164   2.569  15.359 -0.6918 -1.4246  0.4866
 7442SOL    HW233960   0.189   2.425  15.343  2.1368 -1.6270  2.9496
 7443SOL     OW33961   3.690   3.011   2.911 -0.0303 -0.0248  0.2321
 7443SOL    HW133962   3.652   3.027   2.997 -0.9749  0.3930 -0.2581
 7443SOL    HW233963   3.657   2.923   2.895 -1.5663  0.2824  1.7352
 7444SOL     OW33964   3.181   2.621  16.432 -0.6680  0.0179  0.0834
 7444SOL    HW133965   3.168   2.626  16.527 -1.1183 -0.4253  0.0476
 7444SOL    HW233966   3.129   2.697  16.404  1.3256  0.3760 -2.5493
 7445SOL     OW33967   1.427   3.971  15.449 -0.4092  0.6386 -0.4708
 7445SOL    HW133968   1.442   3.985  15.542 -0.5698  1.6966 -0.5977
 7445SOL    HW233969   1.415   4.063  15.424 -1.0810  0.3644 -1.1925
 7446SOL     OW33970   4.710   2.672   8.004  0.0100  0.2982  0.0342
 7446SOL    HW133971   0.037   2.716   8.063  0.8522  0.1846 -0.7634
 7446SOL    HW233972   4.681   2.745   7.950  2.6826  1.8785  0.7271
 7447SOL     OW33973   2.420   0.088   3.641 -0.4336  0.5000 -0.0600
 7447SOL    HW133974   2.443   0.163   3.695  1.5942 -0.1386 -0.0554
 7447SOL    HW233975   2.453   0.025   3.704 -0.9627 -1.0654 -1.3438
 7448SOL     OW33976   4.398   0.644   5.107 -0.2324  0.2422  0.2519
 7448SOL    HW133977   4.312   0.653   5.148 -1.5680 -3.1921 -1.7067
 7448SOL    HW233978   4.410   0.549   5.102 -4.0033 -0.2068 -0.1294
 7449SOL     OW33979   4.233   0.986  11.108  0.0652 -0.7626 -0.1745
 7449SOL    HW133980   4.284   0.989  11.189  1.0227  0.0918 -0.8079
 7449SOL    HW233981   4.264   0.909  11.062 -1.9228 -1.2055 -0.7714
 7450SOL     OW33982   2.708   1.662   5.613  0.0383  0.1068  0.2294
 7450SOL    HW133983   2.677   1.753   5.622  0.0265  0.0856  0.4069
 7450SOL    HW233984   2.632   1.612   5.640 -0.3315  1.3725  1.5639
 7451SOL     OW33985   3.736   4.241   8.250 -0.2713 -0.2903 -0.6770
 7451SOL    HW133986   3.707   4.319   8.297 -3.5512 -2.1388  0.4032
 7451SOL    HW233987   3.765   4.189   8.325 -1.0194 -1.1282 -0.9773
 7452SOL     OW33988   2.243   0.056  12.222  0.9015  0.8250  0.2619
 7452SOL    HW133989   2.175   0.041  12.287  0.3072  0.7811 -0.3739
 7452SOL    HW233990   2.213   0.142  12.192  0.9582  0.5646 -0.5505
 7453SOL     OW33991   1.679   0.879  10.936  0.5717  0.1924  0.0272
 7453SOL    HW133992   1.685   0.832  11.019 -1.0261  4.0356  2.3163
 7453SOL    HW233993   1.755   0.840  10.892  1.8338  1.9359  0.6249
 7454SOL     OW33994   0.425   1.852   6.554 -0.6591 -0.2295  0.0335
 7454SOL    HW133995   0.366   1.883   6.623 -1.2386 -1.8890  0.2965
 7454SOL    HW233996   0.359   1.842   6.485 -1.7317  1.7903  0.7845
 7455SOL     OW33997   1.013   0.234   8.973  0.7452  0.1987 -0.3478
 7455SOL    HW133998   1.062   0.159   9.006 -1.3644 -1.3695 -0.7542
 7455SOL    HW233999   1.046   0.240   8.884  0.4996  2.3581 -0.3139
 7456SOL     OW34000   0.121   3.909   0.816  0.4026  0.0262  0.1236
 7456SOL    HW134001   0.102   3.947   0.731  0.1534  0.5900  0.4292
 7456SOL    HW234002   0.112   3.819   0.784  1.9016  0.2268 -0.8505
 7457SOL     OW34003   3.637   2.142  16.338  0.0288  0.5723 -0.2526
 7457SOL    HW134004   3.594   2.070  16.291  1.6543  0.7925 -2.0986
 7457SOL    HW234005   3.679   2.088  16.404 -1.9446 -2.4252 -1.4409
 7458SOL     OW34006   2.685   4.441   5.560 -0.6469 -0.1403 -0.5154
 7458SOL    HW134007   2.687   4.520   5.614 -2.2525 -1.8034  1.9208
 7458SOL    HW234008   2.654   4.476   5.476  0.4272 -1.6780 -1.5441
 7459SOL     OW34009   3.968   1.322  13.940 -0.0175  0.2610 -0.1853
 7459SOL    HW134010   4.019   1.323  14.021  0.2890  0.2090 -0.3792
 7459SOL    HW234011   3.900   1.388  13.957 -0.1348 -0.3151  1.6259
 7460SOL     OW34012   1.043   4.367   7.408  0.4314  0.0424 -0.2378
 7460SOL    HW134013   0.968   4.342   7.462 -0.6651  1.3369 -1.1423
 7460SOL    HW234014   1.065   4.279   7.378  1.1289  0.7882 -1.9028
 7461SOL     OW34015   2.093   0.887   0.869 -0.1962 -0.7770 -0.2663
 7461SOL    HW134016   2.041   0.949   0.819 -1.2204  0.0735  1.8716
 7461SOL    HW234017   2.127   0.830   0.799  0.8225  2.2880 -2.2872
 7462SOL     OW34018   3.763   2.625   6.344  0.7115  0.6457  0.1059
 7462SOL    HW134019   3.834   2.677   6.305 -0.4085  1.3332 -1.0297
 7462SOL    HW234020   3.686   2.664   6.301 -0.9466  1.4020  3.8193
 7463SOL     OW34021   2.900   0.975  16.201 -0.2863 -0.3314  0.0613
 7463SOL    HW134022   2.845   1.029  16.144 -1.2027 -0.5564  0.7231
 7463SOL    HW234023   2.838   0.903  16.205  0.1320 -0.6994 -0.0716
 7464SOL     OW34024   4.181   1.754  15.563  0.5207 -0.3527 -0.5270
 7464SOL    HW134025   4.125   1.726  15.635 -0.4993 -1.5442 -1.7879
 7464SOL    HW234026   4.221   1.671  15.539  1.0788 -0.7161  1.6539
 7465SOL     OW34027   2.034   4.673  10.993 -0.3157  0.0776  0.2637
 7465SOL    HW134028   2.126   4.690  10.972 -0.6539  1.3438 -0.1959
 7465SOL    HW234029   2.035   4.602  11.057  1.8318 -1.1607 -1.1451
 7466SOL     OW34030   4.034   0.963  11.735 -0.2391  0.3526 -0.0627
 7466SOL    HW134031   3.956   1.015  11.758 -0.6407 -0.2051 -0.1725
 7466SOL    HW234032   4.012   0.888  11.789 -0.3919  0.4290 -0.0157
 7467SOL     OW34033   3.588   1.551   0.277  0.7406  0.3075  0.6731
 7467SOL    HW134034   3.493   1.538   0.280  0.4400  2.2596 -0.1654
 7467SOL    HW234035   3.608   1.507   0.195 -0.4147  0.4545  0.3004
 7468SOL     OW34036   1.270   2.884   8.463  0.0221  0.1193 -0.4022
 7468SOL    HW134037   1.307   2.823   8.400  0.0155 -0.7256  0.4219
 7468SOL    HW234038   1.305   2.859   8.548  3.4594  2.7240 -1.0433
 7469SOL     OW34039   3.793   1.118  15.180 -0.7286  0.2606  0.4979
 7469SOL    HW134040   3.852   1.168  15.123 -0.6447  0.2557  0.5813
 7469SOL    HW234041   3.848   1.043  15.204  0.2734  0.5123 -1.0412
 7470SOL     OW34042   4.209   3.922  14.341 -0.4498  0.4031 -0.0824
 7470SOL    HW134043   4.122   3.881  14.339 -0.0362 -0.4771  0.1385
 7470SOL    HW234044   4.190   3.991  14.405  2.6279  1.3427 -0.1992
 7471SOL     OW34045   2.524   1.228   7.235  0.0462 -0.9886  0.3427
 7471SOL    HW134046   2.433   1.225   7.208 -0.1820 -0.2298  1.0154
 7471SOL    HW234047   2.511   1.205   7.326 -0.1482 -4.1766 -0.4944
 7472SOL     OW34048   2.583   0.304  15.542  0.3926 -0.0776  0.0255
 7472SOL    HW134049   2.556   0.301  15.450 -1.9892 -1.0204  0.7445
 7472SOL    HW234050   2.509   0.258  15.583  1.6988 -0.7390  1.6051
 7473SOL     OW34051   0.569   2.503   5.133 -0.1583 -0.0904  0.7227
 7473SOL    HW134052   0.477   2.506   5.161 -0.2432  1.0638  0.3340
 7473SOL    HW234053   0.601   2.423   5.174  2.1388 -1.0919 -3.0120
 7474SOL     OW34054   0.375   3.651   4.630  0.5094  0.0803 -0.3297
 7474SOL    HW134055   0.294   3.611   4.599 -0.1895 -0.4870  2.3003
 7474SOL    HW234056   0.441   3.624   4.566 -0.5214  0.4879 -1.5615
 7475SOL     OW34057   4.727   3.670   9.373  0.0626  0.3720 -0.4097
 7475SOL    HW134058   4.731   3.653   9.467 -1.4834  2.7901  0.0963
 7475SOL    HW234059   0.038   3.754   9.373 -1.1606  1.0505 -1.8783
 7476SOL     OW34060   1.279   3.784   8.445 -0.2500 -0.2278 -0.1766
 7476SOL    HW134061   1.305   3.865   8.401  3.3448 -1.5750 -0.4802
 7476SOL    HW234062   1.313   3.798   8.533 -1.1139 -2.4939  0.5271
 7477SOL     OW34063   3.413   4.703   3.399  0.1682 -0.5247  0.1512
 7477SOL    HW134064   3.382   0.009   3.318 -0.6443  0.5821  1.0235
 7477SOL    HW234065   3.377   4.614   3.394 -0.7920 -0.0249 -2.1130
 7478SOL     OW34066   3.782   3.129   9.473 -0.7645 -0.3421 -0.4335
 7478SOL    HW134067   3.834   3.110   9.551 -0.4652  1.4441 -0.1904
 7478SOL    HW234068   3.745   3.041   9.464 -1.3979 -0.2853  1.5233
 7479SOL     OW34069   4.342   3.299   3.229 -0.3250  0.3311 -0.3831
 7479SOL    HW134070   4.384   3.251   3.157  1.0227 -1.0846  1.3250
 7479SOL    HW234071   4.367   3.235   3.296 -2.1577  0.0207 -0.0019
 7480SOL     OW34072   3.693   1.099   2.139  0.4330 -0.6039 -0.1445
 7480SOL    HW134073   3.764   1.051   2.181 -0.2448 -2.4935 -1.1186
 7480SOL    HW234074   3.674   1.029   2.076 -0.6403  1.1176 -1.7201
 7481SOL     OW34075   3.638   1.224   3.641  0.7170 -0.0804 -0.1633
 7481SOL    HW134076   3.583   1.233   3.719  3.2620 -1.1018  1.7478
 7481SOL    HW234077   3.595   1.152   3.596  0.5684  0.2539 -0.5603
 7482SOL     OW34078   1.209   0.609   3.004 -1.1334  0.3140 -0.2689
 7482SOL    HW134079   1.257   0.691   3.012  2.1955 -1.5160 -1.5090
 7482SOL    HW234080   1.250   0.561   2.932 -0.6555  1.1071 -0.5190
 7483SOL     OW34081   4.705   3.102   2.892 -0.4846  1.1226 -1.0197
 7483SOL    HW134082   4.642   3.122   2.961 -1.4787  1.7868 -2.1216
 7483SOL    HW234083   4.659   3.128   2.811  0.4597  0.9480 -1.6129
 7484SOL     OW34084   1.480   3.527  12.571 -0.3100 -0.6224  0.6376
 7484SOL    HW134085   1.468   3.612  12.612 -1.4858 -0.3815 -0.1850
 7484SOL    HW234086   1.416   3.477  12.622 -1.4339 -1.3889 -1.5017
 7485SOL     OW34087   3.714   3.792   8.136 -0.4921  0.3901 -0.1735
 7485SOL    HW134088   3.678   3.761   8.219  2.4016 -1.1223  0.5219
 7485SOL    HW234089   3.688   3.884   8.131 -2.3965 -0.4435 -5.0241
 7486SOL     OW34090   2.156   3.233   0.196 -0.2473  0.0733 -0.0963
 7486SOL    HW134091   2.137   3.142   0.221 -2.2923  0.2657 -0.9762
 7486SOL    HW234092   2.178   3.227   0.103  3.6869  0.4426  0.7906
 7487SOL     OW34093   1.630   1.729   0.207  0.0284 -0.0208 -0.1000
 7487SOL    HW134094   1.635   1.639   0.175 -0.0461 -0.1178  0.1572
 7487SOL    HW234095   1.561   1.715   0.272  1.1791 -1.4492  0.7955
 7488SOL     OW34096   2.036   2.559   4.908 -0.2065  0.4583 -0.0090
 7488SOL    HW134097   2.127   2.539   4.889 -0.0730 -0.4144  1.5519
 7488SOL    HW234098   2.042   2.654   4.915  0.1250  0.3147  1.5615
 7489SOL     OW34099   4.256   0.958   8.252 -0.1606  0.1905  0.3735
 7489SOL    HW134100   4.299   1.005   8.181  2.2559 -3.3412 -0.5246
 7489SOL    HW234101   4.202   0.903   8.195 -0.3900  0.5874  0.2152
 7490SOL     OW34102   4.612   1.681  14.171  0.7240 -1.1414 -0.2478
 7490SOL    HW134103   4.554   1.753  14.146  2.2101  0.1334  0.0227
 7490SOL    HW234104   4.547   1.611  14.173 -2.4613  1.7875 -1.4102
 7491SOL     OW34105   2.418   3.039  16.040  0.4394 -0.2102  0.7404
 7491SOL    HW134106   2.496   3.094  16.051 -0.0637  1.0050 -1.7488
 7491SOL    HW234107   2.458   2.953  16.032 -1.1011 -0.8932  0.3703
 7492SOL     OW34108   1.900   0.996   0.698 -0.1406 -0.0624  0.0905
 7492SOL    HW134109   1.952   1.057   0.646  2.7509 -1.8276  0.9399
 7492SOL    HW234110   1.859   0.955   0.622  1.8514 -2.8300  0.5109
 7493SOL     OW34111   2.682   0.366   6.694  0.1798  0.0844 -0.2094
 7493SOL    HW134112   2.704   0.308   6.621 -1.1773 -0.3614 -0.2549
 7493SOL    HW234113   2.759   0.381   6.749  0.9910 -1.4320 -0.9319
 7494SOL     OW34114   3.518   3.359   3.561  0.5066  1.0116  0.0214
 7494SOL    HW134115   3.565   3.276   3.555  0.1969  0.9494 -1.5026
 7494SOL    HW234116   3.485   3.363   3.651 -0.6396 -1.0214 -0.2936
 7495SOL     OW34117   4.510   3.550   8.076 -0.3030 -0.3800  0.1395
 7495SOL    HW134118   4.507   3.529   7.983 -2.6359  2.1645 -0.3611
 7495SOL    HW234119   4.420   3.574   8.095 -0.2289 -1.0134  1.3396
 7496SOL     OW34120   0.079   0.739   8.187 -0.1716 -0.7320  0.3077
 7496SOL    HW134121   0.134   0.688   8.128 -2.6034 -3.2274  0.1968
 7496SOL    HW234122   0.150   0.774   8.241 -1.0449 -2.4663  2.5929
 7497SOL     OW34123   4.302   4.056  12.292 -0.0340 -0.4439  0.3524
 7497SOL    HW134124   4.295   4.108  12.212  0.7709  1.1966  1.3242
 7497SOL    HW234125   4.393   4.027  12.286 -0.7337 -2.7773  1.2749
 7498SOL     OW34126   2.573   0.103   2.158 -0.3653 -0.3274  0.2413
 7498SOL    HW134127   2.566   0.084   2.065 -1.3991 -0.7344  0.4131
 7498SOL    HW234128   2.623   0.185   2.151  2.4677 -2.1555 -0.9948
 7499SOL     OW34129   3.362   2.501   0.280 -0.6266 -0.3881  0.1504
 7499SOL    HW134130   3.381   2.544   0.197 -0.6432 -1.6675 -0.5230
 7499SOL    HW234131   3.356   2.408   0.260  1.9254 -0.9759  2.1181
 7500SOL     OW34132   2.640   0.431   5.894  0.2084 -0.2015 -0.4222
 7500SOL    HW134133   2.632   0.526   5.903  0.2649 -0.1313 -1.1473
 7500SOL    HW234134   2.587   0.408   5.818  0.3838 -0.2895 -0.5165
 7501SOL     OW34135   3.290   1.450  16.113  0.1965  0.1511 -0.1209
 7501SOL    HW134136   3.224   1.412  16.171  0.0609 -1.2725 -1.1848
 7501SOL    HW234137   3.354   1.379  16.125  0.5027  0.6891  1.4076
 7502SOL     OW34138   0.354   3.373   5.317 -0.1169 -0.3350  0.0589
 7502SOL    HW134139   0.334   3.387   5.224 -0.5423  4.2142  0.8681
 7502SOL    HW234140   0.448   3.364   5.304  0.3477  1.4617  2.2746
 7503SOL     OW34141   3.333   0.060   2.851 -0.1029  0.4527  0.1771
 7503SOL    HW134142   3.266   0.008   2.896 -0.4804  1.4319  0.7569
 7503SOL    HW234143   3.344   0.031   2.761 -1.3888  0.5716 -0.0254
 7504SOL     OW34144   0.614   3.016   6.222 -0.3687 -0.0409  0.6977
 7504SOL    HW134145   0.646   3.021   6.312  1.6609  2.3504 -0.1543
 7504SOL    HW234146   0.543   2.952   6.225 -0.1337 -0.3483 -0.1798
 7505SOL     OW34147   1.045   0.219   4.411 -0.5611 -0.2110 -0.0823
 7505SOL    HW134148   0.958   0.254   4.432  0.3352  0.3021  2.7828
 7505SOL    HW234149   1.022   0.177   4.328 -0.2660 -0.9092  0.1894
 7506SOL     OW34150   1.105   1.087   3.513  0.0508  0.4163 -0.3110
 7506SOL    HW134151   1.140   1.131   3.591 -1.4656  1.5248 -0.2697
 7506SOL    HW234152   1.010   1.085   3.514  0.0781 -1.8480 -1.6529
 7507SOL     OW34153   1.447   2.192   2.333 -0.3967  0.1895 -0.5591
 7507SOL    HW134154   1.527   2.227   2.293 -1.3171  1.4358 -1.2823
 7507SOL    HW234155   1.473   2.100   2.329 -3.6054 -0.7147  0.0125
 7508SOL     OW34156   4.546   3.623   5.782  0.2810 -0.0772  0.1536
 7508SOL    HW134157   4.547   3.717   5.800 -1.5792  0.0409 -0.4345
 7508SOL    HW234158   4.462   3.602   5.822 -0.1885  1.5276  0.0145
 7509SOL     OW34159   3.131   4.038   0.739 -0.4773  0.1468  0.0918
 7509SOL    HW134160   3.109   3.971   0.674  0.7305  0.2922 -0.4506
 7509SOL    HW234161   3.224   4.021   0.754 -0.2667  0.0554 -1.2990
 7510SOL     OW34162   3.405   4.200   3.702  0.4756 -0.0725  0.2877
 7510SOL    HW134163   3.449   4.258   3.765 -0.0006  1.7975 -1.1010
 7510SOL    HW234164   3.445   4.214   3.616 -1.5890  1.8310 -0.3563
 7511SOL     OW34165   1.465   1.569   1.991  0.1831 -0.0412  0.6110
 7511SOL    HW134166   1.420   1.628   2.052 -0.6173 -1.9375  1.8782
 7511SOL    HW234167   1.526   1.629   1.949 -0.9685 -0.5432 -1.7958
 7512SOL     OW34168   2.086   1.825  10.298  0.5061  0.1580  0.2587
 7512SOL    HW134169   2.067   1.750  10.355 -0.6447  1.8510  2.1217
 7512SOL    HW234170   2.181   1.818  10.305  0.8449  2.5166 -2.0603
 7513SOL     OW34171   3.703   2.256   0.202  0.3591  0.1772  0.4102
 7513SOL    HW134172   3.712   2.161   0.207 -1.5549 -0.0108  0.1556
 7513SOL    HW234173   3.608   2.265   0.196  0.4281  1.4040  1.0821
 7514SOL     OW34174   1.964   1.961   2.642 -0.3094 -0.0226 -0.3281
 7514SOL    HW134175   2.016   1.953   2.722  1.8751  3.1804 -1.4466
 7514SOL    HW234176   1.989   2.046   2.606  0.8056 -0.3103 -0.2169
 7515SOL     OW34177   0.132   2.522   5.202 -0.7329  0.3630  0.2124
 7515SOL    HW134178   0.165   2.487   5.120 -0.9588 -0.5032  0.4904
 7515SOL    HW234179   0.050   2.556   5.166 -0.9154 -0.0921  0.2114
 7516SOL     OW34180   2.105   3.541   5.136  0.0420 -0.2404  0.6444
 7516SOL    HW134181   2.082   3.483   5.208 -1.9013  0.8716  0.9148
 7516SOL    HW234182   2.198   3.539   5.155  0.2618 -0.9734 -0.4889
 7517SOL     OW34183   1.426   1.617   5.437  0.0635  0.1502 -0.0310
 7517SOL    HW134184   1.337   1.617   5.470 -0.2044  0.8158 -0.7541
 7517SOL    HW234185   1.449   1.705   5.468  2.4692 -1.0733  1.7372
 7518SOL     OW34186   2.442   1.022   5.786 -0.0158  0.1758 -0.4902
 7518SOL    HW134187   2.502   1.009   5.859  1.1006 -0.0755 -1.4637
 7518SOL    HW234188   2.427   0.938   5.742 -1.9354  0.5186 -0.5163
 7519SOL     OW34189   2.386   3.215   7.211  0.5703 -0.2701 -0.3995
 7519SOL    HW134190   2.450   3.273   7.252  2.2430 -1.2104 -1.7308
 7519SOL    HW234191   2.332   3.196   7.288 -0.2660 -1.0826 -1.1903
 7520SOL     OW34192   0.624   2.439  11.355 -0.4262 -0.0305  0.2560
 7520SOL    HW134193   0.598   2.404  11.440 -0.6967  1.9479  0.9648
 7520SOL    HW234194   0.541   2.463  11.312  0.0158 -1.7731 -1.6076
 7521SOL     OW34195   0.780   3.379  15.857  0.0551  0.0436 -0.2084
 7521SOL    HW134196   0.773   3.347  15.947  3.7854  1.8832  0.7238
 7521SOL    HW234197   0.753   3.305  15.802 -0.5330 -0.3698  0.6359
 7522SOL     OW34198   1.169   3.209   4.144  0.0354 -0.2135  0.2982
 7522SOL    HW134199   1.113   3.281   4.115  1.2325  0.2816 -0.7730
 7522SOL    HW234200   1.112   3.132   4.139  1.0379 -0.9448  0.2402
 7523SOL     OW34201   1.626   0.256   6.996  0.8204  0.0353 -0.2376
 7523SOL    HW134202   1.720   0.273   6.997  0.5445  1.6044 -0.6960
 7523SOL    HW234203   1.617   0.225   7.086  2.2173 -0.3302 -0.2237
 7524SOL     OW34204   1.511   0.465  13.187  0.6668 -0.2117  0.3080
 7524SOL    HW134205   1.435   0.456  13.245  1.2654 -0.5536  1.0407
 7524SOL    HW234206   1.530   0.372  13.171  0.3370 -0.5084  1.6978
 7525SOL     OW34207   2.502   3.932   8.734 -0.3764 -0.0256  0.4299
 7525SOL    HW134208   2.438   4.001   8.716 -2.0964 -1.4650  1.0698
 7525SOL    HW234209   2.506   3.890   8.649  0.8487  0.4626  0.2478
 7526SOL     OW34210   3.211   2.022   0.181 -0.4870  0.7215  0.7717
 7526SOL    HW134211   3.246   2.023   0.092  0.3415 -0.7393  1.0778
 7526SOL    HW234212   3.119   1.996   0.168  0.2605 -0.6799 -1.6401
 7527SOL     OW34213   2.756   3.856   0.604  0.0092 -0.5537 -0.1853
 7527SOL    HW134214   2.679   3.905   0.573 -1.1033 -1.6320  0.8584
 7527SOL    HW234215   2.715   3.769   0.612 -1.0255 -0.1079 -0.6931
 7528SOL     OW34216   0.664   2.108  16.504 -0.0401  0.4366 -0.5523
 7528SOL    HW134217   0.707   2.065  16.578 -1.9980  0.1430  0.4457
 7528SOL    HW234218   0.690   2.053  16.430 -0.3877 -2.3084  1.3442
 7529SOL     OW34219   0.472   3.454  16.976  0.2005  0.2980  0.0490
 7529SOL    HW134220   0.454   3.368  17.013  0.5348 -0.1811 -0.8951
 7529SOL    HW234221   0.549   3.487  17.023  1.0930 -1.8673  0.0731
 7530SOL     OW34222   3.571   4.231   2.797 -0.0442  0.0858  0.0725
 7530SOL    HW134223   3.528   4.147   2.783 -0.7968  0.0928  2.3279
 7530SOL    HW234224   3.607   4.254   2.711 -0.9737  2.3475  0.2636
 7531SOL     OW34225   2.514   2.706   2.483  0.5045  0.0293 -0.4193
 7531SOL    HW134226   2.523   2.620   2.524  1.0154 -1.6091 -4.0117
 7531SOL    HW234227   2.600   2.719   2.443  1.0637 -1.3328  0.3441
 7532SOL     OW34228   2.231   0.213   7.055 -0.1413 -0.7169  0.3047
 7532SOL    HW134229   2.164   0.146   7.042  0.2607 -1.7374  3.2699
 7532SOL    HW234230   2.307   0.169   7.016 -0.0656 -0.1038 -0.2368
 7533SOL     OW34231   3.699   4.296   6.454 -0.0115 -0.9411 -0.0442
 7533SOL    HW134232   3.661   4.266   6.371 -1.8943 -2.2641  1.2978
 7533SOL    HW234233   3.792   4.299   6.433 -0.2164 -3.4068 -1.3039
 7534SOL     OW34234   1.559   3.819   9.215 -0.3739 -0.0943  0.8875
 7534SOL    HW134235   1.645   3.782   9.233  0.3680  0.9982 -0.3637
 7534SOL    HW234236   1.505   3.741   9.226  0.9127 -1.2069 -0.6744
 7535SOL     OW34237   1.939   0.719   8.715 -0.5546 -0.2367  0.4689
 7535SOL    HW134238   2.010   0.730   8.652 -1.6985  0.7515 -0.6527
 7535SOL    HW234239   1.973   0.665   8.787  0.3220  0.1596  0.3583
 7536SOL     OW34240   3.094   3.624   2.775  0.1818 -0.4272 -0.5199
 7536SOL    HW134241   3.120   3.704   2.729  1.0432 -0.6787 -0.4666
 7536SOL    HW234242   3.158   3.631   2.846  1.4175  2.4394 -1.9476
 7537SOL     OW34243   4.000   1.593  16.825  0.2255 -0.2125  0.3618
 7537SOL    HW134244   3.939   1.650  16.778  0.5012  0.9112  1.3684
 7537SOL    HW234245   3.993   1.515  16.770  1.3351 -1.5771  2.1367
 7538SOL     OW34246   4.257   2.359   7.324 -0.3496 -0.1074  0.3187
 7538SOL    HW134247   4.261   2.452   7.302  0.7114 -0.1286  0.4212
 7538SOL    HW234248   4.168   2.332   7.302 -0.2640  0.1821 -0.3978
 7539SOL     OW34249   4.629   1.177  11.260 -0.5112  0.5460  0.1465
 7539SOL    HW134250   4.667   1.114  11.321 -1.5206  1.1364  1.3777
 7539SOL    HW234251   4.659   1.262  11.294 -0.5738  1.3165 -1.7385
 7540SOL     OW34252   3.025   2.190   7.334 -0.2591  0.5433  0.0120
 7540SOL    HW134253   3.116   2.170   7.354  0.1922 -0.4440 -2.9614
 7540SOL    HW234254   3.010   2.153   7.246 -1.9039  0.8361  0.1752
 7541SOL     OW34255   2.655   3.759   8.935  0.0986 -0.0557 -0.1209
 7541SOL    HW134256   2.741   3.798   8.918  1.0203 -2.4344 -0.9019
 7541SOL    HW234257   2.597   3.806   8.875 -0.1888  1.0219  1.0124
 7542SOL     OW34258   0.325   3.957   4.918  0.1501  0.5270  0.0276
 7542SOL    HW134259   0.362   4.011   4.989 -0.3330 -1.5257  1.8521
 7542SOL    HW234260   0.385   3.983   4.849 -0.2261 -0.3048 -0.6006
 7543SOL     OW34261   1.931   4.466  13.122  0.6300 -0.0347 -0.1368
 7543SOL    HW134262   1.863   4.533  13.120  0.3630 -0.2674  1.9574
 7543SOL    HW234263   1.947   4.446  13.029  1.4967 -2.9666  0.6518
 7544SOL     OW34264   3.605   0.252   4.161 -0.0258 -0.5862  0.4395
 7544SOL    HW134265   3.561   0.317   4.106  0.8042  0.4207  0.9566
 7544SOL    HW234266   3.524   0.202   4.168  0.6273 -1.5429  1.0628
 7545SOL     OW34267   2.875   4.699   1.350  0.0439 -0.2088 -0.3939
 7545SOL    HW134268   2.795   4.703   1.403  0.1953  1.7457 -0.3316
 7545SOL    HW234269   2.872   0.030   1.281  0.0588  0.1565 -0.0443
 7546SOL     OW34270   3.455   2.059   0.943  0.0219 -0.7860  0.1219
 7546SOL    HW134271   3.426   2.144   0.976 -1.0904 -1.6551  1.3674
 7546SOL    HW234272   3.452   2.078   0.850 -0.0616  0.6850  0.4294
 7547SOL     OW34273   3.432   3.785   1.341 -0.3977 -0.2628 -0.4471
 7547SOL    HW134274   3.345   3.826   1.342  0.3323  1.2367  0.9235
 7547SOL    HW234275   3.485   3.863   1.323 -1.1994  0.6290  1.0597
 7548SOL     OW34276   2.355   1.776  10.237  0.1585  0.1055  0.0785
 7548SOL    HW134277   2.345   1.724  10.157  0.9218  0.3122 -0.1570
 7548SOL    HW234278   2.394   1.854  10.196  0.7649 -0.3896 -0.2819
 7549SOL     OW34279   0.929   2.372   8.067  0.7590 -0.3662 -0.0064
 7549SOL    HW134280   1.000   2.379   8.131  0.4025  1.7481  0.1407
 7549SOL    HW234281   0.875   2.447   8.091  0.1966 -0.5442 -0.7171
 7550SOL     OW34282   1.204   1.209  12.179 -0.0428  0.6183  0.3343
 7550SOL    HW134283   1.254   1.162  12.112 -0.1916 -1.3743  1.5904
 7550SOL    HW234284   1.171   1.140  12.238  0.5201  0.0094 -0.0607
 7551SOL     OW34285   2.403   1.125  16.909  0.1672  0.0914  0.2690
 7551SOL    HW134286   2.319   1.109  16.952 -0.4095  2.4908  0.0186
 7551SOL    HW234287   2.387   1.095  16.819 -0.5261  1.2854 -0.0061
 7552SOL     OW34288   3.596   1.925   3.459 -0.6110 -0.2140 -0.0909
 7552SOL    HW134289   3.594   1.894   3.369  2.1097 -2.6939  0.7009
 7552SOL    HW234290   3.686   1.953   3.478 -1.3374 -0.5548  3.7777
 7553SOL     OW34291   0.667   0.354   6.105 -0.3714  0.2817  0.0397
 7553SOL    HW134292   0.698   0.434   6.148  0.7268  0.6187 -1.3472
 7553SOL    HW234293   0.744   0.298   6.097 -0.6328  0.2615 -2.4266
 7554SOL     OW34294   4.722   2.740   3.790  0.0349 -0.0277  0.6707
 7554SOL    HW134295   4.657   2.811   3.788  2.1437  1.9084  1.0432
 7554SOL    HW234296   4.667   2.669   3.823  0.8961 -1.0166 -0.0437
 7555SOL     OW34297   1.460   0.288   8.868 -0.8402 -0.1653  0.8298
 7555SOL    HW134298   1.387   0.254   8.816  0.0899  0.9608 -1.2202
 7555SOL    HW234299   1.434   0.258   8.955  0.6323 -1.6520  0.7547
 7556SOL     OW34300   0.367   4.070  15.964 -0.3472 -0.0641 -0.0484
 7556SOL    HW134301   0.358   4.048  16.056 -1.6300  1.0370  0.1016
 7556SOL    HW234302   0.333   4.160  15.961  0.5009  0.3031  1.9923
 7557SOL     OW34303   0.820   0.729   4.549 -0.0619 -0.5291  0.2513
 7557SOL    HW134304   0.789   0.711   4.460  1.0958  0.6109 -0.3703
 7557SOL    HW234305   0.913   0.717   4.534 -0.4473 -0.7004 -1.9386
 7558SOL     OW34306   2.153   2.819   6.521 -0.4947  0.0214  0.0849
 7558SOL    HW134307   2.189   2.784   6.603  1.0777  2.2447  0.3341
 7558SOL    HW234308   2.140   2.736   6.476 -0.4579  1.1787 -2.0162
 7559SOL     OW34309   1.892   4.405   4.113  0.4958  0.0285 -0.7050
 7559SOL    HW134310   1.824   4.416   4.047  0.7718 -3.2460 -1.5360
 7559SOL    HW234311   1.946   4.476   4.079  0.0161  1.4262  1.4677
 7560SOL     OW34312   1.220   1.643   3.543  0.3460  0.1359  0.4562
 7560SOL    HW134313   1.148   1.694   3.505  1.2078 -0.8288 -2.4567
 7560SOL    HW234314   1.181   1.619   3.627  0.0791 -2.0552 -0.3017
 7561SOL     OW34315   0.411   3.518  17.370 -0.0328  0.1999 -0.0081
 7561SOL    HW134316   0.469   3.449  17.404 -0.4680 -0.7016 -1.0851
 7561SOL    HW234317   0.357   3.532  17.448 -1.7044 -3.0700 -0.5952
 7562SOL     OW34318   4.686   1.636   6.539  0.7910  0.2541  0.0263
 7562SOL    HW134319   4.695   1.661   6.631  0.8865 -0.6351  0.2570
 7562SOL    HW234320   0.045   1.623   6.524  0.9414 -0.9696  1.9981
 7563SOL     OW34321   3.049   2.514  11.908  0.1584  0.3805 -0.3618
 7563SOL    HW134322   3.106   2.471  11.972 -1.4418  0.1431  0.9048
 7563SOL    HW234323   2.960   2.483  11.927  1.0842 -1.3570  1.1446
 7564SOL     OW34324   2.147   4.232   9.040  0.1920 -0.0397  0.2272
 7564SOL    HW134325   2.066   4.276   9.063 -1.2868 -2.5076 -0.2088
 7564SOL    HW234326   2.138   4.150   9.089  1.6015 -0.4831 -0.2359
 7565SOL     OW34327   4.218   0.259   9.076  0.2405 -0.2721 -0.2103
 7565SOL    HW134328   4.234   0.344   9.117 -0.0598  0.6169 -1.9486
 7565SOL    HW234329   4.306   0.231   9.051 -0.2449 -0.6519 -1.4873
 7566SOL     OW34330   2.249   0.414   9.162  0.5338 -0.1151 -0.3696
 7566SOL    HW134331   2.161   0.408   9.199  0.2867  1.0342 -0.7749
 7566SOL    HW234332   2.296   0.432   9.244 -0.4791  0.5747  0.0561
 7567SOL     OW34333   3.229   3.145   1.937 -0.0059  0.0285  0.0417
 7567SOL    HW134334   3.174   3.066   1.935  0.1578 -0.0499 -1.0751
 7567SOL    HW234335   3.313   3.099   1.948  1.2280  2.2931  0.0549
 7568SOL     OW34336   3.477   0.666   7.476 -0.8554 -0.3920  0.4270
 7568SOL    HW134337   3.471   0.747   7.425  2.3862 -0.7172 -0.4657
 7568SOL    HW234338   3.395   0.672   7.525 -0.5819  0.7677  0.7461
 7569SOL     OW34339   2.070   4.642  13.261 -0.5970  0.0801 -0.0680
 7569SOL    HW134340   2.000   4.588  13.224 -0.6692  0.8381 -1.0090
 7569SOL    HW234341   2.020   4.709  13.307 -2.1580 -1.3083  0.2921
 7570SOL     OW34342   4.529   0.152   4.246 -0.6240 -0.1458  0.3124
 7570SOL    HW134343   4.461   0.086   4.259 -0.4561 -0.3267  0.2636
 7570SOL    HW234344   4.473   0.230   4.237 -1.3787 -0.7283 -0.0764
 7571SOL     OW34345   2.893   1.548  17.637  0.1449 -0.0857 -0.3083
 7571SOL    HW134346   2.836   1.522  17.709  2.2336  1.8501  2.0494
 7571SOL    HW234347   2.912   1.473  17.580 -0.2209 -1.2744  1.1495
 7572SOL     OW34348   2.908   3.571   2.525 -0.1422  0.0371 -0.1799
 7572SOL    HW134349   2.983   3.588   2.469  1.1106  2.6353  2.2651
 7572SOL    HW234350   2.922   3.646   2.584  0.6328 -0.1732 -0.0999
 7573SOL     OW34351   3.042   2.067   1.457 -0.0573 -0.1946 -0.0387
 7573SOL    HW134352   2.967   2.071   1.399 -1.7272  2.2544  2.2391
 7573SOL    HW234353   3.026   1.983   1.500  1.1899 -0.5244 -0.2212
 7574SOL     OW34354   0.197   3.903   4.220 -0.4767  0.7246 -0.0957
 7574SOL    HW134355   0.212   3.939   4.132 -1.2511 -0.4265 -0.6981
 7574SOL    HW234356   0.103   3.918   4.227 -0.5735  0.7479 -1.4206
 7575SOL     OW34357   2.419   0.977   6.684 -0.8280  0.3818 -1.3132
 7575SOL    HW134358   2.423   0.883   6.697 -1.7990  0.4502 -0.4298
 7575SOL    HW234359   2.483   0.982   6.613 -0.2867  1.5713 -0.7303
 7576SOL     OW34360   2.958   2.811   7.079  0.1921  0.3718 -0.1904
 7576SOL    HW134361   3.005   2.841   7.157 -1.7901  0.1461  1.0926
 7576SOL    HW234362   2.872   2.836   7.113  0.4825  1.3356 -0.1504
 7577SOL     OW34363   3.527   0.786  12.157 -0.0549 -0.1813  0.6216
 7577SOL    HW134364   3.583   0.725  12.205 -1.5053 -1.1796  1.0424
 7577SOL    HW234365   3.454   0.804  12.217 -0.9226  3.5887 -1.5636
 7578SOL     OW34366   1.533   0.573   3.194  0.1933  0.1141  0.1161
 7578SOL    HW134367   1.614   0.624   3.193 -0.0131  0.4178 -0.8112
 7578SOL    HW234368   1.516   0.578   3.288  0.4583  1.6519  0.0735
 7579SOL     OW34369   0.943   1.305   2.095  0.8871 -0.1251 -0.0639
 7579SOL    HW134370   0.971   1.260   2.015 -2.3183  0.0501 -1.2555
 7579SOL    HW234371   0.862   1.256   2.108  0.7212 -0.2312 -1.4817
 7580SOL     OW34372   3.512   3.849   8.405 -0.6180  0.0594  0.0585
 7580SOL    HW134373   3.574   3.911   8.442  0.9696 -1.3161 -0.3019
 7580SOL    HW234374   3.474   3.799   8.478  3.9909 -0.8992  1.7936
 7581SOL     OW34375   2.073   3.997   6.862  0.0531  0.1939 -0.0809
 7581SOL    HW134376   2.103   3.957   6.780 -0.1293 -1.2072  0.5476
 7581SOL    HW234377   2.020   3.930   6.904 -0.0556  0.7717  0.7088
 7582SOL     OW34378   3.086   2.773  10.307 -0.0397  0.2472 -0.0571
 7582SOL    HW134379   3.032   2.834  10.358 -0.5518  0.5532 -0.9723
 7582SOL    HW234380   3.157   2.754  10.368 -1.2798 -1.0759  0.9755
 7583SOL     OW34381   4.407   1.513  14.106  0.3432  0.0978 -0.4358
 7583SOL    HW134382   4.400   1.528  14.011  2.6638 -2.4064 -0.9947
 7583SOL    HW234383   4.316   1.533  14.127  1.2835  0.2575  3.5165
 7584SOL     OW34384   1.685   2.957   3.240  0.1413  0.1262  0.2136
 7584SOL    HW134385   1.690   2.862   3.229 -0.3590 -0.0400  1.3086
 7584SOL    HW234386   1.674   2.968   3.335 -0.5120 -0.4330  0.2057
 7585SOL     OW34387   1.214   0.083   6.255  0.3443 -0.0314 -0.2716
 7585SOL    HW134388   1.161   0.145   6.306  0.8071  0.1758 -0.0455
 7585SOL    HW234389   1.154   0.009   6.249 -1.0498  1.0240  0.4189
 7586SOL     OW34390   3.315   2.465   1.842  0.6608 -0.4254 -0.3265
 7586SOL    HW134391   3.265   2.460   1.761  2.1513  0.4261 -1.2971
 7586SOL    HW234392   3.281   2.384   1.882 -1.2317 -0.4145 -1.9316
 7587SOL     OW34393   1.591   0.580  12.912  0.1933  0.2649  0.5399
 7587SOL    HW134394   1.589   0.597  13.006 -0.1797 -1.7115  0.8751
 7587SOL    HW234395   1.672   0.530  12.902  0.3661  1.0173 -2.0453
 7588SOL     OW34396   2.808   3.899   8.539  0.0241 -0.4047  0.1910
 7588SOL    HW134397   2.794   3.992   8.520  0.3817  0.0944  2.3222
 7588SOL    HW234398   2.896   3.895   8.502 -0.1518  1.0868 -0.3785
 7589SOL     OW34399   1.370   2.855   9.221 -0.3802 -0.4853  0.2670
 7589SOL    HW134400   1.356   2.766   9.255  2.4110 -1.8782 -2.2344
 7589SOL    HW234401   1.338   2.854   9.131  1.3721 -1.5910 -0.3563
 7590SOL     OW34402   1.939   4.353   9.169  0.5648  0.2858 -0.3594
 7590SOL    HW134403   1.893   4.411   9.108  0.6300  0.6381 -0.0651
 7590SOL    HW234404   1.983   4.413   9.229  1.4795 -0.3655 -0.3819
 7591SOL     OW34405   2.562   3.643   6.413  0.0473 -0.2975  0.0765
 7591SOL    HW134406   2.469   3.653   6.432  0.2788  0.7186  0.6526
 7591SOL    HW234407   2.559   3.549   6.394  1.1248 -0.3909  0.3518
 7592SOL     OW34408   0.447   1.153   4.646 -0.2983 -0.0755  0.3041
 7592SOL    HW134409   0.518   1.113   4.597  0.4912  0.8416  0.6933
 7592SOL    HW234410   0.376   1.130   4.585  1.8430 -1.7519 -1.5515
 7593SOL     OW34411   2.380   1.225   1.775 -0.1462 -0.3380 -0.1565
 7593SOL    HW134412   2.410   1.306   1.816 -0.1453  0.0724 -0.9854
 7593SOL    HW234413   2.447   1.213   1.709 -1.3824 -1.7547 -1.1491
 7594SOL     OW34414   2.680   4.539   7.470  0.3575 -0.5200  0.0374
 7594SOL    HW134415   2.649   4.481   7.540 -0.9977 -0.7697 -0.7617
 7594SOL    HW234416   2.724   4.479   7.410 -1.6181 -1.4029 -0.5333
 7595SOL     OW34417   2.202   1.401  10.499 -0.2937  0.4997 -0.5694
 7595SOL    HW134418   2.290   1.427  10.525 -0.9448  0.8886  1.2593
 7595SOL    HW234419   2.200   1.305  10.499  1.1371  0.4833  2.4652
 7596SOL     OW34420   1.451   1.248   3.359  0.0352  0.1533 -0.6889
 7596SOL    HW134421   1.423   1.180   3.298 -1.4427 -1.5664  1.8840
 7596SOL    HW234422   1.401   1.328   3.343 -1.8248 -1.1778 -1.4494
 7597SOL     OW34423   0.469   4.073   7.795  0.3712 -0.5182  0.0757
 7597SOL    HW134424   0.547   4.037   7.752 -0.6491 -2.0205 -0.5449
 7597SOL    HW234425   0.409   4.082   7.721  1.0671  1.0061 -0.2869
 7598SOL     OW34426   4.651   2.955   1.077 -0.1932  0.2395 -0.0300
 7598SOL    HW134427   4.571   3.007   1.074 -1.1114 -1.1856 -0.6305
 7598SOL    HW234428   4.651   2.920   1.166 -0.5533 -0.5135 -0.3229
 7599SOL     OW34429   1.794   0.607   5.538 -0.3066  0.1691 -0.1770
 7599SOL    HW134430   1.721   0.665   5.516  0.9011  1.0206 -1.9549
 7599SOL    HW234431   1.865   0.671   5.532 -0.3165  0.3125  1.2948
 7600SOL     OW34432   2.177   3.685   2.036  0.1381  0.3097 -0.0257
 7600SOL    HW134433   2.213   3.685   2.125 -0.2205  1.0985  0.1165
 7600SOL    HW234434   2.253   3.666   1.981  1.0538  0.9367  1.0036
 7601SOL     OW34435   0.279   1.306  16.998  0.9157  0.2363  0.6673
 7601SOL    HW134436   0.310   1.346  17.080  1.1111  0.3235  0.5518
 7601SOL    HW234437   0.254   1.383  16.947  4.2235  0.1548 -1.0296
 7602SOL     OW34438   0.523   4.528   3.288 -0.7870 -0.0464 -0.3902
 7602SOL    HW134439   0.573   4.449   3.268 -0.9166 -0.8298  2.3877
 7602SOL    HW234440   0.495   4.554   3.200  1.2249 -1.4545 -1.4364
 7603SOL     OW34441   1.670   0.281   1.338  0.7783 -0.2840 -0.4745
 7603SOL    HW134442   1.732   0.329   1.393  1.1632  0.2294 -1.3475
 7603SOL    HW234443   1.671   0.339   1.261 -0.2499  0.5653  0.1566
 7604SOL     OW34444   3.529   1.719   5.858 -0.1143  0.6041  0.0801
 7604SOL    HW134445   3.577   1.674   5.927 -0.1736  1.5931  0.7579
 7604SOL    HW234446   3.595   1.767   5.808 -0.8662 -0.4913 -1.9679
 7605SOL     OW34447   3.923   1.374   3.932 -0.1556 -0.3490 -0.3321
 7605SOL    HW134448   3.995   1.393   3.871 -0.1719 -1.1305 -0.5880
 7605SOL    HW234449   3.931   1.448   3.992 -1.0927  0.7743 -1.5837
 7606SOL     OW34450   1.769   2.769   6.671  0.4544  0.3472  0.0855
 7606SOL    HW134451   1.837   2.749   6.735  0.9716 -0.9191 -0.8703
 7606SOL    HW234452   1.730   2.682   6.663  0.6178  0.2654  0.1787
 7607SOL     OW34453   0.506   2.017  15.717  0.2706 -0.3632 -0.0453
 7607SOL    HW134454   0.489   2.070  15.795 -0.5627 -1.1748  0.3318
 7607SOL    HW234455   0.512   2.079  15.644  0.9471  0.4216  0.6831
 7608SOL     OW34456   1.363   2.350   9.936  0.0160  0.5257 -0.4736
 7608SOL    HW134457   1.305   2.425   9.924 -0.7093 -0.3615 -2.5644
 7608SOL    HW234458   1.296   2.290   9.969  1.1671  0.7615  2.2727
 7609SOL     OW34459   2.524   1.660  17.694 -0.2202  0.4793 -0.4891
 7609SOL    HW134460   2.440   1.642  17.736  0.2893 -3.0793 -1.0054
 7609SOL    HW234461   2.505   1.665  17.600 -4.4932  1.6991  0.4537
 7610SOL     OW34462   0.286   3.872   3.043 -0.8169 -0.1204  0.9266
 7610SOL    HW134463   0.303   3.962   3.072  2.2726 -0.0231 -1.0871
 7610SOL    HW234464   0.234   3.836   3.115  0.3616 -0.2370  1.7273
 7611SOL     OW34465   0.109   1.259  15.600  0.0524 -0.4087  0.0557
 7611SOL    HW134466   0.019   1.258  15.569  0.1496  0.0271 -0.2380
 7611SOL    HW234467   0.158   1.318  15.543 -0.4524  0.0995  0.1489
 7612SOL     OW34468   4.054   2.290   6.944  0.1118 -0.4244 -0.1340
 7612SOL    HW134469   4.149   2.292   6.954 -0.1186 -2.7351  2.3927
 7612SOL    HW234470   4.040   2.202   6.910 -1.6762  0.8402 -2.7031
 7613SOL     OW34471   2.946   0.940   1.780 -0.1607  0.3659 -0.1387
 7613SOL    HW134472   2.947   1.030   1.812  1.5531 -0.3094  1.7241
 7613SOL    HW234473   2.919   0.948   1.689 -2.0787 -0.0499  0.4011
 7614SOL     OW34474   4.144   3.521   7.371 -0.4320 -0.2596 -0.2447
 7614SOL    HW134475   4.085   3.457   7.413  2.0993 -1.5783  1.3138
 7614SOL    HW234476   4.126   3.603   7.417 -1.2769 -0.1151 -0.8237
 7615SOL     OW34477   1.270   0.679   9.838 -0.7057  0.3877 -0.3601
 7615SOL    HW134478   1.220   0.609   9.797  0.1678 -1.7369  2.2197
 7615SOL    HW234479   1.199   0.716   9.891  0.3591 -0.2752  1.5071
 7616SOL     OW34480   1.252   1.329   8.261  0.1292  0.2279 -0.4121
 7616SOL    HW134481   1.334   1.280   8.256 -0.3132 -0.5909  0.4265
 7616SOL    HW234482   1.194   1.281   8.203  0.6621 -1.5466  0.5076
 7617SOL     OW34483   0.587   4.059  10.566  0.0142  0.0090 -0.3555
 7617SOL    HW134484   0.553   4.038  10.653 -0.5517 -1.3893 -0.9235
 7617SOL    HW234485   0.569   3.976  10.521  1.6452 -0.0158 -0.9559
 7618SOL     OW34486   1.976   0.912   5.837 -0.1377  0.0567 -0.4066
 7618SOL    HW134487   1.908   0.979   5.842 -1.3299 -1.2330  0.8853
 7618SOL    HW234488   2.006   0.930   5.748  1.6737  2.6799  0.7450
 7619SOL     OW34489   1.960   2.737   8.725  0.0112  0.1083  0.3857
 7619SOL    HW134490   1.884   2.790   8.703  1.0986  1.4264 -0.2493
 7619SOL    HW234491   2.022   2.753   8.653  1.2331 -1.0205  1.1642
 7620SOL     OW34492   3.311   2.975   5.550 -0.0941  0.1787  0.7079
 7620SOL    HW134493   3.376   2.991   5.481 -1.8573  1.0334 -0.7603
 7620SOL    HW234494   3.309   3.046   5.614  0.4467  2.1734 -1.5023
 7621SOL     OW34495   0.251   0.660   7.750  0.5619 -0.5520  0.1000
 7621SOL    HW134496   0.276   0.688   7.662  0.1033 -0.2484  0.0677
 7621SOL    HW234497   0.261   0.741   7.799 -2.0542 -0.5245  0.5997
 7622SOL     OW34498   1.085   3.885  14.738 -0.0660 -0.1362  0.3625
 7622SOL    HW134499   1.139   3.919  14.809  0.8017  0.6530 -0.6757
 7622SOL    HW234500   1.140   3.810  14.714 -0.1574 -0.1498  0.1990
 7623SOL     OW34501   3.075   0.296   5.381  0.1510 -0.6297 -0.5652
 7623SOL    HW134502   3.134   0.358   5.425 -2.6349  1.2269  0.5404
 7623SOL    HW234503   3.064   0.337   5.296 -0.9306 -1.0664 -0.6336
 7624SOL     OW34504   1.001   3.302   8.857 -0.2527 -0.3354  1.1986
 7624SOL    HW134505   1.074   3.252   8.818 -0.0865  1.1667 -0.4158
 7624SOL    HW234506   0.929   3.248   8.823  1.8106 -1.6447 -1.1555
 7625SOL     OW34507   3.245   0.671   6.927  0.0743 -0.2030 -0.0090
 7625SOL    HW134508   3.223   0.754   6.970 -0.8206 -0.8659  0.8218
 7625SOL    HW234509   3.156   0.652   6.896 -0.2949  1.9597 -0.2437
 7626SOL     OW34510   2.423   0.647   4.240 -0.4906 -0.2364  0.0887
 7626SOL    HW134511   2.439   0.568   4.291 -4.5662 -0.0371  1.6294
 7626SOL    HW234512   2.341   0.681   4.275 -1.9476 -3.0517 -0.6228
 7627SOL     OW34513   4.181   2.925   1.940  0.4441 -0.2363 -0.0701
 7627SOL    HW134514   4.254   2.969   1.984  0.2024 -1.1805  1.2678
 7627SOL    HW234515   4.186   2.958   1.850  2.1568  0.6103  0.3354
 7628SOL     OW34516   2.950   2.850  17.730 -0.0844 -0.4633  0.0419
 7628SOL    HW134517   2.956   2.933   0.037 -0.3894  1.0095 -2.5176
 7628SOL    HW234518   3.005   2.871  17.654  1.2735  2.6490  1.8802
 7629SOL     OW34519   2.208   1.156   6.710 -0.1207  0.5555  0.6143
 7629SOL    HW134520   2.269   1.082   6.711 -0.9261 -0.1350 -0.7591
 7629SOL    HW234521   2.195   1.178   6.618  1.0396  1.6987  0.7257
 7630SOL     OW34522   2.906   1.030   3.635  0.2079  0.0844  0.1029
 7630SOL    HW134523   2.871   1.020   3.546  2.2629  0.3024 -0.7268
 7630SOL    HW234524   2.991   1.073   3.624 -0.0541 -0.2218 -3.1267
 7631SOL     OW34525   2.482   1.653   7.955  0.4467  0.0858  0.0539
 7631SOL    HW134526   2.473   1.748   7.959  0.4565  0.1035 -0.3520
 7631SOL    HW234527   2.528   1.639   8.037  0.6154  0.3263 -0.0005
 7632SOL     OW34528   2.680   2.468  13.095  0.0632  0.2082 -0.2587
 7632SOL    HW134529   2.762   2.498  13.056 -0.6933  3.8720  0.9063
 7632SOL    HW234530   2.679   2.377  13.067  1.7060 -0.1970  1.0163
 7633SOL     OW34531   2.209   4.067   7.130 -0.4871 -0.3208 -0.3191
 7633SOL    HW134532   2.125   4.053   7.085  0.1406  1.9310 -2.2293
 7633SOL    HW234533   2.184   4.065   7.222 -1.6089 -0.1123 -0.6178
 7634SOL     OW34534   0.767   1.785  11.171  0.2904  0.2525 -0.7367
 7634SOL    HW134535   0.687   1.838  11.174 -1.3881 -2.2715 -0.1215
 7634SOL    HW234536   0.800   1.777  11.261 -0.6666 -2.0723 -0.5773
 7635SOL     OW34537   0.112   1.888  16.813  0.2992  0.4897  0.1500
 7635SOL    HW134538   0.095   1.901  16.906  0.6356 -1.0126  0.4128
 7635SOL    HW234539   0.176   1.960  16.809  0.1083  0.5309 -2.3052
 7636SOL     OW34540   0.784   3.437   4.885 -0.0386  0.3533  0.1315
 7636SOL    HW134541   0.871   3.432   4.924 -1.1115 -1.7461  2.2861
 7636SOL    HW234542   0.764   3.528   4.905  0.2566  0.5296 -0.3652
 7637SOL     OW34543   2.193   2.028   6.120 -0.3040  0.0547  0.5010
 7637SOL    HW134544   2.234   1.947   6.089  0.3454  0.4476  0.3282
 7637SOL    HW234545   2.100   2.009   6.119 -0.8813  3.0523 -1.7358
 7638SOL     OW34546   1.675   0.699   8.274  0.0334 -0.1503 -0.4008
 7638SOL    HW134547   1.631   0.723   8.192  0.0318  0.8529 -0.1027
 7638SOL    HW234548   1.764   0.690   8.239  0.4949  2.5078  0.1179
 7639SOL     OW34549   2.407   2.789   5.011 -0.3517  0.0547 -0.2603
 7639SOL    HW134550   2.433   2.705   5.049 -0.6838 -0.3862 -1.0052
 7639SOL    HW234551   2.330   2.808   5.065  0.1914 -0.2068  0.6114
 7640SOL     OW34552   4.183   3.908   1.940  0.2356  0.0099 -0.4397
 7640SOL    HW134553   4.195   3.814   1.927 -1.0208 -0.3463  1.0135
 7640SOL    HW234554   4.186   3.897   2.035  4.7648 -1.8338 -0.8250
 7641SOL     OW34555   0.026   4.016   0.579  0.4835  0.1564 -0.6800
 7641SOL    HW134556   4.670   4.041   0.564  0.2579 -1.3497 -1.8042
 7641SOL    HW234557   0.060   4.081   0.517  0.0090 -0.5957 -1.7225
 7642SOL     OW34558   4.472   2.272   1.911 -0.1718 -0.3114 -0.2618
 7642SOL    HW134559   4.518   2.241   1.988  1.1048  0.0582 -0.8855
 7642SOL    HW234560   4.526   2.339   1.870  0.5252 -2.1108 -2.2525
 7643SOL     OW34561   2.431   2.010  17.690 -0.0163 -0.3605  0.4969
 7643SOL    HW134562   2.421   1.964   0.033  0.3953 -2.5252 -0.6594
 7643SOL    HW234563   2.521   1.992  17.662  0.3185  2.0243  0.0181
 7644SOL     OW34564   1.844   1.451   0.172  0.2250  0.2694  0.3517
 7644SOL    HW134565   1.848   1.395   0.094 -0.6200 -0.9242  1.1513
 7644SOL    HW234566   1.750   1.444   0.185  0.1398  3.1717  1.2290
 7645SOL     OW34567   4.635   2.058  10.671 -0.4045 -0.4283  0.2592
 7645SOL    HW134568   4.683   1.986  10.712  0.5196 -0.8590 -1.6053
 7645SOL    HW234569   4.635   2.105  10.755  0.2934 -2.5242  1.4393
 7646SOL     OW34570   0.687   3.005   4.420 -0.3346 -0.2336 -0.3398
 7646SOL    HW134571   0.618   3.056   4.463  0.0446  0.5422 -0.6596
 7646SOL    HW234572   0.634   2.939   4.375 -1.3318 -2.3895  3.9909
 7647SOL     OW34573   4.160   0.872  17.234  0.0028  1.0045 -0.0202
 7647SOL    HW134574   4.231   0.936  17.237  1.7514 -0.8542 -1.1469
 7647SOL    HW234575   4.203   0.796  17.274 -0.8785  0.3245 -0.3673
 7648SOL     OW34576   2.185   3.170   9.458 -0.4729 -0.6187  0.4005
 7648SOL    HW134577   2.251   3.130   9.515  0.1462 -0.9700 -0.5615
 7648SOL    HW234578   2.128   3.101   9.425 -0.4753 -0.2747 -0.3089
 7649SOL     OW34579   2.893   3.804   8.128  0.3926 -0.2743  0.1184
 7649SOL    HW134580   2.978   3.844   8.143  0.9262 -0.6602 -1.7928
 7649SOL    HW234581   2.887   3.729   8.188 -0.9697  0.1207  0.4743
 7650SOL     OW34582   3.223   3.401   4.541  0.3815 -0.1769 -0.2802
 7650SOL    HW134583   3.152   3.413   4.604 -0.4338 -2.2734 -0.8262
 7650SOL    HW234584   3.285   3.458   4.587  0.6114 -0.8189  0.2080
 7651SOL     OW34585   2.793   2.056   1.325  0.8065 -0.2587 -0.0697
 7651SOL    HW134586   2.749   2.099   1.399 -1.1444 -0.8141 -0.9052
 7651SOL    HW234587   2.719   2.002   1.298  0.0506  1.2211 -0.9337
 7652SOL     OW34588   0.302   2.219  14.553  0.4460 -0.5304 -0.6563
 7652SOL    HW134589   0.359   2.220  14.630 -2.1834 -0.1516  1.3124
 7652SOL    HW234590   0.346   2.159  14.494 -1.4314 -2.0678 -0.4959
 7653SOL     OW34591   1.538   3.175  16.384 -0.7963 -0.3089 -0.0232
 7653SOL    HW134592   1.546   3.080  16.391 -1.1016 -0.3258  0.1139
 7653SOL    HW234593   1.628   3.205  16.371 -0.1132 -2.5089 -0.3614
 7654SOL     OW34594   4.539   0.864   0.269 -0.8715 -0.6701 -0.0210
 7654SOL    HW134595   4.552   0.809   0.346  3.2464 -1.8820 -1.5523
 7654SOL    HW234596   4.445   0.853   0.254 -1.1359 -1.0836  1.8845
 7655SOL     OW34597   3.102   1.003   1.065 -0.7173  0.1051 -0.8995
 7655SOL    HW134598   3.125   0.912   1.046  2.4544  0.2942  2.1818
 7655SOL    HW234599   3.070   1.029   0.978  0.2320  1.8019 -0.7282
 7656SOL     OW34600   0.215   1.061   5.380 -0.0595 -0.3526 -0.7525
 7656SOL    HW134601   0.127   1.093   5.360  0.6048  0.4040 -2.5398
 7656SOL    HW234602   0.189   0.980   5.424 -2.2319  2.1152  2.4540
 7657SOL     OW34603   0.584   1.094  10.923  0.4336 -0.2828  0.3491
 7657SOL    HW134604   0.638   1.166  10.955  1.7804 -0.6412 -1.1323
 7657SOL    HW234605   0.587   1.031  10.995 -1.0257 -0.9465 -0.1760
 7658SOL     OW34606   1.602   1.244   5.038  0.1376 -0.3196 -0.4513
 7658SOL    HW134607   1.681   1.297   5.044  0.5388 -1.0058  0.4574
 7658SOL    HW234608   1.546   1.283   5.106  0.5341 -0.3425 -0.1097
 7659SOL     OW34609   4.141   0.638  17.619  0.4700  0.6768  0.1466
 7659SOL    HW134610   4.193   0.660  17.542  2.6029 -2.1528  0.7753
 7659SOL    HW234611   4.065   0.591  17.584  2.6948 -2.9628  0.1731
 7660SOL     OW34612   2.481   0.987  11.719 -0.1787 -0.2929  0.1084
 7660SOL    HW134613   2.386   0.991  11.710 -0.2936 -0.0124  1.4175
 7660SOL    HW234614   2.495   0.938  11.638  1.8569  0.0678  0.2437
 7661SOL     OW34615   0.326   1.061   6.832  0.1175  0.1815  0.4131
 7661SOL    HW134616   0.385   0.986   6.824  0.4424  0.1227  3.7425
 7661SOL    HW234617   0.257   1.040   6.768  1.0201 -2.1611  0.1945
 7662SOL     OW34618   0.834   0.399   4.366  0.5909  0.4592 -0.1104
 7662SOL    HW134619   0.888   0.428   4.439  0.2468 -0.3389  0.4672
 7662SOL    HW234620   0.850   0.475   4.310  1.8359 -0.5040 -1.0748
 7663SOL     OW34621   2.682   2.086   2.502 -0.1259 -0.3147  0.2078
 7663SOL    HW134622   2.700   2.058   2.592 -1.0588 -0.3313  0.3923
 7663SOL    HW234623   2.653   2.173   2.531  4.3575  0.9515  0.8499
 7664SOL     OW34624   4.595   3.424  17.635  0.0373  1.1794  0.0616
 7664SOL    HW134625   4.633   3.338  17.654 -0.8880  0.4020 -1.6432
 7664SOL    HW234626   4.638   3.437  17.551  0.6688 -2.0953 -0.1489
 7665SOL     OW34627   0.167   0.943   0.634  0.2109  0.0182  0.4203
 7665SOL    HW134628   0.196   1.028   0.668 -0.1343  0.1800  0.3112
 7665SOL    HW234629   0.089   0.965   0.583 -0.1746  0.3543  1.1478
 7666SOL     OW34630   1.501   0.857   7.214 -0.2268  0.2270  0.1860
 7666SOL    HW134631   1.526   0.932   7.268  0.4332 -0.2687  0.5632
 7666SOL    HW234632   1.507   0.908   7.134  2.9087  0.5965  0.6705
 7667SOL     OW34633   1.633   0.959   5.214 -0.3801  0.4883 -0.0631
 7667SOL    HW134634   1.714   1.010   5.212  0.6695 -1.1567  0.2885
 7667SOL    HW234635   1.670   0.872   5.202 -0.0523  0.5105  0.7825
 7668SOL     OW34636   2.025   3.505  15.979 -0.2308  0.0361 -0.4773
 7668SOL    HW134637   2.051   3.576  16.037 -0.2807 -1.1157  0.9564
 7668SOL    HW234638   2.016   3.429  16.036 -0.3940 -1.4795 -2.5286
 7669SOL     OW34639   0.054   0.585   0.534 -0.4688  0.4013  0.5720
 7669SOL    HW134640   0.017   0.506   0.573  2.7946 -1.6027 -0.3783
 7669SOL    HW234641   4.704   0.628   0.526 -0.3500  0.4881 -0.2352
 7670SOL     OW34642   3.934   4.712  11.228  0.7582 -0.6611  0.4105
 7670SOL    HW134643   3.853   4.665  11.206  0.5259  1.4334 -3.1124
 7670SOL    HW234644   3.984   4.674  11.156  1.8547  0.6445  0.4889
 7671SOL     OW34645   3.509   1.560   1.392  0.0099  0.8225  0.2037
 7671SOL    HW134646   3.414   1.569   1.394  0.2522  3.6727 -1.6580
 7671SOL    HW234647   3.538   1.568   1.301  1.1755  0.4067  0.5322
 7672SOL     OW34648   4.706   1.065  10.480  0.3689  0.1522 -0.2852
 7672SOL    HW134649   4.637   1.004  10.508  0.0101  0.8003  0.2534
 7672SOL    HW234650   0.045   1.005  10.474  1.3969  1.3958  0.2012
 7673SOL     OW34651   2.267   0.137  16.061 -0.4673 -0.2384  0.2923
 7673SOL    HW134652   2.175   0.156  16.041 -0.8519  1.0082  3.3360
 7673SOL    HW234653   2.265   0.042  16.050 -0.8829 -0.4869  2.5513
 7674SOL     OW34654   1.857   0.298  15.293 -0.0915  0.0695 -0.2745
 7674SOL    HW134655   1.847   0.363  15.223  0.5066 -0.9790 -1.3128
 7674SOL    HW234656   1.874   0.221  15.239 -2.1572  0.2871 -1.2518
 7675SOL     OW34657   4.607   2.984   5.773 -0.2481  0.1316  0.1318
 7675SOL    HW134658   4.673   2.931   5.729  1.4463  1.4896  1.0054
 7675SOL    HW234659   4.590   2.938   5.856  1.1467 -1.0687 -0.2600
 7676SOL     OW34660   1.100   1.875  16.088  0.2364 -0.3183  0.0449
 7676SOL    HW134661   1.084   1.962  16.124  2.0710  0.4082 -0.9089
 7676SOL    HW234662   1.172   1.840  16.140  0.0944  0.6388  0.8836
 7677SOL     OW34663   4.464   1.280  16.565 -0.4240  0.2216  0.0271
 7677SOL    HW134664   4.395   1.345  16.552 -0.7904 -0.3124 -0.7297
 7677SOL    HW234665   4.421   1.215  16.508  0.1432 -0.2611  0.1475
 7678SOL     OW34666   3.279   1.802   1.662 -0.0840 -0.2606 -0.2835
 7678SOL    HW134667   3.336   1.830   1.591 -1.2831 -0.7326 -1.4280
 7678SOL    HW234668   3.337   1.830   1.733 -1.2955 -1.2167  1.0834
 7679SOL     OW34669   0.568   1.499   0.956  0.7488  0.4301  0.3579
 7679SOL    HW134670   0.579   1.591   0.933  2.1146 -0.1911 -1.4865
 7679SOL    HW234671   0.624   1.511   1.033  0.1439 -1.7389  1.1499
 7680SOL     OW34672   0.962   1.623   9.984 -0.1483  0.3619  0.0862
 7680SOL    HW134673   0.972   1.573   9.902 -0.4239 -1.8139  1.3713
 7680SOL    HW234674   1.029   1.585  10.041 -1.7975  0.7766  2.2761
 7681SOL     OW34675   3.271   3.104  15.547  0.1085 -0.4267  0.6569
 7681SOL    HW134676   3.290   3.190  15.508  2.1822 -1.1753  0.0047
 7681SOL    HW234677   3.324   3.048  15.490  1.0585 -0.2433  1.3505
 7682SOL     OW34678   1.450   1.830   7.675 -0.2724 -0.0583  0.0146
 7682SOL    HW134679   1.452   1.736   7.690 -0.4015 -0.0306  0.2020
 7682SOL    HW234680   1.360   1.837   7.645 -0.9672 -1.0012  1.9484
 7683SOL     OW34681   3.360   2.528  17.449  0.5224 -0.0942  0.9594
 7683SOL    HW134682   3.283   2.556  17.498 -0.7808 -0.1799 -1.0634
 7683SOL    HW234683   3.425   2.594  17.471  2.0352 -1.1914 -0.2331
 7684SOL     OW34684   1.597   4.141   1.622 -0.1876  0.2370  0.4954
 7684SOL    HW134685   1.562   4.179   1.703  0.5903 -1.0872  1.4460
 7684SOL    HW234686   1.515   4.136   1.572 -0.7645  0.9651  1.3592
 7685SOL     OW34687   2.299   2.892   1.856  0.5487 -0.2042  0.1987
 7685SOL    HW134688   2.274   2.967   1.911  1.5922  0.3803 -0.1141
 7685SOL    HW234689   2.235   2.827   1.886 -1.0524  1.4482  0.3935
 7686SOL     OW34690   3.021   2.886   2.961 -0.1814  0.2032 -0.1184
 7686SOL    HW134691   3.061   2.898   2.875 -1.5638 -0.8767 -0.9149
 7686SOL    HW234692   3.040   2.970   3.002 -0.5669  0.8543 -1.2693
 7687SOL     OW34693   1.896   1.697   1.749 -0.4115  0.4554  0.6869
 7687SOL    HW134694   1.841   1.642   1.694  0.9711 -0.4765  0.2260
 7687SOL    HW234695   1.988   1.687   1.725 -0.1651  0.8118  1.4915
 7688SOL     OW34696   2.275   4.625  13.973 -0.3343 -0.0407 -0.1824
 7688SOL    HW134697   2.328   4.571  14.032 -0.2860 -0.6614 -0.7907
 7688SOL    HW234698   2.347   4.669  13.928 -1.6037  0.1135 -2.0703
 7689SOL     OW34699   0.760   2.127   3.788  0.1367  0.1654  0.0426
 7689SOL    HW134700   0.798   2.106   3.873 -0.2736  0.8468  0.3843
 7689SOL    HW234701   0.678   2.079   3.801 -0.4140  0.8800 -0.8223
 7690SOL     OW34702   1.555   2.081   6.735  0.5132  0.0127 -0.2428
 7690SOL    HW134703   1.556   2.013   6.802  1.5752 -2.5254 -2.8142
 7690SOL    HW234704   1.649   2.100   6.731  0.4675  0.0011 -1.5505
 7691SOL     OW34705   4.215   4.105   5.819  0.5360  0.2857 -0.0825
 7691SOL    HW134706   4.301   4.115   5.859  0.2875  0.7504  0.3351
 7691SOL    HW234707   4.226   4.171   5.751 -0.5702  0.9936  0.4332
 7692SOL     OW34708   1.380   4.006   8.328  0.9793 -0.2658 -0.2209
 7692SOL    HW134709   1.323   4.070   8.285 -0.7081 -1.7760 -0.2565
 7692SOL    HW234710   1.439   4.057   8.382  0.3312 -1.2401  1.4107
 7693SOL     OW34711   3.751   4.409   8.470  0.4054  0.3212  0.2194
 7693SOL    HW134712   3.789   4.321   8.465 -1.2314 -0.3063 -0.9849
 7693SOL    HW234713   3.816   4.453   8.526  1.4864 -1.8278  0.6470
 7694SOL     OW34714   0.003   4.563   0.195  0.1897 -0.2716 -0.4609
 7694SOL    HW134715   0.091   4.545   0.162  0.6001  1.7328 -0.4917
 7694SOL    HW234716   4.693   4.485   0.164  0.7157 -0.1085 -1.6339
 7695SOL     OW34717   0.694   1.368   2.632 -0.3603 -0.3820  0.1519
 7695SOL    HW134718   0.754   1.425   2.584  0.1464 -0.6849  0.4226
 7695SOL    HW234719   0.616   1.378   2.579  0.5618 -0.5493 -1.2350
 7696SOL     OW34720   2.460   3.402   5.925  0.5987 -0.0980  0.2756
 7696SOL    HW134721   2.395   3.333   5.914  0.4893  0.4103 -2.3369
 7696SOL    HW234722   2.431   3.457   5.998  0.5143 -1.4556  1.2500
 7697SOL     OW34723   2.414   2.598   0.556  0.6419  0.3867  0.0747
 7697SOL    HW134724   2.472   2.529   0.590 -1.1694 -0.5911  1.1804
 7697SOL    HW234725   2.444   2.604   0.466 -0.8546 -1.6116 -0.5555
 7698SOL     OW34726   4.025   1.343   0.494 -0.1599 -0.4306 -0.3362
 7698SOL    HW134727   3.944   1.393   0.505  0.5260  0.6046 -0.0121
 7698SOL    HW234728   4.047   1.358   0.402 -0.7021  1.0455 -0.2251
 7699SOL     OW34729   3.562   2.186   1.772 -0.2468  0.1152 -0.1862
 7699SOL    HW134730   3.616   2.241   1.827 -0.1428 -1.8788  1.6814
 7699SOL    HW234731   3.631   2.145   1.720  0.1312 -1.0146  1.2050
 7700SOL     OW34732   3.580   4.219  14.720 -0.0354  0.9137 -1.0324
 7700SOL    HW134733   3.553   4.303  14.683 -4.4052  0.8409  1.9795
 7700SOL    HW234734   3.527   4.159  14.667  1.8537  0.5598 -2.5285
 7701SOL     OW34735   0.639   3.763  12.574  0.4817 -0.2616 -0.3750
 7701SOL    HW134736   0.604   3.721  12.652 -1.5081 -1.1822 -1.7638
 7701SOL    HW234737   0.559   3.764  12.522 -0.6521  0.0591  1.3803
 7702SOL     OW34738   2.581   3.329  15.617  0.3617 -0.0362 -1.0918
 7702SOL    HW134739   2.501   3.372  15.647  1.4964 -0.5370  2.6269
 7702SOL    HW234740   2.633   3.401  15.581  1.4383 -0.0615  0.4007
 7703SOL     OW34741   1.057   2.550   1.257 -0.6971 -0.2890 -0.0638
 7703SOL    HW134742   0.976   2.581   1.297 -1.0177 -1.8308  0.4716
 7703SOL    HW234743   1.032   2.465   1.222  0.1550 -1.1127  1.3164
 7704SOL     OW34744   2.830   4.410  11.393  0.3069  0.3140 -0.4111
 7704SOL    HW134745   2.842   4.490  11.444  1.1305 -0.7226  1.0252
 7704SOL    HW234746   2.737   4.390  11.401  1.1487 -2.6980  1.7610
 7705SOL     OW34747   4.203   3.231   0.212 -0.4249 -0.3953 -0.4510
 7705SOL    HW134748   4.175   3.169   0.280  0.5846 -1.9416 -1.4554
 7705SOL    HW234749   4.299   3.223   0.210 -0.2221  0.4043  4.4342
 7706SOL     OW34750   4.615   1.038  16.994  0.5952 -0.2030  0.6024
 7706SOL    HW134751   4.662   1.090  17.059 -0.5893  2.8004 -0.9818
 7706SOL    HW234752   4.688   0.990  16.954 -0.3042 -1.6252  0.6464
 7707SOL     OW34753   1.993   0.697   2.213  0.3151 -0.2643  0.3271
 7707SOL    HW134754   2.050   0.643   2.267  0.7655  0.2720  0.3782
 7707SOL    HW234755   1.961   0.750   2.286 -0.4909 -1.1121  0.5972
 7708SOL     OW34756   1.343   3.240   9.513 -0.0619  0.0393  0.5071
 7708SOL    HW134757   1.362   3.334   9.509 -0.3252  0.1478  1.7472
 7708SOL    HW234758   1.257   3.234   9.471 -1.2829  0.7531  2.9326
 7709SOL     OW34759   1.832   0.293  17.651 -0.0106 -0.0365  0.0193
 7709SOL    HW134760   1.839   0.200  17.627 -0.4109 -0.4981  1.7326
 7709SOL    HW234761   1.815   0.286   0.005 -1.0367 -2.9311 -0.3860
 7710SOL     OW34762   0.148   4.384   8.363  0.0040 -0.1897 -0.4635
 7710SOL    HW134763   0.072   4.348   8.410  0.9550 -1.7536 -0.1109
 7710SOL    HW234764   0.105   4.426   8.288 -1.9788  0.4580  1.0302
 7711SOL     OW34765   3.353   2.347  12.525  0.0946  0.1404 -0.3800
 7711SOL    HW134766   3.310   2.409  12.584 -1.6596 -0.7286 -0.7556
 7711SOL    HW234767   3.431   2.331  12.578 -0.0594  1.5671  0.2895
 7712SOL     OW34768   3.980   1.837   2.701 -0.0624  0.0529 -0.0544
 7712SOL    HW134769   4.024   1.763   2.660  1.9165  0.9473  0.4609
 7712SOL    HW234770   3.968   1.889   2.622 -2.2557 -1.6180 -0.8426
 7713SOL     OW34771   0.987   2.013   9.246  0.1799 -0.0905 -0.1994
 7713SOL    HW134772   0.994   2.015   9.342 -1.8835 -2.4513  0.0212
 7713SOL    HW234773   1.051   2.081   9.225  0.9977 -0.1038  2.1774
 7714SOL     OW34774   0.715   4.212   5.952 -0.0275  0.1819 -0.1420
 7714SOL    HW134775   0.766   4.167   5.885  0.2011  2.1006 -1.2555
 7714SOL    HW234776   0.742   4.192   6.042 -0.2400 -0.5571 -0.2432
 7715SOL     OW34777   0.682   2.052   2.750 -0.3069  0.4771  0.2764
 7715SOL    HW134778   0.776   2.044   2.762 -0.1645  1.0398 -0.4633
 7715SOL    HW234779   0.661   2.128   2.805 -0.0684 -0.6996  1.9780
 7716SOL     OW34780   3.499   2.435   6.104  0.1019 -0.3607 -0.6386
 7716SOL    HW134781   3.491   2.520   6.147  2.3737 -0.1144 -0.7074
 7716SOL    HW234782   3.557   2.382   6.158  0.7432  0.1844 -0.8003
 7717SOL     OW34783   2.834   0.794   1.345 -0.4749  0.1664 -0.4491
 7717SOL    HW134784   2.849   0.763   1.256  0.2376  1.5812 -0.8218
 7717SOL    HW234785   2.796   0.717   1.386 -3.4067  1.8992  0.0664
 7718SOL     OW34786   4.529   2.459   8.140 -0.0686 -0.5356  0.5075
 7718SOL    HW134787   4.598   2.512   8.099 -1.2300 -1.6212 -2.8252
 7718SOL    HW234788   4.576   2.388   8.183 -0.4182 -1.2386 -0.2735
 7719SOL     OW34789   4.688   4.281   9.367  0.6927  0.1510 -0.1419
 7719SOL    HW134790   0.025   4.330   9.326  0.3753 -0.8184 -1.8597
 7719SOL    HW234791   4.625   4.290   9.296 -1.5073  0.9005  1.9114
 7720SOL     OW34792   1.866   0.692   9.660  0.5370  0.0790  0.3612
 7720SOL    HW134793   1.867   0.596   9.659  0.0442  0.1022 -1.9984
 7720SOL    HW234794   1.939   0.713   9.717  1.3585 -0.7821 -0.3704
 7721SOL     OW34795   2.327   0.683   5.498 -0.0780  0.1852 -0.5460
 7721SOL    HW134796   2.360   0.615   5.557 -0.8041  0.1334 -0.1971
 7721SOL    HW234797   2.303   0.627   5.424 -1.1200 -1.5360  1.0910
 7722SOL     OW34798   2.705   2.438   7.536 -0.2676  0.1306 -0.0105
 7722SOL    HW134799   2.698   2.355   7.583 -0.3554  1.1172  1.7191
 7722SOL    HW234800   2.794   2.461   7.562 -0.1521  0.1082 -0.3857
 7723SOL     OW34801   1.964   2.174   7.262  0.3717  0.4708 -0.0958
 7723SOL    HW134802   1.879   2.200   7.227  0.9850  1.0106 -1.1740
 7723SOL    HW234803   1.963   2.206   7.353  3.0430  0.1847  0.0316
 7724SOL     OW34804   1.145   0.078  12.631  0.0580  0.1990  0.0122
 7724SOL    HW134805   1.077   0.012  12.642 -0.2283  0.5473  0.3718
 7724SOL    HW234806   1.222   0.027  12.605  0.5602  0.6460  0.6061
 7725SOL     OW34807   1.351   1.011   5.947  0.3421 -0.0753 -0.3383
 7725SOL    HW134808   1.444   1.034   5.954 -0.0981  1.9637 -1.1773
 7725SOL    HW234809   1.306   1.096   5.947  1.0070  0.2834 -0.0876
 7726SOL     OW34810   1.708   3.419  16.581 -0.1070  0.0586 -0.0604
 7726SOL    HW134811   1.703   3.328  16.551  3.1086  0.6191 -2.2271
 7726SOL    HW234812   1.613   3.432  16.589 -0.3267 -1.8430  0.7397
 7727SOL     OW34813   2.286   4.017   7.702  0.2442  0.0996 -0.1555
 7727SOL    HW134814   2.293   4.053   7.614  1.6209  0.7158  0.2090
 7727SOL    HW234815   2.219   4.070   7.746 -0.9153 -1.7250  0.2948
 7728SOL     OW34816   2.707   2.359   2.496  0.7158 -0.3163  0.7234
 7728SOL    HW134817   2.749   2.425   2.552 -1.2384 -0.2966  2.1608
 7728SOL    HW234818   2.781   2.349   2.436 -0.9453  2.1178 -1.7009
 7729SOL     OW34819   3.460   1.050   3.509 -0.9719  0.0281 -0.0883
 7729SOL    HW134820   3.458   0.973   3.453  0.0077  1.9019 -2.7166
 7729SOL    HW234821   3.398   1.108   3.464 -0.3832 -0.5541 -1.6432
 7730SOL     OW34822   1.579   4.305   3.244 -0.1598 -0.4086  0.4311
 7730SOL    HW134823   1.652   4.365   3.259  0.4718 -1.1041  0.1034
 7730SOL    HW234824   1.568   4.332   3.153  0.4801 -0.2629  0.4028
 7731SOL     OW34825   3.748   2.897   8.582 -0.1512  0.4404 -0.0752
 7731SOL    HW134826   3.784   2.936   8.661 -0.0592  1.9333 -0.8592
 7731SOL    HW234827   3.699   2.823   8.618  1.6006  0.8312  3.0726
 7732SOL     OW34828   2.590   1.242   5.640 -0.8236 -0.2391  0.1384
 7732SOL    HW134829   2.533   1.168   5.660 -1.3888  0.3303  0.6379
 7732SOL    HW234830   2.578   1.299   5.717 -1.9298 -0.0015 -0.2209
 7733SOL     OW34831   2.274   3.241   7.862  0.2864 -0.4204  0.5430
 7733SOL    HW134832   2.356   3.279   7.830 -0.2287 -0.5973 -0.9444
 7733SOL    HW234833   2.283   3.264   7.955  3.6092 -3.3412  0.9375
 7734SOL     OW34834   1.181   2.776   9.625 -0.3506 -0.0505  0.5281
 7734SOL    HW134835   1.206   2.836   9.555  1.2907  0.0951  1.2285
 7734SOL    HW234836   1.192   2.833   9.701  1.3007  1.9460 -1.2155
 7735SOL     OW34837   2.710   3.295   7.071 -0.0322  0.0412 -0.4835
 7735SOL    HW134838   2.712   3.243   7.151  0.7530 -2.6495 -2.2678
 7735SOL    HW234839   2.761   3.374   7.093  0.8915 -1.2731  2.0981
 7736SOL     OW34840   3.304   2.983   2.869  0.0436  0.3941  0.4126
 7736SOL    HW134841   3.358   2.939   2.935 -0.7194 -2.3292 -0.8047
 7736SOL    HW234842   3.346   2.955   2.788 -1.1091  0.0030 -0.0373
 7737SOL     OW34843   1.369   3.250   4.404 -0.0870 -0.3119 -0.1788
 7737SOL    HW134844   1.366   3.243   4.309  0.3548 -1.2744 -0.1178
 7737SOL    HW234845   1.309   3.180   4.429 -1.7223  0.6465 -1.4029
 7738SOL     OW34846   1.982   0.026   7.010 -0.5151 -0.0627 -0.3175
 7738SOL    HW134847   1.946   4.694   7.068  0.1803 -2.0428 -2.2106
 7738SOL    HW234848   1.984   4.713   6.928  1.4230 -1.4418  0.5502
 7739SOL     OW34849   4.689   0.775   7.642  0.1836  0.1610 -0.0900
 7739SOL    HW134850   0.025   0.830   7.676 -0.6717  3.1042 -3.0099
 7739SOL    HW234851   4.710   0.696   7.691  0.6713 -0.8449 -1.8999
 7740SOL     OW34852   4.570   2.208  12.615 -0.4076  0.2770 -0.3615
 7740SOL    HW134853   4.479   2.179  12.626 -0.5698  1.1488  0.5903
 7740SOL    HW234854   4.612   2.126  12.640  0.7822  0.2892 -2.3326
 7741SOL     OW34855   1.376   0.837   8.946 -0.4587  0.2646 -0.2274
 7741SOL    HW134856   1.286   0.810   8.963 -0.9232  2.1514  0.2251
 7741SOL    HW234857   1.408   0.878   9.027 -0.8875 -1.3762  0.7942
 7742SOL     OW34858   1.356   3.001   6.062 -0.0063 -0.5539  0.3864
 7742SOL    HW134859   1.265   2.986   6.036 -0.6735 -1.0174  3.0093
 7742SOL    HW234860   1.373   3.089   6.030  0.5981 -0.0999  1.9617
 7743SOL     OW34861   3.796   0.807   6.834 -0.0560  0.5151 -0.2435
 7743SOL    HW134862   3.820   0.816   6.741 -0.1500 -1.4573 -0.4608
 7743SOL    HW234863   3.884   0.791   6.869 -0.0807 -0.2665 -0.5477
 7744SOL     OW34864   2.133   0.404   8.921  0.2121 -0.8048 -0.4915
 7744SOL    HW134865   2.101   0.493   8.938  1.7601  0.0720 -2.1791
 7744SOL    HW234866   2.179   0.398   9.005 -1.6129 -0.6524  0.5181
 7745SOL     OW34867   1.525   0.571   1.587  0.6821 -0.3791 -0.4558
 7745SOL    HW134868   1.499   0.655   1.548 -2.7367 -1.2285  0.0465
 7745SOL    HW234869   1.616   0.567   1.559  0.7232 -0.6877 -0.2709
 7746SOL     OW34870   2.551   1.690   3.517 -0.3694  0.0585 -0.0173
 7746SOL    HW134871   2.500   1.609   3.529  0.9001 -0.6754  0.3859
 7746SOL    HW234872   2.606   1.676   3.439  1.3362 -0.0772  1.2195
 7747SOL     OW34873   2.911   3.957   4.213 -0.5125 -0.3548  0.1819
 7747SOL    HW134874   2.836   3.960   4.154  0.4798  0.8419 -1.0150
 7747SOL    HW234875   2.970   4.020   4.172  0.1166 -1.2834 -0.3232
 7748SOL     OW34876   0.297   4.184   7.982  0.2834  0.5694 -0.3489
 7748SOL    HW134877   0.336   4.121   7.922 -0.0028 -1.3995  1.5343
 7748SOL    HW234878   0.347   4.264   7.968  1.3108 -0.0314 -0.0811
 7749SOL     OW34879   3.047   3.030   1.649 -0.3147  0.1526 -0.4834
 7749SOL    HW134880   2.962   3.021   1.693 -1.0137  0.3810 -1.7797
 7749SOL    HW234881   3.085   2.949   1.683 -3.2941  0.1154  2.7319
 7750SOL     OW34882   0.688   1.515   4.991  0.0905 -0.2831  0.1046
 7750SOL    HW134883   0.759   1.466   5.032  1.2099  1.7490  0.6186
 7750SOL    HW234884   0.608   1.466   5.006  0.4885 -0.2352  2.3380
 7751SOL     OW34885   1.826   1.801  12.682 -0.3800  0.6926  0.0104
 7751SOL    HW134886   1.903   1.854  12.701  3.5347 -3.9838 -2.6621
 7751SOL    HW234887   1.788   1.860  12.617  2.6783  2.0967 -0.4973
 7752SOL     OW34888   4.531   1.363  15.620 -0.1700 -0.0460 -0.2493
 7752SOL    HW134889   4.479   1.430  15.574 -1.1345 -0.3471  0.3932
 7752SOL    HW234890   4.612   1.412  15.632 -1.6060  1.8632  1.7969
 7753SOL     OW34891   2.802   1.066   3.387 -0.4974  0.0875 -0.3117
 7753SOL    HW134892   2.749   1.023   3.319  0.6255  0.2280 -1.2625
 7753SOL    HW234893   2.749   1.143   3.408  0.3962  1.1753 -2.0407
 7754SOL     OW34894   1.145   2.691   3.064 -0.3628 -0.1025  0.2675
 7754SOL    HW134895   1.220   2.750   3.074 -0.5894  0.1224  0.6251
 7754SOL    HW234896   1.076   2.749   3.094  0.3343  0.8133  0.1078
 7755SOL     OW34897   1.957   0.559   4.351 -0.2181 -0.0539  0.5204
 7755SOL    HW134898   1.975   0.494   4.283  2.7331  2.3564 -0.9734
 7755SOL    HW234899   1.865   0.533   4.354  0.1040 -1.2690 -0.1002
 7756SOL     OW34900   2.182   2.395   1.022  0.1047 -0.1335 -0.6993
 7756SOL    HW134901   2.170   2.398   0.927 -0.8104  2.9406 -0.4746
 7756SOL    HW234902   2.174   2.486   1.047 -3.6929 -0.8472  0.6967
 7757SOL     OW34903   0.093   0.656   9.918  0.1008  0.1155 -0.4260
 7757SOL    HW134904   0.180   0.644   9.879  0.3304  0.3264  0.0233
 7757SOL    HW234905   0.094   0.611  10.002 -0.3635  0.3705 -0.2836
 7758SOL     OW34906   4.719   2.995   2.502 -0.5433 -0.0421 -0.9871
 7758SOL    HW134907   4.670   3.064   2.547 -1.9375  0.8433 -3.8486
 7758SOL    HW234908   0.012   3.039   2.422 -0.1578  1.2686 -0.1237
 7759SOL     OW34909   4.021   1.559   9.245  0.2045 -0.1294 -0.3741
 7759SOL    HW134910   4.014   1.463   9.251 -0.8093 -0.0853 -0.7887
 7759SOL    HW234911   3.944   1.578   9.192 -0.2457  1.2552  0.7589
 7760SOL     OW34912   2.774   1.859   2.923  0.3542  0.2569  0.6567
 7760SOL    HW134913   2.743   1.777   2.886 -0.9894  0.8828  0.4130
 7760SOL    HW234914   2.691   1.900   2.946  1.3266  1.2678  2.4198
 7761SOL     OW34915   2.045   3.806   6.564  0.2424  0.0290 -0.4044
 7761SOL    HW134916   1.980   3.863   6.524 -0.6125 -0.2635  0.5613
 7761SOL    HW234917   2.114   3.872   6.571  0.6347 -0.2048 -2.1913
 7762SOL     OW34918   2.537   0.384   4.246  0.0287 -0.4903 -0.5905
 7762SOL    HW134919   2.575   0.320   4.306  1.1563 -0.3289 -1.1421
 7762SOL    HW234920   2.622   0.418   4.220  0.3333 -0.9148 -0.1584
 7763SOL     OW34921   3.869   0.920   2.699  0.0241  0.3054 -0.2754
 7763SOL    HW134922   3.879   0.832   2.662  2.0092 -0.1856  1.4239
 7763SOL    HW234923   3.778   0.924   2.730 -0.6070 -2.4898 -1.8226
 7764SOL     OW34924   0.494   3.907  17.562  0.1319  0.0543  0.4087
 7764SOL    HW134925   0.538   3.989  17.543 -0.7485 -0.1526 -2.6714
 7764SOL    HW234926   0.417   3.924  17.507  0.5149 -0.3176 -0.2472
 7765SOL     OW34927   1.002   4.664   9.954 -0.2687  0.2920  0.0469
 7765SOL    HW134928   0.911   4.656   9.983  0.6507 -3.3089  1.9561
 7765SOL    HW234929   1.034   4.574   9.966  1.7870  1.2484  1.6565
 7766SOL     OW34930   2.581   1.298   3.168 -0.1359  0.1691 -0.2911
 7766SOL    HW134931   2.548   1.388   3.176  1.6043  0.7905  0.0200
 7766SOL    HW234932   2.558   1.289   3.076 -0.8132  0.6780 -0.1763
 7767SOL     OW34933   3.704   3.848   5.776 -0.0501 -0.3212  0.2215
 7767SOL    HW134934   3.776   3.866   5.837 -0.2755 -0.0642  0.4081
 7767SOL    HW234935   3.627   3.863   5.830 -1.2683 -0.4858 -1.4918
 7768SOL     OW34936   2.707   1.584   3.330 -0.5861  0.3784 -0.2406
 7768SOL    HW134937   2.661   1.577   3.246 -2.1139 -0.3550  0.6705
 7768SOL    HW234938   2.799   1.586   3.302 -0.4299 -0.3143  0.2109
 7769SOL     OW34939   3.152   2.992   2.559 -0.8914  0.0787  0.2833
 7769SOL    HW134940   3.152   2.979   2.465 -1.2860  0.7107  0.1918
 7769SOL    HW234941   3.228   3.050   2.573 -3.0122  2.7851  0.5717
 7770SOL     OW34942   1.291   2.338   5.594  0.3400  0.1123  0.3656
 7770SOL    HW134943   1.338   2.375   5.519  1.0527  0.9244  1.2208
 7770SOL    HW234944   1.297   2.243   5.583  0.8735  0.0460  1.2868
 7771SOL     OW34945   2.138   4.512   5.717  0.2864  0.4025  0.2235
 7771SOL    HW134946   2.084   4.486   5.643 -0.1557  0.4214  0.5431
 7771SOL    HW234947   2.083   4.581   5.752 -1.6314 -1.5690  1.0692
 7772SOL     OW34948   1.046   3.306   4.892  0.2045  0.6419 -0.4455
 7772SOL    HW134949   1.095   3.378   4.933  1.4446 -0.7509  0.5402
 7772SOL    HW234950   1.115   3.241   4.903 -1.1807 -0.4550  1.9021
 7773SOL     OW34951   2.365   4.028   8.234 -0.6048  0.2376 -0.3607
 7773SOL    HW134952   2.460   4.024   8.224 -0.6675 -1.2316 -0.3428
 7773SOL    HW234953   2.343   3.935   8.235 -2.6274  0.7192  1.1048
 7774SOL     OW34954   3.357   0.213   3.882  0.5951 -0.4528 -0.1993
 7774SOL    HW134955   3.275   0.218   3.834  0.0325 -1.0689  0.7074
 7774SOL    HW234956   3.355   0.121   3.909  1.0650 -0.5185 -0.3844
 7775SOL     OW34957   2.253   0.083  13.149  0.2208 -0.5633 -0.0461
 7775SOL    HW134958   2.189   0.028  13.195  1.1869 -0.9949  0.7623
 7775SOL    HW234959   2.290   0.028  13.080  1.0351  0.7928 -0.6845
 7776SOL     OW34960   0.411   1.428   9.602 -0.5155  1.5377  0.2834
 7776SOL    HW134961   0.498   1.463   9.621  0.0929  0.8302 -1.1736
 7776SOL    HW234962   0.391   1.480   9.524 -0.2284 -0.0371 -0.8563
 7777SOL     OW34963   0.307   0.383  16.677 -0.0493 -0.0690  0.0322
 7777SOL    HW134964   0.394   0.419  16.694  0.3303 -0.0799 -1.9462
 7777SOL    HW234965   0.258   0.446  16.625 -1.3936 -1.1686 -0.0198
 7778SOL     OW34966   3.659   4.377   2.571 -0.2087 -0.3386 -0.4769
 7778SOL    HW134967   3.571   4.371   2.535  0.5196 -0.3815 -2.2292
 7778SOL    HW234968   3.657   4.464   2.613  1.6795 -1.0894  1.1843
 7779SOL     OW34969   4.357   1.878   4.621  0.0422  0.6928  0.7167
 7779SOL    HW134970   4.277   1.908   4.666 -1.0636 -0.1561 -0.6803
 7779SOL    HW234971   4.325   1.814   4.558  0.3596  1.4576 -0.2242
 7780SOL     OW34972   2.123   3.666   5.784  0.0600 -0.2291 -0.0288
 7780SOL    HW134973   2.030   3.651   5.769 -0.0746  0.8148 -0.2385
 7780SOL    HW234974   2.118   3.678   5.879  0.3808 -0.5421  0.0283
 7781SOL     OW34975   1.598   0.097  12.850  0.3589  0.1395 -0.2685
 7781SOL    HW134976   1.643   0.138  12.924 -0.1058 -0.7807  0.5270
 7781SOL    HW234977   1.570   0.173  12.798 -0.3145 -0.2461 -0.4696
 7782SOL     OW34978   1.552   3.550   3.963 -0.0160 -0.0134 -0.5416
 7782SOL    HW134979   1.471   3.499   3.971  0.3017 -0.5509 -0.7227
 7782SOL    HW234980   1.569   3.581   4.051  0.4356  1.6225 -1.2032
 7783SOL     OW34981   4.586   0.230   4.864  0.3335  0.1968  0.4736
 7783SOL    HW134982   4.609   0.307   4.811  0.6774  0.4853  1.0352
 7783SOL    HW234983   4.492   0.231   4.850  0.4513 -0.7952 -0.4267
 7784SOL     OW34984   4.621   2.343   4.167  0.6769 -0.4007 -0.0977
 7784SOL    HW134985   4.706   2.340   4.209  0.0338 -0.4484  1.2093
 7784SOL    HW234986   4.583   2.258   4.189 -0.1450  0.4232  1.6783
 7785SOL     OW34987   3.411   1.683  15.813 -0.2939  0.4034 -0.5883
 7785SOL    HW134988   3.481   1.725  15.763  0.9822  0.7174  1.4663
 7785SOL    HW234989   3.395   1.756  15.872 -1.2087  0.0456 -0.3966
 7786SOL     OW34990   0.728   2.974  16.972 -0.8421 -0.2974  0.4238
 7786SOL    HW134991   0.646   2.946  17.012  0.4399 -3.3940  0.8985
 7786SOL    HW234992   0.751   2.894  16.925  1.4716  0.2868  0.5627
 7787SOL     OW34993   3.347   0.889   7.362  0.5467  0.0246  0.1866
 7787SOL    HW134994   3.259   0.916   7.389  0.5897 -0.9436  1.2754
 7787SOL    HW234995   3.356   0.933   7.278  0.6003  0.9425  0.6687
 7788SOL     OW34996   0.940   1.810   6.652 -0.0597 -0.1072  0.2741
 7788SOL    HW134997   0.982   1.735   6.611 -0.1463 -1.3556  2.4825
 7788SOL    HW234998   0.859   1.810   6.602 -0.7730 -2.5735  1.4186
 7789SOL     OW34999   4.634   3.974   4.571 -0.0190  0.2298  0.3257
 7789SOL    HW135000   4.616   3.898   4.515 -0.5094  0.3427  0.3259
 7789SOL    HW235001   4.551   4.020   4.565 -0.1500  0.2392  2.3350
 7790SOL     OW35002   2.664   0.421  16.869  0.3041  0.1109  0.2555
 7790SOL    HW135003   2.608   0.497  16.854  1.5881  1.3288  1.6052
 7790SOL    HW235004   2.750   0.462  16.872  0.6994 -0.7676  1.0674
 7791SOL     OW35005   0.025   0.264  15.125 -0.3074  0.5916  0.5419
 7791SOL    HW135006   0.087   0.201  15.162 -1.0713 -1.0982 -1.0333
 7791SOL    HW235007   4.725   0.303  15.205 -0.7036 -0.1452  0.7238
 7792SOL     OW35008   1.427   1.770   6.015 -0.6524  0.4830  0.0077
 7792SOL    HW135009   1.447   1.734   5.928  0.5450  1.7520 -0.2505
 7792SOL    HW235010   1.352   1.716   6.038 -1.5304  0.4621 -2.8896
 7793SOL     OW35011   3.151   0.191   3.724  0.3211 -0.1864  0.0976
 7793SOL    HW135012   3.079   0.137   3.755  0.4239 -0.5562 -0.3143
 7793SOL    HW235013   3.167   0.163   3.634  0.7351  2.0666 -0.5497
 7794SOL     OW35014   3.166   3.503   9.179  0.2780 -0.0662 -0.0736
 7794SOL    HW135015   3.149   3.429   9.237  0.3013  3.1858  4.0603
 7794SOL    HW235016   3.124   3.573   9.229  0.6369  0.3375 -0.3399
 7795SOL     OW35017   1.890   3.957  10.367 -0.3128  0.5247 -0.0409
 7795SOL    HW135018   1.813   3.972  10.422 -0.5084 -2.0685  0.3965
 7795SOL    HW235019   1.942   3.930  10.442 -0.5328 -0.1679 -0.1366
 7796SOL     OW35020   3.317   4.727   7.602  0.2750  0.1907 -0.1911
 7796SOL    HW135021   3.391   4.674   7.573  0.9547  0.2704  1.4542
 7796SOL    HW235022   3.346   0.060   7.541 -0.1995  0.7195  0.1782
 7797SOL     OW35023   4.368   0.412  11.986  0.4662 -0.6075 -0.2948
 7797SOL    HW135024   4.345   0.384  12.075  0.3698  0.3516 -0.0173
 7797SOL    HW235025   4.384   0.505  12.002  0.6829 -0.5758 -0.6933
 7798SOL     OW35026   0.242   4.274   9.603 -0.0794  0.5240  0.0422
 7798SOL    HW135027   0.311   4.317   9.652  1.0235  0.8365 -1.8022
 7798SOL    HW235028   0.169   4.332   9.627 -0.9668  0.1702 -1.7905
 7799SOL     OW35029   3.062   0.514   5.646 -0.0362 -0.4534 -0.1537
 7799SOL    HW135030   2.969   0.511   5.627 -0.7262 -0.9065  3.3130
 7799SOL    HW235031   3.100   0.524   5.559 -1.6317 -0.2090 -0.8120
 7800SOL     OW35032   2.656   2.070   2.035  0.4332 -0.3088  0.1361
 7800SOL    HW135033   2.606   2.094   1.957  0.7214 -1.3993 -0.3757
 7800SOL    HW235034   2.728   2.017   2.002 -0.1728  0.8016 -2.9784
 7801SOL     OW35035   3.775   4.280  10.104 -0.2363  0.1773  0.1188
 7801SOL    HW135036   3.775   4.371  10.134  1.1269  0.6764 -1.4055
 7801SOL    HW235037   3.681   4.270  10.088  0.2348 -2.8040 -0.7142
 7802SOL     OW35038   3.098   3.721   9.322  0.0847  0.0098 -0.0499
 7802SOL    HW135039   3.054   3.678   9.395  1.5927  0.0087  0.8677
 7802SOL    HW235040   3.039   3.792   9.299  0.6312 -0.0000 -1.5017
 7803SOL     OW35041   0.060   1.523   8.195  0.1457  0.0371  0.1290
 7803SOL    HW135042   4.710   1.563   8.182 -0.4005 -1.0912  0.2492
 7803SOL    HW235043   0.108   1.601   8.223  1.1440 -0.5226 -0.0243
 7804SOL     OW35044   0.166   0.541   5.784 -0.0184 -0.1626 -0.1515
 7804SOL    HW135045   0.252   0.577   5.808  0.8945 -1.2024 -1.8375
 7804SOL    HW235046   0.145   0.479   5.854 -0.7176 -1.2812 -1.3448
 7805SOL     OW35047   4.558   4.475   7.208 -0.4166 -0.5411  0.1785
 7805SOL    HW135048   4.510   4.498   7.288  2.4196  0.5542  1.5703
 7805SOL    HW235049   4.580   4.547   7.150  2.2352 -0.7914  0.8888
 7806SOL     OW35050   0.163   0.198   6.313 -0.5991  0.5383  0.1858
 7806SOL    HW135051   0.255   0.222   6.303 -0.5130 -0.0726 -0.5188
 7806SOL    HW235052   0.147   0.212   6.406 -0.7258 -2.3923  0.6084
 7807SOL     OW35053   4.137   0.260  11.163 -0.1264  0.4019 -0.7357
 7807SOL    HW135054   4.122   0.221  11.249  1.1175 -0.1113 -0.7602
 7807SOL    HW235055   4.049   0.285  11.134 -0.0644 -0.5673 -1.7557
 7808SOL     OW35056   2.729   2.526   7.934 -0.1489 -0.2908  0.1526
 7808SOL    HW135057   2.749   2.494   8.023 -0.8279  1.4384  0.9161
 7808SOL    HW235058   2.798   2.484   7.883 -0.9382 -1.4484  0.0372
 7809SOL     OW35059   4.471   0.242   8.642  0.0280 -0.3749  0.3638
 7809SOL    HW135060   4.528   0.252   8.566 -1.8083 -1.9869 -1.2111
 7809SOL    HW235061   4.501   0.319   8.692 -2.8438 -0.3286  2.0510
 7810SOL     OW35062   1.966   1.306   1.673  0.2774  0.3432 -0.4224
 7810SOL    HW135063   2.012   1.244   1.729 -0.7210  1.3986  1.5618
 7810SOL    HW235064   2.028   1.379   1.665  0.3237  0.1685 -1.6906
 7811SOL     OW35065   2.803   3.167   7.322  0.2474 -0.3577 -0.4870
 7811SOL    HW135066   2.891   3.167   7.284  0.5897 -1.3821  0.3243
 7811SOL    HW235067   2.820   3.145   7.413 -2.5246 -0.5756 -0.0043
 7812SOL     OW35068   3.567   0.343  11.354  0.2710 -0.7199  0.0040
 7812SOL    HW135069   3.560   0.313  11.445 -0.7036  0.2690  0.2619
 7812SOL    HW235070   3.649   0.298  11.333 -0.6372 -2.1915 -0.4531
 7813SOL     OW35071   1.945   1.298   3.381 -0.1969 -0.6818 -0.2528
 7813SOL    HW135072   1.866   1.276   3.430 -0.2190 -3.3179 -1.4675
 7813SOL    HW235073   1.905   1.341   3.305  2.1306 -0.9230 -1.6249
 7814SOL     OW35074   1.263   2.226  13.636 -0.1947  0.2244  0.0640
 7814SOL    HW135075   1.339   2.190  13.681  1.0944 -0.3491 -2.5377
 7814SOL    HW235076   1.263   2.177  13.554 -2.5178  0.1378  0.1196
 7815SOL     OW35077   3.394   4.232  10.693 -0.1029  0.3307 -0.0333
 7815SOL    HW135078   3.454   4.214  10.621  1.3776  0.9768  1.0439
 7815SOL    HW235079   3.364   4.142  10.706 -0.5221  0.4465 -0.2141
 7816SOL     OW35080   2.463   1.706  13.933 -0.2025  0.1408 -0.0285
 7816SOL    HW135081   2.467   1.686  14.026  0.2814 -0.9554 -0.2803
 7816SOL    HW235082   2.541   1.658  13.903 -0.7714 -0.3959 -0.6499
 7817SOL     OW35083   3.901   1.063   3.034 -0.0343  0.2425  0.3749
 7817SOL    HW135084   3.942   1.050   2.949  0.2373 -1.3623  0.7369
 7817SOL    HW235085   3.934   1.143   3.075 -0.7132  0.7708 -0.1081
 7818SOL     OW35086   2.206   1.415  17.617 -0.2614  0.1547 -0.0088
 7818SOL    HW135087   2.231   1.464  17.539  1.6655 -0.0807  0.4757
 7818SOL    HW235088   2.287   1.369  17.640  0.5236  0.4534 -2.1389
 7819SOL     OW35089   2.312   4.294   3.207  0.0854 -0.4131 -0.3540
 7819SOL    HW135090   2.347   4.375   3.243  1.7826 -0.0744 -2.7682
 7819SOL    HW235091   2.326   4.238   3.284  0.8159 -4.2677 -3.2811
 7820SOL     OW35092   2.161   3.619   4.822  0.1724  0.0205  0.7341
 7820SOL    HW135093   2.116   3.618   4.907  1.3283  2.8542  1.3739
 7820SOL    HW235094   2.127   3.695   4.775 -0.3746 -0.3887  0.4673
 7821SOL     OW35095   0.622   0.496   6.941 -0.3228 -0.3976  0.0724
 7821SOL    HW135096   0.544   0.443   6.958  1.4653 -2.2870  2.4292
 7821SOL    HW235097   0.615   0.518   6.849  0.9336  0.5645  0.1983
 7822SOL     OW35098   3.760   0.305   8.000 -0.0637 -0.5844 -0.1715
 7822SOL    HW135099   3.797   0.284   7.914  0.2460  1.2450 -0.4867
 7822SOL    HW235100   3.686   0.244   8.008 -1.6368  1.4653  0.8523
 7823SOL     OW35101   4.244   1.538   1.702 -0.0948 -0.4172  0.3054
 7823SOL    HW135102   4.174   1.551   1.638  0.0952 -1.1752 -0.0529
 7823SOL    HW235103   4.199   1.477   1.761 -0.0254 -0.4833  0.2908
 7824SOL     OW35104   3.651   2.493   1.649 -0.2227  0.3327  0.2161
 7824SOL    HW135105   3.596   2.534   1.716 -2.1335 -2.1344  0.1223
 7824SOL    HW235106   3.705   2.566   1.616  0.4663 -0.6150 -0.7576
 7825SOL     OW35107   1.756   1.039  10.618 -0.5964 -0.2175  0.2918
 7825SOL    HW135108   1.675   1.074  10.583  0.2204 -1.2210 -2.6155
 7825SOL    HW235109   1.728   0.986  10.693 -0.7497 -1.6097 -0.7476
 7826SOL     OW35110   2.997   0.008   4.801  0.1269 -0.2180 -0.1227
 7826SOL    HW135111   3.019   4.676   4.865  0.2165 -0.2439 -0.1816
 7826SOL    HW235112   2.921   4.699   4.762 -0.3556 -0.4064  1.0185
 7827SOL     OW35113   1.005   0.276   5.734  0.0165 -0.2577  0.1461
 7827SOL    HW135114   1.075   0.227   5.691  0.1132 -0.7431  0.8547
 7827SOL    HW235115   0.947   0.208   5.767 -1.4432  0.6558 -0.5515
 7828SOL     OW35116   2.613   0.383   8.770 -0.4023  0.0574 -0.3045
 7828SOL    HW135117   2.686   0.417   8.822 -0.3275  1.0132 -1.0446
 7828SOL    HW235118   2.595   0.456   8.711 -0.5506  1.0743  1.0008
 7829SOL     OW35119   1.104   0.900  14.875 -0.0393  0.0304 -0.0535
 7829SOL    HW135120   1.071   0.986  14.848 -1.4899 -0.5608 -0.1454
 7829SOL    HW235121   1.158   0.928  14.949  0.5255  2.2835 -1.3305
 7830SOL     OW35122   1.236   3.433   8.586  0.2047 -0.5463 -0.2683
 7830SOL    HW135123   1.291   3.435   8.665  0.0755  1.1022 -0.2238
 7830SOL    HW235124   1.183   3.354   8.599  2.1715 -1.4221  2.4649
 7831SOL     OW35125   2.592   3.092   5.446  0.7406  0.5697  0.4705
 7831SOL    HW135126   2.553   3.098   5.359 -0.3757 -0.0789  0.9251
 7831SOL    HW235127   2.562   3.004   5.467  1.8580 -0.4683 -2.2922
 7832SOL     OW35128   2.048   4.572   5.390 -0.5418  0.9110 -0.3277
 7832SOL    HW135129   2.127   4.519   5.379 -1.0371  0.1569 -0.3371
 7832SOL    HW235130   2.093   4.649   5.423 -2.9096  1.3602  1.8367
 7833SOL     OW35131   0.495   1.231  12.462 -1.1134 -0.6581  0.0290
 7833SOL    HW135132   0.589   1.233  12.440 -1.2325  0.2483 -0.3835
 7833SOL    HW235133   0.477   1.139  12.444 -2.8757  0.0271 -1.6656
 7834SOL     OW35134   1.412   1.472   8.485 -0.5178  0.4417  0.1038
 7834SOL    HW135135   1.366   1.492   8.404  0.3215  0.8880 -0.2631
 7834SOL    HW235136   1.455   1.387   8.481  0.5297  0.9902 -0.1953
 7835SOL     OW35137   1.934   0.172   5.439  0.1464  0.8688  0.4191
 7835SOL    HW135138   1.969   0.164   5.351 -0.8641 -0.7445  0.1730
 7835SOL    HW235139   1.856   0.224   5.420 -0.4663  0.1521  0.9860
 7836SOL     OW35140   3.203   0.004   6.465  0.4192  0.2231  0.2136
 7836SOL    HW135141   3.238   4.652   6.450 -0.0975 -0.2689  1.8717
 7836SOL    HW235142   3.144   4.725   6.538  0.4344  0.1350  0.2086
 7837SOL     OW35143   1.189   3.838   3.650 -0.0262 -0.9465  0.4704
 7837SOL    HW135144   1.255   3.790   3.701 -1.7114 -2.3866  1.2983
 7837SOL    HW235145   1.108   3.816   3.696 -1.0920  0.7028 -0.6455
 7838SOL     OW35146   3.912   1.284   5.454 -0.7682 -0.4120  0.1159
 7838SOL    HW135147   3.865   1.201   5.455 -1.2094 -0.1934 -1.9344
 7838SOL    HW235148   3.850   1.331   5.399 -1.1533 -1.4303 -0.3234
 7839SOL     OW35149   1.081   2.341   9.279 -0.0896 -0.3666 -0.2371
 7839SOL    HW135150   1.056   2.353   9.187 -0.2762 -2.0608 -0.4054
 7839SOL    HW235151   1.033   2.416   9.313  1.5314  0.4274  0.3228
 7840SOL     OW35152   0.094   1.034  11.455 -0.4374  0.4707 -0.0105
 7840SOL    HW135153   0.057   0.978  11.524 -1.9939 -1.6521 -2.5713
 7840SOL    HW235154   0.132   0.978  11.387 -0.3869 -0.8778  1.1173
 7841SOL     OW35155   4.514   2.147  15.124 -0.2858 -0.5998 -0.2642
 7841SOL    HW135156   4.465   2.067  15.142 -2.0366  0.1840 -1.5123
 7841SOL    HW235157   4.529   2.189  15.208 -1.3831 -1.0426  0.1502
 7842SOL     OW35158   1.502   3.993   6.653 -0.4407 -0.1882 -0.1641
 7842SOL    HW135159   1.543   4.027   6.574  0.7326  1.2331  1.0448
 7842SOL    HW235160   1.456   4.067   6.692 -0.4111  0.4210 -1.3054
 7843SOL     OW35161   4.537   0.981   3.517  0.1710  0.0958 -0.3914
 7843SOL    HW135162   4.450   0.954   3.487 -0.3737  1.0147  0.3612
 7843SOL    HW235163   4.523   1.066   3.559 -0.8954 -0.2288 -0.1044
 7844SOL     OW35164   4.348   1.562   3.822 -0.1352  0.2677  0.7199
 7844SOL    HW135165   4.301   1.628   3.771 -0.1447 -0.4377 -0.1782
 7844SOL    HW235166   4.287   1.552   3.895 -1.0750  2.5772  0.2732
 7845SOL     OW35167   2.509   3.224   1.907 -0.0620 -0.2162 -0.8991
 7845SOL    HW135168   2.444   3.266   1.963  0.3600 -0.4624 -0.2210
 7845SOL    HW235169   2.573   3.295   1.912  0.7523 -0.9261 -1.3871
 7846SOL     OW35170   3.763   1.023   3.335 -0.3115 -0.0545 -0.0370
 7846SOL    HW135171   3.760   0.959   3.264 -0.4961  0.0999 -0.1698
 7846SOL    HW235172   3.737   0.964   3.405  1.3488 -1.8047 -0.9093
 7847SOL     OW35173   2.000   3.759  17.252 -0.3025 -0.0122  0.1098
 7847SOL    HW135174   2.019   3.849  17.226  2.0377 -0.4492  0.3034
 7847SOL    HW235175   1.928   3.726  17.198 -0.0463 -1.5615  0.7115
 7848SOL     OW35176   3.647   4.218   3.539 -0.0672  0.0317 -0.2113
 7848SOL    HW135177   3.637   4.162   3.462 -0.6899 -2.8296  1.9601
 7848SOL    HW235178   3.672   4.148   3.601 -0.6258  0.6018  0.6600
 7849SOL     OW35179   1.906   0.303  14.075 -0.2755  0.0374 -0.2211
 7849SOL    HW135180   1.993   0.308  14.035 -0.8754  2.0193 -1.2697
 7849SOL    HW235181   1.872   0.385  14.038 -0.5383  0.3008  0.6170
 7850SOL     OW35182   0.967   1.046  17.482 -0.1775 -0.7511 -0.0767
 7850SOL    HW135183   1.010   1.026  17.399  0.7542 -1.7238  0.6277
 7850SOL    HW235184   0.886   0.996  17.470  0.1834 -1.9322  2.2759
 7851SOL     OW35185   1.689   3.455   1.303 -0.2374  0.0373 -0.0671
 7851SOL    HW135186   1.733   3.494   1.379  0.5062 -0.8879 -0.0236
 7851SOL    HW235187   1.708   3.521   1.237 -0.9445  0.3948  0.0816
 7852SOL     OW35188   2.489   1.866   5.851  0.3342 -0.1726  0.4007
 7852SOL    HW135189   2.527   1.854   5.938  2.8342  1.1799 -0.5232
 7852SOL    HW235190   2.405   1.820   5.862 -0.1480  0.6430  0.0708
 7853SOL     OW35191   3.790   1.317   1.811  0.7874  0.3567  0.3112
 7853SOL    HW135192   3.808   1.403   1.846  1.0180  0.5155 -0.1982
 7853SOL    HW235193   3.782   1.345   1.720  1.2263 -2.0895 -0.4928
 7854SOL     OW35194   3.034   2.234   5.316  0.4154 -0.7939 -0.2617
 7854SOL    HW135195   3.055   2.313   5.364  0.0727  0.7969 -2.7093
 7854SOL    HW235196   3.001   2.274   5.235 -0.9256 -0.3048  0.5333
 7855SOL     OW35197   4.125   2.983  10.070  0.1316  0.0369  0.0117
 7855SOL    HW135198   4.139   2.924  10.144 -1.5072 -0.9673 -0.4628
 7855SOL    HW235199   4.190   2.951  10.008  0.6621  0.7229  0.2248
 7856SOL     OW35200   4.417   1.296   7.471  0.2089  0.0672  0.1269
 7856SOL    HW135201   4.346   1.360   7.483  0.3637  0.0793  0.9546
 7856SOL    HW235202   4.477   1.330   7.538 -1.1210  0.7271  0.9808
 7857SOL     OW35203   3.495   0.339   8.289 -0.5134  0.2867  0.1120
 7857SOL    HW135204   3.515   0.389   8.368  0.7243  0.1217 -0.0925
 7857SOL    HW235205   3.521   0.400   8.220  0.9234  1.5166  1.7358
 7858SOL     OW35206   0.475   3.551   8.768 -0.1479 -1.0430  1.0027
 7858SOL    HW135207   0.568   3.570   8.757 -0.1466 -1.7815 -0.2507
 7858SOL    HW235208   0.496   3.459   8.754 -2.4602 -1.2424 -1.1909
 7859SOL     OW35209   4.246   0.809   5.522  0.6697 -0.0093 -0.1980
 7859SOL    HW135210   4.274   0.883   5.467  1.5824  0.1412  0.4576
 7859SOL    HW235211   4.333   0.770   5.533  1.5132  1.8034 -0.3998
 7860SOL     OW35212   0.103   3.599   4.505 -0.1043 -0.0777  0.1469
 7860SOL    HW135213   0.080   3.508   4.485  0.9452 -0.4821  0.7906
 7860SOL    HW235214   0.151   3.630   4.428 -0.8541  0.4559 -0.1146
 7861SOL     OW35215   0.698   3.813   9.392  0.2867 -0.3186 -0.2581
 7861SOL    HW135216   0.632   3.868   9.349  2.2684  3.0300  1.0332
 7861SOL    HW235217   0.663   3.817   9.481 -0.8598  0.9767 -0.7472
 7862SOL     OW35218   4.696   2.581   6.806  0.1767  0.5246  0.0251
 7862SOL    HW135219   4.672   2.671   6.829  0.7043  0.9157 -0.9377
 7862SOL    HW235220   4.654   2.526   6.872 -0.7831 -1.8903 -2.5897
 7863SOL     OW35221   1.009   2.793   2.290 -0.0542 -0.4025  0.2472
 7863SOL    HW135222   0.939   2.741   2.251 -1.8513  3.0359 -1.1081
 7863SOL    HW235223   1.080   2.731   2.273  1.0874  1.4662 -1.7048
 7864SOL     OW35224   0.939   3.738  12.768  0.0914  0.0274  0.5228
 7864SOL    HW135225   0.989   3.819  12.777 -1.7515  1.3905 -1.7203
 7864SOL    HW235226   1.002   3.705  12.704  1.1799  1.4617  0.8505
 7865SOL     OW35227   2.033   2.615   2.863  0.1689  0.0632  0.2632
 7865SOL    HW135228   2.065   2.690   2.913 -1.9903  0.4918  0.9785
 7865SOL    HW235229   2.094   2.549   2.897 -0.3014  0.3286  1.6040
 7866SOL     OW35230   3.192   3.015  12.357  0.0654  0.1666  0.0081
 7866SOL    HW135231   3.275   3.001  12.312 -0.9637  1.2811 -2.2345
 7866SOL    HW235232   3.228   2.988  12.441 -1.4595 -0.4143  0.4728
 7867SOL     OW35233   1.879   1.971   7.522  0.0645  0.8261 -0.1667
 7867SOL    HW135234   1.787   1.951   7.507 -0.1402  0.4903  1.4592
 7867SOL    HW235235   1.887   2.060   7.490 -0.2970  1.2173  0.8162
 7868SOL     OW35236   3.801   4.630   0.145  0.5395  0.0690  0.2333
 7868SOL    HW135237   3.728   4.569   0.156  1.9007 -1.3645  1.2968
 7868SOL    HW235238   3.865   4.570   0.105 -0.0504 -1.5249  1.6804
 7869SOL     OW35239   1.489   1.320   4.490  0.0521  0.0180 -0.3025
 7869SOL    HW135240   1.557   1.375   4.451  2.1452 -1.3007  1.4788
 7869SOL    HW235241   1.515   1.233   4.458 -0.1040 -0.2332  0.2667
 7870SOL     OW35242   4.390   4.069  13.819  0.2535 -0.3489 -0.5575
 7870SOL    HW135243   4.436   4.152  13.807 -0.2605  0.0465  0.1896
 7870SOL    HW235244   4.364   4.049  13.729 -3.7878  1.3298  0.2153
 7871SOL     OW35245   0.263   3.318  14.955 -0.5088  0.3738  0.2480
 7871SOL    HW135246   0.240   3.349  15.042  1.3643 -0.5932  1.0728
 7871SOL    HW235247   0.188   3.261  14.937  0.3503 -0.7023  0.0664
 7872SOL     OW35248   1.837   3.564   4.846  0.5183 -0.0164 -0.1292
 7872SOL    HW135249   1.825   3.659   4.841  1.1539  0.1580  1.7955
 7872SOL    HW235250   1.809   3.545   4.936  0.5600  2.4212  0.4006
 7873SOL     OW35251   3.594   0.510  12.266  0.0728  0.1907 -0.4375
 7873SOL    HW135252   3.658   0.441  12.282 -3.5068 -2.6136  1.9298
 7873SOL    HW235253   3.548   0.508  12.350  0.8460  0.0345 -0.0201
 7874SOL     OW35254   2.926   0.687   2.585  0.2299  0.5042  0.0018
 7874SOL    HW135255   2.832   0.677   2.578  0.3431 -0.4388 -0.0910
 7874SOL    HW235256   2.970   0.622   2.530  0.3936  0.7877 -0.2054
 7875SOL     OW35257   3.072   3.810   7.405  0.0988  0.5103 -0.1942
 7875SOL    HW135258   3.089   3.904   7.407  0.1773  0.5027 -0.4786
 7875SOL    HW235259   2.993   3.797   7.352  1.2984  0.0498 -1.9056
 7876SOL     OW35260   3.382   2.834   7.118  0.0143  0.1294  0.2341
 7876SOL    HW135261   3.311   2.783   7.158  0.0896 -1.2733 -1.4200
 7876SOL    HW235262   3.400   2.887   7.196 -1.7121  0.2683  0.5388
 7877SOL     OW35263   3.827   3.569  15.133  0.1665  0.0120 -0.0786
 7877SOL    HW135264   3.905   3.610  15.097  1.5548 -0.9002  1.8708
 7877SOL    HW235265   3.774   3.551  15.055 -0.5952  0.9538  0.2285
 7878SOL     OW35266   0.048   1.550   7.338  0.2446  0.3522  0.7038
 7878SOL    HW135267   0.141   1.547   7.361  0.5364  1.1992 -0.3549
 7878SOL    HW235268   0.021   1.462   7.365  0.8813  1.2738  4.2982
 7879SOL     OW35269   1.236   4.524   6.592  0.5018  0.2229  0.1550
 7879SOL    HW135270   1.308   4.511   6.530  0.6487  0.2576  0.3177
 7879SOL    HW235271   1.281   4.548   6.673  1.5221 -1.2510  0.0370
 7880SOL     OW35272   2.409   0.457   9.389  0.0896 -0.1785 -0.6171
 7880SOL    HW135273   2.466   0.532   9.377  0.6561 -0.1983  2.0017
 7880SOL    HW235274   2.427   0.436   9.481 -0.2114 -1.3830 -0.8295
 7881SOL     OW35275   2.954   1.543  12.525 -0.8871  0.2731  0.1759
 7881SOL    HW135276   2.962   1.454  12.492 -0.4836  0.2746  0.2761
 7881SOL    HW235277   2.880   1.529  12.585 -1.6832 -0.0803 -0.8805
 7882SOL     OW35278   3.642   1.676   4.065 -0.8551  0.1354  0.5225
 7882SOL    HW135279   3.610   1.597   4.110  0.5470 -0.8645 -0.2269
 7882SOL    HW235280   3.626   1.652   3.974  1.3897 -0.3959  0.2711
 7883SOL     OW35281   0.358   3.617  12.276 -0.4146  0.3722 -0.2193
 7883SOL    HW135282   0.397   3.636  12.190  1.4889 -1.5894  0.2030
 7883SOL    HW235283   0.275   3.574  12.255 -1.8431  1.6164  3.0328
 7884SOL     OW35284   2.367   0.021   9.914 -0.2805  0.4295 -0.0815
 7884SOL    HW135285   2.317   0.071   9.978  0.2666  0.8164  0.0447
 7884SOL    HW235286   2.308   4.700   9.865 -0.1560 -0.1745  0.4555
 7885SOL     OW35287   0.565   2.135  17.473 -0.4010  0.3714  0.1047
 7885SOL    HW135288   0.604   2.178  17.397  1.8488 -2.6821 -0.4372
 7885SOL    HW235289   0.647   2.130  17.523 -0.6248  0.7731  0.5132
 7886SOL     OW35290   2.833   0.242   1.555 -0.1352 -0.1554 -0.0779
 7886SOL    HW135291   2.780   0.270   1.480  0.8109  0.8525 -0.3630
 7886SOL    HW235292   2.771   0.194   1.610  0.0309 -0.9977 -0.6401
 7887SOL     OW35293   2.203   2.956   0.810 -0.2355 -0.1378 -0.5079
 7887SOL    HW135294   2.211   3.050   0.794 -2.1719  0.7025  3.3432
 7887SOL    HW235295   2.275   2.932   0.752 -1.2939 -4.5663  0.0401
 7888SOL     OW35296   1.253   0.152  12.078  0.4264  0.1558 -0.5393
 7888SOL    HW135297   1.345   0.179  12.083  1.2506 -2.4900 -0.9342
 7888SOL    HW235298   1.252   0.154  11.982  2.5940 -2.2000 -0.6139
 7889SOL     OW35299   2.089   4.020  16.383  0.2003 -0.3021  0.7219
 7889SOL    HW135300   1.994   4.021  16.391  0.0148 -2.0302 -1.1186
 7889SOL    HW235301   2.103   4.075  16.306 -1.0143 -1.8588 -0.6200
 7890SOL     OW35302   0.552   0.941  12.326 -0.0735  0.1896 -0.3121
 7890SOL    HW135303   0.555   0.892  12.243 -0.7923  0.7628 -0.6764
 7890SOL    HW235304   0.473   0.907  12.367  1.1707 -2.0958  0.1747
 7891SOL     OW35305   3.143   4.476   7.983 -0.0446 -0.3358  0.7769
 7891SOL    HW135306   3.188   4.559   7.994 -0.1065 -0.3485  1.1349
 7891SOL    HW235307   3.065   4.483   8.039 -1.1662 -1.9623 -0.5702
 7892SOL     OW35308   2.798   2.342   0.966 -0.0417 -0.1077 -0.2114
 7892SOL    HW135309   2.775   2.300   0.884 -0.0929  0.5874 -0.5515
 7892SOL    HW235310   2.813   2.431   0.935  0.7533  0.0113  0.5075
 7893SOL     OW35311   2.661   3.497   6.722 -0.0454  0.1186 -0.0411
 7893SOL    HW135312   2.586   3.555   6.734  0.7327  0.7344  1.8187
 7893SOL    HW235313   2.615   3.415   6.700  2.6300 -1.4707  0.3414
 7894SOL     OW35314   0.078   1.333  12.064  0.3187  1.2250  0.1403
 7894SOL    HW135315   0.097   1.383  11.985 -1.2286  2.2130  0.3951
 7894SOL    HW235316   0.168   1.318  12.094  0.6770  1.1169 -1.0027
 7895SOL     OW35317   4.089   0.740   6.958  0.1445 -0.2861 -0.4624
 7895SOL    HW135318   4.088   0.825   6.913  3.9289 -0.4266 -0.8365
 7895SOL    HW235319   4.102   0.763   7.050  2.2462  0.9773 -1.0770
 7896SOL     OW35320   0.153   4.302   1.741  0.2927 -0.1428  0.2197
 7896SOL    HW135321   0.163   4.293   1.646  0.9353  2.1125  0.0804
 7896SOL    HW235322   0.245   4.297   1.766  0.4630 -0.5309 -0.5051
 7897SOL     OW35323   1.733   1.015  11.935 -0.3681  1.2437  0.3209
 7897SOL    HW135324   1.786   1.090  11.960  0.5376  0.7980 -0.2631
 7897SOL    HW235325   1.716   1.024  11.841  3.3013  1.1194 -0.3447
 7898SOL     OW35326   3.772   1.703  17.609 -0.3538 -0.2916  1.0042
 7898SOL    HW135327   3.706   1.644  17.573  0.8358 -0.2650 -1.2318
 7898SOL    HW235328   3.790   1.770  17.543 -2.0141  1.4473  2.3062
 7899SOL     OW35329   2.988   4.228   7.607 -0.5002  0.1831 -0.0071
 7899SOL    HW135330   2.975   4.206   7.699  0.4679 -0.8186 -0.1090
 7899SOL    HW235331   2.968   4.322   7.609 -1.8060 -0.0954 -0.1349
 7900SOL     OW35332   3.207   3.556   6.304 -0.4275  0.2451  0.4831
 7900SOL    HW135333   3.215   3.501   6.382 -1.1850  0.8416  0.9792
 7900SOL    HW235334   3.299   3.584   6.299 -1.1409  2.3202 -0.8687
 7901SOL     OW35335   3.355   3.585   4.704  0.4558  0.7337  0.8943
 7901SOL    HW135336   3.432   3.639   4.721  2.5135 -1.3714 -1.7420
 7901SOL    HW235337   3.364   3.527   4.780 -0.6287 -0.4748  0.0837
 7902SOL     OW35338   1.482   4.137  10.401  0.1352 -0.1447 -0.1176
 7902SOL    HW135339   1.513   4.184  10.324 -1.9124 -1.9492 -2.0520
 7902SOL    HW235340   1.421   4.078  10.358 -0.1681 -0.2450  0.4398
 7903SOL     OW35341   1.558   0.103  17.545 -0.0903  0.9205  0.0994
 7903SOL    HW135342   1.593   0.035  17.603 -1.1291  0.1542 -0.1963
 7903SOL    HW235343   1.498   0.154  17.599 -0.1273 -1.3718  2.2272
 7904SOL     OW35344   4.733   1.239   5.335 -0.7311  0.0116  0.5668
 7904SOL    HW135345   4.679   1.299   5.284  1.9153  0.6460 -1.5014
 7904SOL    HW235346   4.713   1.265   5.425  1.7829  0.4722  0.9935
 7905SOL     OW35347   1.039   2.253   8.841 -0.7389 -0.0866 -0.3451
 7905SOL    HW135348   0.981   2.177   8.831 -0.8492  0.0054 -0.4135
 7905SOL    HW235349   1.125   2.213   8.827  1.5406  3.3603  3.9712
 7906SOL     OW35350   3.877   2.954  13.007 -0.1618  1.0660 -0.3440
 7906SOL    HW135351   3.816   2.881  13.017 -0.1864  0.8682 -1.9397
 7906SOL    HW235352   3.842   3.018  13.068  1.5583  1.2498  0.4451
 7907SOL     OW35353   3.454   3.323  17.300  0.2761  0.4765 -0.2385
 7907SOL    HW135354   3.409   3.287  17.377 -1.3557  0.6079 -1.1152
 7907SOL    HW235355   3.373   3.320  17.249  0.0907  0.4191  0.0572
 7908SOL     OW35356   4.411   4.157   8.750 -0.3327  0.1049 -0.3507
 7908SOL    HW135357   4.369   4.112   8.823 -0.6754 -0.0261 -0.6293
 7908SOL    HW235358   4.441   4.083   8.697  1.1005  0.7415 -0.4304
 7909SOL     OW35359   3.342   3.223   6.490  0.4932  0.6208  0.0701
 7909SOL    HW135360   3.358   3.175   6.571  0.2828 -1.2627 -1.0133
 7909SOL    HW235361   3.321   3.308   6.530 -1.2428 -0.1313  0.7341
 7910SOL     OW35362   2.131   4.269   4.444 -0.4502 -0.0324 -0.1943
 7910SOL    HW135363   2.133   4.234   4.532  1.0173  0.5398 -0.0041
 7910SOL    HW235364   2.041   4.259   4.411 -0.0558  0.7973 -1.5544
 7911SOL     OW35365   3.109   1.367   0.923  0.1910  0.0675 -0.0270
 7911SOL    HW135366   3.127   1.441   0.866  1.0059  0.6279  0.9586
 7911SOL    HW235367   3.160   1.304   0.872  1.1140  0.8209 -0.0336
 7912SOL     OW35368   1.180   1.616   6.556 -0.2810  0.1709  0.0342
 7912SOL    HW135369   1.183   1.670   6.477 -0.6807 -2.0826 -1.5112
 7912SOL    HW235370   1.224   1.535   6.531 -1.9941 -0.8750  0.4131
 7913SOL     OW35371   0.908   4.312  12.140  0.0013 -0.0928 -0.1952
 7913SOL    HW135372   0.971   4.274  12.201 -2.4047  0.6716  2.7302
 7913SOL    HW235373   0.850   4.353  12.204  0.5956  1.0579 -0.3932
 7914SOL     OW35374   3.710   1.324   8.126 -0.0460 -0.5671 -0.0742
 7914SOL    HW135375   3.753   1.261   8.068 -0.0337  0.6760 -1.4132
 7914SOL    HW235376   3.737   1.403   8.080 -2.0899  0.1650 -0.0014
 7915SOL     OW35377   1.673   2.171   0.274 -0.5224  0.4216  0.1858
 7915SOL    HW135378   1.610   2.147   0.206  1.7234  1.9391 -2.3936
 7915SOL    HW235379   1.712   2.086   0.293  0.0168  0.6831  0.2352
 7916SOL     OW35380   0.246   2.618   8.803  0.8820  0.2151 -0.1286
 7916SOL    HW135381   0.176   2.603   8.867  1.0396  0.7029  0.1629
 7916SOL    HW235382   0.194   2.655   8.731 -1.2065  0.4645  1.4879
 7917SOL     OW35383   1.355   0.408   3.131 -0.0480 -0.6213 -0.0044
 7917SOL    HW135384   1.294   0.471   3.093  0.2073 -0.3074  0.1133
 7917SOL    HW235385   1.421   0.464   3.171 -1.2356 -0.9789  2.4600
 7918SOL     OW35386   0.274   2.301   0.968 -0.4285  0.3215 -0.1204
 7918SOL    HW135387   0.184   2.330   0.950 -0.6626  1.6492  3.1349
 7918SOL    HW235388   0.266   2.236   1.037  1.5106  0.1783 -0.0378
 7919SOL     OW35389   1.551   1.800  17.136  0.1005  0.0244  0.9452
 7919SOL    HW135390   1.618   1.734  17.121 -0.6651 -0.7387  0.8410
 7919SOL    HW235391   1.605   1.870  17.173  0.1535  0.3247  0.3120
 7920SOL     OW35392   4.456   1.148   2.501 -0.3225 -0.2506  0.5568
 7920SOL    HW135393   4.370   1.121   2.470  0.9093 -1.0665 -2.2018
 7920SOL    HW235394   4.479   1.080   2.564  1.9358 -0.4264 -0.4393
 7921SOL     OW35395   3.397   2.537   3.818  0.7002 -0.8236  0.5123
 7921SOL    HW135396   3.387   2.480   3.742 -0.5847  0.9164 -0.6197
 7921SOL    HW235397   3.306   2.557   3.837  0.7741 -1.0884  1.1511
 7922SOL     OW35398   3.394   0.374  16.716 -0.1848  0.3738  0.2750
 7922SOL    HW135399   3.423   0.425  16.791 -1.6490 -1.5994  2.2125
 7922SOL    HW235400   3.432   0.290  16.743 -0.2720  0.6098  1.1379
 7923SOL     OW35401   0.234   1.790   4.269  0.0921  0.4991  0.1742
 7923SOL    HW135402   0.175   1.737   4.215 -0.0119 -0.3846  1.1512
 7923SOL    HW235403   0.219   1.877   4.232  0.0807 -0.0391 -1.1009
 7924SOL     OW35404   1.556   1.462   4.236 -0.6989  0.2679 -0.0603
 7924SOL    HW135405   1.494   1.509   4.180 -0.7363  2.0236  1.4489
 7924SOL    HW235406   1.578   1.516   4.312 -0.5451 -0.7554  0.6173
 7925SOL     OW35407   2.406   1.627  14.192 -0.1898 -0.5219 -0.5651
 7925SOL    HW135408   2.419   1.533  14.186  0.4864 -0.5780  1.9976
 7925SOL    HW235409   2.312   1.634  14.204 -0.0078 -1.2864  1.1691
 7926SOL     OW35410   4.677   2.603  10.507  0.5966 -0.3016 -0.0136
 7926SOL    HW135411   4.679   2.615  10.602 -0.7262  2.5456 -0.3505
 7926SOL    HW235412   4.602   2.548  10.485 -2.1526  2.5170  2.4494
 7927SOL     OW35413   4.109   2.866   2.193  0.7197 -0.5353 -0.0629
 7927SOL    HW135414   4.119   2.894   2.102 -0.5610 -1.0149 -0.3449
 7927SOL    HW235415   4.109   2.948   2.244  0.9743  0.0779 -1.0439
 7928SOL     OW35416   0.991   4.541   9.455 -0.2718 -0.0679  0.0488
 7928SOL    HW135417   1.042   4.593   9.517 -1.3137 -1.0188  1.6766
 7928SOL    HW235418   0.940   4.481   9.509  0.2670 -0.5693 -0.0000
 7929SOL     OW35419   0.769   3.174   6.737 -0.4844 -0.0517 -0.4550
 7929SOL    HW135420   0.774   3.209   6.826 -0.7841  1.3911 -0.9972
 7929SOL    HW235421   0.806   3.248   6.690 -1.6968  0.4053 -0.6882
 7930SOL     OW35422   4.558   2.433   2.467 -0.5501  0.2900  0.8768
 7930SOL    HW135423   4.552   2.518   2.424 -3.3249  0.3031  1.2935
 7930SOL    HW235424   4.473   2.420   2.510 -0.3342 -0.3307  1.1151
 7931SOL     OW35425   4.581   4.184  10.138 -0.3126  0.4906  0.6459
 7931SOL    HW135426   4.502   4.149  10.179 -0.1693  0.7798  1.1788
 7931SOL    HW235427   4.593   4.114  10.075 -1.4877  1.5997 -0.8364
 7932SOL     OW35428   3.591   1.616   4.789  0.4222  0.1663  0.1095
 7932SOL    HW135429   3.677   1.657   4.780  0.1001  0.9384  0.5740
 7932SOL    HW235430   3.563   1.663   4.867 -0.0048 -1.1433  0.7529
 7933SOL     OW35431   3.627   3.394   2.903 -0.0897 -0.0258  0.3599
 7933SOL    HW135432   3.554   3.407   2.844  0.7270  1.4528 -0.3469
 7933SOL    HW235433   3.588   3.343   2.974  0.6515 -0.2946  0.5829
 7934SOL     OW35434   2.942   1.902   4.437  0.2365 -0.0677  0.6276
 7934SOL    HW135435   2.880   1.974   4.425  0.7165  0.1138 -0.8324
 7934SOL    HW235436   2.903   1.855   4.511  0.8015  0.4671  1.2562
 7935SOL     OW35437   1.167   1.713   8.410 -0.1377  0.0929  0.4653
 7935SOL    HW135438   1.125   1.632   8.438  1.4073 -0.2207  1.8397
 7935SOL    HW235439   1.123   1.771   8.472 -1.8618 -3.2239  2.3443
 7936SOL     OW35440   4.627   4.551   9.899  0.2384  0.6635  0.2274
 7936SOL    HW135441   4.594   4.523   9.814 -1.4157 -1.8083  1.6654
 7936SOL    HW235442   4.562   4.614   9.930 -0.8497 -0.7039  0.7472
 7937SOL     OW35443   0.593   3.626   6.636  0.1688  0.0458  0.0640
 7937SOL    HW135444   0.626   3.682   6.566  1.3179  0.2318  0.7568
 7937SOL    HW235445   0.504   3.603   6.610 -0.6118  2.6667  0.4254
 7938SOL     OW35446   4.553   2.310  15.341 -0.0609 -0.2975  0.1767
 7938SOL    HW135447   4.490   2.260  15.394  1.1892 -1.0271  0.9728
 7938SOL    HW235448   4.549   2.399  15.378 -0.1495  0.2787 -1.2145
 7939SOL     OW35449   1.722   2.776  10.026  0.2592  0.4771 -0.2237
 7939SOL    HW135450   1.677   2.830   9.961  1.5814  0.4935 -1.1406
 7939SOL    HW235451   1.693   2.687  10.005 -0.0464  0.4820  0.2064
 7940SOL     OW35452   3.777   0.291  16.920 -0.1357  0.1477 -0.4140
 7940SOL    HW135453   3.793   0.272  17.013 -0.7976 -0.0852 -0.3519
 7940SOL    HW235454   3.737   0.376  16.936 -2.1592 -0.7303 -0.9127
 7941SOL     OW35455   3.762   3.992   5.526 -0.3835 -0.5618  1.2873
 7941SOL    HW135456   3.762   3.942   5.607 -1.6042 -0.0435  1.5929
 7941SOL    HW235457   3.843   4.042   5.534 -1.3436  1.0174  1.0959
 7942SOL     OW35458   3.918   2.510   4.402  0.4168  0.1898 -0.1753
 7942SOL    HW135459   3.890   2.477   4.316  0.8470  1.7503 -0.9154
 7942SOL    HW235460   3.910   2.604   4.385 -0.4190  0.4175  1.4712
 7943SOL     OW35461   4.049   1.276  14.454 -0.4932 -0.7809  0.2472
 7943SOL    HW135462   4.112   1.303  14.387  0.4504  2.7131  2.5410
 7943SOL    HW235463   3.967   1.316  14.424 -0.1426 -1.4844 -1.6530
 7944SOL     OW35464   1.525   0.869   1.176 -0.2311 -0.1188 -0.1862
 7944SOL    HW135465   1.568   0.899   1.096  0.1636  0.7881  0.3587
 7944SOL    HW235466   1.497   0.954   1.210 -1.8722 -2.0527  3.2907
 7945SOL     OW35467   2.456   0.915   5.446  0.6531 -0.1872 -0.2873
 7945SOL    HW135468   2.396   0.843   5.462 -1.0445  0.8023 -2.1237
 7945SOL    HW235469   2.404   0.952   5.373  1.0378  1.3968  0.2358
 7946SOL     OW35470   2.727   4.072   7.169 -0.4705  0.7068 -0.2904
 7946SOL    HW135471   2.637   4.101   7.154  0.3740  2.3210 -2.2171
 7946SOL    HW235472   2.729   4.007   7.098  1.1917 -1.3370  1.6265
 7947SOL     OW35473   3.156   0.287   4.282 -0.0537  0.2741 -0.6253
 7947SOL    HW135474   3.107   0.209   4.308 -0.0042  0.2757 -0.5254
 7947SOL    HW235475   3.163   0.341   4.361  4.1888 -0.5998 -0.4245
 7948SOL     OW35476   0.790   2.812   8.538  0.3906 -0.4053  0.6626
 7948SOL    HW135477   0.878   2.848   8.543 -0.8944  2.5211  1.9675
 7948SOL    HW235478   0.819   2.725   8.509  0.8351 -0.0578  0.0647
 7949SOL     OW35479   4.391   1.714  16.571 -0.5714  0.0104 -0.4326
 7949SOL    HW135480   4.481   1.696  16.597  0.1097  3.0664 -0.6725
 7949SOL    HW235481   4.392   1.699  16.477  0.8739 -0.4458 -0.3363
 7950SOL     OW35482   4.288   2.175   8.078  0.1664 -0.3277  0.4337
 7950SOL    HW135483   4.376   2.142   8.056 -0.1789 -1.9272  1.4317
 7950SOL    HW235484   4.267   2.127   8.158 -0.9016 -1.2555 -0.4124
 7951SOL     OW35485   1.578   2.861   6.056 -0.0994 -0.6169  0.1086
 7951SOL    HW135486   1.621   2.895   6.135 -1.7588  0.6353  0.4720
 7951SOL    HW235487   1.490   2.897   6.065 -0.1667  0.3661 -4.4266
 7952SOL     OW35488   3.389   3.913  17.282 -0.2492  0.1538  0.2116
 7952SOL    HW135489   3.378   4.008  17.275 -0.5379  0.0876 -0.2052
 7952SOL    HW235490   3.334   3.886  17.209  0.1804 -1.3972  0.4753
 7953SOL     OW35491   0.287   3.700  14.991  0.0587  0.1666 -0.0662
 7953SOL    HW135492   0.311   3.792  15.007  0.6306 -0.2695  1.5464
 7953SOL    HW235493   0.192   3.690  15.000  0.2413  0.0129  1.6028
 7954SOL     OW35494   3.841   1.788   5.225  0.0068  0.7801  0.3392
 7954SOL    HW135495   3.775   1.720   5.232  0.0937  0.7196  0.5911
 7954SOL    HW235496   3.796   1.850   5.167 -0.7695  0.3660  0.5041
 7955SOL     OW35497   0.316   3.838  16.870  0.3958  0.9524 -0.0189
 7955SOL    HW135498   0.395   3.891  16.873  0.7315  0.4898 -0.7266
 7955SOL    HW235499   0.334   3.762  16.926 -1.5985 -0.6761 -1.5596
 7956SOL     OW35500   3.139   1.078   1.388 -0.3597 -0.1334  0.6575
 7956SOL    HW135501   3.060   1.041   1.428 -0.5232 -0.4086  0.0954
 7956SOL    HW235502   3.106   1.151   1.335  0.1332  1.5827  2.7194
 7957SOL     OW35503   3.545   3.211   6.292 -0.3573  0.2162  0.3556
 7957SOL    HW135504   3.498   3.220   6.375  0.1045  1.6324  0.4575
 7957SOL    HW235505   3.476   3.245   6.235 -0.0680 -1.9995 -1.2933
 7958SOL     OW35506   0.598   0.959   9.226  0.2808  0.3002  0.0295
 7958SOL    HW135507   0.574   0.879   9.271 -2.2332  1.3078  0.4894
 7958SOL    HW235508   0.686   0.981   9.256  0.0704 -0.1032  0.9184
 7959SOL     OW35509   3.287   2.355   3.196  0.0913  0.2693  0.7516
 7959SOL    HW135510   3.269   2.440   3.237 -1.3868  0.3670 -0.1085
 7959SOL    HW235511   3.369   2.365   3.146 -1.3384 -0.5978 -1.7664
 7960SOL     OW35512   3.234   0.784   2.430 -0.0213  0.1871 -0.7497
 7960SOL    HW135513   3.172   0.711   2.425  0.5911 -0.5024  1.6432
 7960SOL    HW235514   3.316   0.743   2.459  0.0662  0.0499 -1.1959
 7961SOL     OW35515   1.991   4.493  10.268  0.0269  0.1579 -0.4263
 7961SOL    HW135516   1.904   4.523  10.240 -0.1108 -0.2632 -0.4514
 7961SOL    HW235517   2.030   4.472  10.183 -1.6544 -0.2214 -1.1154
 7962SOL     OW35518   3.007   0.333   4.014  0.3438 -0.1258 -0.5948
 7962SOL    HW135519   3.055   0.393   3.956 -0.1011  0.8405  0.0252
 7962SOL    HW235520   3.070   0.314   4.082 -1.1535  2.5094  1.5227
 7963SOL     OW35521   1.755   2.919   5.814  0.0349 -0.0666 -0.5968
 7963SOL    HW135522   1.774   3.008   5.844 -0.1476  0.0546 -0.8425
 7963SOL    HW235523   1.681   2.889   5.867 -1.1455  3.3932 -0.2973
 7964SOL     OW35524   3.982   2.483   8.093  0.0850  0.4362 -0.4701
 7964SOL    HW135525   3.955   2.532   8.016  1.4686  0.9945 -0.6003
 7964SOL    HW235526   4.073   2.471   8.067  0.1858 -0.1129  0.1102
 7965SOL     OW35527   0.078   1.123   1.906 -0.3097  0.0345 -0.1022
 7965SOL    HW135528   0.021   1.200   1.909  0.6932  0.7903 -0.6815
 7965SOL    HW235529   0.013   1.055   1.921  1.2283 -1.4121 -0.0259
 7966SOL     OW35530   2.209   0.963   6.000 -0.0325  0.3758  0.5309
 7966SOL    HW135531   2.145   0.922   6.058 -0.5476 -0.5381 -0.6658
 7966SOL    HW235532   2.153   1.000   5.931 -2.1593 -0.6503  1.6909
 7967SOL     OW35533   3.403   2.377  16.012  0.2674  0.2224  0.3635
 7967SOL    HW135534   3.385   2.456  16.063 -0.2958  0.9327 -0.9383
 7967SOL    HW235535   3.499   2.386  16.014  0.3843 -1.1275  1.2738
 7968SOL     OW35536   1.878   0.653   9.221  0.4332 -0.3018 -0.1934
 7968SOL    HW135537   1.843   0.564   9.222 -0.3183 -0.0036 -0.1699
 7968SOL    HW235538   1.826   0.683   9.296 -0.8626  1.3486 -1.7691
 7969SOL     OW35539   2.303   3.184  10.504 -0.0537 -0.3943  0.3461
 7969SOL    HW135540   2.225   3.151  10.461  0.2807  1.5341 -1.7497
 7969SOL    HW235541   2.361   3.108  10.504  2.7411  1.7275 -1.1748
 7970SOL     OW35542   3.359   3.612   7.643 -0.4459 -0.0533 -0.2676
 7970SOL    HW135543   3.303   3.678   7.683  0.3117  0.4091  0.0270
 7970SOL    HW235544   3.360   3.648   7.554 -0.2051  1.8549  0.5180
 7971SOL     OW35545   1.196   2.147   7.211 -0.2112  0.0325 -0.1789
 7971SOL    HW135546   1.273   2.125   7.158  0.7897 -0.1361  1.3586
 7971SOL    HW235547   1.125   2.106   7.161 -0.2410 -0.1265 -0.0052
 7972SOL     OW35548   3.607   1.875   3.812 -0.2407  0.1296 -0.2378
 7972SOL    HW135549   3.546   1.876   3.886 -0.2381 -2.1989 -0.2156
 7972SOL    HW235550   3.550   1.854   3.738  2.0912  0.9681 -2.2758
 7973SOL     OW35551   3.538   2.663   3.528  0.3757 -0.1292 -0.5155
 7973SOL    HW135552   3.464   2.686   3.584 -0.5142 -2.9465 -0.5214
 7973SOL    HW235553   3.611   2.676   3.589  1.1396 -0.5218 -1.3326
 7974SOL     OW35554   0.471   0.499   9.798  0.1493 -0.0656  0.0025
 7974SOL    HW135555   0.401   0.444   9.832 -0.0090 -0.1806 -0.5173
 7974SOL    HW235556   0.429   0.554   9.732  4.3556  0.8224 -1.8841
 7975SOL     OW35557   1.375   1.090  12.429  0.0125 -0.1934  0.6604
 7975SOL    HW135558   1.292   1.043  12.422 -1.9327  3.0600  2.0076
 7975SOL    HW235559   1.441   1.026  12.402 -0.8189  0.3312 -2.6998
 7976SOL     OW35560   3.504   0.938   7.905 -0.3348  0.4753 -0.1182
 7976SOL    HW135561   3.485   1.010   7.845 -0.8425  1.8435  1.6906
 7976SOL    HW235562   3.436   0.872   7.890 -1.3935  1.6838 -0.6452
 7977SOL     OW35563   0.816   3.411   9.743  0.1756  0.1347  0.3833
 7977SOL    HW135564   0.784   3.343   9.802 -1.2681 -0.5081 -1.1240
 7977SOL    HW235565   0.739   3.423   9.686  0.9274 -0.0111 -0.6727
 7978SOL     OW35566   2.334   3.191  12.395  0.1406 -0.2611 -0.5293
 7978SOL    HW135567   2.326   3.137  12.316 -2.3050 -0.1986 -0.3267
 7978SOL    HW235568   2.427   3.183  12.413  0.2908 -0.9395 -1.5703
 7979SOL     OW35569   2.284   4.472   4.771  0.0176 -0.2881 -0.5602
 7979SOL    HW135570   2.336   4.431   4.701  0.4320 -1.9069  0.7040
 7979SOL    HW235571   2.337   4.447   4.847  0.7118  0.6341 -0.7381
 7980SOL     OW35572   2.719   0.488   1.245  0.1735 -0.2822 -0.0206
 7980SOL    HW135573   2.724   0.392   1.247  0.5433 -0.2580  0.3326
 7980SOL    HW235574   2.706   0.499   1.339 -2.0090 -1.3017 -0.2002
 7981SOL     OW35575   1.549   2.162   0.022 -1.4028 -0.5622 -0.1977
 7981SOL    HW135576   1.641   2.134   0.020 -1.4480 -0.6101 -1.3595
 7981SOL    HW235577   1.564   2.256   0.032 -0.2420 -0.7088 -0.6241
 7982SOL     OW35578   3.209   1.620   3.625 -0.5109 -0.3607  0.0703
 7982SOL    HW135579   3.301   1.645   3.624 -0.6273 -0.0329 -1.5004
 7982SOL    HW235580   3.185   1.641   3.535  0.0493  4.8905  1.1649
 7983SOL     OW35581   4.711   3.321   9.393 -0.1188  0.6998 -0.4191
 7983SOL    HW135582   0.070   3.303   9.398 -0.5216 -1.0130  0.8450
 7983SOL    HW235583   4.705   3.355   9.304 -2.1123 -0.0012 -0.5386
 7984SOL     OW35584   1.207   4.049   1.356 -0.5275 -0.1207 -0.8673
 7984SOL    HW135585   1.141   3.981   1.338 -0.9650 -0.2639  1.2549
 7984SOL    HW235586   1.285   3.995   1.368 -0.2391  0.8104  1.3658
 7985SOL     OW35587   4.140   1.147   4.901 -0.4822 -0.5057  0.0896
 7985SOL    HW135588   4.141   1.241   4.919 -1.0991 -0.7212  1.2676
 7985SOL    HW235589   4.097   1.151   4.816 -1.8535 -1.7055  0.7191
 7986SOL     OW35590   2.850   4.583   1.908 -0.1082  0.4026  0.1328
 7986SOL    HW135591   2.943   4.561   1.907  0.1442  1.3553  1.5691
 7986SOL    HW235592   2.865   4.678   1.905  2.0683  0.0918  1.3348
 7987SOL     OW35593   2.798   0.957   6.422 -0.1062  0.0181  0.7547
 7987SOL    HW135594   2.858   1.020   6.382 -1.5879 -0.3228 -2.0040
 7987SOL    HW235595   2.841   0.938   6.505 -2.1962 -1.8982  1.4114
 7988SOL     OW35596   2.605   2.641   3.681  0.2198 -0.2038 -0.4356
 7988SOL    HW135597   2.641   2.575   3.623  0.6924 -1.2524  1.0565
 7988SOL    HW235598   2.564   2.578   3.740  0.4118 -1.3917 -1.5869
 7989SOL     OW35599   4.271   0.753   2.518  0.1383  0.0084 -0.0458
 7989SOL    HW135600   4.289   0.775   2.427 -2.3802  1.0820 -0.2714
 7989SOL    HW235601   4.341   0.693   2.543 -1.3311 -1.6212  0.1374
 7990SOL     OW35602   2.503   0.863   6.280  0.1736  0.0755 -0.3110
 7990SOL    HW135603   2.521   0.911   6.199 -1.3688 -1.3713 -1.5139
 7990SOL    HW235604   2.559   0.911   6.341 -1.1865  1.6100 -0.2501
 7991SOL     OW35605   0.811   4.386   3.210  0.1694  0.0704 -0.3409
 7991SOL    HW135606   0.896   4.400   3.168  0.5649 -4.1502 -0.9267
 7991SOL    HW235607   0.790   4.314   3.150 -1.3165  1.2227 -1.2239
 7992SOL     OW35608   4.107   4.294   9.831  0.3902 -0.4315 -0.3322
 7992SOL    HW135609   4.198   4.323   9.825 -0.2944  1.2917 -2.3687
 7992SOL    HW235610   4.085   4.303   9.738 -1.8027  2.4013  0.4679
 7993SOL     OW35611   4.732   2.360   0.878  0.4221 -1.1111 -0.1068
 7993SOL    HW135612   4.688   2.308   0.944 -2.5025  0.0731 -1.1415
 7993SOL    HW235613   4.684   2.330   0.801  0.0886 -0.4871 -0.1418
 7994SOL     OW35614   2.648   4.292   1.863 -0.1546 -0.0619 -0.2537
 7994SOL    HW135615   2.559   4.322   1.881 -0.6615 -1.5698 -0.2592
 7994SOL    HW235616   2.701   4.336   1.929 -1.5550  0.3472  0.5937
 7995SOL     OW35617   2.504   3.042   7.898  0.0555 -0.6696  0.1505
 7995SOL    HW135618   2.554   2.986   7.956 -0.9628 -0.4901  1.2043
 7995SOL    HW235619   2.422   2.993   7.883 -1.0508  1.3368 -0.4090
 7996SOL     OW35620   2.834   3.556   2.834  0.3760 -0.6932 -0.4351
 7996SOL    HW135621   2.766   3.565   2.767  0.1422  1.3553  0.0733
 7996SOL    HW235622   2.906   3.554   2.771 -1.6616 -0.9307 -2.7766
 7997SOL     OW35623   4.099   3.329   2.616 -0.2009 -0.1388 -0.1103
 7997SOL    HW135624   4.115   3.422   2.633  0.8623 -0.6561  1.6894
 7997SOL    HW235625   4.050   3.315   2.535 -0.1019  0.3401 -0.2540
 7998SOL     OW35626   1.896   2.003   9.180 -0.5895  0.1894  0.0900
 7998SOL    HW135627   1.808   1.993   9.216 -0.7208  1.5505  0.1227
 7998SOL    HW235628   1.939   1.920   9.202 -2.3370 -0.3936  1.3298
 7999SOL     OW35629   0.246   0.679  11.743  0.3459 -0.3676  0.0946
 7999SOL    HW135630   0.313   0.743  11.716 -1.1268  1.1202 -0.0024
 7999SOL    HW235631   0.280   0.652  11.829  1.6702  1.0089  0.0055
 8000SOL     OW35632   1.167   1.040   4.117 -0.3116  0.5189 -0.0540
 8000SOL    HW135633   1.173   1.071   4.026 -1.4487 -0.7044 -0.5459
 8000SOL    HW235634   1.241   1.082   4.160 -0.1434  1.8589 -1.6462
 8001SOL     OW35635   1.013   1.223  15.167  0.2387 -0.2749  0.3328
 8001SOL    HW135636   1.018   1.128  15.159  1.9936  0.0029 -1.8841
 8001SOL    HW235637   1.075   1.246  15.098 -0.2161  0.2906  0.1160
 8002SOL     OW35638   1.744   2.653   7.787 -0.3063 -0.0056  0.2338
 8002SOL    HW135639   1.657   2.679   7.757 -0.2623 -0.9278 -0.7146
 8002SOL    HW235640   1.742   2.573   7.840  1.6169 -1.1329 -1.4065
 8003SOL     OW35641   3.446   3.928   7.066  0.7000 -0.0665 -0.3602
 8003SOL    HW135642   3.482   4.016   7.059  0.1733  0.3039  1.7559
 8003SOL    HW235643   3.506   3.891   7.130 -0.7865  0.7215  1.5129
 8004SOL     OW35644   0.546   0.495  16.729  0.5923 -0.2287 -0.1389
 8004SOL    HW135645   0.570   0.440  16.804 -0.1408  0.4776  0.6158
 8004SOL    HW235646   0.625   0.492  16.675  1.1451 -0.9041  0.6982
 8005SOL     OW35647   3.505   0.477   9.906  0.1215 -0.4945 -0.0547
 8005SOL    HW135648   3.513   0.541   9.835  1.3627  0.7212  1.1667
 8005SOL    HW235649   3.595   0.445   9.912  0.7872  1.5281  0.6702
 8006SOL     OW35650   3.779   0.823   3.556 -0.5216  0.4844 -0.1061
 8006SOL    HW135651   3.801   0.732   3.536  1.5031  0.6170  1.5343
 8006SOL    HW235652   3.862   0.863   3.532  0.0621 -0.9179 -0.4196
 8007SOL     OW35653   2.232   2.433   4.064  0.2359 -0.5665 -0.2286
 8007SOL    HW135654   2.185   2.509   4.098 -2.5271 -2.2064 -0.3499
 8007SOL    HW235655   2.312   2.442   4.114  0.1002  0.7188 -0.2364
 8008SOL     OW35656   4.407   4.711   4.597  0.6319 -0.0347  0.2184
 8008SOL    HW135657   4.435   4.634   4.647  0.5428  1.7387  2.9767
 8008SOL    HW235658   4.413   0.051   4.655  0.9015 -1.4792  2.0495
 8009SOL     OW35659   2.927   4.473   8.172  0.2287 -0.2429 -0.3100
 8009SOL    HW135660   2.832   4.459   8.167  0.0115  0.5510  1.5815
 8009SOL    HW235661   2.939   4.566   8.155  0.2679 -0.0173  1.0199
 8010SOL     OW35662   1.499   4.723   5.337 -0.7359  0.1007 -0.6970
 8010SOL    HW135663   1.556   4.719   5.414 -0.0841  3.0636 -1.0026
 8010SOL    HW235664   1.456   4.638   5.337 -2.9400  1.2038 -4.1317
 8011SOL     OW35665   3.814   3.987  10.978  0.0222  0.1684 -0.0190
 8011SOL    HW135666   3.808   4.068  11.028  0.1028  1.7229 -2.5756
 8011SOL    HW235667   3.877   4.008  10.909  1.7653 -3.6891  0.3772
 8012SOL     OW35668   0.605   4.127   2.023 -0.1507  0.2193  0.0661
 8012SOL    HW135669   0.632   4.064   1.955 -0.8958  1.1016 -1.0456
 8012SOL    HW235670   0.586   4.065   2.094  2.9703 -1.5214 -0.5657
 8013SOL     OW35671   2.289   1.598   0.983 -0.0324  0.3829 -0.2565
 8013SOL    HW135672   2.302   1.693   0.977  0.9191  0.3443  0.9231
 8013SOL    HW235673   2.379   1.567   0.993 -0.4269 -0.5163  0.5061
 8014SOL     OW35674   0.664   3.006  15.982 -0.1087 -0.1405 -0.0696
 8014SOL    HW135675   0.599   3.048  16.037  0.9609  2.2643 -0.6688
 8014SOL    HW235676   0.678   3.066  15.909  2.5826  0.7711  1.2129
 8015SOL     OW35677   3.575   2.207   4.731 -0.1199 -0.0679 -0.8564
 8015SOL    HW135678   3.550   2.262   4.805 -0.0400 -0.1129 -0.7962
 8015SOL    HW235679   3.633   2.265   4.681  0.4386 -1.7133 -2.1479
 8016SOL     OW35680   0.211   0.866   3.726  1.1702 -0.0841 -0.3248
 8016SOL    HW135681   0.159   0.889   3.649  0.9090 -1.1046 -0.4533
 8016SOL    HW235682   0.164   0.790   3.762  2.5623 -0.1758  1.3061
 8017SOL     OW35683   4.248   1.665   9.482  0.6933 -0.5898  0.2220
 8017SOL    HW135684   4.154   1.650   9.471  0.7575  0.1573 -1.4394
 8017SOL    HW235685   4.256   1.713   9.399  0.7020  0.4063  0.8077
 8018SOL     OW35686   3.753   1.152   6.538 -0.1221  0.0462 -0.3174
 8018SOL    HW135687   3.738   1.191   6.452  1.0829 -0.5541 -0.7993
 8018SOL    HW235688   3.727   1.061   6.526 -0.0718  0.0845 -0.7223
 8019SOL     OW35689   3.174   1.087   4.821  0.1268  0.3436  0.4362
 8019SOL    HW135690   3.117   1.010   4.820  1.1629 -0.4214  0.2208
 8019SOL    HW235691   3.125   1.149   4.767 -0.2519  1.0102  1.5268
 8020SOL     OW35692   0.184   4.258   1.452  0.0379  0.1860  0.0553
 8020SOL    HW135693   0.272   4.295   1.442 -0.8347  1.7238 -2.0868
 8020SOL    HW235694   0.205   4.168   1.427  0.7820  0.0804  1.0859
 8021SOL     OW35695   3.391   4.735   2.590  0.2935  0.0444  0.1890
 8021SOL    HW135696   3.331   4.718   2.518 -0.4947 -1.9107  1.3045
 8021SOL    HW235697   3.474   4.724   2.542 -0.1745 -0.1719 -0.5692
 8022SOL     OW35698   0.365   0.318   2.333 -0.1142 -0.1728 -0.2172
 8022SOL    HW135699   0.356   0.376   2.258 -2.2851 -0.0775  0.1270
 8022SOL    HW235700   0.328   0.359   2.411 -0.3692  0.0979 -0.4797
 8023SOL     OW35701   2.332   4.634   6.451  0.3148  0.6913 -0.4979
 8023SOL    HW135702   2.331   4.662   6.360 -0.4051 -1.5819 -1.1740
 8023SOL    HW235703   2.289   4.712   6.487 -0.1156  0.4556 -0.5063
 8024SOL     OW35704   0.266   1.064  14.533  0.8150  0.6027  0.1000
 8024SOL    HW135705   0.251   1.084  14.625  2.2750  3.1834 -0.2031
 8024SOL    HW235706   0.270   0.970  14.549 -0.4865  0.3927 -0.8398
 8025SOL     OW35707   0.960   1.254   8.722 -0.5088  0.3026 -0.6422
 8025SOL    HW135708   1.013   1.233   8.646  0.9165  2.1033 -0.1467
 8025SOL    HW235709   0.997   1.334   8.759  2.5532  0.3711 -3.9413
 8026SOL     OW35710   1.995   3.956  10.643 -0.1740 -0.0889  0.7985
 8026SOL    HW135711   1.966   4.047  10.653  1.6695  0.8258 -2.2810
 8026SOL    HW235712   2.079   3.963  10.688 -1.0921  0.2694  2.4941
 8027SOL     OW35713   2.153   3.106   4.935 -0.4838 -0.1178 -0.4016
 8027SOL    HW135714   2.241   3.074   4.955 -0.4311 -1.2336 -2.4112
 8027SOL    HW235715   2.138   3.182   4.991  2.9612  0.7616 -0.7096
 8028SOL     OW35716   4.264   2.746   5.810  0.2802 -0.4206 -0.0699
 8028SOL    HW135717   4.351   2.728   5.773  1.0154  2.3853  0.3038
 8028SOL    HW235718   4.225   2.660   5.793  1.4654 -1.5788  2.9460
 8029SOL     OW35719   2.920   2.352   4.813  0.0951 -0.1843 -0.1224
 8029SOL    HW135720   2.954   2.414   4.749 -1.5156  0.1162 -0.7025
 8029SOL    HW235721   2.892   2.407   4.887 -0.1809 -0.0641 -0.3183
 8030SOL     OW35722   2.124   1.303   6.903  0.5483  0.4586 -0.3240
 8030SOL    HW135723   2.160   1.244   6.837  0.1714 -1.7638  1.4314
 8030SOL    HW235724   2.123   1.386   6.855 -2.4436  0.2222 -0.6871
 8031SOL     OW35725   2.144   2.053   5.537 -0.2556  0.3138 -0.2635
 8031SOL    HW135726   2.079   2.039   5.469 -0.4282 -1.8345  0.3401
 8031SOL    HW235727   2.192   1.970   5.531 -0.4861  0.3365 -2.5172
 8032SOL     OW35728   1.037   0.663  13.556  0.0984 -0.1582 -0.6330
 8032SOL    HW135729   0.993   0.742  13.588  0.9251  0.9281 -2.1849
 8032SOL    HW235730   1.089   0.701  13.485 -0.3436  1.5159 -0.0713
 8033SOL     OW35731   1.802   3.523   7.260 -0.3437  0.3507  0.4388
 8033SOL    HW135732   1.785   3.547   7.169 -1.7044  2.1739  1.1574
 8033SOL    HW235733   1.815   3.430   7.245  1.7907  0.5301  1.2128
 8034SOL     OW35734   2.861   0.345  11.939 -0.0382  0.0225  0.0132
 8034SOL    HW135735   2.774   0.364  11.974  0.1027  0.9973 -0.1707
 8034SOL    HW235736   2.880   0.406  11.868  1.3351  0.9830  1.2164
 8035SOL     OW35737   2.450   0.524  15.739  0.0473  0.4924 -0.2266
 8035SOL    HW135738   2.505   0.476  15.801 -0.5402 -1.4176 -1.2093
 8035SOL    HW235739   2.379   0.461  15.727 -1.0392  0.9591  3.5728
 8036SOL     OW35740   4.565   1.533   3.201  0.0913 -0.3651  0.0354
 8036SOL    HW135741   4.651   1.537   3.160 -0.0912  0.9831 -0.2139
 8036SOL    HW235742   4.518   1.603   3.157 -0.7950 -1.6644 -1.0845
 8037SOL     OW35743   0.520   1.596   6.599 -0.1729 -0.0789 -0.4984
 8037SOL    HW135744   0.564   1.633   6.676 -0.8021 -1.0626  0.3433
 8037SOL    HW235745   0.478   1.674   6.563  0.1538  0.3176 -0.0244
 8038SOL     OW35746   1.288   0.495   4.514  0.2544  0.5200 -0.2599
 8038SOL    HW135747   1.335   0.578   4.505 -0.2911  1.0083  1.2981
 8038SOL    HW235748   1.354   0.443   4.560 -1.1973 -0.0557  1.1567
 8039SOL     OW35749   3.361   4.269   4.097  0.5440 -0.0050  0.0212
 8039SOL    HW135750   3.330   4.305   4.180  1.4556 -1.5790  1.0266
 8039SOL    HW235751   3.454   4.291   4.105  0.8836 -1.2371 -0.5252
 8040SOL     OW35752   2.646   2.912   8.120  0.2585  0.5307 -0.5547
 8040SOL    HW135753   2.718   2.856   8.151 -1.3957 -1.2575  0.0746
 8040SOL    HW235754   2.653   3.000   8.156  3.0499 -0.3366  1.0886
 8041SOL     OW35755   4.088   3.126   4.110  0.6726 -0.1630  0.4896
 8041SOL    HW135756   4.129   3.208   4.083  0.8897 -0.3008  0.4064
 8041SOL    HW235757   4.067   3.080   4.029  2.0368  4.2509 -2.3725
 8042SOL     OW35758   2.135   0.458   4.794 -0.2494 -0.4184  0.6774
 8042SOL    HW135759   2.172   0.527   4.738  2.0385 -1.2408  1.1762
 8042SOL    HW235760   2.133   0.393   4.723  0.8123 -1.6286  1.7621
 8043SOL     OW35761   3.614   2.939   0.396  0.3025  0.0040  0.0788
 8043SOL    HW135762   3.678   2.888   0.347  0.7657 -0.2692  0.9523
 8043SOL    HW235763   3.576   2.873   0.455 -1.4387  0.7530 -0.2036
 8044SOL     OW35764   1.206   3.163   7.218 -0.2970 -0.1916  0.0646
 8044SOL    HW135765   1.202   3.168   7.314 -1.2424 -1.7516  0.1043
 8044SOL    HW235766   1.292   3.205   7.205 -0.3254 -0.3245 -0.5542
 8045SOL     OW35767   1.670   4.382  10.623 -0.2390 -0.1491  0.4934
 8045SOL    HW135768   1.692   4.393  10.716  1.4631  0.5972  0.0134
 8045SOL    HW235769   1.575   4.382  10.624 -0.2536 -0.1237 -0.6532
 8046SOL     OW35770   3.267   0.699   3.529  0.1211 -0.0907 -0.3509
 8046SOL    HW135771   3.248   0.610   3.500  1.4029  0.3284 -2.4862
 8046SOL    HW235772   3.361   0.710   3.538 -0.0043  0.1704  0.6647
 8047SOL     OW35773   4.540   2.915   3.856 -0.2044 -0.0368 -0.1540
 8047SOL    HW135774   4.569   2.982   3.919 -0.8989  0.0513  0.0785
 8047SOL    HW235775   4.492   2.971   3.796 -1.6770 -1.2224 -0.0840
 8048SOL     OW35776   1.069   0.426   5.331 -0.5293 -0.5781  0.2331
 8048SOL    HW135777   1.010   0.477   5.275 -0.0059  0.0456  0.2532
 8048SOL    HW235778   1.034   0.337   5.323  2.1189 -1.6996  1.0237
 8049SOL     OW35779   4.539   4.301  13.783  0.6157  0.0939 -0.1756
 8049SOL    HW135780   4.469   4.365  13.771 -0.1026 -1.1074 -2.3517
 8049SOL    HW235781   4.612   4.359  13.805  2.8732 -3.0060  0.4213
 8050SOL     OW35782   1.974   3.346   2.480 -0.5438 -0.4614  0.6146
 8050SOL    HW135783   2.016   3.400   2.414 -0.2370  1.8657  2.6986
 8050SOL    HW235784   2.039   3.342   2.551 -1.8882  1.8883  1.9501
 8051SOL     OW35785   4.194   1.442   9.984 -0.3422 -0.4215  0.2031
 8051SOL    HW135786   4.274   1.427   9.933  0.3441  0.3579  1.0489
 8051SOL    HW235787   4.168   1.529   9.952 -0.6559 -1.1204 -1.4598
 8052SOL     OW35788   0.060   3.083   6.722 -0.5142 -0.2501  0.3700
 8052SOL    HW135789   0.132   3.088   6.784 -0.0912  1.9062 -0.2736
 8052SOL    HW235790   0.105   3.054   6.643 -1.5252  3.6142 -1.6289
 8053SOL     OW35791   0.242   1.961   7.790  0.0664 -0.7756 -0.7516
 8053SOL    HW135792   0.254   2.049   7.753  1.6009 -0.0658  1.4424
 8053SOL    HW235793   0.262   1.903   7.717 -2.2434 -2.6944  0.1501
 8054SOL     OW35794   0.760   0.920   3.355 -0.5589 -0.0186 -0.6948
 8054SOL    HW135795   0.684   0.932   3.412 -0.3346  0.4754 -0.5067
 8054SOL    HW235796   0.755   0.997   3.298  0.9233 -0.3527 -1.3013
 8055SOL     OW35797   3.914   4.300  15.432  0.2562  0.0519  0.7384
 8055SOL    HW135798   3.943   4.216  15.469 -0.5745 -0.6758 -0.2626
 8055SOL    HW235799   4.003   4.326  15.410  0.1061 -0.1378 -0.0882
 8056SOL     OW35800   0.270   3.960   3.975  0.2522  0.7230  0.1628
 8056SOL    HW135801   0.279   4.028   3.908 -0.6370  1.6910  1.0386
 8056SOL    HW235802   0.244   3.886   3.920  0.6037  1.5491 -1.1296
 8057SOL     OW35803   3.589   0.721   9.065  0.0603 -0.9889 -0.1682
 8057SOL    HW135804   3.654   0.657   9.038  0.8637  1.0081 -2.9406
 8057SOL    HW235805   3.563   0.683   9.149  1.1743 -0.6731  0.3226
 8058SOL     OW35806   1.608   1.609   4.461  0.1034 -0.3695  0.0331
 8058SOL    HW135807   1.651   1.612   4.547 -0.8628  0.4121  0.4814
 8058SOL    HW235808   1.621   1.695   4.422  0.5982 -0.0657  0.8722
 8059SOL     OW35809   2.957   2.468   2.468 -0.1506  0.0528 -0.5443
 8059SOL    HW135810   3.022   2.457   2.399 -0.3449  0.7341 -0.8294
 8059SOL    HW235811   3.015   2.497   2.539  0.6226 -2.9076  0.0413
 8060SOL     OW35812   4.209   3.852   0.080  0.3128  0.9882 -0.5553
 8060SOL    HW135813   4.170   3.794   0.146 -2.4244  3.4742 -0.0260
 8060SOL    HW235814   4.133   3.905   0.059 -1.4453 -2.1963 -2.1714
 8061SOL     OW35815   3.819   0.113   4.854  0.2487 -0.2861 -0.7669
 8061SOL    HW135816   3.748   0.075   4.802  0.0533  0.9007 -1.3835
 8061SOL    HW235817   3.807   0.207   4.839  0.7983  0.2057  1.8760
 8062SOL     OW35818   0.347   0.217   4.025 -0.1124 -0.1989  0.3124
 8062SOL    HW135819   0.276   0.210   3.960  0.2404 -1.1220  0.0268
 8062SOL    HW235820   0.294   0.259   4.093 -1.5751  1.1889 -1.6629
 8063SOL     OW35821   1.292   4.099  11.701  0.2425 -0.1885 -0.7230
 8063SOL    HW135822   1.281   4.081  11.608  0.1550  0.3371 -0.8144
 8063SOL    HW235823   1.200   4.107  11.725  0.7643  0.2495  1.1563
 8064SOL     OW35824   0.731   2.175   4.661 -0.0642 -0.5161  0.7353
 8064SOL    HW135825   0.737   2.262   4.621  1.6306 -0.6330  0.7560
 8064SOL    HW235826   0.676   2.137   4.592 -0.6057  2.2311 -0.3697
 8065SOL     OW35827   3.275   3.723  10.745  0.2392 -0.2165  0.0263
 8065SOL    HW135828   3.205   3.731  10.811 -0.1712 -2.0126 -0.2025
 8065SOL    HW235829   3.319   3.642  10.771  0.8115  0.0071 -0.2542
 8066SOL     OW35830   0.272   1.552   2.381  0.2065 -0.3533 -0.1641
 8066SOL    HW135831   0.277   1.647   2.373 -2.1113 -0.3119 -1.1407
 8066SOL    HW235832   0.214   1.545   2.305  0.3115 -2.0487 -0.0873
 8067SOL     OW35833   1.710   4.634   6.397  0.4629 -0.2143  0.2896
 8067SOL    HW135834   1.645   4.699   6.371  0.0543 -0.2032  1.3203
 8067SOL    HW235835   1.727   4.595   6.312 -0.1150  1.1995 -0.4667
 8068SOL     OW35836   4.203   1.632   0.085 -0.2918  0.1013  0.7558
 8068SOL    HW135837   4.267   1.596   0.024 -1.2946 -0.8510  0.2607
 8068SOL    HW235838   4.120   1.595   0.055  1.7696 -1.8742 -2.5057
 8069SOL     OW35839   4.533   2.465   7.029  0.5176  0.5190  0.1180
 8069SOL    HW135840   4.554   2.428   7.115  3.1454  0.8090 -0.4026
 8069SOL    HW235841   4.508   2.555   7.051  0.4780  0.1610  1.5683
 8070SOL     OW35842   2.509   0.769   7.816 -0.5298  0.0640  0.3041
 8070SOL    HW135843   2.458   0.715   7.876  1.4530 -2.6356 -0.4443
 8070SOL    HW235844   2.593   0.724   7.820 -0.9613 -0.6435  1.4073
 8071SOL     OW35845   2.060   1.760   5.788 -0.1105  0.0713 -0.4155
 8071SOL    HW135846   2.011   1.833   5.826 -0.1076  0.5668 -1.3720
 8071SOL    HW235847   2.038   1.768   5.696 -2.1973 -1.7095 -0.0808
 8072SOL     OW35848   2.838   0.694  17.135  0.7253 -0.0414  0.2147
 8072SOL    HW135849   2.879   0.775  17.106  1.1360 -0.4488 -0.3675
 8072SOL    HW235850   2.863   0.629  17.069 -1.3148 -0.4791 -0.1340
 8073SOL     OW35851   0.572   1.644   1.438  1.1448  0.7152 -0.2049
 8073SOL    HW135852   0.583   1.558   1.479  1.1007  1.0269  0.4500
 8073SOL    HW235853   0.656   1.681   1.465  1.2286 -1.6041  2.7121
 8074SOL     OW35854   3.363   2.835   1.637  0.4497  0.4974  0.1962
 8074SOL    HW135855   3.368   2.850   1.542 -2.3110  1.6937  0.2533
 8074SOL    HW235856   3.451   2.807   1.664 -0.5890 -0.8978  2.1072
 8075SOL     OW35857   3.267   4.450   5.158 -0.3539 -0.6282 -0.4611
 8075SOL    HW135858   3.203   4.381   5.144 -1.4404  0.6880 -2.0021
 8075SOL    HW235859   3.300   4.422   5.243 -2.2687 -2.6660 -0.3991
 8076SOL     OW35860   1.184   4.219   1.866  0.0576  0.4813  0.7619
 8076SOL    HW135861   1.089   4.218   1.880 -0.0299 -0.0076  0.1428
 8076SOL    HW235862   1.194   4.246   1.775  3.3383 -0.6430  0.7883
 8077SOL     OW35863   1.396   4.350  10.549 -0.4598  0.4530  0.7558
 8077SOL    HW135864   1.434   4.264  10.528  2.5312  1.7827  0.7536
 8077SOL    HW235865   1.425   4.397  10.471 -1.6030  0.4291  0.3186
 8078SOL     OW35866   3.830   0.645   3.337 -0.6929  0.4408 -0.3748
 8078SOL    HW135867   3.787   0.580   3.282  0.7600 -0.9582  0.1459
 8078SOL    HW235868   3.812   0.723   3.285  1.2985  1.7057  0.8274
 8079SOL     OW35869   3.274   4.257   7.899  0.5574 -0.1804 -0.1479
 8079SOL    HW135870   3.231   4.332   7.940 -0.2026 -1.3472  1.2062
 8079SOL    HW235871   3.204   4.219   7.846  1.4459 -0.7829 -0.8942
 8080SOL     OW35872   4.477   4.685   5.991 -0.0514  0.4507 -0.1077
 8080SOL    HW135873   4.535   4.663   5.918  1.1693 -0.4299  1.1253
 8080SOL    HW235874   4.544   4.727   6.046  0.1314 -1.4899  1.1191
 8081SOL     OW35875   4.503   2.548  15.466  0.0384  0.1145  0.2387
 8081SOL    HW135876   4.409   2.530  15.462  0.5580 -2.2293 -1.2738
 8081SOL    HW235877   4.510   2.577  15.557  2.2017 -1.8243  0.6942
 8082SOL     OW35878   0.118   3.307   7.699  0.5003 -0.1644  0.5706
 8082SOL    HW135879   0.199   3.352   7.724  1.3152 -1.1110 -0.3274
 8082SOL    HW235880   0.145   3.275   7.613  0.3055  1.8654 -0.2565
 8083SOL     OW35881   0.691   0.886   4.768  0.3555 -0.0553 -0.7080
 8083SOL    HW135882   0.737   0.857   4.690  1.0376 -0.3556 -0.1951
 8083SOL    HW235883   0.610   0.838   4.753  0.5466 -0.0355 -1.7827
 8084SOL     OW35884   1.705   1.841   2.653 -0.1099 -0.4656  0.0577
 8084SOL    HW135885   1.694   1.882   2.739 -0.0701 -0.7825  0.2138
 8084SOL    HW235886   1.783   1.895   2.638  0.1180 -1.6069 -2.8199
 8085SOL     OW35887   4.467   3.159   3.045 -0.2340 -0.8626  0.5928
 8085SOL    HW135888   4.401   3.165   2.975 -1.5977  0.1939  1.9745
 8085SOL    HW235889   4.481   3.065   3.049 -0.0007 -0.8560 -0.0708
 8086SOL     OW35890   2.311   4.463  16.393 -0.0065 -0.3841 -0.1171
 8086SOL    HW135891   2.307   4.495  16.483  2.3739 -0.5611  0.0588
 8086SOL    HW235892   2.331   4.370  16.407 -0.7418 -0.5213  0.0398
 8087SOL     OW35893   2.502   2.075  12.103  0.7359 -0.3171  0.5017
 8087SOL    HW135894   2.500   1.985  12.069  0.1100 -0.2413  0.3317
 8087SOL    HW235895   2.589   2.076  12.143  0.4276 -2.4778  1.2478
 8088SOL     OW35896   3.223   3.705   0.740 -0.4094 -0.8592 -0.0784
 8088SOL    HW135897   3.212   3.688   0.834  2.6089 -0.9310  0.2449
 8088SOL    HW235898   3.272   3.786   0.749 -1.3286 -0.6906  3.2994
 8089SOL     OW35899   4.067   0.747  12.558 -0.4996 -0.4730  0.0861
 8089SOL    HW135900   3.991   0.779  12.508  0.9380  0.7848 -1.2637
 8089SOL    HW235901   4.077   0.657  12.527 -2.7871 -0.7211  0.0402
 8090SOL     OW35902   0.418   1.719  16.984  0.2187  0.2695 -0.0012
 8090SOL    HW135903   0.396   1.751  17.071 -5.3432 -1.0264 -0.8933
 8090SOL    HW235904   0.494   1.663  16.996 -0.2319 -0.2893  0.2447
 8091SOL     OW35905   0.805   4.003   3.688  0.8780 -0.3956 -0.0204
 8091SOL    HW135906   0.741   4.074   3.694 -0.5299 -1.5823 -1.0860
 8091SOL    HW235907   0.891   4.045   3.683  0.2849  1.0488  1.9264
 8092SOL     OW35908   3.608   2.033   0.005  0.1078 -0.2335  0.0146
 8092SOL    HW135909   3.618   1.998   0.093  0.5348  0.3259  0.1877
 8092SOL    HW235910   3.696   2.065  17.724  0.9307 -3.9500 -2.2405
 8093SOL     OW35911   4.037   1.576  11.574  0.3603  0.2764  0.6051
 8093SOL    HW135912   4.116   1.524  11.587 -0.6722 -1.2796  0.6677
 8093SOL    HW235913   4.061   1.642  11.509 -0.5235 -1.2493 -1.2494
 8094SOL     OW35914   0.558   0.624   6.700  0.4177 -0.3139 -0.1469
 8094SOL    HW135915   0.625   0.650   6.637  1.3837  0.1135  1.0442
 8094SOL    HW235916   0.496   0.697   6.701  1.0881  0.2274  2.8344
 8095SOL     OW35917   4.229   0.537   7.817 -0.3304 -0.6299 -0.2439
 8095SOL    HW135918   4.275   0.621   7.813 -0.1051 -0.6309  1.8836
 8095SOL    HW235919   4.147   0.568   7.778  0.4266  2.3843  0.5090
 8096SOL     OW35920   2.394   3.253   5.032 -0.2739 -0.0453 -0.7969
 8096SOL    HW135921   2.356   3.276   4.947  1.0575 -0.9033 -1.6305
 8096SOL    HW235922   2.399   3.342   5.068 -1.2712 -0.9444  1.5163
 8097SOL     OW35923   2.065   0.048  14.110 -0.1611 -0.4393 -0.0155
 8097SOL    HW135924   2.002   0.061  14.040  1.5077 -0.9858 -1.6117
 8097SOL    HW235925   2.122   4.719  14.067  0.5723 -0.5482  1.1108
 8098SOL     OW35926   2.073   4.307   8.250  0.4073  0.1810 -0.2323
 8098SOL    HW135927   2.030   4.331   8.168  1.5844 -0.4792 -1.0367
 8098SOL    HW235928   2.002   4.283   8.310 -1.6787  2.6550 -1.6879
 8099SOL     OW35929   4.147   1.356  17.604  0.4072 -0.0629  0.7628
 8099SOL    HW135930   4.104   1.276  17.634 -0.9824  0.3342 -0.1576
 8099SOL    HW235931   4.078   1.419  17.627  0.4789  0.7105 -1.1348
 8100SOL     OW35932   3.894   2.522   8.912  0.6108  0.6167 -0.7152
 8100SOL    HW135933   3.981   2.485   8.921  1.2597  2.1586 -0.5917
 8100SOL    HW235934   3.914   2.615   8.924 -1.6300  1.2076 -1.5786
 8101SOL     OW35935   1.518   3.920  10.029 -0.1244 -0.1953  0.4264
 8101SOL    HW135936   1.608   3.915  10.061  0.6383  1.6942 -1.4320
 8101SOL    HW235937   1.508   3.833   9.991  0.0183 -0.9820  2.1968
 8102SOL     OW35938   3.071   1.079   0.817 -0.5557 -0.4770 -0.2239
 8102SOL    HW135939   3.130   1.084   0.742 -0.2664 -0.5114  0.0002
 8102SOL    HW235940   2.984   1.084   0.778  0.2642 -0.9940 -2.1074
 8103SOL     OW35941   1.153   2.665   5.520 -0.0145 -0.6171 -0.0421
 8103SOL    HW135942   1.070   2.706   5.542  0.0492 -2.3004  3.3913
 8103SOL    HW235943   1.160   2.595   5.586  1.7876  0.4407  0.9079
 8104SOL     OW35944   3.507   2.870   5.754 -0.1708  0.4829  0.1156
 8104SOL    HW135945   3.481   2.947   5.805 -0.0430  0.0377  0.8454
 8104SOL    HW235946   3.435   2.873   5.690  0.6951 -0.2043 -0.9037
 8105SOL     OW35947   1.360   2.325   3.177 -0.1935  0.2141  0.3605
 8105SOL    HW135948   1.393   2.290   3.094  0.9493  1.1743  0.3961
 8105SOL    HW235949   1.372   2.240   3.219 -1.8588  0.1323  0.6540
 8106SOL     OW35950   3.501   1.251   3.869  0.2031 -0.2286  0.1614
 8106SOL    HW135951   3.416   1.223   3.835  1.0736 -0.9669 -1.4338
 8106SOL    HW235952   3.495   1.233   3.963 -0.2296  0.0873  0.1936
 8107SOL     OW35953   1.078   2.142   5.865 -0.1633  0.2353 -0.1850
 8107SOL    HW135954   1.081   2.216   5.805 -3.2101  1.5667  1.3147
 8107SOL    HW235955   1.070   2.069   5.803  0.8302  1.1819 -1.4164
 8108SOL     OW35956   2.914   3.101  12.032 -0.3790 -0.2189 -0.2135
 8108SOL    HW135957   2.960   3.073  11.953 -0.0266 -0.8278  0.2095
 8108SOL    HW235958   2.979   3.161  12.068  0.3624 -2.5628  2.2920
 8109SOL     OW35959   1.454   4.561  14.344  0.5257 -0.4216 -0.8699
 8109SOL    HW135960   1.409   4.512  14.275 -0.3090 -0.8931  0.0073
 8109SOL    HW235961   1.466   4.497  14.414 -2.0676 -1.4363 -1.3691
 8110SOL     OW35962   3.849   3.481   7.783  0.0297  0.0708  0.0379
 8110SOL    HW135963   3.758   3.459   7.766 -0.8541  1.5417  2.9384
 8110SOL    HW235964   3.880   3.395   7.811 -0.7295 -0.2318 -0.0652
 8111SOL     OW35965   0.810   4.345   6.599  0.0705 -0.3141  0.4698
 8111SOL    HW135966   0.781   4.302   6.679  0.9640  0.7861  1.3881
 8111SOL    HW235967   0.852   4.427   6.624  1.0991 -1.4695  2.5479
 8112SOL     OW35968   0.970   1.405   1.533 -0.8728 -0.2479  0.7354
 8112SOL    HW135969   0.995   1.496   1.549  1.5543 -0.7675 -0.0060
 8112SOL    HW235970   1.037   1.343   1.562  1.3730  2.6467  1.7730
 8113SOL     OW35971   0.954   0.451  13.696  0.4659  0.1679  0.0906
 8113SOL    HW135972   0.864   0.428  13.673  0.6378  2.1316 -2.6020
 8113SOL    HW235973   0.983   0.513  13.630 -0.3694  1.8500  1.3180
 8114SOL     OW35974   1.210   3.652   2.571  0.2331  0.1298 -0.0552
 8114SOL    HW135975   1.128   3.632   2.527  1.2244  1.4544 -2.5332
 8114SOL    HW235976   1.204   3.748   2.573  2.2398  0.2437  0.4985
 8115SOL     OW35977   2.353   1.911  12.964 -0.0704  0.4694 -0.2709
 8115SOL    HW135978   2.299   1.885  13.038  0.3054  2.2099  0.6271
 8115SOL    HW235979   2.433   1.950  13.000 -0.0910 -1.0651  1.4476
 8116SOL     OW35980   1.992   1.225   4.838 -0.5933  0.4601 -0.0220
 8116SOL    HW135981   2.063   1.169   4.809 -1.6096 -1.0158  0.3157
 8116SOL    HW235982   1.969   1.199   4.928  0.9069 -0.9383 -0.0508
 8117SOL     OW35983   0.987   2.748   3.462  0.0170  0.6241  0.5307
 8117SOL    HW135984   0.902   2.713   3.435  1.2248 -1.8525 -0.1016
 8117SOL    HW235985   0.967   2.839   3.444 -3.7657 -0.3470 -0.2080
 8118SOL     OW35986   0.270   0.089   9.633 -0.2524  0.0564 -0.4778
 8118SOL    HW135987   0.302   0.033   9.704 -1.9395 -2.5156 -1.7331
 8118SOL    HW235988   0.281   0.032   9.556 -1.8100 -1.1503  0.1935
 8119SOL     OW35989   3.793   0.842   4.237 -0.3173  0.0758 -0.5018
 8119SOL    HW135990   3.710   0.800   4.256 -1.9295  2.4901 -2.2527
 8119SOL    HW235991   3.782   0.874   4.148  0.7719 -3.9366 -2.0841
 8120SOL     OW35992   0.984   4.348  11.866 -0.1256 -0.6162  0.5337
 8120SOL    HW135993   0.987   4.345  11.962 -0.9699 -0.2329  0.5739
 8120SOL    HW235994   0.980   4.440  11.842 -1.4353 -0.4485  1.3988
 8121SOL     OW35995   3.256   1.269   2.050  0.1817  0.3667  0.4232
 8121SOL    HW135996   3.273   1.181   2.085  2.3103 -0.3251 -2.4156
 8121SOL    HW235997   3.337   1.310   2.082  1.1397  0.3999 -2.0574
 8122SOL     OW35998   4.664   0.462   2.024  0.0138 -0.2044 -0.5418
 8122SOL    HW135999   4.666   0.475   2.119 -1.7428 -2.0057 -0.2488
 8122SOL    HW236000   4.610   0.538   2.002  0.3933 -0.0479 -0.9289
 8123SOL     OW36001   3.493   0.324   6.197 -0.4534 -0.6078 -0.1979
 8123SOL    HW136002   3.421   0.384   6.217  0.3705  1.0463 -2.0531
 8123SOL    HW236003   3.463   0.244   6.239 -0.6861 -0.7249 -0.5857
 8124SOL     OW36004   0.262   4.672  14.229  0.1642 -0.3530  0.8115
 8124SOL    HW136005   0.224   0.021  14.203  0.4452 -0.3885  0.2975
 8124SOL    HW236006   0.356   4.689  14.226 -0.1683  1.3452 -0.0668
 8125SOL     OW36007   2.160   3.752   2.856 -0.0324  0.7200 -0.7083
 8125SOL    HW136008   2.191   3.805   2.930  0.1434 -0.7138  0.2546
 8125SOL    HW236009   2.221   3.788   2.793  0.3840  0.7915 -0.2679
 8126SOL     OW36010   0.701   1.171   8.639  0.3360 -0.1599 -0.0781
 8126SOL    HW136011   0.660   1.179   8.725 -0.9669  1.1565 -0.8321
 8126SOL    HW236012   0.786   1.206   8.666 -0.1588  0.1451  1.0960
 8127SOL     OW36013   1.532   4.283   7.865 -0.4982 -0.2208  0.2642
 8127SOL    HW136014   1.569   4.194   7.860 -1.3597 -0.5845  0.2475
 8127SOL    HW236015   1.602   4.347   7.872 -0.3020 -0.5415  1.2439
 8128SOL     OW36016   0.183   1.421   3.545 -0.4891 -0.6533 -0.1352
 8128SOL    HW136017   0.156   1.381   3.463 -0.2431  3.3434 -2.1768
 8128SOL    HW236018   0.117   1.490   3.544 -0.0304 -0.1579  2.0656
 8129SOL     OW36019   1.395   0.912   6.292 -0.5029  0.0022 -0.2074
 8129SOL    HW136020   1.403   0.891   6.385  0.1064 -0.0435 -0.2708
 8129SOL    HW236021   1.484   0.918   6.258 -0.7525 -0.5833 -0.9528
 8130SOL     OW36022   4.343   0.342   9.636  0.4278  0.2001  0.2525
 8130SOL    HW136023   4.380   0.371   9.719 -0.0025 -0.5868  0.7243
 8130SOL    HW236024   4.407   0.358   9.567  1.8425 -2.9813  0.8213
 8131SOL     OW36025   1.445   4.621   8.159 -0.3860 -0.8807  0.6168
 8131SOL    HW136026   1.481   4.674   8.230 -1.5493  0.0450  0.5178
 8131SOL    HW236027   1.524   4.575   8.131  1.6106  2.3756  0.8868
 8132SOL     OW36028   3.054   2.624   9.979 -0.0726  0.0835 -0.5196
 8132SOL    HW136029   3.046   2.714  10.010  0.6723 -0.4822  1.3506
 8132SOL    HW236030   3.144   2.618   9.947  0.6611  1.5241  1.2867
 8133SOL     OW36031   4.146   2.700   2.607  0.6166  0.8783 -0.1474
 8133SOL    HW136032   4.102   2.703   2.692 -1.9955 -1.5839 -1.3859
 8133SOL    HW236033   4.067   2.675   2.558  1.4836 -1.6875 -0.2516
 8134SOL     OW36034   3.360   0.118   4.172  0.2043 -0.9933 -0.0832
 8134SOL    HW136035   3.326   0.073   4.095 -0.5483  0.7602 -0.7901
 8134SOL    HW236036   3.288   0.180   4.186 -0.6044 -2.2961  1.5565
 8135SOL     OW36037   3.903   1.283  17.415  0.0291 -0.0323  0.4128
 8135SOL    HW136038   3.983   1.319  17.453  0.8379 -2.2095  0.8014
 8135SOL    HW236039   3.935   1.233  17.340  2.2656  0.6396  0.9205
 8136SOL     OW36040   3.495   4.140   5.993  0.4020  0.1761 -0.3633
 8136SOL    HW136041   3.558   4.207   6.021  0.5336  0.2106 -0.7433
 8136SOL    HW236042   3.513   4.136   5.899 -1.7632 -0.0319 -0.7731
 8137SOL     OW36043   1.215   1.209  17.592 -0.3172  0.0611 -0.1889
 8137SOL    HW136044   1.225   1.297  17.628 -1.0552  0.1725 -0.2353
 8137SOL    HW236045   1.121   1.200  17.609 -0.2290 -0.6558 -0.1174
 8138SOL     OW36046   1.482   0.158  11.579 -0.4396  0.4698 -0.3105
 8138SOL    HW136047   1.410   0.190  11.524 -0.3673  1.9070  0.4349
 8138SOL    HW236048   1.534   0.110  11.515  0.7170  1.8919 -0.4344
 8139SOL     OW36049   2.835   0.247   2.978  0.1932 -0.0798  0.1797
 8139SOL    HW136050   2.849   0.331   2.934 -0.7117 -0.0144  0.0018
 8139SOL    HW236051   2.739   0.238   2.978  0.2694 -0.8562 -0.2059
 8140SOL     OW36052   0.455   1.303   7.286 -0.1969  0.4380 -0.3046
 8140SOL    HW136053   0.470   1.243   7.359 -0.5288  0.5296 -0.1611
 8140SOL    HW236054   0.520   1.270   7.225  0.3873 -0.4841  0.8277
 8141SOL     OW36055   4.280   1.654   3.243  0.1265 -0.5141  0.1137
 8141SOL    HW136056   4.273   1.693   3.156 -0.3175 -0.2231  0.2831
 8141SOL    HW236057   4.351   1.709   3.278 -1.1633  1.4077 -0.2720
 8142SOL     OW36058   0.536   2.336   1.997  0.0213 -0.5810  0.1076
 8142SOL    HW136059   0.557   2.270   2.064  2.6652 -2.3888 -2.4897
 8142SOL    HW236060   0.463   2.385   2.033  2.3040  4.0429 -1.5552
 8143SOL     OW36061   0.691   0.615   9.903 -0.1096  0.1915 -0.4945
 8143SOL    HW136062   0.722   0.678   9.837 -1.1069  0.4332 -0.7292
 8143SOL    HW236063   0.614   0.579   9.859  1.2171 -1.3927 -1.4894
 8144SOL     OW36064   2.252   1.613   9.203 -0.8764 -0.4890 -0.3858
 8144SOL    HW136065   2.289   1.695   9.235  0.5224 -1.3035  0.1047
 8144SOL    HW236066   2.195   1.637   9.130  0.5442  0.8582 -1.0580
 8145SOL     OW36067   0.315   4.041   7.565 -0.1129 -0.2458 -0.2959
 8145SOL    HW136068   0.287   4.080   7.482  1.8255  1.9305  0.0960
 8145SOL    HW236069   0.313   3.946   7.551 -0.1873 -0.1390 -1.0178
 8146SOL     OW36070   1.892   2.422   6.150 -0.2696  0.1305  0.1182
 8146SOL    HW136071   1.819   2.362   6.168  1.3443 -1.8032  0.1536
 8146SOL    HW236072   1.955   2.406   6.220 -0.7377  0.3518  0.5903
 8147SOL     OW36073   0.036   1.498   4.461 -0.1357 -0.2793 -0.2530
 8147SOL    HW136074   0.101   1.429   4.472  0.4526  0.2201 -0.5660
 8147SOL    HW236075   0.057   1.554   4.536  1.0609  0.2934 -1.0117
 8148SOL     OW36076   0.073   2.409  17.080 -0.7723 -0.7752 -0.3256
 8148SOL    HW136077   0.075   2.379  16.989  2.5962  5.1692 -2.2118
 8148SOL    HW236078   0.036   2.497  17.073 -1.0082 -0.8199  0.3854
 8149SOL     OW36079   4.499   0.340  11.696  0.2721  0.5683 -0.1738
 8149SOL    HW136080   4.448   0.395  11.755 -1.1490  0.2348 -1.0919
 8149SOL    HW236081   4.433   0.291  11.647  1.5220 -1.5898  0.3162
 8150SOL     OW36082   0.602   2.426   7.981  0.4298  0.6714 -0.2635
 8150SOL    HW136083   0.593   2.453   7.889  1.5756 -1.6715 -1.0541
 8150SOL    HW236084   0.596   2.332   7.967  0.6104  0.9741 -2.3770
 8151SOL     OW36085   2.877   0.277   5.749 -0.0744 -0.0146 -0.0348
 8151SOL    HW136086   2.826   0.354   5.723 -1.5960 -0.2138  2.4039
 8151SOL    HW236087   2.809   0.210   5.740 -0.1364 -0.0428  0.6410
 8152SOL     OW36088   2.300   0.977   8.674 -0.6376 -0.4905 -0.1505
 8152SOL    HW136089   2.231   0.977   8.740  0.0453 -2.1660  0.5532
 8152SOL    HW236090   2.314   1.069   8.653 -0.2085 -1.2573 -3.2636
 8153SOL     OW36091   3.190   0.407   8.806  0.0566  0.4655 -0.0827
 8153SOL    HW136092   3.145   0.387   8.888  0.9113  3.2808  1.0836
 8153SOL    HW236093   3.119   0.448   8.757 -0.2059  0.6576  0.4584
 8154SOL     OW36094   1.680   2.705   1.159 -0.2799 -0.0802 -0.4959
 8154SOL    HW136095   1.645   2.653   1.232  0.6801  1.4125  1.0258
 8154SOL    HW236096   1.646   2.789   1.188  0.4364 -0.0119  0.1530
 8155SOL     OW36097   0.312   2.095   2.112  0.0649 -0.1334 -0.3621
 8155SOL    HW136098   0.251   2.105   2.185 -2.4495 -2.3029 -2.1266
 8155SOL    HW236099   0.268   2.144   2.042 -1.3215 -0.7937  0.0299
 8156SOL     OW36100   0.436   4.422   2.837  0.5881  0.2958 -0.1391
 8156SOL    HW136101   0.517   4.469   2.821  1.5682 -1.3310 -0.0067
 8156SOL    HW236102   0.473   4.340   2.871 -1.2519 -0.1468  0.8334
 8157SOL     OW36103   0.990   4.227   1.246 -0.3345  0.2792 -0.0190
 8157SOL    HW136104   1.080   4.209   1.274  0.2757 -0.0488 -2.2440
 8157SOL    HW236105   1.012   4.300   1.189 -1.6218  1.6195  1.2171
 8158SOL     OW36106   0.834   0.528   8.277 -0.3886 -0.1948  0.0870
 8158SOL    HW136107   0.837   0.440   8.241  0.3002 -0.7197  1.4489
 8158SOL    HW236108   0.923   0.548   8.304 -0.7541  0.8268  0.5530
 8159SOL     OW36109   0.643   4.663   1.169 -0.1924  0.1015 -0.2074
 8159SOL    HW136110   0.718   4.673   1.109  0.5562 -2.4489  0.2780
 8159SOL    HW236111   0.596   0.008   1.147  0.2243  0.7172  1.1662
 8160SOL     OW36112   1.087   1.471   8.827  0.5470 -0.6014  0.0494
 8160SOL    HW136113   1.052   1.556   8.852  3.1131  0.2476  0.6929
 8160SOL    HW236114   1.179   1.496   8.815  0.5738 -1.5919 -1.8582
 8161SOL     OW36115   4.219   2.229   4.393 -0.1056  0.4382  0.4722
 8161SOL    HW136116   4.309   2.209   4.421 -0.6217 -1.7990  0.5698
 8161SOL    HW236117   4.240   2.289   4.321 -1.1463  1.3294  0.9085
 8162SOL     OW36118   1.534   4.057   6.099  0.3239 -0.7586  0.1623
 8162SOL    HW136119   1.624   4.082   6.080 -0.2695  1.7626  0.7586
 8162SOL    HW236120   1.524   3.987   6.034 -0.0798  1.0337 -1.7048
 8163SOL     OW36121   1.739   4.118   4.899 -0.6209 -0.9594 -0.0898
 8163SOL    HW136122   1.732   4.172   4.821 -0.7069 -1.3427 -0.3488
 8163SOL    HW236123   1.655   4.118   4.945  0.2722  1.8966  1.5309
 8164SOL     OW36124   1.068   3.025   5.948  0.6963 -0.1994  0.2702
 8164SOL    HW136125   1.086   3.114   5.921  2.4827 -0.0414  1.9595
 8164SOL    HW236126   0.984   3.025   5.995  1.5442 -1.1622  1.8057
 8165SOL     OW36127   1.646   0.030   2.811 -0.1704 -0.1108 -0.3085
 8165SOL    HW136128   1.713   0.065   2.870  1.9524 -0.6646 -2.3679
 8165SOL    HW236129   1.570   0.068   2.855 -1.6631 -0.7976 -2.2955
 8166SOL     OW36130   2.564   0.822   9.875  0.2502 -0.3067 -0.6153
 8166SOL    HW136131   2.589   0.734   9.845  1.3315 -0.0578 -0.4466
 8166SOL    HW236132   2.577   0.814   9.969 -1.8363  2.5417 -0.1069
 8167SOL     OW36133   4.348   0.865   0.578  0.1297 -0.5291 -0.3498
 8167SOL    HW136134   4.347   0.837   0.487  1.5785  0.4783 -0.6625
 8167SOL    HW236135   4.276   0.928   0.576 -0.1165 -0.8508 -1.3256
 8168SOL     OW36136   1.612   4.666   5.612  0.0519  0.1137  0.0766
 8168SOL    HW136137   1.624   4.610   5.689  0.7243 -0.4086 -0.4101
 8168SOL    HW236138   1.583   0.011   5.655  0.4888 -0.2660  1.0757
 8169SOL     OW36139   3.366   0.438   4.037  0.0223 -0.0100  0.1747
 8169SOL    HW136140   3.387   0.502   3.969 -1.2790  0.9714  0.7102
 8169SOL    HW236141   3.375   0.354   3.993  1.1860 -0.2689  0.8879
 8170SOL     OW36142   0.269   2.454   4.971 -0.2960 -0.5417 -0.2564
 8170SOL    HW136143   0.335   2.425   4.908 -1.8358 -1.5587 -1.4270
 8170SOL    HW236144   0.237   2.537   4.937 -0.9955 -0.6461  0.1397
 8171SOL     OW36145   1.784   1.914   0.346  0.8633  0.1569 -0.8639
 8171SOL    HW136146   1.869   1.872   0.333  0.9024 -0.2068  0.6797
 8171SOL    HW236147   1.730   1.848   0.302  1.4318 -0.7137 -0.2398
 8172SOL     OW36148   2.360   2.794   1.005 -0.2879 -0.2070  0.1658
 8172SOL    HW136149   2.333   2.860   0.941  0.9519 -0.1301 -0.2745
 8172SOL    HW236150   2.290   2.730   0.991  0.4525 -0.2154 -3.5934
 8173SOL     OW36151   1.406   3.673   3.751  0.0621 -0.6249  0.1156
 8173SOL    HW136152   1.340   3.608   3.776 -1.2687 -0.0563 -1.8694
 8173SOL    HW236153   1.468   3.679   3.823 -0.4092 -1.7284  0.6157
 8174SOL     OW36154   1.146   3.470   5.310  0.1351  0.6239 -0.1816
 8174SOL    HW136155   1.118   3.382   5.335  0.3435  0.0359 -2.0304
 8174SOL    HW236156   1.067   3.518   5.332 -1.0029 -1.7458  0.8648
 8175SOL     OW36157   0.057   0.322   2.842 -0.4930 -0.5648  0.2707
 8175SOL    HW136158   0.028   0.248   2.896 -1.6009 -0.0095  0.4256
 8175SOL    HW236159   0.092   0.277   2.765  0.2096 -3.6179  2.3682
 8176SOL     OW36160   2.811   1.825   4.645  0.3225 -0.8327 -0.1654
 8176SOL    HW136161   2.727   1.852   4.681 -0.7712 -1.5162 -2.2037
 8176SOL    HW236162   2.860   1.816   4.727 -1.0493  1.1736  0.8634
 8177SOL     OW36163   0.506   4.602   0.889  0.0212 -0.4513  0.0323
 8177SOL    HW136164   0.413   4.608   0.865 -0.0787 -1.3219  0.1878
 8177SOL    HW236165   0.518   4.690   0.923  0.0799  0.4480 -2.3270
 8178SOL     OW36166   4.631   4.074  14.851 -0.8970 -0.4319 -0.4884
 8178SOL    HW136167   4.648   4.164  14.876  0.7776 -0.1263 -2.6503
 8178SOL    HW236168   4.720   4.038  14.862  0.8575  3.6217 -1.4150
 8179SOL     OW36169   4.407   0.451   5.538  1.3800 -0.3321  0.5281
 8179SOL    HW136170   4.434   0.368   5.500  1.5880 -0.8117  1.6975
 8179SOL    HW236171   4.395   0.435   5.632 -1.2729  0.9104  0.4175
 8180SOL     OW36172   2.507   0.393   6.431 -0.2040 -0.3456  0.1701
 8180SOL    HW136173   2.581   0.332   6.442  0.0533  0.0359  0.5209
 8180SOL    HW236174   2.515   0.452   6.506  0.1478 -0.0948 -0.0620
 8181SOL     OW36175   0.201   2.194   7.644 -0.5526  0.2603  0.2068
 8181SOL    HW136176   0.180   2.235   7.560 -1.9680 -1.5275 -0.3034
 8181SOL    HW236177   0.125   2.221   7.695  0.3263  1.6514  0.7848
 8182SOL     OW36178   2.929   0.564   2.912 -1.4489 -0.3057  0.1291
 8182SOL    HW136179   2.928   0.600   2.824 -1.7738  1.8497  1.0287
 8182SOL    HW236180   2.835   0.553   2.927 -1.2559 -0.1102  1.5162
 8183SOL     OW36181   1.457   3.653   9.986  0.3326 -0.4656 -0.0159
 8183SOL    HW136182   1.472   3.608  10.070 -0.0016 -0.3037  0.1332
 8183SOL    HW236183   1.429   3.587   9.922  2.4641 -3.5719  2.2647
 8184SOL     OW36184   2.541   3.599  10.016  0.2286  0.0294  0.3338
 8184SOL    HW136185   2.595   3.574   9.942  1.9024  1.5649  1.0290
 8184SOL    HW236186   2.520   3.512  10.052  0.5387 -0.2355 -0.1390
 8185SOL     OW36187   3.549   1.350   5.053  0.0736  0.2472 -0.0432
 8185SOL    HW136188   3.463   1.311   5.070  0.4556 -0.8648 -0.6640
 8185SOL    HW236189   3.544   1.357   4.957  1.6567  0.6674 -0.0802
 8186SOL     OW36190   0.474   1.815   4.095  0.1119  0.2374  0.6687
 8186SOL    HW136191   0.426   1.831   4.013  1.8021 -2.4223 -0.8125
 8186SOL    HW236192   0.415   1.754   4.139 -0.6669  1.3972  1.2286
 8187SOL     OW36193   2.895   2.492  13.966  0.7089 -0.3526 -0.3620
 8187SOL    HW136194   2.943   2.557  13.915 -0.0053  1.2625  1.0445
 8187SOL    HW236195   2.929   2.409  13.932 -2.8403 -1.4376 -1.2464
 8188SOL     OW36196   0.077   3.688  11.033  0.4560 -0.4812 -0.2615
 8188SOL    HW136197   0.104   3.596  11.022  0.2577 -0.8955  2.6340
 8188SOL    HW236198   0.022   3.712  10.959  0.5204  0.8754  0.1386
 8189SOL     OW36199   3.706   3.434   4.530  0.1465 -0.2572  0.0613
 8189SOL    HW136200   3.779   3.477   4.574 -1.6426 -0.2037  3.0408
 8189SOL    HW236201   3.703   3.475   4.444  0.1259  3.2096  1.7348
 8190SOL     OW36202   2.726   0.052   0.086 -0.1475 -0.2076 -0.2870
 8190SOL    HW136203   2.753   0.035  17.735  1.3414 -0.0448  0.1183
 8190SOL    HW236204   2.750   0.144   0.085 -0.8140 -0.0404 -1.4050
 8191SOL     OW36205   0.549   1.292   3.995 -0.5242  0.3853  0.0539
 8191SOL    HW136206   0.521   1.378   3.965  0.1233 -0.1494 -2.0604
 8191SOL    HW236207   0.556   1.247   3.910  1.3322  0.6197  0.0976
 8192SOL     OW36208   3.161   3.068   0.226 -0.1572 -0.1355 -0.2245
 8192SOL    HW136209   3.171   3.138   0.291  0.7416 -1.0896  0.6654
 8192SOL    HW236210   3.114   3.119   0.160  0.7079 -0.0092 -0.7423
 8193SOL     OW36211   2.982   3.253   1.168  0.0746  0.1250  0.4931
 8193SOL    HW136212   2.987   3.312   1.243 -0.1744  0.6380  0.1049
 8193SOL    HW236213   2.905   3.296   1.132  1.2046  1.7486 -0.0097
 8194SOL     OW36214   3.047   3.908   3.869  0.0667 -0.2024  0.3255
 8194SOL    HW136215   3.042   3.936   3.777 -1.7504 -2.8621 -0.3801
 8194SOL    HW236216   3.137   3.928   3.894  0.2862  0.5792 -1.0817
 8195SOL     OW36217   1.960   2.556   3.429 -0.1048 -0.6041  0.2103
 8195SOL    HW136218   2.048   2.536   3.461 -0.1283 -0.1239  0.5828
 8195SOL    HW236219   1.973   2.534   3.337 -1.1563 -1.7103  0.3344
 8196SOL     OW36220   2.130   0.776   8.555  0.0692 -0.4173  0.3636
 8196SOL    HW136221   2.190   0.848   8.574  0.0365  0.3029 -2.2468
 8196SOL    HW236222   2.191   0.706   8.531  0.2822 -0.4130  0.8826
 8197SOL     OW36223   0.076   4.173  13.424  0.4012  0.5536 -0.1315
 8197SOL    HW136224   0.022   4.151  13.348 -1.2200  1.3496  0.7959
 8197SOL    HW236225   0.028   4.136  13.498  1.2841 -2.2394 -0.9464
 8198SOL     OW36226   4.053   2.368   2.580 -0.4870 -0.1047 -0.3299
 8198SOL    HW136227   4.011   2.447   2.548 -0.9611  0.8383  2.6164
 8198SOL    HW236228   3.981   2.348   2.639  1.6183 -1.8587  1.6839
 8199SOL     OW36229   0.904   1.937   8.978 -0.2515  0.1811  0.2702
 8199SOL    HW136230   0.946   1.956   9.062 -0.6835 -1.3339  0.8212
 8199SOL    HW236231   0.859   1.857   9.005 -3.5744  2.1768  0.7390
 8200SOL     OW36232   4.382   4.569   1.709  0.3529 -0.0897  0.5202
 8200SOL    HW136233   4.339   4.647   1.676  1.0241 -0.7616 -1.9329
 8200SOL    HW236234   4.428   4.614   1.780 -1.1238  0.9176  0.8439
 8201SOL     OW36235   4.072   3.640   1.006  0.1937  0.7564 -0.2583
 8201SOL    HW136236   4.040   3.655   1.096 -0.9609 -0.4284 -0.4769
 8201SOL    HW236237   4.014   3.566   0.991 -2.3520  2.8578 -0.6660
 8202SOL     OW36238   3.423   0.917   6.811 -0.4209 -0.7235 -0.5518
 8202SOL    HW136239   3.392   0.837   6.853 -2.1135  0.1735 -0.0709
 8202SOL    HW236240   3.478   0.957   6.878 -2.0256 -0.2578  0.5031
 8203SOL     OW36241   3.883   0.175   1.860 -0.2291 -0.0840 -0.2587
 8203SOL    HW136242   3.816   0.133   1.913 -0.1725 -3.0774 -2.5496
 8203SOL    HW236243   3.912   0.102   1.806  0.5628  0.8946 -1.1616
 8204SOL     OW36244   3.650   0.694   2.934 -0.5065  0.0067 -0.7728
 8204SOL    HW136245   3.557   0.673   2.940 -0.1382 -1.9508 -1.9094
 8204SOL    HW236246   3.645   0.782   2.896 -1.8172 -0.2707 -1.2308
 8205SOL     OW36247   4.316   2.262   5.291 -0.2269 -0.1590  0.6294
 8205SOL    HW136248   4.311   2.349   5.250 -2.1284 -0.8762 -0.6947
 8205SOL    HW236249   4.408   2.261   5.317 -0.3730 -0.8322  1.1317
 8206SOL     OW36250   2.208   4.362   2.803 -0.3431  0.1365  0.2331
 8206SOL    HW136251   2.260   4.323   2.874  0.9439  1.0589 -0.2111
 8206SOL    HW236252   2.119   4.356   2.839  0.3262 -0.0488  1.8420
 8207SOL     OW36253   3.581   0.981   9.734  0.0379 -0.5072 -0.2588
 8207SOL    HW136254   3.488   1.002   9.742  0.0700 -0.6885  0.5523
 8207SOL    HW236255   3.586   0.938   9.648 -0.0966 -1.7132  0.3483
 8208SOL     OW36256   1.365   0.780   4.586  0.7842  0.4319 -0.1704
 8208SOL    HW136257   1.396   0.870   4.595 -0.3714  0.6439  1.4462
 8208SOL    HW236258   1.333   0.766   4.675  1.2985 -0.7627 -0.1743
 8209SOL     OW36259   2.366   0.990  16.681  0.5789  0.3355 -0.2832
 8209SOL    HW136260   2.377   0.994  16.586  2.8140 -0.2465 -0.0498
 8209SOL    HW236261   2.438   0.933  16.709 -0.1019 -1.0837 -1.4974
 8210SOL     OW36262   3.760   4.181   7.821 -0.7042  0.3629 -0.0090
 8210SOL    HW136263   3.781   4.087   7.816  1.0677  0.6551  1.6651
 8210SOL    HW236264   3.671   4.181   7.789 -0.8248 -0.3438  0.3075
 8211SOL     OW36265   4.619   4.251   8.152  0.3777  0.5459  0.5326
 8211SOL    HW136266   4.654   4.340   8.142 -0.5818  0.9646  0.8981
 8211SOL    HW236267   4.548   4.255   8.088  2.5781  0.3934 -1.9498
 8212SOL     OW36268   1.858   0.123   6.701  0.2116  0.0847 -0.0155
 8212SOL    HW136269   1.890   0.206   6.737 -4.9543  1.9528  0.2148
 8212SOL    HW236270   1.764   0.122   6.688  0.2917 -1.3658 -0.3983
 8213SOL     OW36271   4.058   3.632   8.875 -0.6281 -0.1757  0.2945
 8213SOL    HW136272   4.007   3.710   8.851 -0.2617  0.2989  1.0837
 8213SOL    HW236273   4.112   3.660   8.948 -0.0958 -0.8020  0.1437
 8214SOL     OW36274   1.392   3.150   9.812 -0.0521 -0.1119  0.1769
 8214SOL    HW136275   1.369   3.165   9.721 -1.4955  0.4305  0.6324
 8214SOL    HW236276   1.344   3.223   9.849  1.9326  0.5811  1.4079
 8215SOL     OW36277   3.709   1.072   5.415 -0.0530  0.1142  0.2516
 8215SOL    HW136278   3.629   1.119   5.440  0.4322  0.5329  1.0283
 8215SOL    HW236279   3.686   0.984   5.444  2.7889 -0.7328 -0.0552
 8216SOL     OW36280   0.415   3.666  14.753  0.3329 -0.3224 -0.2243
 8216SOL    HW136281   0.383   3.577  14.744 -1.1632  0.2633 -0.8558
 8216SOL    HW236282   0.382   3.696  14.838 -0.7423  0.5364 -0.9427
 8217SOL     OW36283   3.569   0.728  17.021  0.0363 -0.2870 -0.1814
 8217SOL    HW136284   3.635   0.755  17.084 -0.8316 -1.6645  1.3092
 8217SOL    HW236285   3.503   0.796  17.029 -0.1584 -0.5969  0.7826
 8218SOL     OW36286   0.369   3.553   3.691  0.1146 -0.1425  0.0331
 8218SOL    HW136287   0.425   3.569   3.767 -1.0836  0.0377  0.8764
 8218SOL    HW236288   0.439   3.526   3.631  1.4644  0.2407  1.4316
 8219SOL     OW36289   3.215   0.613   9.639  0.6782  0.0088 -0.2492
 8219SOL    HW136290   3.267   0.535   9.621 -0.9894 -1.1809  0.0902
 8219SOL    HW236291   3.220   0.613   9.735  0.7074 -0.7782 -0.2505
 8220SOL     OW36292   1.790   2.420   5.910 -0.6527  0.1011  0.1831
 8220SOL    HW136293   1.834   2.406   5.994 -0.5610  1.5910  0.3796
 8220SOL    HW236294   1.773   2.514   5.909 -2.7011 -0.2748 -0.0698
 8221SOL     OW36295   1.750   0.744   3.243  0.1185  0.5182  0.0209
 8221SOL    HW136296   1.819   0.727   3.307  1.2591 -2.0241 -1.9014
 8221SOL    HW236297   1.774   0.833   3.218 -0.0428  0.6117  0.2018
 8222SOL     OW36298   0.629   0.241  16.488  0.0388  0.0085  0.5331
 8222SOL    HW136299   0.669   0.270  16.570 -0.2089  0.6532  0.4317
 8222SOL    HW236300   0.695   0.172  16.482 -0.6448 -0.6658  0.7526
 8223SOL     OW36301   1.358   3.274   9.212 -0.1337 -0.6261 -0.7295
 8223SOL    HW136302   1.431   3.213   9.219 -0.2111 -0.8804 -2.1049
 8223SOL    HW236303   1.295   3.238   9.273 -0.1594  0.2907 -0.2088
 8224SOL     OW36304   2.118   1.940   7.355 -0.2885  0.4859 -0.2235
 8224SOL    HW136305   2.032   1.911   7.387  0.5517 -0.9445  0.7301
 8224SOL    HW236306   2.088   2.011   7.299  3.3491  2.1401 -0.0230
 8225SOL     OW36307   2.008   4.447   8.714 -0.1963 -0.1912  0.1239
 8225SOL    HW136308   2.011   4.519   8.776  2.6167 -0.5880  0.4425
 8225SOL    HW236309   2.102   4.430   8.704 -0.2660 -0.3239 -0.3341
 8226SOL     OW36310   0.232   1.829   2.923  0.5360  0.0203  0.0743
 8226SOL    HW136311   0.255   1.847   2.831 -1.1335 -1.0599 -0.5619
 8226SOL    HW236312   0.284   1.749   2.936  1.3937  0.6923  0.7442
 8227SOL     OW36313   0.258   3.870   8.784 -0.1843 -0.1313 -0.1739
 8227SOL    HW136314   0.214   3.955   8.794  0.9844  0.7644 -2.6315
 8227SOL    HW236315   0.205   3.829   8.853 -1.3433  0.8268 -0.5013
 8228SOL     OW36316   1.166   0.599   1.380  0.0902  0.1596 -0.6513
 8228SOL    HW136317   1.140   0.685   1.414 -2.2329  0.2926 -2.7405
 8228SOL    HW236318   1.161   0.548   1.460 -1.8032  2.2822  0.6017
 8229SOL     OW36319   3.197   4.515   7.402  0.5776  0.5594  0.4427
 8229SOL    HW136320   3.132   4.542   7.466  0.1135  0.8721 -0.1679
 8229SOL    HW236321   3.267   4.489   7.463 -0.3614 -5.5818 -1.0860
 8230SOL     OW36322   0.912   1.019   9.852 -0.2383  0.1704  0.0815
 8230SOL    HW136323   0.845   1.011   9.920  0.7501 -0.0233  1.0179
 8230SOL    HW236324   0.924   1.114   9.860 -1.1692  0.3879 -1.0719
 8231SOL     OW36325   0.477   0.265   7.212 -0.2698 -0.2285  0.0097
 8231SOL    HW136326   0.417   0.191   7.208 -0.9080  0.2367  0.7354
 8231SOL    HW236327   0.453   0.304   7.128  2.3159 -0.7347 -0.9406
 8232SOL     OW36328   4.262   0.181  11.831  0.2928  0.1115  0.1757
 8232SOL    HW136329   4.305   0.096  11.822 -0.8556 -0.5086  0.5687
 8232SOL    HW236330   4.318   0.228  11.893  1.0928 -0.8675  0.1894
 8233SOL     OW36331   3.211   1.816   0.361  0.1454 -0.0541  0.3763
 8233SOL    HW136332   3.198   1.910   0.350  2.4138  0.1234 -0.6311
 8233SOL    HW236333   3.302   1.796   0.340 -0.3295 -0.5218 -1.1710
 8234SOL     OW36334   0.744   0.312   3.203  0.3984 -0.3526 -0.6791
 8234SOL    HW136335   0.759   0.333   3.296  2.1827 -0.6141 -0.9188
 8234SOL    HW236336   0.811   0.372   3.169 -0.8147  2.3120  1.5493
 8235SOL     OW36337   0.253   0.384   6.555 -0.4947  0.4468  0.3123
 8235SOL    HW136338   0.346   0.405   6.565  0.2274 -2.5280 -0.1431
 8235SOL    HW236339   0.214   0.436   6.625 -1.8205 -0.2960  0.1177
 8236SOL     OW36340   2.730   0.182  15.761  0.0776 -0.3757  0.9973
 8236SOL    HW136341   2.777   0.101  15.778  5.1851  2.3625 -0.2801
 8236SOL    HW236342   2.710   0.167  15.668 -0.0228  0.1140  0.9369
 8237SOL     OW36343   1.523   4.583   2.678 -0.3139 -0.2692 -0.4112
 8237SOL    HW136344   1.584   4.632   2.733 -1.4464  0.7836 -0.1031
 8237SOL    HW236345   1.450   4.643   2.692  1.3418  1.5273  0.5453
 8238SOL     OW36346   4.198   4.565   7.364 -0.1038  0.1423 -0.0802
 8238SOL    HW136347   4.279   4.554   7.414  0.1470 -0.2702 -0.5817
 8238SOL    HW236348   4.134   4.511   7.410 -0.8254  1.0175 -0.0608
 8239SOL     OW36349   2.054   1.524   6.739  0.1352  0.2494  0.2327
 8239SOL    HW136350   2.069   1.516   6.645  0.3995  0.0808  0.2854
 8239SOL    HW236351   1.962   1.501   6.749  0.6345 -1.4406  0.9629
 8240SOL     OW36352   3.618   3.762   7.219  0.1561 -0.2431 -0.0928
 8240SOL    HW136353   3.685   3.761   7.288  2.5720 -3.3555 -2.4603
 8240SOL    HW236354   3.634   3.679   7.174 -1.7245 -0.7159  0.1376
 8241SOL     OW36355   3.984   1.323   2.666  1.0454 -0.1856 -0.2837
 8241SOL    HW136356   4.028   1.247   2.705 -3.0993 -0.8379  3.2392
 8241SOL    HW236357   3.960   1.279   2.585  1.9369 -4.1364  1.6009
 8242SOL     OW36358   3.038   2.920   7.988 -0.5796 -0.0679  0.2403
 8242SOL    HW136359   3.018   2.993   8.046 -1.1873 -1.1563  1.4031
 8242SOL    HW236360   2.969   2.858   8.012 -2.2110  1.2812 -1.0084
 8243SOL     OW36361   3.311   1.873   6.692 -0.4842 -0.6117  0.6945
 8243SOL    HW136362   3.228   1.863   6.645 -0.1000  0.5480 -0.2352
 8243SOL    HW236363   3.373   1.832   6.632 -0.3506 -0.4338  0.7110
 8244SOL     OW36364   2.442   4.441   1.967 -0.5420 -0.5980 -0.0913
 8244SOL    HW136365   2.459   4.487   2.050 -3.0951  1.2033 -0.5445
 8244SOL    HW236366   2.346   4.434   1.964 -0.3886 -1.7407 -2.4552
 8245SOL     OW36367   0.807   1.404  14.910  0.1520  0.1277  0.5237
 8245SOL    HW136368   0.716   1.387  14.932 -0.5743  0.6458 -2.0534
 8245SOL    HW236369   0.799   1.480  14.852 -2.2185  0.0754  0.7946
 8246SOL     OW36370   2.014   0.678  15.678  0.8211  0.2056  0.1622
 8246SOL    HW136371   1.950   0.622  15.634  2.0984 -0.5527 -0.7140
 8246SOL    HW236372   1.967   0.709  15.756  1.7049  1.2894  0.2577
 8247SOL     OW36373   1.455   2.681   7.754 -0.2358 -0.5463 -1.2381
 8247SOL    HW136374   1.402   2.622   7.808  3.0622 -3.1950 -0.9047
 8247SOL    HW236375   1.405   2.669   7.673  1.2219 -1.6025 -1.9810
 8248SOL     OW36376   2.514   1.514  12.039  0.4979  0.2843 -0.8378
 8248SOL    HW136377   2.507   1.487  12.131  0.8903  2.4479 -0.1658
 8248SOL    HW236378   2.582   1.459  12.001 -0.0430 -0.6202 -0.4807
 8249SOL     OW36379   3.252   1.491   2.831  0.4179  0.3215 -0.1527
 8249SOL    HW136380   3.165   1.508   2.795  1.3990  2.6166 -1.3783
 8249SOL    HW236381   3.249   1.502   2.926 -2.0907 -2.0485  0.0603
 8250SOL     OW36382   0.829   4.281   1.473  0.4219  0.0608 -0.3262
 8250SOL    HW136383   0.848   4.260   1.381 -0.7571 -2.1926 -0.0307
 8250SOL    HW236384   0.790   4.368   1.468  0.7650  0.2660  0.4943
 8251SOL     OW36385   0.560   3.378  12.360 -0.2205  0.0177 -0.2184
 8251SOL    HW136386   0.579   3.399  12.269 -1.5201  2.1566 -0.0080
 8251SOL    HW236387   0.490   3.444  12.364  1.5175  1.7296  2.0782
 8252SOL     OW36388   2.401   0.665   0.867  0.1706 -0.1727  0.4151
 8252SOL    HW136389   2.449   0.698   0.943  0.1606  0.0347  0.3323
 8252SOL    HW236390   2.321   0.623   0.900  0.3106 -2.1705 -1.7930
 8253SOL     OW36391   1.077   4.286   6.128  0.7039  0.1874 -0.0058
 8253SOL    HW136392   1.120   4.347   6.068  0.5600 -0.6167 -0.9131
 8253SOL    HW236393   1.147   4.252   6.184  1.9451  2.8937  0.1030
 8254SOL     OW36394   0.116   0.509   5.017 -0.4593 -0.2809  0.3322
 8254SOL    HW136395   0.157   0.527   5.102 -0.3279  0.3407  0.1393
 8254SOL    HW236396   0.048   0.454   5.054  0.0051  0.0536  1.7016
 8255SOL     OW36397   2.841   3.283   2.492 -0.0006  0.5280  0.0710
 8255SOL    HW136398   2.865   3.371   2.521  0.5466  0.0797  0.9768
 8255SOL    HW236399   2.879   3.233   2.564  1.2537  2.6981  0.9268
 8256SOL     OW36400   2.587   3.323  16.543 -0.2776 -0.1615 -0.1239
 8256SOL    HW136401   2.594   3.284  16.630  2.1855 -1.4837 -0.9062
 8256SOL    HW236402   2.540   3.404  16.564 -1.2862 -1.0260  0.9329
 8257SOL     OW36403   1.026   0.746  16.511  0.6340  0.1348 -0.3295
 8257SOL    HW136404   0.956   0.680  16.510  0.3790  0.3801  1.2050
 8257SOL    HW236405   1.001   0.793  16.432  0.9750  2.4946  0.9738
 8258SOL     OW36406   0.817   3.110   8.804 -0.2514 -0.0530  0.4011
 8258SOL    HW136407   0.802   3.026   8.849 -1.2878  1.1421  2.2550
 8258SOL    HW236408   0.862   3.093   8.721  0.5807  1.9159  0.4561
 8259SOL     OW36409   4.621   1.084   3.043 -0.0398 -0.2443 -0.9158
 8259SOL    HW136410   4.612   1.115   3.133  1.4952  1.0319 -1.1969
 8259SOL    HW236411   4.605   1.169   3.002 -1.3821  0.9581  2.1331
 8260SOL     OW36412   0.161   4.395  12.759  0.4815 -0.0486  0.0062
 8260SOL    HW136413   0.090   4.359  12.707 -0.1552  1.3199 -0.0668
 8260SOL    HW236414   0.130   4.483  12.782  0.0503 -0.2374  0.1531
 8261SOL     OW36415   2.440   0.712   0.580  0.0983 -0.2311  0.1874
 8261SOL    HW136416   2.446   0.807   0.575  3.0719 -0.3042  2.5602
 8261SOL    HW236417   2.434   0.708   0.675 -0.3865 -0.1859  0.1581
 8262SOL     OW36418   3.069   0.664   8.942 -0.0035  0.2605 -0.0796
 8262SOL    HW136419   3.016   0.628   8.871  0.6140 -0.9772  0.0762
 8262SOL    HW236420   3.074   0.755   8.914 -0.8195  0.3973  0.2145
 8263SOL     OW36421   1.382   4.300   9.122 -0.1729 -0.3008 -0.5023
 8263SOL    HW136422   1.450   4.249   9.079 -0.5329 -3.1273  2.2728
 8263SOL    HW236423   1.346   4.224   9.168  0.8639 -0.3551  0.2147
 8264SOL     OW36424   4.289   4.021  15.932  0.1467 -0.7218 -0.3389
 8264SOL    HW136425   4.324   4.102  15.967 -1.9654 -0.5115  1.2663
 8264SOL    HW236426   4.365   3.977  15.894 -0.3620 -0.8353 -1.2167
 8265SOL     OW36427   1.592   4.152   2.791  0.2547 -0.1948  0.2599
 8265SOL    HW136428   1.584   4.195   2.706  2.4319 -1.5271 -0.6381
 8265SOL    HW236429   1.574   4.060   2.769  0.8127 -0.2743  0.1350
 8266SOL     OW36430   2.183   2.616   2.505  0.2482 -0.5349 -0.0558
 8266SOL    HW136431   2.199   2.688   2.566 -0.3191 -1.4230  1.1467
 8266SOL    HW236432   2.150   2.667   2.430 -0.5075 -0.5405  0.2718
 8267SOL     OW36433   4.526   1.405   7.703 -0.1523  0.0927  0.6259
 8267SOL    HW136434   4.585   1.437   7.771  1.5360  0.6647 -1.1175
 8267SOL    HW236435   4.459   1.384   7.769  0.4414 -3.5197  0.0568
 8268SOL     OW36436   1.141   1.046  15.870  0.2041  0.2495 -0.1194
 8268SOL    HW136437   1.162   1.057  15.777  0.6595  0.4145  0.0032
 8268SOL    HW236438   1.105   0.958  15.869  0.7485  0.0171  0.7591
 8269SOL     OW36439   1.304   1.796   2.439  0.2495 -0.0540 -0.2016
 8269SOL    HW136440   1.287   1.798   2.345 -0.3258  2.6728 -0.0360
 8269SOL    HW236441   1.287   1.708   2.472 -0.1445 -0.4996 -1.5835
 8270SOL     OW36442   2.301   3.903   1.140  0.1541 -0.2122 -0.0181
 8270SOL    HW136443   2.314   3.997   1.157 -0.2650 -0.2546  0.5310
 8270SOL    HW236444   2.354   3.882   1.063 -0.3122  1.0131 -0.6709
 8271SOL     OW36445   3.894   1.145   9.054  0.2155 -0.1313 -0.2133
 8271SOL    HW136446   3.916   1.196   8.976 -0.7889 -1.2390 -1.2041
 8271SOL    HW236447   3.825   1.093   9.014 -0.0792 -0.3318  0.5596
 8272SOL     OW36448   0.391   2.754   3.277  0.6687  0.0142  0.3314
 8272SOL    HW136449   0.459   2.766   3.211  1.7341 -1.3011  1.1882
 8272SOL    HW236450   0.403   2.821   3.344  2.5527 -1.2600  1.2569
 8273SOL     OW36451   0.200   3.291  17.289 -0.0762 -0.0013  0.1724
 8273SOL    HW136452   0.288   3.269  17.259 -0.8639  0.1511 -2.2891
 8273SOL    HW236453   0.145   3.294  17.210 -1.5126  1.6040  1.2385
 8274SOL     OW36454   1.587   4.534   4.315  0.0906  0.0086  0.2129
 8274SOL    HW136455   1.611   4.442   4.321  0.0475  0.1666  3.0794
 8274SOL    HW236456   1.498   4.537   4.352 -0.3709  1.3720 -0.9871
 8275SOL     OW36457   4.189   3.053   1.688 -0.0002 -0.3494  0.1925
 8275SOL    HW136458   4.124   3.023   1.625  1.7148 -0.3347 -1.5850
 8275SOL    HW236459   4.238   2.971   1.693  0.7151  0.2631  2.9478
 8276SOL     OW36460   3.744   3.344   0.625 -0.6436  0.1429 -0.0755
 8276SOL    HW136461   3.781   3.424   0.588  0.3935 -0.5163 -0.4584
 8276SOL    HW236462   3.795   3.281   0.574 -0.9152 -0.2698  0.1667
 8277SOL     OW36463   4.005   2.509   7.830 -0.3555 -0.3606  0.2629
 8277SOL    HW136464   3.961   2.507   7.745  2.6954  0.3211 -1.3242
 8277SOL    HW236465   4.092   2.485   7.797 -0.6769  0.1072 -0.9538
 8278SOL     OW36466   4.618   1.539   1.733 -0.7380 -0.0405  0.2066
 8278SOL    HW136467   4.557   1.555   1.805 -2.2285  0.1806 -1.1109
 8278SOL    HW236468   4.566   1.570   1.659 -0.1498  1.6959  0.5189
 8279SOL     OW36469   2.239   3.974   6.595 -0.4270  0.1874  0.0817
 8279SOL    HW136470   2.225   4.035   6.522 -0.3151 -0.5125 -0.5227
 8279SOL    HW236471   2.334   3.981   6.593 -0.5490  1.3031 -1.9060
 8280SOL     OW36472   1.826   1.707   9.303  0.1451  0.0901 -0.6896
 8280SOL    HW136473   1.872   1.732   9.383 -0.4997  0.1228 -0.3306
 8280SOL    HW236474   1.764   1.646   9.343  0.4203  1.0231  1.1329
 8281SOL     OW36475   1.425   0.678   7.655  0.1328 -0.0401  0.1127
 8281SOL    HW136476   1.516   0.659   7.635  0.1366  0.8674 -0.7757
 8281SOL    HW236477   1.389   0.684   7.566 -0.0595 -0.2397  0.1758
 8282SOL     OW36478   4.428   1.674   6.053 -0.1832 -0.1092 -0.0616
 8282SOL    HW136479   4.375   1.598   6.031  0.5750 -0.1635 -1.7493
 8282SOL    HW236480   4.482   1.637   6.123 -0.6291 -1.9250 -0.6895
 8283SOL     OW36481   2.217   3.418  16.329  0.0534  0.5640 -0.1044
 8283SOL    HW136482   2.178   3.359  16.266  0.8683  0.4375 -0.4916
 8283SOL    HW236483   2.204   3.499  16.280  0.5559  0.0021 -1.1818
 8284SOL     OW36484   2.234   2.881   5.217  0.5208 -0.1181  0.3472
 8284SOL    HW136485   2.199   2.810   5.271 -0.4869 -0.2318 -0.4674
 8284SOL    HW236486   2.196   2.959   5.258 -2.0804 -0.2054 -1.8794
 8285SOL     OW36487   0.033   3.692   8.087  0.0639  0.5956 -0.5564
 8285SOL    HW136488   4.701   3.753   8.055  0.5550  0.9653 -0.8872
 8285SOL    HW236489   4.723   3.615   8.121  1.3111  0.1192  0.0292
 8286SOL     OW36490   3.401   3.711   8.608 -0.3024 -0.3214 -0.3454
 8286SOL    HW136491   3.428   3.619   8.614  2.5889  0.6492  1.4869
 8286SOL    HW236492   3.314   3.683   8.638 -0.1375  0.2132  0.6297
 8287SOL     OW36493   2.301   4.459   8.600  0.2444 -0.1109 -0.2859
 8287SOL    HW136494   2.325   4.418   8.683 -1.5700  0.7865  0.6888
 8287SOL    HW236495   2.270   4.377   8.561 -0.8445 -0.0609  0.4646
 8288SOL     OW36496   0.458   1.815   2.133  0.4569  0.2937 -0.7496
 8288SOL    HW136497   0.470   1.880   2.063 -1.5048  2.6736  1.1665
 8288SOL    HW236498   0.422   1.739   2.089 -1.3668  1.1496 -0.7096
 8289SOL     OW36499   2.094   4.491  12.680 -0.2875  0.1413  0.3397
 8289SOL    HW136500   2.158   4.489  12.751 -0.8378 -2.0662  0.7969
 8289SOL    HW236501   2.013   4.529  12.711 -0.5991 -0.1491 -0.1019
 8290SOL     OW36502   3.212   0.734   8.003  0.0649  0.3555  0.1057
 8290SOL    HW136503   3.223   0.648   8.042  2.7174  0.2877 -0.7692
 8290SOL    HW236504   3.236   0.795   8.073  3.1696 -2.0919  1.1920
 8291SOL     OW36505   3.102   3.607  16.140 -0.1880  0.1850 -0.5316
 8291SOL    HW136506   3.103   3.619  16.045 -1.9873  3.3419 -0.1744
 8291SOL    HW236507   3.138   3.519  16.150 -1.9922 -0.5003 -0.0846
 8292SOL     OW36508   2.044   4.600   9.891 -0.1704  0.0421  0.4005
 8292SOL    HW136509   2.089   4.650   9.959  0.5826 -1.8430  1.2853
 8292SOL    HW236510   2.046   4.510   9.923 -3.4305 -0.1757 -0.0201
 8293SOL     OW36511   4.401   0.644   6.201  0.1467 -0.2948  0.0431
 8293SOL    HW136512   4.344   0.582   6.247 -0.7271  0.0864 -0.5248
 8293SOL    HW236513   4.357   0.654   6.116 -0.0251  1.1683  0.3176
 8294SOL     OW36514   1.400   2.799   0.967  0.2192  0.4602 -0.1256
 8294SOL    HW136515   1.455   2.847   1.029  1.2490  0.8571 -1.3394
 8294SOL    HW236516   1.418   2.706   0.978  2.0511  0.8058 -0.1378
 8295SOL     OW36517   2.967   2.921   8.683  0.2409 -0.5943  0.2057
 8295SOL    HW136518   2.938   3.012   8.682  1.8678 -0.0775 -0.2971
 8295SOL    HW236519   2.885   2.873   8.674  0.3510 -1.5563  4.3771
 8296SOL     OW36520   2.183   0.954  14.591 -1.1558 -0.1510 -0.3304
 8296SOL    HW136521   2.153   0.873  14.549  0.4275 -2.0329  2.0934
 8296SOL    HW236522   2.237   0.995  14.524 -1.6487 -0.2646 -0.7962
 8297SOL     OW36523   2.653   4.573   2.997 -0.6146 -0.0520 -0.0355
 8297SOL    HW136524   2.653   4.504   3.063 -0.5637  0.9326  1.0010
 8297SOL    HW236525   2.706   4.633   3.050 -1.4894  0.1299  0.6325
 8298SOL     OW36526   1.321   4.185   6.271  0.6103  0.0990  0.4343
 8298SOL    HW136527   1.366   4.222   6.195  1.0261  0.6201  0.9392
 8298SOL    HW236528   1.313   4.093   6.246 -1.0316  0.3847 -0.1148
 8299SOL     OW36529   4.011   2.985   1.489  0.5947  0.2685 -0.6584
 8299SOL    HW136530   4.069   2.972   1.414  1.5084 -1.5639  0.3569
 8299SOL    HW236531   3.938   3.027   1.444 -0.6992  1.0599  2.1816
 8300SOL     OW36532   4.104   0.757   7.250  0.2179 -0.9096  0.3007
 8300SOL    HW136533   4.012   0.774   7.271  0.9924  1.4331  1.8333
 8300SOL    HW236534   4.115   0.692   7.320  0.3149 -0.5109  0.6581
 8301SOL     OW36535   1.003   3.577  12.380  0.3797  0.0239 -0.3514
 8301SOL    HW136536   0.949   3.577  12.301 -2.2092 -0.3044  1.3950
 8301SOL    HW236537   1.074   3.516  12.361  2.3959  1.4063  2.8008
 8302SOL     OW36538   0.694   3.315   2.610 -0.2228  0.4016  0.7840
 8302SOL    HW136539   0.659   3.239   2.656  2.0750 -2.4796 -2.2189
 8302SOL    HW236540   0.783   3.317   2.644 -0.1226 -0.3202  0.5521
 8303SOL     OW36541   0.111   3.279   3.108  0.0149 -0.6426 -0.3787
 8303SOL    HW136542   0.033   3.294   3.161  1.5002  2.0687  1.0693
 8303SOL    HW236543   0.078   3.245   3.026 -1.2907 -1.4207  0.4723
 8304SOL     OW36544   1.073   4.322   1.570 -0.0192  0.1951  0.0567
 8304SOL    HW136545   1.022   4.377   1.628 -1.2946 -2.6239  1.6094
 8304SOL    HW236546   0.995   4.278   1.537  0.4679 -0.5076 -0.1587
 8305SOL     OW36547   0.558   0.946   3.546 -0.4063  0.0587  0.5924
 8305SOL    HW136548   0.481   1.004   3.545 -0.9526 -0.6167  2.0851
 8305SOL    HW236549   0.508   0.864   3.542 -0.3640  0.0704 -0.1652
 8306SOL     OW36550   4.708   1.420  11.448 -0.2635 -0.6524 -0.4235
 8306SOL    HW136551   4.644   1.489  11.466  1.2331  0.0978  2.1524
 8306SOL    HW236552   0.040   1.476  11.410 -2.4942  2.3460  0.0192
 8307SOL     OW36553   0.241   0.870   5.008 -0.0309 -0.0864 -0.4728
 8307SOL    HW136554   0.243   0.833   5.096  0.8721 -1.1791 -0.9402
 8307SOL    HW236555   0.233   0.796   4.948 -2.6975  0.0780 -0.3192
 8308SOL     OW36556   1.924   3.338  12.510 -0.8912 -0.0041  0.3303
 8308SOL    HW136557   1.848   3.395  12.503 -0.4749  0.4641 -0.2928
 8308SOL    HW236558   1.978   3.371  12.438  0.7920  0.1247  1.6416
 8309SOL     OW36559   0.216   0.817   6.311  0.3606  0.2999 -0.2030
 8309SOL    HW136560   0.169   0.845   6.389 -0.2631  1.0627 -0.8436
 8309SOL    HW236561   0.310   0.834   6.316  0.6279 -0.8074 -1.5892
 8310SOL     OW36562   1.229   1.145   4.398  0.7578 -0.3587 -0.0310
 8310SOL    HW136563   1.197   1.217   4.452 -1.0962 -0.6785 -0.6936
 8310SOL    HW236564   1.143   1.103   4.388 -0.9028  2.9668  0.4408
 8311SOL     OW36565   1.209   4.622   8.710  0.2881 -0.2430  0.3075
 8311SOL    HW136566   1.226   4.579   8.794 -0.8232  0.8732  1.0988
 8311SOL    HW236567   1.119   4.649   8.729  0.7791  1.4132  0.2841
 8312SOL     OW36568   1.610   4.147  10.795 -0.2125  0.0724  0.0194
 8312SOL    HW136569   1.596   4.055  10.774  0.5141  0.2755 -1.3486
 8312SOL    HW236570   1.706   4.146  10.800 -0.3742 -0.0826  3.1771
 8313SOL     OW36571   0.947   3.338   7.536 -0.6768  0.5504 -0.2140
 8313SOL    HW136572   1.007   3.412   7.528 -0.9279  1.1850  3.7754
 8313SOL    HW236573   0.995   3.274   7.588 -2.7053 -0.0493  0.9025
 8314SOL     OW36574   0.626   3.510  16.738 -0.4239  0.0372 -0.2698
 8314SOL    HW136575   0.590   3.422  16.735 -2.1559  0.8208 -2.2831
 8314SOL    HW236576   0.665   3.501  16.825  0.6895 -0.4810 -0.8261
 8315SOL     OW36577   0.553   0.464   4.452 -0.1773 -0.5384 -0.0871
 8315SOL    HW136578   0.504   0.454   4.370  0.2235 -1.4119 -0.2230
 8315SOL    HW236579   0.625   0.521   4.427  0.7553 -1.8900 -0.4916
 8316SOL     OW36580   3.135   0.123   8.345  0.3243 -0.4395  0.8793
 8316SOL    HW136581   3.179   0.186   8.402  1.2384  0.5825 -0.9837
 8316SOL    HW236582   3.204   0.062   8.320 -0.2545 -1.4458  1.7355
 8317SOL     OW36583   3.896   0.889   4.694 -0.3289  0.0047 -0.6383
 8317SOL    HW136584   3.848   0.927   4.768  1.0940  0.9215 -0.1840
 8317SOL    HW236585   3.833   0.821   4.671 -0.3636 -0.5588  1.0948
 8318SOL     OW36586   0.113   4.341  15.176  0.5282 -0.2332  1.0131
 8318SOL    HW136587   0.133   4.277  15.107 -1.0264  0.3520  0.0155
 8318SOL    HW236588   0.133   4.290  15.255  0.4849 -1.6686  0.0973
 8319SOL     OW36589   3.133   3.653   8.218  0.3419 -0.0697  0.1466
 8319SOL    HW136590   3.119   3.746   8.237 -2.3608 -0.5283  0.4110
 8319SOL    HW236591   3.061   3.612   8.266 -0.5230 -1.6144 -2.5077
 8320SOL     OW36592   4.108   0.586   9.389 -0.7404 -0.0283 -0.0134
 8320SOL    HW136593   4.118   0.505   9.440 -0.0248  0.1839  0.1895
 8320SOL    HW236594   4.146   0.641   9.458 -0.6947 -0.3409  0.2126
 8321SOL     OW36595   4.156   4.187   7.983 -0.1517  0.5037 -0.3438
 8321SOL    HW136596   4.070   4.168   8.022  0.3446 -1.1618 -0.0280
 8321SOL    HW236597   4.207   4.129   8.040  0.5134  2.1514  0.7192
 8322SOL     OW36598   3.430   0.965   2.349 -0.0922  0.8532 -0.0835
 8322SOL    HW136599   3.417   0.972   2.255  0.2230  0.1440 -0.1750
 8322SOL    HW236600   3.349   0.922   2.375 -0.2126  0.7432 -0.6422
 8323SOL     OW36601   1.188   1.135  14.263  0.4456 -0.2057  0.4760
 8323SOL    HW136602   1.177   1.041  14.249  1.1249 -0.1053 -0.8078
 8323SOL    HW236603   1.100   1.157  14.231  1.6720  0.9474 -2.1434
 8324SOL     OW36604   3.746   0.743   5.074 -0.2092 -0.1623  0.3666
 8324SOL    HW136605   3.685   0.704   5.012  1.4901 -0.1988 -1.2802
 8324SOL    HW236606   3.772   0.817   5.019  1.2038 -2.7700 -2.4707
 8325SOL     OW36607   1.952   4.330   0.741 -0.2480 -0.2481  0.5265
 8325SOL    HW136608   2.022   4.394   0.755  1.3376 -2.3133  1.9748
 8325SOL    HW236609   1.906   4.334   0.824 -1.4742 -2.3883 -0.0439
 8326SOL     OW36610   0.597   2.693  16.140  0.2875  0.1052  0.3008
 8326SOL    HW136611   0.532   2.681  16.070 -0.3784  0.1774  0.9052
 8326SOL    HW236612   0.584   2.625  16.207  1.5362 -0.6804 -0.2502
 8327SOL     OW36613   2.466   4.090   7.095 -0.2156 -0.2041  0.2054
 8327SOL    HW136614   2.439   4.136   7.016 -1.4913 -1.6302 -0.1697
 8327SOL    HW236615   2.383   4.094   7.142 -0.9869 -1.7832 -1.0366
 8328SOL     OW36616   2.831   1.520   6.661  0.1266  0.1238 -0.0585
 8328SOL    HW136617   2.802   1.537   6.751 -2.3719 -0.1109 -0.8227
 8328SOL    HW236618   2.791   1.595   6.616 -0.8029  1.5746  3.1836
 8329SOL     OW36619   3.854   1.904   4.366  0.2122  0.9608 -0.5161
 8329SOL    HW136620   3.762   1.880   4.372  0.4167  0.2634 -0.2048
 8329SOL    HW236621   3.867   1.942   4.452  1.9719 -0.6120 -0.0839
 8330SOL     OW36622   3.409   4.607  16.832 -0.4634  0.4593  0.1659
 8330SOL    HW136623   3.492   4.566  16.859 -0.2996  2.1448  2.2099
 8330SOL    HW236624   3.346   4.575  16.897  0.4843 -0.3432  0.6966
 8331SOL     OW36625   3.055   3.074   1.388 -0.3533 -0.3636  0.5446
 8331SOL    HW136626   3.041   3.060   1.481 -2.3883 -0.7372  0.1905
 8331SOL    HW236627   3.090   3.163   1.382 -0.1506 -0.4427  0.5546
 8332SOL     OW36628   0.380   2.499  13.251  1.0635 -0.0401 -0.5929
 8332SOL    HW136629   0.360   2.591  13.272  0.7293 -0.0703 -0.7720
 8332SOL    HW236630   0.310   2.448  13.292  1.2098  1.3793  1.4374
 8333SOL     OW36631   4.541   2.744   9.234 -0.4703 -0.4671  0.2046
 8333SOL    HW136632   4.562   2.665   9.283  1.6459  0.3987  0.6736
 8333SOL    HW236633   4.582   2.812   9.287 -0.9757  0.3683 -0.4685
 8334SOL     OW36634   1.390   1.003   9.186  0.8017  0.0678  0.0916
 8334SOL    HW136635   1.479   1.038   9.190 -0.0755  2.3612 -0.2271
 8334SOL    HW236636   1.345   1.079   9.223 -0.7210  0.1202 -1.8804
 8335SOL     OW36637   3.839   3.570  15.556  0.1795 -0.3350 -0.0129
 8335SOL    HW136638   3.769   3.609  15.504  0.4464  1.5513  1.0327
 8335SOL    HW236639   3.851   3.497  15.496 -0.9997 -0.4165 -0.1363
 8336SOL     OW36640   1.964   3.262   2.791  0.0301  0.3383  0.3966
 8336SOL    HW136641   1.991   3.340   2.742 -1.1304  0.2505 -0.3614
 8336SOL    HW236642   2.028   3.199   2.756  0.0766  0.5267  0.1421
 8337SOL     OW36643   0.001   1.112  16.347  0.2707 -0.3699  0.2760
 8337SOL    HW136644   4.704   1.122  16.258 -3.5461 -1.1227  1.5772
 8337SOL    HW236645   0.028   1.020  16.349  1.6599  0.1108  3.9623
 8338SOL     OW36646   0.316   3.918  17.353  0.2498 -0.9081  0.6805
 8338SOL    HW136647   0.363   3.864  17.290 -1.5461 -0.6718 -0.8626
 8338SOL    HW236648   0.235   3.936  17.305  0.3544 -0.2034  0.7598
 8339SOL     OW36649   2.946   0.737   7.919 -0.6586  0.2250  0.5731
 8339SOL    HW136650   2.951   0.779   7.833  2.8750  0.4171  0.8443
 8339SOL    HW236651   3.039   0.728   7.940 -0.5703  1.9317  0.9016
 8340SOL     OW36652   3.594   2.622   6.784  0.0597 -0.9423  0.1861
 8340SOL    HW136653   3.611   2.529   6.798 -0.8930 -0.9913  1.0099
 8340SOL    HW236654   3.585   2.622   6.689  1.4241 -1.0130  0.0555
 8341SOL     OW36655   1.917   3.455   8.472 -0.7322 -1.0929 -0.0803
 8341SOL    HW136656   1.986   3.389   8.465  0.9842  1.0342 -2.7139
 8341SOL    HW236657   1.969   3.535   8.474 -0.5116 -1.2386  0.0937
 8342SOL     OW36658   0.787   2.573   1.333 -0.2419  0.4550  0.6170
 8342SOL    HW136659   0.741   2.494   1.360  0.2579  0.1843  0.6771
 8342SOL    HW236660   0.723   2.619   1.279  0.5581  0.7423 -0.0962
 8343SOL     OW36661   0.302   2.828   7.099 -0.2354  0.1019  0.6208
 8343SOL    HW136662   0.223   2.853   7.148  2.1835  3.3434  2.8468
 8343SOL    HW236663   0.292   2.733   7.089 -1.1639  0.4058 -1.2013
 8344SOL     OW36664   0.774   3.067   9.350 -0.2748 -0.4699  0.3191
 8344SOL    HW136665   0.691   3.069   9.303 -0.2337  0.7664  0.3085
 8344SOL    HW236666   0.799   3.159   9.353 -1.6333 -0.1265  1.6732
 8345SOL     OW36667   0.030   1.080   6.745 -0.2433  0.1149  0.0358
 8345SOL    HW136668   4.735   1.145   6.681  1.4748  2.4022  1.5425
 8345SOL    HW236669   0.043   1.143   6.816 -0.1855  1.5582 -1.2443
 8346SOL     OW36670   0.285   2.122  16.846 -0.5664 -0.0329  0.5473
 8346SOL    HW136671   0.212   2.182  16.863 -0.8581  0.2480 -1.7269
 8346SOL    HW236672   0.342   2.141  16.921  1.2762 -1.1018 -0.5810
 8347SOL     OW36673   0.914   1.483   1.249  0.3623  0.2294 -0.4310
 8347SOL    HW136674   0.935   1.487   1.342  0.3773 -0.6770 -0.3917
 8347SOL    HW236675   0.998   1.493   1.205  1.9311 -0.5155  2.3510
 8348SOL     OW36676   1.009   2.167   4.686  0.1783 -0.2775  0.2616
 8348SOL    HW136677   0.916   2.143   4.690 -0.1610  1.1245  0.7822
 8348SOL    HW236678   1.053   2.109   4.749  0.2643  0.5853  0.9979
 8349SOL     OW36679   1.609   0.414   2.236 -0.3788 -0.2787  0.3711
 8349SOL    HW136680   1.646   0.490   2.191 -2.8539  1.1152  0.6935
 8349SOL    HW236681   1.533   0.396   2.181 -0.3127  1.0756 -0.1600
 8350SOL     OW36682   1.448   0.008   8.690  0.3965  0.3682  0.1556
 8350SOL    HW136683   1.405   0.093   8.691 -0.7960 -0.2335 -1.7309
 8350SOL    HW236684   1.370   4.689   8.678  0.7656  0.4042 -2.2991
 8351SOL     OW36685   2.478   0.597  16.911 -0.1363 -0.3776  0.2674
 8351SOL    HW136686   2.470   0.651  16.833  1.7144  0.3988  0.6147
 8351SOL    HW236687   2.390   0.587  16.947  0.4526 -0.0887  1.8085
 8352SOL     OW36688   1.439   4.613   4.956  0.0776  0.2721  0.3700
 8352SOL    HW136689   1.382   4.684   4.929 -0.9237 -1.1122 -1.1043
 8352SOL    HW236690   1.512   4.655   5.003  0.4271 -1.8832  1.7695
 8353SOL     OW36691   0.506   0.806   0.748  0.3300 -0.0658  0.4251
 8353SOL    HW136692   0.536   0.867   0.681 -1.2103  0.8880  0.6062
 8353SOL    HW236693   0.449   0.746   0.701  0.8097 -0.6208  0.5597
 8354SOL     OW36694   4.397   0.666  15.826 -0.0029 -0.1755 -0.2072
 8354SOL    HW136695   4.310   0.708  15.820 -0.4147 -1.2665 -1.6472
 8354SOL    HW236696   4.447   0.728  15.880 -1.2793  1.2918 -0.7026
 8355SOL     OW36697   3.831   3.141   1.312  0.3374  0.0058 -0.6675
 8355SOL    HW136698   3.907   3.186   1.274  2.6282 -2.8173  0.5851
 8355SOL    HW236699   3.784   3.217   1.348  0.0384  1.1621 -3.4611
 8356SOL     OW36700   1.418   2.501  12.216 -0.5995  0.2542  0.1583
 8356SOL    HW136701   1.474   2.522  12.291  0.8778 -0.3695 -0.7860
 8356SOL    HW236702   1.455   2.423  12.176 -2.6665 -0.7503  0.2097
 8357SOL     OW36703   1.942   3.941  14.149  0.5457 -0.9883  0.5099
 8357SOL    HW136704   2.010   3.920  14.213 -0.6682 -0.1384  2.0827
 8357SOL    HW236705   1.926   3.854  14.111  0.5265  0.2637 -2.3647
 8358SOL     OW36706   2.039   2.492   3.718 -0.6054 -0.3875  0.8356
 8358SOL    HW136707   1.968   2.535   3.672 -1.1830  0.6898  2.7182
 8358SOL    HW236708   1.982   2.436   3.771 -0.4797 -1.2195  0.0800
 8359SOL     OW36709   4.038   0.769   8.151  0.3342  0.2821 -0.2904
 8359SOL    HW136710   3.964   0.716   8.180  0.4365 -0.2306 -0.9639
 8359SOL    HW236711   4.099   0.704   8.115  1.5464 -0.7657  3.7332
 8360SOL     OW36712   1.142   4.465   3.631  0.5306  0.4605  0.0640
 8360SOL    HW136713   1.199   4.439   3.703 -0.1359 -2.1994 -0.3470
 8360SOL    HW236714   1.055   4.437   3.659  0.2346 -0.0236 -1.3341
 8361SOL     OW36715   3.796   2.207   6.402 -0.2388 -0.6120  0.0742
 8361SOL    HW136716   3.870   2.167   6.448 -0.3072  0.1360  0.8157
 8361SOL    HW236717   3.833   2.294   6.389 -2.8381  0.4258 -0.3753
 8362SOL     OW36718   2.258   1.007  15.286  0.8983 -0.2668 -1.0898
 8362SOL    HW136719   2.336   0.995  15.340 -2.1575 -2.9432  2.6795
 8362SOL    HW236720   2.233   0.916  15.274 -0.4959  0.1307 -1.1341
 8363SOL     OW36721   2.722   1.841  11.975 -0.2952 -0.3701 -0.1791
 8363SOL    HW136722   2.783   1.772  11.947 -1.4509 -2.3846  2.3054
 8363SOL    HW236723   2.717   1.890  11.893 -0.0743 -1.5109 -0.8762
 8364SOL     OW36724   0.865   0.911   6.665 -0.6593  0.2368  0.4947
 8364SOL    HW136725   0.912   0.827   6.669 -2.2846 -0.7219 -0.5746
 8364SOL    HW236726   0.772   0.887   6.661 -0.5883  0.3954 -1.7825
 8365SOL     OW36727   2.307   1.828   4.113 -0.4282  0.3476 -0.7136
 8365SOL    HW136728   2.218   1.830   4.078 -0.7311  0.6887  0.0782
 8365SOL    HW236729   2.348   1.909   4.081  0.0127  0.9602  1.4287
 8366SOL     OW36730   3.237   3.844   7.737  0.3763  0.3053  0.6734
 8366SOL    HW136731   3.228   3.939   7.730 -0.1027  0.1549 -0.6866
 8366SOL    HW236732   3.230   3.833   7.832  1.0968 -0.4902  0.6346
 8367SOL     OW36733   3.925   0.349  13.550  0.1959  0.0295 -0.0689
 8367SOL    HW136734   3.881   0.419  13.502 -1.2394  0.2186  1.5576
 8367SOL    HW236735   3.986   0.401  13.602 -0.3639 -0.3263  0.9219
 8368SOL     OW36736   0.444   2.504  14.792 -0.4794 -0.4520  0.3439
 8368SOL    HW136737   0.517   2.549  14.750 -0.5329 -0.0645  0.6659
 8368SOL    HW236738   0.479   2.422  14.828 -0.5002 -0.0648  1.2586
 8369SOL     OW36739   1.116   1.981   4.008  0.5781  0.1743  0.0497
 8369SOL    HW136740   1.178   1.972   3.936  0.7234 -0.8358  0.2919
 8369SOL    HW236741   1.139   1.901   4.056 -2.5185 -0.2776  0.7743
 8370SOL     OW36742   2.146   4.151   1.615 -0.5088 -0.2509  0.2254
 8370SOL    HW136743   2.235   4.172   1.646 -0.1045 -1.1439 -0.3224
 8370SOL    HW236744   2.091   4.151   1.692  0.2550 -0.7821  0.7727
 8371SOL     OW36745   3.633   1.796  15.735 -0.0394 -0.2871  1.0344
 8371SOL    HW136746   3.683   1.795  15.653 -1.4952  0.6468  0.1480
 8371SOL    HW236747   3.689   1.846  15.795  2.4532  0.2563 -1.7117
 8372SOL     OW36748   1.377   4.212   9.459 -0.1226  0.1618  0.0321
 8372SOL    HW136749   1.383   4.146   9.390  2.1852  0.8773 -0.4552
 8372SOL    HW236750   1.469   4.208   9.485 -0.2233 -0.2173  0.3204
 8373SOL     OW36751   2.254   0.250   5.635  0.0043 -0.2711  0.9848
 8373SOL    HW136752   2.190   0.303   5.682  0.2160  1.4993 -0.7083
 8373SOL    HW236753   2.301   0.202   5.704  1.1314 -0.7566 -0.1230
 8374SOL     OW36754   2.804   0.100   3.461  0.3405  0.1037  0.9217
 8374SOL    HW136755   2.877   0.039   3.445 -1.7489 -1.9892 -0.5678
 8374SOL    HW236756   2.840   0.183   3.429 -0.5133  0.0583 -0.1420
 8375SOL     OW36757   2.998   3.706   6.247 -0.0183 -0.0027  0.4909
 8375SOL    HW136758   3.071   3.651   6.275  2.5584  2.1491 -1.9958
 8375SOL    HW236759   2.931   3.637   6.244  0.7601 -0.6428 -2.4638
 8376SOL     OW36760   2.682   1.511  13.907 -0.1530 -0.2362 -0.2251
 8376SOL    HW136761   2.711   1.557  13.986 -0.1163  0.3836 -0.6005
 8376SOL    HW236762   2.712   1.421  13.924  1.3656 -0.1233 -2.3321
 8377SOL     OW36763   3.523   1.770   6.497 -0.0203 -0.2368  0.3006
 8377SOL    HW136764   3.471   1.827   6.440  0.1787  0.2727  0.6236
 8377SOL    HW236765   3.608   1.789   6.458 -1.0474 -2.0404 -2.7746
 8378SOL     OW36766   0.264   4.170   7.186 -0.1583  0.1478  0.8273
 8378SOL    HW136767   0.345   4.146   7.231 -0.0863 -0.9904  0.0920
 8378SOL    HW236768   0.200   4.155   7.256  0.1838 -0.2735  1.0527
 8379SOL     OW36769   2.270   3.744   8.247 -0.1762  0.0446  0.1660
 8379SOL    HW136770   2.226   3.738   8.162  0.2864  0.6970 -0.1233
 8379SOL    HW236771   2.198   3.754   8.310 -0.3631 -1.5066  0.1999
 8380SOL     OW36772   0.118   1.360  13.028 -0.5161  0.1652 -0.0911
 8380SOL    HW136773   0.138   1.377  12.936 -0.4662  0.6642  0.0103
 8380SOL    HW236774   0.049   1.294  13.032 -0.7413  0.3032 -1.8740
 8381SOL     OW36775   2.100   0.224   2.397  0.9936 -0.3760  0.1697
 8381SOL    HW136776   2.188   0.225   2.359  0.4674 -0.0260 -1.0167
 8381SOL    HW236777   2.077   0.135   2.372  1.1359 -0.3523 -0.0517
 8382SOL     OW36778   1.393   1.430  10.275 -0.3583  0.7017  0.0438
 8382SOL    HW136779   1.466   1.476  10.235 -0.1744 -0.3155 -0.7823
 8382SOL    HW236780   1.412   1.341  10.245 -0.5352  0.9027 -0.6657
 8383SOL     OW36781   0.185   2.894   6.569  0.1271 -0.2660 -0.3631
 8383SOL    HW136782   0.191   2.799   6.564 -2.0527 -0.4443  0.6860
 8383SOL    HW236783   0.279   2.914   6.576 -0.2983  1.1480  1.4348
 8384SOL     OW36784   1.273   3.655   2.902  0.2098 -0.4801 -0.1263
 8384SOL    HW136785   1.281   3.642   2.996 -1.8901  0.7939  0.2111
 8384SOL    HW236786   1.198   3.602   2.874 -0.6983  0.3954  0.7084
 8385SOL     OW36787   1.775   3.026   6.224 -0.5338  0.5917  0.3255
 8385SOL    HW136788   1.844   2.965   6.199 -2.1212  0.0722 -2.6672
 8385SOL    HW236789   1.777   3.030   6.320 -1.4377 -1.5429  0.4406
 8386SOL     OW36790   2.607   1.943  17.269 -0.4052  0.3693  0.7209
 8386SOL    HW136791   2.663   1.998  17.214 -1.0276  0.7778  0.4937
 8386SOL    HW236792   2.635   1.857  17.237 -0.1385  0.5748  0.4059
 8387SOL     OW36793   4.164   1.544   8.784 -0.2573  0.2612 -0.0059
 8387SOL    HW136794   4.257   1.534   8.801 -0.1544  2.6402  0.8452
 8387SOL    HW236795   4.166   1.562   8.690  1.4785  1.7305  0.3124
 8388SOL     OW36796   3.662   4.392   0.201  0.4068 -1.0101  0.0703
 8388SOL    HW136797   3.689   4.327   0.136  0.9144 -1.5310  0.8142
 8388SOL    HW236798   3.712   4.375   0.281  3.3732  0.8035 -1.3848
 8389SOL     OW36799   0.766   3.880  13.150 -0.3432  0.8791  0.6579
 8389SOL    HW136800   0.723   3.937  13.213 -0.7699  0.9543  0.2985
 8389SOL    HW236801   0.855   3.868  13.184  0.9369  2.6876 -2.0017
 8390SOL     OW36802   0.267   2.344   6.519 -0.4024  0.2677 -0.2936
 8390SOL    HW136803   0.173   2.333   6.534 -0.3648 -1.9503 -1.7595
 8390SOL    HW236804   0.289   2.326   6.428  0.7715 -0.0215  0.0406
 8391SOL     OW36805   0.512   3.953   9.244  0.2201 -0.0348 -0.0402
 8391SOL    HW136806   0.539   3.949   9.152 -0.3463 -1.6797 -0.1293
 8391SOL    HW236807   0.462   4.034   9.238 -2.7234 -1.7532  1.4225
 8392SOL     OW36808   3.803   1.524   7.978 -0.3062 -0.4335 -0.7495
 8392SOL    HW136809   3.781   1.615   7.961 -0.4344 -0.5888 -1.4091
 8392SOL    HW236810   3.802   1.488   7.889 -0.9773 -0.4661 -0.7269
 8393SOL     OW36811   0.936   1.213  14.156  0.2240 -0.1258 -0.0798
 8393SOL    HW136812   0.918   1.283  14.093  0.4084  1.1231  1.2732
 8393SOL    HW236813   0.875   1.146  14.126 -1.5211  1.6443 -0.5299
 8394SOL     OW36814   0.301   4.023  16.242 -0.2232 -0.1963  0.3011
 8394SOL    HW136815   0.332   3.977  16.321 -0.3217 -0.4090  0.2159
 8394SOL    HW236816   0.272   4.107  16.278 -1.0418 -0.2991 -0.1211
 8395SOL     OW36817   0.550   1.267   2.911 -0.2411  0.1979 -0.0014
 8395SOL    HW136818   0.481   1.201   2.912  0.3293 -0.4030 -0.3428
 8395SOL    HW236819   0.597   1.259   2.828 -1.5152  0.6605 -0.7703
 8396SOL     OW36820   4.483   2.661   5.685 -0.4128 -0.2769 -0.5189
 8396SOL    HW136821   4.497   2.599   5.756 -0.8436  0.8861  0.5930
 8396SOL    HW236822   4.575   2.689   5.680 -1.1218  2.0057 -0.8098
 8397SOL     OW36823   4.610   1.320   2.897  0.0807 -0.3862 -0.6412
 8397SOL    HW136824   4.622   1.407   2.860 -0.3027 -0.2016 -0.3323
 8397SOL    HW236825   4.528   1.339   2.941  0.2351 -0.2994 -0.3887
 8398SOL     OW36826   3.152   4.307  12.447  0.0434 -0.9585 -0.2185
 8398SOL    HW136827   3.100   4.387  12.452  0.0815 -0.9994  1.0089
 8398SOL    HW236828   3.102   4.254  12.386  1.0218 -1.7558 -0.3412
 8399SOL     OW36829   2.495   0.722  12.370 -0.3572  1.1581  0.3275
 8399SOL    HW136830   2.445   0.761  12.298 -2.2100  0.7035  1.3624
 8399SOL    HW236831   2.439   0.649  12.399  0.6052 -0.7279 -2.4934
 8400SOL     OW36832   0.322   3.385   2.719 -0.6570  0.2956 -0.0108
 8400SOL    HW136833   0.353   3.404   2.630 -3.6864  1.7215 -0.7463
 8400SOL    HW236834   0.230   3.410   2.706 -0.3543  1.6993  0.6208
 8401SOL     OW36835   4.322   3.446   8.370  0.5023 -0.1432 -0.7699
 8401SOL    HW136836   4.247   3.427   8.426  0.3513  0.0095 -0.9173
 8401SOL    HW236837   4.345   3.535   8.397  1.9847 -0.6015 -0.5334
 8402SOL     OW36838   1.553   1.759  11.691 -0.1502  0.4472  0.0613
 8402SOL    HW136839   1.464   1.794  11.698  0.6428  1.9567  2.6283
 8402SOL    HW236840   1.565   1.732  11.782 -1.3061  0.5528  0.2509
 8403SOL     OW36841   4.281   0.653  11.774 -0.0145 -0.5239 -0.2728
 8403SOL    HW136842   4.254   0.650  11.865 -2.4667  1.6760 -0.9324
 8403SOL    HW236843   4.211   0.595  11.741  0.3781 -0.8634 -0.5185
 8404SOL     OW36844   0.211   3.823   6.675 -0.2974 -0.0608 -0.1172
 8404SOL    HW136845   0.265   3.788   6.746 -1.9554 -0.7514  0.8111
 8404SOL    HW236846   0.255   3.901   6.642  0.9717 -0.3529  0.9077
 8405SOL     OW36847   1.203   4.460   2.137 -0.3373  0.3671 -0.2531
 8405SOL    HW136848   1.176   4.547   2.166 -0.5820  0.1951  0.0357
 8405SOL    HW236849   1.251   4.486   2.058 -0.0040  2.4924  0.6812
 8406SOL     OW36850   0.352   0.426   6.994  0.2097 -0.9125 -0.0755
 8406SOL    HW136851   0.308   0.509   7.011  0.4483 -0.8361  0.1727
 8406SOL    HW236852   0.274   0.381   6.962  2.1290 -1.6193 -3.8472
 8407SOL     OW36853   2.681   1.792   4.935  0.3569 -0.2256 -0.3245
 8407SOL    HW136854   2.709   1.883   4.923 -1.5440  0.4277  0.2118
 8407SOL    HW236855   2.735   1.769   5.011  1.3215 -0.3165 -1.0286
 8408SOL     OW36856   3.464   2.456   9.477 -0.5170 -0.8885  0.0394
 8408SOL    HW136857   3.450   2.366   9.508 -2.8767 -0.4889  0.1354
 8408SOL    HW236858   3.525   2.436   9.406 -2.6818  0.7966 -2.2899
 8409SOL     OW36859   1.476   4.563   3.337 -0.1654 -0.7077  0.0982
 8409SOL    HW136860   1.514   4.476   3.328 -0.2596 -0.8825  1.4568
 8409SOL    HW236861   1.484   4.603   3.250 -0.0734 -0.4348  0.2300
 8410SOL     OW36862   3.080   2.698  12.475 -0.4987  0.1092 -0.8275
 8410SOL    HW136863   3.173   2.703  12.497 -1.0054  1.7733  0.8550
 8410SOL    HW236864   3.048   2.784  12.501  1.6994  0.8498 -0.6265
 8411SOL     OW36865   1.990   3.464   4.133  0.0450  0.2430  0.0891
 8411SOL    HW136866   2.049   3.461   4.208  0.6703  0.1125 -0.3986
 8411SOL    HW236867   2.008   3.378   4.096  1.8812 -0.1535  1.9462
 8412SOL     OW36868   0.981   2.345   9.618 -0.0631  0.6093  0.4278
 8412SOL    HW136869   1.053   2.407   9.613  1.1303 -0.7956 -0.0238
 8412SOL    HW236870   0.940   2.370   9.701  0.8582  1.6377  0.5745
 8413SOL     OW36871   0.534   0.161  14.421  0.2073  0.0659 -0.5057
 8413SOL    HW136872   0.491   0.216  14.355  0.5004 -1.1106 -1.6713
 8413SOL    HW236873   0.591   0.230  14.455  1.7753 -1.6963  0.4372
 8414SOL     OW36874   0.609   1.388   6.816 -0.1671  0.0612 -0.0340
 8414SOL    HW136875   0.600   1.479   6.843  1.4873  0.5221 -1.0436
 8414SOL    HW236876   0.601   1.397   6.721  1.4093 -1.7567 -0.3559
 8415SOL     OW36877   4.485   2.202   4.759 -0.2141  0.0079  0.1352
 8415SOL    HW136878   4.410   2.150   4.786 -1.3335  0.0816 -2.8066
 8415SOL    HW236879   4.525   2.223   4.843 -0.8367 -1.2767  0.7538
 8416SOL     OW36880   3.658   4.713   2.500  0.3553  0.2458 -0.9676
 8416SOL    HW136881   3.730   4.649   2.500  1.2356  1.2329  0.2014
 8416SOL    HW236882   3.694   0.032   2.569  0.5992  0.3641 -1.1863
 8417SOL     OW36883   0.442   0.587   0.379  0.3778  0.0836  0.0441
 8417SOL    HW136884   0.522   0.591   0.431 -0.2619 -0.7965  1.0828
 8417SOL    HW236885   0.389   0.657   0.417 -1.1372 -0.3716 -1.2404
 8418SOL     OW36886   2.490   3.704   2.794 -0.5339  0.4324 -0.4250
 8418SOL    HW136887   2.504   3.729   2.886  1.6998  1.3722 -1.0114
 8418SOL    HW236888   2.438   3.780   2.768 -0.2857  0.4526 -0.8587
 8419SOL     OW36889   4.732   0.207   6.697  0.0059 -0.8120 -0.1214
 8419SOL    HW136890   4.710   0.189   6.788  0.5886 -1.3668 -0.0902
 8419SOL    HW236891   0.075   0.157   6.674  1.3402  0.8157  0.8829
 8420SOL     OW36892   0.120   0.584  14.438 -0.1170 -0.0185  0.3551
 8420SOL    HW136893   0.111   0.528  14.514 -0.6748  0.0200  0.3167
 8420SOL    HW236894   0.086   0.532  14.365 -1.5921  0.1802  0.9076
 8421SOL     OW36895   2.039   3.583   3.201 -0.3888 -0.5041 -0.6073
 8421SOL    HW136896   2.076   3.545   3.121  0.6980  0.6113 -0.6209
 8421SOL    HW236897   1.950   3.547   3.198 -0.0353 -1.2665 -1.6646
 8422SOL     OW36898   4.508   3.909   1.676 -0.3312  0.0705 -0.0455
 8422SOL    HW136899   4.426   3.938   1.716 -0.5201  0.4882 -0.7390
 8422SOL    HW236900   4.531   3.991   1.633  0.2720 -0.7204 -1.2059
 8423SOL     OW36901   1.600   4.249   4.307  0.4930 -0.1597  0.1673
 8423SOL    HW136902   1.599   4.164   4.262  0.0098 -0.7716  1.3611
 8423SOL    HW236903   1.507   4.265   4.323  0.7312  2.3257 -0.8948
 8424SOL     OW36904   1.965   2.057   4.433  0.4540  0.2322  0.1938
 8424SOL    HW136905   1.920   2.091   4.356  1.2311  0.7897 -0.0135
 8424SOL    HW236906   2.045   2.027   4.390 -0.5915 -1.1707 -0.8029
 8425SOL     OW36907   4.445   1.246  17.235  0.1601  0.3160 -0.4357
 8425SOL    HW136908   4.538   1.224  17.240 -0.1790 -0.5564  2.2880
 8425SOL    HW236909   4.418   1.210  17.319  0.5375 -0.4795 -0.6591
 8426SOL     OW36910   2.136   3.443   7.062  0.1792 -0.1359 -0.2371
 8426SOL    HW136911   2.109   3.516   7.117 -2.1440 -0.3653 -1.0787
 8426SOL    HW236912   2.231   3.459   7.057  0.2710 -0.9778 -1.1427
 8427SOL     OW36913   4.385   3.410   6.983  1.0819  0.2486 -0.1855
 8427SOL    HW136914   4.390   3.476   6.913  0.0211 -0.7651 -1.2089
 8427SOL    HW236915   4.473   3.373   6.986  1.4442  1.3867  2.5777
 8428SOL     OW36916   1.858   4.718   1.613 -0.0141 -0.3690 -0.0830
 8428SOL    HW136917   1.788   4.723   1.547  2.0752 -0.3322 -2.3236
 8428SOL    HW236918   1.869   4.623   1.618  0.8580 -0.1845  1.5429
 8429SOL     OW36919   4.203   4.357   8.218  0.1131 -0.7397 -0.0736
 8429SOL    HW136920   4.189   4.264   8.236 -1.2163 -0.4670  0.2571
 8429SOL    HW236921   4.241   4.362   8.130  3.2124 -1.9145  1.2199
 8430SOL     OW36922   2.652   2.074   7.948 -0.7307 -0.0266 -0.2014
 8430SOL    HW136923   2.629   1.993   7.994 -0.1585  0.0445  0.2121
 8430SOL    HW236924   2.730   2.109   7.992 -0.1700 -1.6543  0.0955
 8431SOL     OW36925   1.249   1.861  13.559 -0.8010  0.2201  0.2764
 8431SOL    HW136926   1.345   1.856  13.556 -0.7895 -0.5553  2.0954
 8431SOL    HW236927   1.237   1.877  13.653  0.3060 -1.7287  0.7358
 8432SOL     OW36928   2.844   1.401   5.069  0.0968 -0.3700  0.4976
 8432SOL    HW136929   2.935   1.427   5.086 -0.2291  0.6029  0.7347
 8432SOL    HW236930   2.804   1.487   5.080  1.5242  0.4921 -0.9663
 8433SOL     OW36931   1.972   1.800   4.609 -0.0119 -0.4850 -0.7683
 8433SOL    HW136932   1.997   1.713   4.579 -1.8551 -1.9618  1.9151
 8433SOL    HW236933   1.950   1.856   4.535  2.6381 -0.0617 -1.2558
 8434SOL     OW36934   1.976   2.731   1.211 -0.2987  0.0685  0.5374
 8434SOL    HW136935   2.000   2.811   1.257 -3.9435  1.5489 -0.1250
 8434SOL    HW236936   1.884   2.743   1.188  0.4645 -0.2125 -2.6652
 8435SOL     OW36937   2.417   1.574   0.700 -0.1868  0.1804  0.2650
 8435SOL    HW136938   2.368   1.574   0.782 -1.6977  1.0807 -0.6285
 8435SOL    HW236939   2.506   1.584   0.732 -0.1152 -2.8804  0.9510
 8436SOL     OW36940   0.544   1.352   5.631  0.2089  0.1500 -0.0786
 8436SOL    HW136941   0.554   1.447   5.632 -2.1798  0.3949  1.5184
 8436SOL    HW236942   0.456   1.335   5.599  0.3096 -0.9061  0.2029
 8437SOL     OW36943   4.094   1.504   3.318 -0.6740  0.1862 -0.2054
 8437SOL    HW136944   4.132   1.438   3.376 -0.3518  0.7053  0.1809
 8437SOL    HW236945   4.170   1.560   3.301 -2.0139  1.9078 -0.5428
 8438SOL     OW36946   3.127   4.289   2.094  0.5284  0.3134  0.7210
 8438SOL    HW136947   3.150   4.213   2.040 -5.6173 -0.7731 -0.2874
 8438SOL    HW236948   3.108   4.355   2.028 -0.3208 -0.2223  0.4268
 8439SOL     OW36949   3.093   2.803  12.995 -0.4756 -0.0736  0.3674
 8439SOL    HW136950   3.032   2.777  12.926  0.0770 -1.0447  0.2415
 8439SOL    HW236951   3.118   2.894  12.978 -0.4707 -0.7268 -3.0055
 8440SOL     OW36952   3.590   2.223  10.062 -0.4607  0.4776  0.1272
 8440SOL    HW136953   3.586   2.258   9.973 -0.3613 -2.2788 -0.9735
 8440SOL    HW236954   3.672   2.258  10.095  0.5170 -0.9839 -0.7634
 8441SOL     OW36955   0.076   2.148  12.300 -0.5673  0.1412 -0.1564
 8441SOL    HW136956   0.124   2.165  12.219 -0.2680  0.1457  0.0231
 8441SOL    HW236957   0.119   2.202  12.367  0.3985 -2.0550  1.0090
 8442SOL     OW36958   3.601   3.082   7.974  0.0146 -0.7619  0.3373
 8442SOL    HW136959   3.517   3.126   7.960 -0.1925 -1.4633 -0.5574
 8442SOL    HW236960   3.641   3.146   8.034  1.1789 -0.3068 -0.9177
 8443SOL     OW36961   2.041   4.273   3.751  0.1469  0.5224 -0.5967
 8443SOL    HW136962   2.053   4.364   3.778 -0.5574 -0.1546  1.9909
 8443SOL    HW236963   1.977   4.283   3.681  0.5050 -2.7093 -1.4048
 8444SOL     OW36964   4.630   3.931   7.567  0.1752  0.0400  0.3423
 8444SOL    HW136965   4.658   3.858   7.512 -1.6221 -0.0402 -0.4691
 8444SOL    HW236966   4.553   3.883   7.599  1.0338  0.1166  2.5370
 8445SOL     OW36967   3.426   3.790   5.374  0.1956 -0.1958  0.3421
 8445SOL    HW136968   3.502   3.759   5.326 -3.0800 -1.1365 -4.2706
 8445SOL    HW236969   3.429   3.728   5.447 -1.2186  0.5369  1.0264
 8446SOL     OW36970   2.017   3.829   9.308 -0.2600  0.1040  0.4840
 8446SOL    HW136971   1.956   3.763   9.340 -1.1588  0.2284 -0.9686
 8446SOL    HW236972   1.982   3.901   9.360  0.3362  1.3975 -0.9049
 8447SOL     OW36973   1.822   1.879  17.492 -0.3765 -0.1481  0.1857
 8447SOL    HW136974   1.825   1.810  17.559 -0.6578 -0.2025  0.1453
 8447SOL    HW236975   1.911   1.884  17.458  0.4005  0.4739  2.2591
 8448SOL     OW36976   2.813   1.757   2.208  0.4740  0.4350 -0.0169
 8448SOL    HW136977   2.727   1.784   2.239  1.0128  0.5342  1.3701
 8448SOL    HW236978   2.808   1.662   2.224  0.8566  0.5630  0.8490
 8449SOL     OW36979   2.241   1.091   4.822  0.7915  0.3520  0.0890
 8449SOL    HW136980   2.282   1.030   4.883  0.2133  0.4091  0.5356
 8449SOL    HW236981   2.310   1.120   4.763  0.7884 -1.7678 -0.9727
 8450SOL     OW36982   0.518   1.198   5.913  0.3394 -0.4772  0.1533
 8450SOL    HW136983   0.496   1.290   5.930 -1.5036 -1.6682  4.1314
 8450SOL    HW236984   0.517   1.206   5.818 -3.1283  0.8567  0.3094
 8451SOL     OW36985   3.446   2.633   5.234  0.3761 -0.2642 -0.0344
 8451SOL    HW136986   3.498   2.560   5.269  1.2502  0.1400 -0.4784
 8451SOL    HW236987   3.492   2.701   5.283  0.2650 -0.3478  0.1866
 8452SOL     OW36988   0.732   4.406   7.310 -0.1824 -0.0913 -0.2242
 8452SOL    HW136989   0.747   4.471   7.242  2.7336 -0.5530 -0.0263
 8452SOL    HW236990   0.700   4.340   7.249 -1.6254  0.2096  0.2010
 8453SOL     OW36991   1.634   4.207   8.980 -0.0977 -0.7857 -0.4122
 8453SOL    HW136992   1.671   4.174   9.062  1.3552 -0.2482 -0.8496
 8453SOL    HW236993   1.710   4.234   8.930 -1.2653 -0.2095 -1.8767
 8454SOL     OW36994   3.376   2.079   6.883 -0.1011 -0.0970 -0.1988
 8454SOL    HW136995   3.374   2.007   6.819 -2.9322  1.6517 -2.0816
 8454SOL    HW236996   3.312   2.135   6.839 -0.1258 -0.6916 -0.9168
 8455SOL     OW36997   0.890   2.093  12.468  0.0453  0.1944  0.2404
 8455SOL    HW136998   0.814   2.095  12.410  1.6151 -0.7515 -1.8588
 8455SOL    HW236999   0.959   2.123  12.408 -0.4547 -0.3046 -0.5815
 8456SOL     OW37000   2.053   0.839   0.268 -0.8606  0.1858 -0.4080
 8456SOL    HW137001   2.123   0.776   0.280 -0.1453  1.0576  0.0184
 8456SOL    HW237002   1.973   0.787   0.279 -0.9011  0.3453  0.0634
 8457SOL     OW37003   1.509   3.699   7.565 -0.2600 -0.2399 -0.0562
 8457SOL    HW137004   1.532   3.642   7.639  1.4266 -0.9943 -1.1512
 8457SOL    HW237005   1.416   3.709   7.582 -0.2203 -1.9640  1.1965
 8458SOL     OW37006   1.837   1.778   3.788 -0.1540 -0.4612  0.2386
 8458SOL    HW137007   1.916   1.743   3.830 -0.6632  0.4050  1.9342
 8458SOL    HW237008   1.774   1.784   3.860 -1.7495  0.2111 -1.2088
 8459SOL     OW37009   2.575   4.451   9.027 -0.1572  0.5542 -0.5557
 8459SOL    HW137010   2.641   4.484   8.966  1.5973  0.8997  1.5011
 8459SOL    HW237011   2.633   4.417   9.096  1.9154  1.4879 -1.8217
 8460SOL     OW37012   3.304   2.868   6.141 -0.1115  0.0096  0.1683
 8460SOL    HW137013   3.274   2.920   6.215  0.7763  2.8665 -1.4695
 8460SOL    HW237014   3.372   2.926   6.107  0.9083 -1.7385 -0.7587
 8461SOL     OW37015   1.299   2.522   7.891  0.0091 -0.3001  0.3350
 8461SOL    HW137016   1.210   2.542   7.861 -0.5485 -1.3763  1.2385
 8461SOL    HW237017   1.290   2.491   7.981  1.8509  1.4822  1.1036
 8462SOL     OW37018   3.161   0.864   5.405 -0.3461 -0.6469 -0.4927
 8462SOL    HW137019   3.118   0.909   5.333 -0.9661 -1.2840 -0.5184
 8462SOL    HW237020   3.235   0.827   5.355 -1.5272 -0.3522 -2.4430
 8463SOL     OW37021   0.675   2.678   5.319 -0.1640 -0.6608  1.0436
 8463SOL    HW137022   0.752   2.648   5.366 -0.3076 -0.4250  1.4274
 8463SOL    HW237023   0.637   2.595   5.288  1.2631 -0.8153 -0.2709
 8464SOL     OW37024   4.641   4.139   1.571  0.4148 -0.0766 -0.1454
 8464SOL    HW137025   4.732   4.147   1.596 -0.4638  1.3282  2.5546
 8464SOL    HW237026   4.627   4.233   1.568 -0.4505 -0.1760  0.7575
 8465SOL     OW37027   4.287   1.651  15.124 -0.1159 -0.1555  0.0249
 8465SOL    HW137028   4.258   1.586  15.060 -1.0686 -1.4606  1.7908
 8465SOL    HW237029   4.213   1.708  15.104  0.0242 -0.5048 -1.4566
 8466SOL     OW37030   4.508   3.755   2.061  0.4388  0.0835  0.0233
 8466SOL    HW137031   4.469   3.798   2.137  0.3868 -1.2039  0.7222
 8466SOL    HW237032   4.436   3.709   2.017  0.6391 -2.3051  2.1942
 8467SOL     OW37033   2.195   0.009   0.187 -0.1391  0.3191 -0.2437
 8467SOL    HW137034   2.289   4.727   0.186  0.3018  2.7477 -1.1160
 8467SOL    HW237035   2.171   4.662   0.229  0.8306 -0.3554 -1.0282
 8468SOL     OW37036   1.605   0.670   5.900 -0.1195  0.2662 -0.9798
 8468SOL    HW137037   1.643   0.747   5.859  0.5134 -0.0975 -1.0830
 8468SOL    HW237038   1.574   0.609   5.832 -0.6708 -2.7395  1.9616
 8469SOL     OW37039   2.003   0.320   6.010  0.6142 -0.2386 -0.5437
 8469SOL    HW137040   1.967   0.354   5.928  1.3710  0.8936 -0.4080
 8469SOL    HW237041   2.077   0.381   6.008  1.2030 -0.9644 -0.9314
 8470SOL     OW37042   3.983   2.959  10.324 -0.4119  0.4301 -0.2109
 8470SOL    HW137043   3.904   2.962  10.271 -1.7061  0.8334  1.7698
 8470SOL    HW237044   3.956   3.011  10.399  1.6501  0.6423  0.3908
 8471SOL     OW37045   0.239   1.991   1.430 -0.1558 -0.5092  0.3575
 8471SOL    HW137046   0.154   1.997   1.386  0.3378  0.0018 -0.5392
 8471SOL    HW237047   0.287   1.923   1.383 -1.6066 -0.0811 -1.7542
 8472SOL     OW37048   2.714   3.264   4.140 -0.2223  0.6809 -0.3317
 8472SOL    HW137049   2.765   3.278   4.220  0.5475 -1.6125 -0.4375
 8472SOL    HW237050   2.741   3.333   4.078  1.9991  1.3235  1.3571
 8473SOL     OW37051   0.199   4.481   6.419 -0.9566  0.2728 -0.7165
 8473SOL    HW137052   0.228   4.425   6.491  0.5843  0.8375 -0.9003
 8473SOL    HW237053   0.155   4.553   6.463  0.9241 -0.1527  1.8672
 8474SOL     OW37054   4.553   3.901  16.688  0.6775 -0.6830  0.2291
 8474SOL    HW137055   4.645   3.876  16.697  0.6353 -0.7497  0.4732
 8474SOL    HW237056   4.530   3.844  16.614 -0.2064 -0.7080  0.5134
 8475SOL     OW37057   3.266   4.213   9.045  0.2678 -0.1334  0.3510
 8475SOL    HW137058   3.205   4.178   8.979  0.0869  0.2154  0.3324
 8475SOL    HW237059   3.346   4.221   8.994 -0.6006  2.6632 -0.5881
 8476SOL     OW37060   1.292   0.937  10.040  0.1026  0.0833  0.1643
 8476SOL    HW137061   1.206   0.952  10.078 -0.9443 -2.2692 -1.2399
 8476SOL    HW237062   1.267   0.890   9.960  2.1913 -4.9069  2.3984
 8477SOL     OW37063   1.141   4.028   3.894 -0.3326  0.4202 -0.0850
 8477SOL    HW137064   1.125   4.082   3.816 -2.1003 -0.8504 -0.6003
 8477SOL    HW237065   1.053   4.011   3.928  0.0758 -0.7906  0.3527
 8478SOL     OW37066   1.742   3.015   9.035 -0.5819 -0.4128  0.1843
 8478SOL    HW137067   1.704   3.102   9.017  0.9366  0.3471  0.6678
 8478SOL    HW237068   1.832   3.032   9.007  0.0271 -0.4191  2.1709
 8479SOL     OW37069   2.595   2.550   6.518  0.4574  0.4640 -0.3306
 8479SOL    HW137070   2.542   2.550   6.598  0.9811  2.2098  0.0256
 8479SOL    HW237071   2.642   2.633   6.519  0.5944  0.3790  0.6195
 8480SOL     OW37072   2.519   1.610   1.263 -0.3309  0.0589 -0.0534
 8480SOL    HW137073   2.592   1.591   1.322  0.0392 -0.2552 -0.6080
 8480SOL    HW237074   2.498   1.524   1.226  1.5141 -0.2663 -0.3512
 8481SOL     OW37075   4.542   2.165  17.165  0.1350 -0.3219  0.1200
 8481SOL    HW137076   4.548   2.161  17.070 -3.6186 -1.1613 -0.1017
 8481SOL    HW237077   4.626   2.131  17.194  0.2182 -0.7786 -0.6588
 8482SOL     OW37078   2.219   2.020   6.705 -0.4099 -0.6882  0.5424
 8482SOL    HW137079   2.198   2.111   6.729 -0.9426 -0.1394 -2.0014
 8482SOL    HW237080   2.133   1.992   6.674 -0.4544  1.7205 -1.5582
 8483SOL     OW37081   2.152   0.981   8.243 -0.1956 -0.4388  0.3246
 8483SOL    HW137082   2.184   0.892   8.226  0.1892  0.1399 -1.9574
 8483SOL    HW237083   2.234   1.025   8.217 -0.0246 -0.6825  0.4554
 8484SOL     OW37084   0.083   3.469   2.839 -0.3568  0.1720  0.4966
 8484SOL    HW137085   0.004   3.459   2.892 -0.9373 -1.2887 -0.6787
 8484SOL    HW237086   0.092   3.564   2.831  0.7656 -0.1463 -2.0384
 8485SOL     OW37087   4.561   1.240   7.079 -0.5962  0.8260 -0.4542
 8485SOL    HW137088   4.627   1.272   7.017  2.0356 -0.8017  1.4952
 8485SOL    HW237089   4.543   1.154   7.041  0.2277  0.5329 -0.1882
 8486SOL     OW37090   1.424   2.412   6.991 -0.0464  0.1763  0.1180
 8486SOL    HW137091   1.379   2.330   7.010 -2.1249  0.8331 -1.9077
 8486SOL    HW237092   1.395   2.417   6.900 -0.3646  1.9905  0.3117
 8487SOL     OW37093   1.539   3.972   7.217  0.6243 -0.0117  0.1712
 8487SOL    HW137094   1.568   3.891   7.175  0.9647  0.1636  0.0632
 8487SOL    HW237095   1.562   4.035   7.148  0.9567  1.8515  1.9812
 8488SOL     OW37096   2.274   3.329   6.539  0.0224 -0.1380 -0.3192
 8488SOL    HW137097   2.243   3.273   6.468 -0.4593  1.7034 -1.5824
 8488SOL    HW237098   2.199   3.329   6.598  0.8528 -1.0579  0.7149
 8489SOL     OW37099   1.590   1.261   8.595  0.2758 -0.6939  0.0619
 8489SOL    HW137100   1.535   1.230   8.667  0.4542  0.3337  0.6322
 8489SOL    HW237101   1.678   1.224   8.604  0.9218  0.5113 -1.3817
 8490SOL     OW37102   3.156   4.277   6.028  0.3869  0.6502 -0.2888
 8490SOL    HW137103   3.197   4.216   5.967 -1.8358 -0.4717 -0.6832
 8490SOL    HW237104   3.203   4.358   6.009 -1.0441  1.9903  1.9094
 8491SOL     OW37105   1.763   2.120   8.035  0.0275  0.1337  0.4615
 8491SOL    HW137106   1.759   2.124   8.130  2.2295  2.0851  0.4693
 8491SOL    HW237107   1.670   2.109   8.013  0.0800  1.2722 -0.3450
 8492SOL     OW37108   2.089   1.901  17.467  0.1015  0.0730 -0.4552
 8492SOL    HW137109   2.151   1.887  17.396 -0.9819 -0.5773 -1.2843
 8492SOL    HW237110   2.126   1.981  17.503  1.2579 -0.9941  0.7475
 8493SOL     OW37111   0.911   3.468  14.915  1.0008  0.5102  0.4105
 8493SOL    HW137112   0.829   3.426  14.888  0.1878  2.7762 -0.7132
 8493SOL    HW237113   0.943   3.505  14.833  0.9303  2.1671  1.1186
 8494SOL     OW37114   3.063   4.162   8.794  0.7331  0.6815 -0.3300
 8494SOL    HW137115   3.121   4.127   8.727 -0.5512 -1.2325 -0.4594
 8494SOL    HW237116   3.027   4.243   8.757  1.0572  0.5523 -0.9273
 8495SOL     OW37117   0.511   4.637   2.062 -0.1848 -0.1759 -0.3583
 8495SOL    HW137118   0.502   4.715   2.117 -1.5742 -1.4102  1.1420
 8495SOL    HW237119   0.446   4.578   2.098 -1.2703  0.7022 -0.8926
 8496SOL     OW37120   0.212   2.284   7.375 -0.5890 -0.0340 -0.0670
 8496SOL    HW137121   0.234   2.229   7.300  2.0767  0.3210  0.4694
 8496SOL    HW237122   0.149   2.342   7.332  1.3378  1.1706 -1.2615
 8497SOL     OW37123   0.392   2.183   9.278  0.1484 -0.2235  0.5468
 8497SOL    HW137124   0.409   2.249   9.211  0.3295 -0.1800  0.6355
 8497SOL    HW237125   0.463   2.218   9.332 -1.2577  2.3419  0.7064
 8498SOL     OW37126   1.899   1.724   6.932 -0.2198 -0.7404  0.0989
 8498SOL    HW137127   1.885   1.653   6.869  0.7760 -0.5827 -0.3055
 8498SOL    HW237128   1.992   1.703   6.943 -0.2715  0.3998  2.6780
 8499SOL     OW37129   1.217   1.918   9.405  0.2571 -0.3656 -0.0187
 8499SOL    HW137130   1.275   1.994   9.409 -0.3944  0.1332  0.0290
 8499SOL    HW237131   1.182   1.917   9.316 -0.7014 -0.1128  0.3521
 8500SOL     OW37132   2.886   3.937   5.634  0.1651  0.6150 -0.8233
 8500SOL    HW137133   2.922   3.994   5.702 -0.6260  0.4195 -0.2450
 8500SOL    HW237134   2.958   3.883   5.601 -1.4151 -1.3014 -1.1067
 8501SOL     OW37135   1.669   1.570   4.746 -0.3943  0.4666 -0.0485
 8501SOL    HW137136   1.734   1.504   4.770 -2.0406 -1.4851 -0.8449
 8501SOL    HW237137   1.721   1.648   4.763  0.7637  0.0914 -1.8116
 8502SOL     OW37138   1.650   1.110   5.630  0.4832 -0.0199 -0.7844
 8502SOL    HW137139   1.558   1.089   5.613  0.5298 -0.9341  0.0535
 8502SOL    HW237140   1.674   1.161   5.553  1.9765 -0.1627 -0.4056
 8503SOL     OW37141   3.619   4.323  16.134 -0.7263 -0.2618 -0.2641
 8503SOL    HW137142   3.552   4.323  16.066 -0.9657 -0.1765 -0.0318
 8503SOL    HW237143   3.586   4.266  16.204  0.6865 -1.0399 -0.2472
 8504SOL     OW37144   0.451   3.206   6.734 -0.3578 -0.4810  0.2337
 8504SOL    HW137145   0.462   3.278   6.796 -3.3154 -0.0987  0.3448
 8504SOL    HW237146   0.527   3.151   6.753  0.3362 -0.2070 -1.7271
 8505SOL     OW37147   0.779   0.252   6.636  0.6180 -0.1039 -0.2944
 8505SOL    HW137148   0.798   0.189   6.705  1.4667 -1.9228 -2.1889
 8505SOL    HW237149   0.826   0.215   6.561 -1.2131 -1.1332 -0.9239
 8506SOL     OW37150   2.242   2.500   6.963  0.2311 -0.0026 -0.0528
 8506SOL    HW137151   2.192   2.465   7.037  4.1814 -4.1183  0.6888
 8506SOL    HW237152   2.270   2.581   7.006  0.3415 -0.1913  0.2313
 8507SOL     OW37153   1.191   1.566  10.114  0.2300 -0.1771  1.0939
 8507SOL    HW137154   1.236   1.532  10.191  1.4703 -1.2072 -0.0804
 8507SOL    HW237155   1.253   1.632  10.083  0.8211 -0.5785  1.4232
 8508SOL     OW37156   1.520   3.400  12.091 -0.2754 -0.0790 -0.2907
 8508SOL    HW137157   1.470   3.395  12.172 -2.0182  2.2740 -1.2177
 8508SOL    HW237158   1.509   3.491  12.063  1.7996  0.3177  0.2486
 8509SOL     OW37159   2.730   2.192  11.418 -0.1528  0.2055 -0.5036
 8509SOL    HW137160   2.672   2.257  11.459  2.0019  0.9774  1.3370
 8509SOL    HW237161   2.809   2.212  11.469 -0.5384  0.8654 -0.1658
 8510SOL     OW37162   0.277   1.644   0.190  0.4387  0.0435 -0.1724
 8510SOL    HW137163   0.236   1.585   0.253 -0.5938 -1.1757 -1.9595
 8510SOL    HW237164   0.257   1.728   0.231  0.4789 -0.1478  0.2372
 8511SOL     OW37165   1.804   4.364   0.973  0.0765 -0.7311 -0.3035
 8511SOL    HW137166   1.744   4.297   0.941 -0.7208 -0.0768 -0.1863
 8511SOL    HW237167   1.757   4.394   1.050 -0.7342 -1.4464 -0.5217
 8512SOL     OW37168   1.538   4.280   2.548  0.8490  0.2032  0.2968
 8512SOL    HW137169   1.526   4.367   2.510 -2.2322 -0.3240  0.0914
 8512SOL    HW237170   1.475   4.230   2.497 -0.4243  3.1815 -1.0645
 8513SOL     OW37171   3.790   3.930   0.199 -0.0798 -0.4467  0.6248
 8513SOL    HW137172   3.758   3.876   0.127  0.9944  0.0676 -0.2285
 8513SOL    HW237173   3.708   3.977   0.217 -0.0004  0.0734 -0.3918
 8514SOL     OW37174   3.435   1.401  17.025  0.2612  0.1400 -0.1744
 8514SOL    HW137175   3.520   1.358  17.026 -0.6028 -1.6185 -1.6467
 8514SOL    HW237176   3.444   1.474  17.086 -0.6574 -1.7694  2.2157
 8515SOL     OW37177   3.344   0.108  10.939  0.1468  0.2838 -0.0502
 8515SOL    HW137178   3.398   0.048  10.888  0.0960  2.2338 -2.3469
 8515SOL    HW237179   3.389   0.119  11.023 -0.9029  0.5158  0.4951
 8516SOL     OW37180   1.325   0.464   1.214 -0.5468 -0.3304 -0.1159
 8516SOL    HW137181   1.386   0.524   1.171 -1.1540  0.8067  0.6204
 8516SOL    HW237182   1.279   0.519   1.277  0.6076  0.9074 -0.3557
 8517SOL     OW37183   1.532   0.733   4.393 -0.7538  0.4431  0.5659
 8517SOL    HW137184   1.458   0.765   4.445 -1.1640  1.7248 -0.8145
 8517SOL    HW237185   1.613   0.778   4.417  0.3920 -1.8339  0.9709
 8518SOL     OW37186   3.576   2.574   1.275  0.1147  0.0077  0.2389
 8518SOL    HW137187   3.488   2.548   1.249  0.7694 -3.7757  1.7932
 8518SOL    HW237188   3.618   2.494   1.242 -0.1511  0.2261 -0.6222
 8519SOL     OW37189   3.205   4.297   2.909 -0.1281 -0.0454 -0.1372
 8519SOL    HW137190   3.227   4.208   2.881 -1.0846 -0.2678 -0.1758
 8519SOL    HW237191   3.293   4.332   2.926 -0.7977  0.9222  1.3359
 8520SOL     OW37192   0.859   0.692  11.782  0.0932  0.6424 -0.1619
 8520SOL    HW137193   0.816   0.720  11.701  0.7203 -0.5826 -0.9109
 8520SOL    HW237194   0.948   0.725  11.775 -0.0070  0.3731 -2.8719
 8521SOL     OW37195   2.598   0.397  15.041 -0.2300 -0.9918  0.0806
 8521SOL    HW137196   2.646   0.479  15.045 -2.9732  0.5265  2.0057
 8521SOL    HW237197   2.562   0.384  15.129 -0.7258  0.7306  0.1276
 8522SOL     OW37198   2.723   0.261  17.083 -0.4241  0.1443 -0.0325
 8522SOL    HW137199   2.697   0.350  17.105  0.5185  0.5557 -0.5854
 8522SOL    HW237200   2.710   0.278  16.989 -1.0874  0.3635  0.1005
 8523SOL     OW37201   0.054   1.479  17.378 -0.0905  0.4829 -0.3398
 8523SOL    HW137202   0.077   1.542  17.446 -0.0384 -1.2250  1.2201
 8523SOL    HW237203   0.070   1.531  17.298  1.6570  0.1815 -0.1830
 8524SOL     OW37204   1.250   0.183   5.981  0.2466 -0.3936  0.4767
 8524SOL    HW137205   1.159   0.170   5.957 -0.8112  0.5560  4.0222
 8524SOL    HW237206   1.240   0.180   6.076  0.0793  0.6125  0.4928
 8525SOL     OW37207   4.066   3.122   7.262  0.0797 -0.9043  0.1312
 8525SOL    HW137208   4.142   3.169   7.226  1.9759 -3.0247  1.3755
 8525SOL    HW237209   4.093   3.108   7.353  1.9478  0.8913 -0.1286
 8526SOL     OW37210   1.741   3.776  10.554 -0.1942 -0.0809 -0.1097
 8526SOL    HW137211   1.664   3.725  10.579  1.1221 -2.1873 -0.3662
 8526SOL    HW237212   1.811   3.713  10.570  2.5115  3.1988  0.8913
 8527SOL     OW37213   4.587   4.638  13.588  0.3614 -0.0809 -0.3059
 8527SOL    HW137214   4.664   4.611  13.538  0.4903  1.7684 -1.1152
 8527SOL    HW237215   4.542   4.688  13.521 -1.3725  1.3062  1.8840
 8528SOL     OW37216   1.871   1.817   4.227 -0.5517 -0.4705  0.2722
 8528SOL    HW137217   1.827   1.903   4.226 -0.9283 -0.6784 -0.4196
 8528SOL    HW237218   1.803   1.765   4.185 -0.4270 -0.4174  0.0100
 8529SOL     OW37219   0.195   2.320   8.031 -0.3397 -0.3881  0.2145
 8529SOL    HW137220   0.223   2.239   8.074 -1.1732  0.0480  1.5823
 8529SOL    HW237221   0.255   2.387   8.066 -1.6001  1.1773 -0.6470
 8530SOL     OW37222   2.372   4.512   3.368 -0.4919 -0.7736 -0.5181
 8530SOL    HW137223   2.447   4.567   3.345 -1.4426  0.5603 -0.3801
 8530SOL    HW237224   2.414   4.473   3.445 -2.1561  0.0820  0.8168
 8531SOL     OW37225   3.092   1.746   3.028  0.3461 -0.5910  0.7710
 8531SOL    HW137226   3.187   1.756   3.037  0.4271  0.8582 -1.5179
 8531SOL    HW237227   3.050   1.823   3.066  1.3953  0.5159 -0.3329
 8532SOL     OW37228   0.209   2.529  13.611 -0.5471 -0.2631 -0.3291
 8532SOL    HW137229   0.214   2.505  13.704 -0.1849  0.4357 -0.1650
 8532SOL    HW237230   0.183   2.622  13.613  2.1293  0.4975 -1.9803
 8533SOL     OW37231   0.106   1.373   0.167  0.6046  0.1852  0.2909
 8533SOL    HW137232   0.078   1.336   0.084 -1.2436 -1.3117  1.5990
 8533SOL    HW237233   0.062   1.458   0.159  4.3424  2.0779 -0.2311
 8534SOL     OW37234   0.663   4.572   3.508  0.4180  0.0508  0.4225
 8534SOL    HW137235   0.623   4.584   3.422 -1.2431 -0.2916  1.1468
 8534SOL    HW237236   0.661   4.476   3.515 -1.7220  0.2190  2.1369
 8535SOL     OW37237   3.142   3.336   1.383  0.5949  0.0319 -0.0922
 8535SOL    HW137238   3.179   3.335   1.471 -1.0712 -0.9451  0.6004
 8535SOL    HW237239   3.169   3.418   1.341  2.6127  0.0789  1.3054
 8536SOL     OW37240   0.226   1.777  17.411 -0.1789 -0.0552 -0.0619
 8536SOL    HW137241   0.177   1.754  17.332  1.4709 -0.6787 -0.9117
 8536SOL    HW237242   0.192   1.716  17.476 -0.2236 -0.4153 -0.4252
 8537SOL     OW37243   4.095   4.607   3.900  0.0043  0.6189  0.5795
 8537SOL    HW137244   4.181   4.647   3.917  1.5122 -1.0915 -3.2417
 8537SOL    HW237245   4.030   4.676   3.886 -0.2848  0.7015  2.3458
 8538SOL     OW37246   1.489   1.189   2.261  0.5666  0.0801  0.0790
 8538SOL    HW137247   1.534   1.265   2.224  0.0785 -1.0587 -2.8316
 8538SOL    HW237248   1.461   1.150   2.178  1.4077 -0.4003  0.0218
 8539SOL     OW37249   3.232   0.050  12.993 -0.4078  0.3819  0.2454
 8539SOL    HW137250   3.306   4.735  13.026 -1.6217 -1.8160 -0.4496
 8539SOL    HW237251   3.210   4.729  12.919 -1.1622  0.8768  0.0954
 8540SOL     OW37252   0.800   1.419  15.334 -0.3046 -0.4438 -0.0379
 8540SOL    HW137253   0.846   1.408  15.251 -0.1244  2.6815 -0.3438
 8540SOL    HW237254   0.858   1.472  15.389  0.9511 -0.2239 -1.5784
 8541SOL     OW37255   4.629   4.195   0.289 -0.6543  0.3603  0.0359
 8541SOL    HW137256   4.592   4.207   0.377  1.1914  0.5558  0.7851
 8541SOL    HW237257   4.591   4.114   0.256 -0.7239 -0.1283  1.3106
 8542SOL     OW37258   2.731   2.228   1.732 -0.2858  0.0045  0.0803
 8542SOL    HW137259   2.826   2.219   1.727 -0.3412 -0.1720 -0.5558
 8542SOL    HW237260   2.722   2.318   1.765  1.4639 -0.3207  1.4150
 8543SOL     OW37261   1.733   3.517  12.432 -0.7187 -0.1760 -0.0023
 8543SOL    HW137262   1.650   3.500  12.476 -0.6121 -3.4902 -1.1077
 8543SOL    HW237263   1.710   3.599  12.388  0.5190  0.2836  0.1889
 8544SOL     OW37264   4.187   1.233   8.318  0.0883 -0.2428  0.1396
 8544SOL    HW137265   4.170   1.223   8.224 -1.0834  0.8040  0.2445
 8544SOL    HW237266   4.197   1.143   8.348  0.2309 -0.3992 -0.3650
 8545SOL     OW37267   1.472   0.138   2.113  0.0252  0.3849  0.5713
 8545SOL    HW137268   1.442   0.129   2.204  0.5763  1.0254  0.8251
 8545SOL    HW237269   1.441   0.227   2.098  0.3901  0.3437 -0.3860
 8546SOL     OW37270   4.385   1.333   9.044  0.3013  0.4216  0.1420
 8546SOL    HW137271   4.420   1.315   9.132  0.1594  2.0673  0.5272
 8546SOL    HW237272   4.337   1.253   9.024 -0.6857  0.7814  1.0777
 8547SOL     OW37273   2.130   1.945   6.999  0.3468  0.0071 -0.2155
 8547SOL    HW137274   2.091   1.892   7.068  0.1998 -2.9058 -2.5228
 8547SOL    HW237275   2.173   1.892   6.932  2.1790  1.9799 -0.5864
 8548SOL     OW37276   2.666   4.413  16.794 -0.0432 -0.3114  0.2406
 8548SOL    HW137277   2.697   4.452  16.876 -0.2881  1.4980 -0.5353
 8548SOL    HW237278   2.642   4.485  16.737 -2.2511 -1.0793  0.1838
 8549SOL     OW37279   2.177   2.887   5.654 -0.4972 -0.8227  0.5414
 8549SOL    HW137280   2.115   2.960   5.659 -0.0983 -0.4963  0.7166
 8549SOL    HW237281   2.132   2.812   5.694 -1.4326 -1.1992 -1.1950
 8550SOL     OW37282   3.131   4.311   3.855 -0.5308 -0.1347  0.1016
 8550SOL    HW137283   3.209   4.258   3.866 -0.9123 -1.1924 -2.2219
 8550SOL    HW237284   3.058   4.252   3.833 -0.4347 -0.9339  1.9178
 8551SOL     OW37285   0.933   3.736   7.601 -0.4036  0.3786  0.1268
 8551SOL    HW137286   0.949   3.815   7.653 -0.2231 -0.3611  1.1930
 8551SOL    HW237287   1.011   3.685   7.625  0.7194  0.4948 -3.1812
 8552SOL     OW37288   0.774   4.154  11.592 -0.5288  0.3084 -0.0205
 8552SOL    HW137289   0.679   4.166  11.598 -0.1822  2.9292  0.1189
 8552SOL    HW237290   0.771   4.115  11.505  1.5416  1.5209 -0.6375
 8553SOL     OW37291   2.843   1.725   5.393  0.0996 -0.6366 -0.3482
 8553SOL    HW137292   2.790   1.672   5.452  1.2234 -0.6505  0.6550
 8553SOL    HW237293   2.892   1.784   5.451 -0.6747  0.2608 -0.5950
 8554SOL     OW37294   4.064   3.104   9.136  0.6128 -0.0874 -0.2862
 8554SOL    HW137295   4.078   3.162   9.062 -1.9400 -0.2605 -0.9184
 8554SOL    HW237296   3.976   3.133   9.159  0.0805  0.6942 -3.3159
 8555SOL     OW37297   0.811   0.316   3.473  0.4427 -0.0337  0.7207
 8555SOL    HW137298   0.895   0.348   3.506 -0.2731  1.8367  0.7337
 8555SOL    HW237299   0.825   0.223   3.489  0.7551  0.2291  2.0050
 8556SOL     OW37300   1.776   4.039   3.100  0.2012  0.2971  0.0082
 8556SOL    HW137301   1.712   4.046   3.170  1.5888 -1.2983  1.4553
 8556SOL    HW237302   1.743   4.106   3.041 -4.8889 -0.0820  2.4016
 8557SOL     OW37303   4.225   2.312   2.293 -0.2294  0.5883 -0.1588
 8557SOL    HW137304   4.214   2.236   2.350  1.8515 -0.6468 -1.4269
 8557SOL    HW237305   4.254   2.380   2.354  1.4196  0.0541 -0.3483
 8558SOL     OW37306   0.184   2.095   0.777 -0.4184  0.3017 -0.2158
 8558SOL    HW137307   0.261   2.071   0.726  0.1722 -2.7293  2.1196
 8558SOL    HW237308   0.224   2.171   0.819  0.9890 -1.2050  1.1457
 8559SOL     OW37309   1.484   3.098   6.507 -0.6057 -0.2694  0.2173
 8559SOL    HW137310   1.413   3.129   6.563  0.5912 -0.5328  1.8794
 8559SOL    HW237311   1.431   3.033   6.460 -0.8481  0.3346 -0.3376
 8560SOL     OW37312   2.652   2.213  13.306  0.2184  0.3151 -0.0415
 8560SOL    HW137313   2.574   2.203  13.252 -0.3105  2.5505  0.3128
 8560SOL    HW237314   2.668   2.119  13.314  0.4850  0.3243 -0.4860
 8561SOL     OW37315   4.451   2.052   2.381  0.1054 -0.3688 -0.4370
 8561SOL    HW137316   4.416   2.066   2.293 -1.3583  3.2102  0.7199
 8561SOL    HW237317   4.372   2.079   2.429  1.3720  0.4731  1.1661
 8562SOL     OW37318   0.983   4.336  10.139 -0.0101  0.1727 -0.5470
 8562SOL    HW137319   1.025   4.344  10.225  0.6174  3.0844 -1.1261
 8562SOL    HW237320   1.053   4.377  10.088  1.1383 -0.8251  0.2366
 8563SOL     OW37321   1.229   0.890   8.629 -0.4312  0.0911 -0.3123
 8563SOL    HW137322   1.275   0.968   8.660  0.2457 -0.5800  0.3747
 8563SOL    HW237323   1.136   0.911   8.641 -0.1773  1.9866 -1.5736
 8564SOL     OW37324   1.662   1.893   6.922 -0.3259 -0.1348 -0.5535
 8564SOL    HW137325   1.686   1.981   6.952 -1.3595 -0.6168  1.6700
 8564SOL    HW237326   1.748   1.852   6.910 -0.0128  0.3003  0.2314
 8565SOL     OW37327   4.005   3.062   3.845 -0.8233 -0.4264  0.4348
 8565SOL    HW137328   4.014   3.157   3.849 -0.9937 -0.5008  2.1871
 8565SOL    HW237329   4.063   3.045   3.770  0.2622 -0.1959  1.2190
 8566SOL     OW37330   3.960   4.448   8.046 -0.1911 -0.3865  0.4931
 8566SOL    HW137331   4.010   4.396   8.110 -1.0139 -2.2552 -0.3743
 8566SOL    HW237332   4.032   4.492   8.001 -1.9577  1.9531 -0.0588
 8567SOL     OW37333   3.947   3.586   2.815  0.6629 -0.3758 -0.4186
 8567SOL    HW137334   3.921   3.564   2.905  1.2320  0.6458 -0.0069
 8567SOL    HW237335   3.946   3.681   2.828  2.2109 -0.4766  0.4068
 8568SOL     OW37336   1.044   1.954   7.867 -0.7443  0.7262 -0.2014
 8568SOL    HW137337   1.132   1.978   7.894 -0.0235 -1.7810 -0.3652
 8568SOL    HW237338   1.008   2.043   7.860  0.1763  0.8756 -3.1175
 8569SOL     OW37339   2.226   2.675  11.840  0.1716 -0.9366 -0.0051
 8569SOL    HW137340   2.264   2.723  11.913 -5.6439 -0.9410  3.0270
 8569SOL    HW237341   2.137   2.708  11.852 -0.3209 -1.5646 -1.9766
 8570SOL     OW37342   3.213   0.704   5.012  0.1056 -0.4066  0.0745
 8570SOL    HW137343   3.255   0.623   5.042 -2.0364 -1.5872 -0.0529
 8570SOL    HW237344   3.136   0.709   5.069  0.9644  3.3619  0.9037
 8571SOL     OW37345   4.507   3.726  12.214 -0.1389  0.2524 -0.3464
 8571SOL    HW137346   4.412   3.739  12.211 -0.1228  0.1337 -1.2252
 8571SOL    HW237347   4.531   3.806  12.261  0.4857 -0.7604  1.0644
 8572SOL     OW37348   1.053   1.343   7.363 -0.2522 -0.0163 -0.2822
 8572SOL    HW137349   1.087   1.433   7.366 -0.5100 -0.0423  2.8581
 8572SOL    HW237350   1.009   1.341   7.447 -0.4294  0.2667 -0.3688
 8573SOL     OW37351   0.802   2.800  15.504 -0.3532  0.6129 -0.3411
 8573SOL    HW137352   0.865   2.872  15.510  1.2531 -0.9657  1.6675
 8573SOL    HW237353   0.793   2.764  15.592  0.5256  0.0000 -0.5012
 8574SOL     OW37354   0.462   0.257  10.561 -0.1140 -0.0222  0.2433
 8574SOL    HW137355   0.527   0.206  10.610  1.1954  0.7777 -0.6567
 8574SOL    HW237356   0.512   0.311  10.500 -1.2110 -0.2784 -0.8957
 8575SOL     OW37357   0.338   4.735   4.215 -0.2453 -0.2555 -0.1819
 8575SOL    HW137358   0.278   0.061   4.257  0.2001 -0.9367  1.4396
 8575SOL    HW237359   0.345   0.047   4.132 -1.7705  0.8108  0.3023
 8576SOL     OW37360   4.321   0.340   4.477 -0.0813 -0.0550 -0.1523
 8576SOL    HW137361   4.316   0.355   4.572 -1.5744  0.6485 -0.3533
 8576SOL    HW237362   4.265   0.263   4.468 -1.4217  1.2678 -2.8886
 8577SOL     OW37363   0.382   4.116   3.156 -0.2416 -0.2247  0.2588
 8577SOL    HW137364   0.368   4.127   3.250  0.7350 -0.5073  0.4340
 8577SOL    HW237365   0.463   4.163   3.140 -0.8775  0.4703 -0.9260
 8578SOL     OW37366   2.487   2.675   2.202 -0.1861 -0.3279 -0.2325
 8578SOL    HW137367   2.553   2.740   2.177 -0.0539 -1.1308 -1.9958
 8578SOL    HW237368   2.466   2.690   2.294  1.1147  1.1295 -0.1771
 8579SOL     OW37369   4.163   0.724  15.718 -0.3258 -0.4687  0.6581
 8579SOL    HW137370   4.161   0.690  15.628  0.5651  0.8642  0.1379
 8579SOL    HW237371   4.137   0.814  15.700  1.6009 -0.0907 -0.2699
 8580SOL     OW37372   0.831   1.750   3.719 -0.1421 -0.4166 -0.0450
 8580SOL    HW137373   0.867   1.837   3.737 -0.5026 -0.1715 -0.5144
 8580SOL    HW237374   0.805   1.762   3.627 -0.1165 -0.0519 -0.0040
 8581SOL     OW37375   0.164   1.833   1.885 -0.0727 -0.3813  0.4495
 8581SOL    HW137376   0.221   1.910   1.883 -1.6513  0.8370  2.7860
 8581SOL    HW237377   0.219   1.760   1.917 -1.2530 -2.1130 -1.4647
 8582SOL     OW37378   3.962   2.789   6.223 -0.6278 -0.2886  0.0835
 8582SOL    HW137379   4.027   2.796   6.152 -0.8317  1.0745  0.0302
 8582SOL    HW237380   4.030   2.808   6.287  0.7446  1.3115 -1.8153
 8583SOL     OW37381   1.685   4.447   2.009  0.1681  0.3176  0.4786
 8583SOL    HW137382   1.627   4.430   2.083 -2.1397 -0.2104 -1.4348
 8583SOL    HW237383   1.686   4.543   2.005  1.4145  0.2466 -0.9079
 8584SOL     OW37384   3.003   1.332   2.788 -0.1183  0.2426  0.1569
 8584SOL    HW137385   2.968   1.418   2.808  1.0840  0.7628  0.0487
 8584SOL    HW237386   3.013   1.300   2.877  0.8020  1.3070  0.4369
 8585SOL     OW37387   4.484   3.905   5.776  0.4355  0.0774 -0.1791
 8585SOL    HW137388   4.513   3.928   5.864  1.8006 -0.0410 -0.5945
 8585SOL    HW237389   4.471   3.988   5.729  0.9845  0.1980 -0.1178
 8586SOL     OW37390   1.945   2.937   0.946 -0.7047 -0.5415  0.0612
 8586SOL    HW137391   1.967   2.956   1.037  0.5823  1.9999 -0.7793
 8586SOL    HW237392   2.028   2.933   0.898  0.4337 -0.3672  2.0122
 8587SOL     OW37393   2.701   1.193   5.211  0.2170  0.5941 -0.0811
 8587SOL    HW137394   2.727   1.115   5.164  3.0202  0.1182  2.3027
 8587SOL    HW237395   2.737   1.262   5.154 -1.6920  1.3586 -0.3784
 8588SOL     OW37396   2.636   3.792   6.196 -0.2515 -0.0345 -0.6387
 8588SOL    HW137397   2.684   3.714   6.169  2.4930  2.2975 -2.4802
 8588SOL    HW237398   2.602   3.755   6.278 -0.7690 -0.1989 -0.9295
 8589SOL     OW37399   4.338   1.053   6.637  0.0077  0.1014 -0.3845
 8589SOL    HW137400   4.382   0.992   6.577 -1.9302  0.1212 -1.8440
 8589SOL    HW237401   4.356   1.130   6.582  1.4794 -1.0220 -1.4721
 8590SOL     OW37402   2.459   3.720   1.241 -0.2448  0.4453  0.7382
 8590SOL    HW137403   2.536   3.778   1.241  1.5554 -1.9405  1.2267
 8590SOL    HW237404   2.391   3.780   1.209 -0.1079 -0.8750 -2.0178
 8591SOL     OW37405   0.446   0.075  14.007 -0.1190 -0.2618 -0.0389
 8591SOL    HW137406   0.490   0.034  14.082 -1.5992  1.7684  1.9382
 8591SOL    HW237407   0.384   0.127  14.058 -2.4808 -0.3230 -2.8039
 8592SOL     OW37408   0.571   2.457   7.712  0.1533  0.1079  0.0758
 8592SOL    HW137409   0.532   2.376   7.677  1.7146 -0.6495  0.1064
 8592SOL    HW237410   0.603   2.498   7.631 -0.8406  0.0344 -0.3575
 8593SOL     OW37411   2.788   2.941   6.220  0.3412 -0.5300  0.1857
 8593SOL    HW137412   2.843   2.919   6.145 -0.0533 -1.3130  0.1254
 8593SOL    HW237413   2.752   3.022   6.183 -0.9366 -1.0520  0.2850
 8594SOL     OW37414   2.507   1.622   3.136  0.3913  0.1367 -0.0811
 8594SOL    HW137415   2.426   1.617   3.085  0.8974  0.5844 -0.9324
 8594SOL    HW237416   2.551   1.696   3.094 -1.9227  0.7344 -1.4327
 8595SOL     OW37417   1.941   2.406   2.704  0.1087  0.5965  0.1137
 8595SOL    HW137418   1.932   2.490   2.750 -0.3337  0.6037  0.0201
 8595SOL    HW237419   1.950   2.443   2.616 -0.1597  1.4181  0.4260
 8596SOL     OW37420   3.544   4.399  15.030 -0.3784 -0.4121 -0.0051
 8596SOL    HW137421   3.564   4.472  15.088  2.3870 -0.0743 -1.3653
 8596SOL    HW237422   3.449   4.412  15.023 -0.2950  0.7955  1.1953
 8597SOL     OW37423   4.699   4.618   5.799  0.3903 -0.1293  0.2138
 8597SOL    HW137424   4.698   4.534   5.846 -0.7324  0.3508  1.0533
 8597SOL    HW237425   4.717   4.587   5.710  0.7302 -1.6142  0.8033
 8598SOL     OW37426   3.448   0.416   3.592 -0.3713 -0.0599 -0.3702
 8598SOL    HW137427   3.452   0.450   3.503 -1.1875 -0.0423 -0.3995
 8598SOL    HW237428   3.488   0.329   3.587  0.1132  0.0711  1.0751
 8599SOL     OW37429   4.690   1.357  15.287 -0.2348  0.3908  0.2528
 8599SOL    HW137430   4.639   1.297  15.233 -0.9681  1.5654 -0.3702
 8599SOL    HW237431   4.623   1.397  15.342 -1.8682 -1.0751 -0.7035
 8600SOL     OW37432   3.609   1.029   6.979  0.5773  0.3006  0.3416
 8600SOL    HW137433   3.661   0.974   7.038 -2.1695 -1.3233  1.2544
 8600SOL    HW237434   3.668   1.104   6.972  1.3447 -0.3103  0.2586
 8601SOL     OW37435   1.440   0.926  12.754  1.0140  0.3461 -0.0937
 8601SOL    HW137436   1.459   0.958  12.842 -2.5497 -0.2221  0.8794
 8601SOL    HW237437   1.357   0.880  12.769  1.0095  1.2157  2.5021
 8602SOL     OW37438   2.024   2.662   5.742 -0.1802 -0.0567 -0.0511
 8602SOL    HW137439   2.047   2.581   5.787 -1.4568  0.1058  0.8773
 8602SOL    HW237440   1.993   2.722   5.810  2.1780  1.4556 -0.2807
 8603SOL     OW37441   1.531   3.077   9.285 -0.2042 -0.0651  0.2551
 8603SOL    HW137442   1.514   2.989   9.252 -1.3971  1.4261 -3.0731
 8603SOL    HW237443   1.488   3.073   9.370 -1.2668 -1.4340 -0.3476
 8604SOL     OW37444   0.893   1.353   9.594 -0.7849  0.1748 -0.0401
 8604SOL    HW137445   0.809   1.388   9.624 -1.5452 -0.1352 -1.8455
 8604SOL    HW237446   0.953   1.400   9.653 -1.4783  2.0172 -0.8218
 8605SOL     OW37447   1.397   1.699   0.329  0.4203 -0.3930 -0.4752
 8605SOL    HW137448   1.377   1.631   0.393 -0.9841  0.0319 -0.4573
 8605SOL    HW237449   1.332   1.767   0.348  1.7012  0.6697  0.1348
 8606SOL     OW37450   2.437   1.794  12.062 -0.0442 -0.1221 -0.3292
 8606SOL    HW137451   2.485   1.712  12.051 -1.3317 -0.8432 -0.5996
 8606SOL    HW237452   2.374   1.790  11.990  1.1395 -3.5062 -1.1480
 8607SOL     OW37453   2.075   2.182   8.012  0.4933 -0.2531  0.0567
 8607SOL    HW137454   2.105   2.249   7.951 -3.9039 -0.2190 -2.0256
 8607SOL    HW237455   2.014   2.132   7.958 -0.4438  0.7346  0.2060
 8608SOL     OW37456   0.821   3.536  12.647 -0.1424 -0.4287 -0.1918
 8608SOL    HW137457   0.844   3.619  12.688  0.3273 -0.8071  0.3225
 8608SOL    HW237458   0.817   3.563  12.556 -1.1221  3.8682  1.1568
 8609SOL     OW37459   4.504   2.433  16.834  0.2005  1.2160 -0.3431
 8609SOL    HW137460   4.456   2.456  16.913 -0.7355 -1.9925  0.0551
 8609SOL    HW237461   4.454   2.356  16.805 -2.0513  2.9189 -0.9090
 8610SOL     OW37462   2.666   3.827  13.837 -0.4083  0.6020  0.1267
 8610SOL    HW137463   2.598   3.768  13.869  0.1989  0.1352  0.5431
 8610SOL    HW237464   2.745   3.774  13.849 -1.1788 -0.5839 -0.0189
 8611SOL     OW37465   0.002   1.614   3.576 -0.0430  0.1492  0.3428
 8611SOL    HW137466   4.707   1.703   3.557 -0.2329  0.0303  0.0893
 8611SOL    HW237467   4.654   1.571   3.556  0.1283 -0.0143 -0.0224
 8612SOL     OW37468   2.342   3.186  10.787 -0.9742 -0.0337 -0.2168
 8612SOL    HW137469   2.250   3.171  10.806 -1.6020  2.9364 -1.0603
 8612SOL    HW237470   2.339   3.194  10.692 -0.9974 -0.3800 -0.2455
 8613SOL     OW37471   3.078   2.698   6.254  0.3699 -0.3454  0.0862
 8613SOL    HW137472   3.164   2.723   6.218  0.7714  0.2009  1.4419
 8613SOL    HW237473   3.018   2.735   6.189 -2.3543  2.5662  4.2320
 8614SOL     OW37474   3.622   2.577   4.727 -0.2097 -0.1909 -0.0712
 8614SOL    HW137475   3.550   2.541   4.676 -0.5461 -1.2556  1.1476
 8614SOL    HW237476   3.666   2.639   4.669  1.6926 -0.0450  1.5272
 8615SOL     OW37477   0.832   1.010   4.552  0.0981 -0.0351  0.2098
 8615SOL    HW137478   0.826   1.025   4.457 -1.3711 -1.4139  0.1040
 8615SOL    HW237479   0.855   0.918   4.561  3.6534  0.7039 -1.3040
 8616SOL     OW37480   0.242   3.865  12.055  0.4869 -0.1029 -0.1049
 8616SOL    HW137481   0.214   3.831  11.970  1.5547  1.9618 -1.2560
 8616SOL    HW237482   0.331   3.832  12.063  1.0432  0.6157 -3.5168
 8617SOL     OW37483   3.845   4.125   7.159  1.0053  0.2346  0.0346
 8617SOL    HW137484   3.796   4.187   7.105 -1.4563 -1.0710  0.7437
 8617SOL    HW237485   3.834   4.043   7.111 -0.3133  0.4499 -0.0357
 8618SOL     OW37486   2.414   3.604   4.466  0.3233  0.1243  1.0375
 8618SOL    HW137487   2.451   3.524   4.503 -1.9546 -1.5067 -0.1796
 8618SOL    HW237488   2.451   3.677   4.516 -1.4062  2.0366 -0.4670
 8619SOL     OW37489   4.358   3.489  11.343 -0.6939 -0.2252  0.4580
 8619SOL    HW137490   4.373   3.566  11.397 -1.6363 -2.0464  3.3053
 8619SOL    HW237491   4.416   3.511  11.269  0.4945 -0.1654  1.3990
 8620SOL     OW37492   0.485   0.891   2.112  0.3927  0.6509 -0.4703
 8620SOL    HW137493   0.432   0.820   2.077  0.2723 -0.1466  1.3024
 8620SOL    HW237494   0.566   0.857   2.075  1.2683 -0.8845  2.8388
 8621SOL     OW37495   2.771   2.413   6.350 -0.3448  0.7148 -0.0682
 8621SOL    HW137496   2.706   2.443   6.414  0.2055  0.5305  0.5797
 8621SOL    HW237497   2.784   2.496   6.304 -0.3244  1.3234  1.0380
 8622SOL     OW37498   2.548   0.892   0.982 -0.1529 -0.0652  0.0422
 8622SOL    HW137499   2.480   0.906   0.916 -0.5756  1.5829  0.8235
 8622SOL    HW237500   2.509   0.924   1.064  0.8752  1.0111  0.1121
 8623SOL     OW37501   3.274   1.400   3.771 -0.1212 -0.2441 -0.4812
 8623SOL    HW137502   3.235   1.441   3.694  0.3602  1.5889  0.2590
 8623SOL    HW237503   3.255   1.308   3.751  0.5393 -0.0505 -2.0795
 8624SOL     OW37504   2.843   3.216   4.973  0.4275 -0.2526  0.5601
 8624SOL    HW137505   2.757   3.211   4.931  0.1721 -1.1221  1.1928
 8624SOL    HW237506   2.853   3.128   5.010 -0.1009  0.0421  1.4125
 8625SOL     OW37507   0.112   1.405   4.708  0.5586 -0.0805  0.1476
 8625SOL    HW137508   0.113   1.408   4.803 -1.1493  0.0465  0.1478
 8625SOL    HW237509   0.206   1.389   4.699  0.4578 -0.8237  0.4404
 8626SOL     OW37510   3.427   4.034   2.111 -0.3440 -0.6159 -0.2861
 8626SOL    HW137511   3.423   3.942   2.085  2.4572 -1.5437  2.5704
 8626SOL    HW237512   3.333   4.053   2.123 -0.1234  0.2433  0.1001
 8627SOL     OW37513   1.128   1.793   7.103  0.0734 -0.0493 -0.2309
 8627SOL    HW137514   1.199   1.854   7.125 -1.6190  2.2555 -1.1484
 8627SOL    HW237515   1.162   1.762   7.019 -0.1236  0.7371 -0.6064
 8628SOL     OW37516   1.336   2.716   7.466  0.2104 -0.5725  0.1034
 8628SOL    HW137517   1.325   2.742   7.375 -3.0394  0.0390  0.6811
 8628SOL    HW237518   1.364   2.627   7.449 -2.9114 -1.9778  2.3534
 8629SOL     OW37519   0.398   1.971  17.325 -0.3501  0.8170  0.1926
 8629SOL    HW137520   0.442   2.025  17.390 -2.3968  0.0965  2.1863
 8629SOL    HW237521   0.347   1.913  17.382  1.8581 -1.4197 -0.1378
 8630SOL     OW37522   4.687   3.149   4.641  0.2802  0.2538  0.4518
 8630SOL    HW137523   4.707   3.056   4.634 -2.4954 -0.2686 -0.5917
 8630SOL    HW237524   4.657   3.161   4.731 -1.9620  0.1424 -0.2662
 8631SOL     OW37525   0.248   1.931   6.750  0.1776  0.3963 -0.8102
 8631SOL    HW137526   0.177   1.868   6.739  0.6164 -0.2683  0.2136
 8631SOL    HW237527   0.195   2.010   6.743  1.6459  1.4263 -0.2729
 8632SOL     OW37528   4.077   2.680   5.025  0.9262 -0.3377  0.2436
 8632SOL    HW137529   4.118   2.721   4.948 -2.1286  1.1226 -0.5867
 8632SOL    HW237530   4.013   2.626   4.978  1.2895 -1.0795  0.5910
 8633SOL     OW37531   3.099   2.616   4.384 -0.2164  0.1044 -0.1741
 8633SOL    HW137532   3.188   2.587   4.365 -0.7655 -0.5351 -1.7491
 8633SOL    HW237533   3.082   2.679   4.314 -1.1233 -0.0038 -0.0498
 8634SOL     OW37534   4.026   3.040   8.448  0.6290  0.4971  0.1379
 8634SOL    HW137535   4.035   3.046   8.543  2.6487 -0.1200 -0.0314
 8634SOL    HW237536   4.052   2.948   8.440 -0.8207  0.0583  0.3457
 8635SOL     OW37537   0.691   2.293  17.282 -0.6211 -0.1249 -0.0314
 8635SOL    HW137538   0.747   2.351  17.333  0.2651 -0.8601 -0.1753
 8635SOL    HW237539   0.752   2.274  17.211  0.9718  1.2318  0.9721
 8636SOL     OW37540   3.240   1.144   3.805 -0.4097  0.0658 -0.3196
 8636SOL    HW137541   3.181   1.159   3.879 -2.2107 -2.2257 -1.2923
 8636SOL    HW237542   3.198   1.065   3.771 -0.7353  0.6846 -1.3519
 8637SOL     OW37543   0.005   2.694   6.328 -0.2577  0.3533 -0.7383
 8637SOL    HW137544   0.067   2.705   6.399 -3.1369  0.3460  1.7860
 8637SOL    HW237545   4.657   2.736   6.352 -0.1611  1.3950 -2.1545
 8638SOL     OW37546   0.501   0.675   1.820  0.2454  0.4338  0.8585
 8638SOL    HW137547   0.442   0.635   1.756  0.2968  0.1927  0.9631
 8638SOL    HW237548   0.448   0.685   1.899 -0.0934  1.8533  0.4539
 8639SOL     OW37549   3.575   4.716   0.438 -0.3692 -0.2616  0.3262
 8639SOL    HW137550   3.593   0.047   0.505 -2.1221 -2.0933  2.6538
 8639SOL    HW237551   3.575   4.636   0.490 -0.1391 -0.2646  0.3200
 8640SOL     OW37552   0.724   0.651   5.667  0.2358 -0.2296  0.1727
 8640SOL    HW137553   0.652   0.602   5.629  1.7134 -2.7889  0.6681
 8640SOL    HW237554   0.790   0.585   5.646 -1.0785 -0.5298 -2.9563
 8641SOL     OW37555   0.268   1.229  13.516 -0.1752 -0.2954 -0.1132
 8641SOL    HW137556   0.250   1.158  13.455 -1.7670 -0.4081  0.4994
 8641SOL    HW237557   0.289   1.305  13.462  1.9320  0.1254  1.2779
 8642SOL     OW37558   1.965   3.852   3.353  0.3264  0.4600  0.3856
 8642SOL    HW137559   2.006   3.767   3.337 -0.0404  0.4537 -0.5156
 8642SOL    HW237560   1.886   3.844   3.301 -0.0807 -1.2477  1.2677
 8643SOL     OW37561   4.119   0.261   7.151 -0.0186 -0.1810 -0.2705
 8643SOL    HW137562   4.123   0.224   7.239 -0.8752 -0.2866 -0.2758
 8643SOL    HW237563   4.191   0.323   7.142 -1.0851  0.8619 -1.5868
 8644SOL     OW37564   0.212   4.162  15.021 -0.1560 -0.1696  0.0366
 8644SOL    HW137565   0.264   4.092  15.061  1.2070  1.5674  1.3055
 8644SOL    HW237566   0.218   4.131  14.931 -0.8599  0.5841 -0.2684
 8645SOL     OW37567   3.106   3.385   5.176 -0.3268  0.1268  0.2031
 8645SOL    HW137568   3.061   3.449   5.231 -0.4556  0.7646 -0.6398
 8645SOL    HW237569   3.060   3.419   5.100  1.4174 -2.0842 -1.8445
 8646SOL     OW37570   0.745   1.644   2.416  0.3060 -0.4484  0.4978
 8646SOL    HW137571   0.832   1.683   2.422 -0.9765  2.6248 -1.0704
 8646SOL    HW237572   0.767   1.557   2.382 -1.8997 -0.1865 -1.6167
 8647SOL     OW37573   2.102   0.849   9.333  0.0252  0.3925 -0.0689
 8647SOL    HW137574   2.017   0.884   9.305 -0.3025 -1.2019 -1.0421
 8647SOL    HW237575   2.082   0.761   9.364 -0.6041  0.3902 -0.4806
 8648SOL     OW37576   0.246   1.998   4.713 -0.5426 -0.6926  0.7335
 8648SOL    HW137577   0.189   2.074   4.718  0.0299 -0.1816 -0.4116
 8648SOL    HW237578   0.294   2.007   4.795 -0.6065  1.2965  0.5522
 8649SOL     OW37579   1.582   4.714   2.453  0.1549 -0.2231  0.6009
 8649SOL    HW137580   1.509   0.028   2.416 -1.0310 -0.8682  2.0735
 8649SOL    HW237581   1.542   4.679   2.533 -0.0333  1.0948  1.0856
 8650SOL     OW37582   0.530   4.538   4.640 -0.4580  0.1164  0.0770
 8650SOL    HW137583   0.508   4.501   4.555 -0.8272  1.3479 -0.3612
 8650SOL    HW237584   0.455   4.502   4.688  1.5901 -2.7487  1.1706
 8651SOL     OW37585   2.636   1.436   8.345 -0.3769  0.0572 -0.6921
 8651SOL    HW137586   2.623   1.345   8.372 -2.2838  0.0051 -1.7791
 8651SOL    HW237587   2.687   1.453   8.425 -2.4262 -1.0552  0.8627
 8652SOL     OW37588   3.556   4.559   1.581  0.5517 -0.5560 -0.2378
 8652SOL    HW137589   3.479   4.598   1.624  1.1676 -1.8057  1.9859
 8652SOL    HW237590   3.573   4.481   1.633  2.8310 -0.3540 -0.6790
 8653SOL     OW37591   2.742   2.783  17.549 -0.0068  0.2288 -0.2370
 8653SOL    HW137592   2.813   2.798  17.610  0.6176 -0.7034 -0.7362
 8653SOL    HW237593   2.728   2.868  17.507 -0.3114  0.8164  1.0814
 8654SOL     OW37594   0.911   3.989   8.572  0.0386 -0.0152 -0.5632
 8654SOL    HW137595   0.818   3.972   8.554  0.3433 -1.6219 -0.6447
 8654SOL    HW237596   0.937   4.021   8.485 -0.8961 -0.2117 -0.9183
 8655SOL     OW37597   4.232   0.704   2.957  0.3218 -0.1101  0.3069
 8655SOL    HW137598   4.200   0.664   3.038 -1.8347  0.2190 -0.3778
 8655SOL    HW237599   4.191   0.649   2.891 -0.2185 -0.4042  0.8805
 8656SOL     OW37600   2.132   1.128   2.614  0.2605 -1.0183  0.3527
 8656SOL    HW137601   2.165   1.168   2.534  1.0388 -0.4029  0.9801
 8656SOL    HW237602   2.052   1.178   2.630  2.1439  1.8066  1.0066
 8657SOL     OW37603   1.807   2.894   4.436  0.3844  0.0169 -0.0020
 8657SOL    HW137604   1.897   2.908   4.407  0.4960  1.4347  1.0052
 8657SOL    HW237605   1.790   2.986   4.457 -0.4400 -0.0748 -0.2911
 8658SOL     OW37606   2.367   4.111   8.612 -0.0552  0.1027 -0.0418
 8658SOL    HW137607   2.376   4.148   8.524 -2.9937 -1.0266 -0.8303
 8658SOL    HW237608   2.284   4.142   8.648 -2.0444 -1.2610 -3.3706
 8659SOL     OW37609   1.727   4.140  17.160  0.3100 -0.2774 -0.2244
 8659SOL    HW137610   1.705   4.074  17.226  0.4402 -0.2539 -0.1570
 8659SOL    HW237611   1.822   4.133  17.163  0.3280  0.8994  2.0452
 8660SOL     OW37612   4.125   0.546  11.123  0.0186 -0.3014 -0.3700
 8660SOL    HW137613   4.162   0.459  11.110 -2.4753 -1.2814 -0.8775
 8660SOL    HW237614   4.062   0.526  11.192 -1.8289  0.0314 -1.9569
 8661SOL     OW37615   0.137   0.350   4.566 -0.0838 -0.4154 -0.3222
 8661SOL    HW137616   0.055   0.305   4.587  0.8606 -1.8348  0.3133
 8661SOL    HW237617   0.109   0.419   4.506 -1.2118 -1.5803 -1.1290
 8662SOL     OW37618   0.212   3.728   3.269  0.0032  0.4242  0.0915
 8662SOL    HW137619   0.125   3.729   3.309  0.5785 -0.1147  1.3335
 8662SOL    HW237620   0.221   3.634   3.252  1.6415  0.3997  1.1840
 8663SOL     OW37621   0.139   2.992   6.194 -0.4078  0.4772 -0.9485
 8663SOL    HW137622   0.092   3.033   6.121 -0.9810 -0.1656 -0.9298
 8663SOL    HW237623   0.075   2.938   6.239  1.1486 -2.0167 -1.7629
 8664SOL     OW37624   1.744   3.276  16.201  0.9546 -0.5588 -0.0586
 8664SOL    HW137625   1.797   3.307  16.274  0.0696  5.6291 -1.9666
 8664SOL    HW237626   1.794   3.300  16.123  0.3079  0.3579 -0.2004
 8665SOL     OW37627   3.272   4.670   9.950  0.1854 -0.4187 -0.7001
 8665SOL    HW137628   3.356   4.701   9.916 -0.5052  0.7304 -1.3853
 8665SOL    HW237629   3.269   4.581   9.917  2.8257  0.5698 -3.6921
 8666SOL     OW37630   3.554   0.792   0.228  0.6107 -0.5568  0.3175
 8666SOL    HW137631   3.515   0.756   0.307  1.2517  0.6804  1.1927
 8666SOL    HW237632   3.483   0.852   0.207 -1.0246 -3.4051 -2.3070
 8667SOL     OW37633   1.614   2.082   5.536  0.3436 -0.9466  0.6222
 8667SOL    HW137634   1.667   2.155   5.503  1.8779 -2.2005  0.3093
 8667SOL    HW237635   1.606   2.106   5.628 -0.5950 -1.2196  0.6111
 8668SOL     OW37636   0.259   3.130   5.800  0.4045 -0.2022 -0.4948
 8668SOL    HW137637   0.292   3.180   5.726 -1.9162  2.1653  0.0872
 8668SOL    HW237638   0.225   3.199   5.856 -0.4873 -0.3657 -0.8300
 8669SOL     OW37639   4.270   0.817   9.177 -0.2448  0.3388 -0.1404
 8669SOL    HW137640   4.188   0.858   9.206 -1.3094 -0.8084 -1.5513
 8669SOL    HW237641   4.331   0.826   9.250  2.1154  1.6281 -2.3212
 8670SOL     OW37642   0.456   2.039   3.066 -0.0378 -0.5396  0.3436
 8670SOL    HW137643   0.389   2.107   3.069  1.0860  0.5400  1.0444
 8670SOL    HW237644   0.414   1.980   3.004  0.4887 -0.4759 -0.0735
 8671SOL     OW37645   0.379   1.842   8.532  0.5709 -0.2351 -0.1033
 8671SOL    HW137646   0.453   1.879   8.484 -0.7817  2.3094 -0.2516
 8671SOL    HW237647   0.324   1.920   8.535  0.7059 -0.0688 -2.1833
 8672SOL     OW37648   1.457   1.531   6.428 -0.7821  0.5068  0.1247
 8672SOL    HW137649   1.415   1.605   6.384 -0.8641 -0.3894 -1.3406
 8672SOL    HW237650   1.467   1.462   6.362  2.8114  0.6397  0.5460
 8673SOL     OW37651   0.541   2.638   7.232 -0.2661 -0.0342 -0.6895
 8673SOL    HW137652   0.554   2.547   7.207  1.6303  0.2360 -0.6831
 8673SOL    HW237653   0.449   2.632   7.258  0.7597  0.6534  3.1119
 8674SOL     OW37654   0.221   1.042   5.976 -0.3840 -0.2786  0.2302
 8674SOL    HW137655   0.181   0.955   5.985 -0.7296 -0.1919 -0.4420
 8674SOL    HW237656   0.274   1.038   5.896 -0.9320  0.0611 -0.1477
 8675SOL     OW37657   2.266   1.258   7.149  1.1759  0.1661  0.7084
 8675SOL    HW137658   2.212   1.283   7.074 -1.3656 -1.1840  2.0954
 8675SOL    HW237659   2.251   1.337   7.201 -0.0532 -0.4165  1.2416
 8676SOL     OW37660   4.627   0.454   6.658 -0.3676 -0.1818  0.5524
 8676SOL    HW137661   4.710   0.500   6.653  0.3868 -1.4836  1.2368
 8676SOL    HW237662   4.664   0.366   6.662  1.9259  0.7670  0.1051
 8677SOL     OW37663   4.235   0.023   9.792 -0.0199  0.3520 -0.5459
 8677SOL    HW137664   4.146   4.724   9.804 -0.3509  1.1799 -0.6803
 8677SOL    HW237665   4.232   0.060   9.704 -1.0983 -0.5102 -0.8771
 8678SOL     OW37666   0.070   1.420   2.587  0.4459 -0.2646  0.2706
 8678SOL    HW137667   0.129   1.446   2.516 -0.6021  0.7740 -0.2068
 8678SOL    HW237668   0.133   1.440   2.656  1.5211  2.0267 -1.3678
 8679SOL     OW37669   4.410   3.041   7.156  0.1059  0.2751  0.2570
 8679SOL    HW137670   4.408   3.054   7.061  0.0179  0.9071  0.3464
 8679SOL    HW237671   4.370   3.120   7.191  0.3718  0.2844  0.5411
 8680SOL     OW37672   3.978   1.424  17.095 -0.0059 -0.0082  0.1434
 8680SOL    HW137673   3.904   1.384  17.050 -0.7725  0.7745  0.7210
 8680SOL    HW237674   3.993   1.355  17.160  0.1773 -1.1933 -1.1565
 8681SOL     OW37675   2.200   1.716   6.861 -0.0907  0.7684  0.2195
 8681SOL    HW137676   2.274   1.700   6.802  0.3350 -0.2797  1.0502
 8681SOL    HW237677   2.139   1.668   6.805 -1.3084 -0.2643  2.4464
 8682SOL     OW37678   2.277   2.947  13.494  0.2531  0.2609  0.2328
 8682SOL    HW137679   2.345   2.929  13.429  0.5298 -0.2178  0.6514
 8682SOL    HW237680   2.279   2.872  13.554 -0.3582 -0.3889 -0.5527
 8683SOL     OW37681   2.114   2.674   0.991 -0.0649 -0.1367  0.2284
 8683SOL    HW137682   2.077   2.685   1.078  0.5272 -1.7904  0.6909
 8683SOL    HW237683   2.038   2.668   0.934 -1.0829 -1.0248  1.6876
 8684SOL     OW37684   1.526   3.501   2.843 -0.5235  0.0000 -0.0064
 8684SOL    HW137685   1.464   3.573   2.830 -1.1793 -0.3869  0.9556
 8684SOL    HW237686   1.478   3.425   2.810 -1.1174 -1.0461  3.2476
 8685SOL     OW37687   2.824   3.580  17.414  0.4444 -0.9623  0.1358
 8685SOL    HW137688   2.737   3.541  17.409 -0.1727  0.0897  2.7449
 8685SOL    HW237689   2.809   3.664  17.457 -0.2720 -2.4524  2.8314
 8686SOL     OW37690   2.354   1.223  10.804 -0.2301 -0.1550 -0.1381
 8686SOL    HW137691   2.390   1.309  10.825  1.1975 -0.9000  0.4645
 8686SOL    HW237692   2.307   1.196  10.882  0.8243 -1.0721  0.1877
 8687SOL     OW37693   2.796   0.326  16.116  0.3533  0.3087 -0.1640
 8687SOL    HW137694   2.861   0.320  16.186  2.3822 -0.6090 -2.1155
 8687SOL    HW237695   2.818   0.413  16.081  2.1356  0.3180  0.9474
 8688SOL     OW37696   0.679   0.769   6.967 -0.2700 -0.4329  0.3852
 8688SOL    HW137697   0.767   0.732   6.953  0.1073  0.6686 -0.1696
 8688SOL    HW237698   0.637   0.704   6.910 -0.0979 -1.9394  1.9820
 8689SOL     OW37699   3.710   0.523   6.219 -0.2087 -0.0516  0.2859
 8689SOL    HW137700   3.638   0.461   6.209  0.8742 -1.5821  2.1124
 8689SOL    HW237701   3.659   0.598   6.251 -0.1800 -0.2267  0.7383
 8690SOL     OW37702   1.739   3.108   0.236 -0.1363 -0.0574 -0.0070
 8690SOL    HW137703   1.735   3.099   0.331  2.5319  3.1692  0.4293
 8690SOL    HW237704   1.731   3.016   0.214 -2.6438 -0.1619  1.3713
 8691SOL     OW37705   2.466   3.036   2.750 -0.6700 -0.1876  0.3722
 8691SOL    HW137706   2.550   3.061   2.789 -0.2277  0.8200 -1.2389
 8691SOL    HW237707   2.409   3.036   2.827 -0.2783  0.9413  0.6620
 8692SOL     OW37708   1.115   3.084   2.273  0.7274 -0.3581  0.3633
 8692SOL    HW137709   1.099   3.071   2.179  1.2433 -0.5887  0.3114
 8692SOL    HW237710   1.091   3.000   2.312  0.3246  0.3996  1.7310
 8693SOL     OW37711   3.458   3.335   3.832 -0.4325  0.4688  0.6617
 8693SOL    HW137712   3.364   3.327   3.849 -0.5392 -1.5000 -0.8525
 8693SOL    HW237713   3.481   3.276   3.904 -0.3145 -0.1993  0.0856
 8694SOL     OW37714   2.231   3.892   5.982  0.2416  0.1287  0.6673
 8694SOL    HW137715   2.149   3.942   5.976  0.6907  0.8548  0.6764
 8694SOL    HW237716   2.187   3.810   6.005 -0.6329  0.5394  0.4760
 8695SOL     OW37717   2.982   4.728   7.271 -0.3132 -0.0730  1.0431
 8695SOL    HW137718   2.979   4.711   7.177  1.3217  0.3206  0.9183
 8695SOL    HW237719   3.030   0.075   7.269 -1.2287  0.4657  1.5881
 8696SOL     OW37720   0.571   0.358  14.876 -0.5773  0.0863  0.4498
 8696SOL    HW137721   0.536   0.445  14.890 -0.9692  0.0997 -0.6060
 8696SOL    HW237722   0.503   0.307  14.920 -1.1791  1.2809  0.9023
 8697SOL     OW37723   1.346   0.321   9.745  0.5769 -0.3135 -0.0875
 8697SOL    HW137724   1.307   0.377   9.812  0.5931 -0.4907  0.0697
 8697SOL    HW237725   1.306   0.237   9.766  3.2245 -0.9887  2.2248
 8698SOL     OW37726   3.951   2.543   2.208  0.0072  0.5252  0.4662
 8698SOL    HW137727   3.952   2.552   2.303  2.4522  1.3538  0.3579
 8698SOL    HW237728   3.867   2.581   2.185  2.0335  1.3335 -5.6642
 8699SOL     OW37729   1.515   0.145   4.497 -0.9261 -0.2112 -0.1502
 8699SOL    HW137730   1.443   0.134   4.436 -1.0023  1.1553 -0.3099
 8699SOL    HW237731   1.466   0.176   4.573  0.4812  1.1513  0.2084
 8700SOL     OW37732   0.623   4.005   4.373 -0.1255 -0.2958  0.5356
 8700SOL    HW137733   0.608   4.009   4.279 -0.0197  0.0237  0.5300
 8700SOL    HW237734   0.544   4.041   4.413 -0.6416 -1.6099  0.6855
 8701SOL     OW37735   4.035   2.507   1.919 -0.2633  0.0428 -0.1971
 8701SOL    HW137736   4.127   2.489   1.934 -0.0713  2.0646  1.0000
 8701SOL    HW237737   4.013   2.520   2.011 -1.4567 -1.5902 -0.2522
 8702SOL     OW37738   2.978   4.431   8.680 -0.2179  0.7904 -0.5420
 8702SOL    HW137739   2.890   4.431   8.643  0.2025  0.4046 -1.5468
 8702SOL    HW237740   3.024   4.435   8.596  1.1092  1.3840  0.2087
 8703SOL     OW37741   1.203   4.519  10.136 -0.3842  0.1548 -0.0593
 8703SOL    HW137742   1.236   4.436  10.172 -1.3380  0.5289  1.6635
 8703SOL    HW237743   1.195   4.574  10.213  3.2696 -0.5672  0.8430
 8704SOL     OW37744   2.218   3.108   2.021 -0.1103 -0.2109  0.0183
 8704SOL    HW137745   2.256   3.073   2.102 -2.4061  1.6137  1.8979
 8704SOL    HW237746   2.236   3.200   2.042  0.9725 -0.5900  0.7720
 8705SOL     OW37747   3.779   0.919   8.740 -0.1950 -0.2520 -0.6611
 8705SOL    HW137748   3.753   0.953   8.826 -0.6098  2.8019 -1.9968
 8705SOL    HW237749   3.864   0.876   8.755 -1.6687 -2.6737  0.9794
 8706SOL     OW37750   1.070   1.942   2.134 -0.3420  0.6370  0.1238
 8706SOL    HW137751   1.140   2.007   2.146 -0.0249  0.3614 -0.2576
 8706SOL    HW237752   0.999   1.983   2.184 -1.7294 -0.0912 -1.2725
 8707SOL     OW37753   1.452   2.201   2.647  0.3263 -0.2134  0.3898
 8707SOL    HW137754   1.411   2.208   2.561  0.4003 -0.5311  0.3285
 8707SOL    HW237755   1.435   2.287   2.685 -1.0168 -0.3399  0.0863
 8708SOL     OW37756   4.379   2.396  13.913  0.0109 -0.2052  0.1349
 8708SOL    HW137757   4.469   2.401  13.880 -0.3905  1.5456 -0.6683
 8708SOL    HW237758   4.390   2.312  13.958 -1.1482 -0.0325  0.7367
 8709SOL     OW37759   4.354   3.505  13.860  0.1913  0.2682 -0.0631
 8709SOL    HW137760   4.381   3.530  13.772 -2.2172 -0.5259 -1.0117
 8709SOL    HW237761   4.371   3.412  13.875 -0.7981  0.0850 -0.0828
 8710SOL     OW37762   4.598   2.958   1.868 -0.6932 -1.3045 -0.2737
 8710SOL    HW137763   4.587   2.994   1.780 -2.6627 -0.9877  0.0913
 8710SOL    HW237764   4.692   2.952   1.882 -0.5763 -2.1396 -1.3841
 8711SOL     OW37765   2.639   1.042  13.591  0.1732 -0.1338  0.5248
 8711SOL    HW137766   2.645   1.138  13.590 -2.4688  0.0215 -0.9442
 8711SOL    HW237767   2.648   1.020  13.683  0.7545  2.5895  1.1358
 8712SOL     OW37768   2.985   2.520  10.225 -0.5483  0.1288 -0.2049
 8712SOL    HW137769   2.992   2.550  10.135  0.0204 -1.3559 -0.6386
 8712SOL    HW237770   3.006   2.599  10.275  1.8459 -0.5531 -0.1289
 8713SOL     OW37771   4.392   1.063   6.961 -0.1328  0.0629 -0.3899
 8713SOL    HW137772   4.399   1.024   6.874  1.5974 -1.2411  0.3358
 8713SOL    HW237773   4.367   0.989   7.016  0.8224  1.5433  2.0445
 8714SOL     OW37774   2.296   3.055   1.294  0.0069 -0.4534  0.3688
 8714SOL    HW137775   2.234   2.981   1.296  0.2045 -0.6534 -0.6616
 8714SOL    HW237776   2.358   3.020   1.359  2.1698  3.6780  0.4948
 8715SOL     OW37777   0.517   4.098   1.223  0.1731  0.4207 -0.4906
 8715SOL    HW137778   0.551   4.184   1.196  1.1916  0.0430 -0.4316
 8715SOL    HW237779   0.446   4.121   1.283  0.3320 -1.9376  0.5918
 8716SOL     OW37780   4.699   1.989   8.122 -0.0951  0.1084  0.2995
 8716SOL    HW137781   4.700   1.909   8.070  0.3567  0.3885 -0.1257
 8716SOL    HW237782   4.679   2.058   8.059 -0.1585 -2.6813 -2.6890
 8717SOL     OW37783   0.667   3.152   2.246  0.4673 -0.1555 -0.3777
 8717SOL    HW137784   0.715   3.216   2.299 -2.5187  0.4114  1.6622
 8717SOL    HW237785   0.582   3.144   2.288 -0.2999  1.4331 -1.6400
 8718SOL     OW37786   2.602   4.161   3.686  0.4878 -0.3762  0.4127
 8718SOL    HW137787   2.514   4.125   3.692  0.1321  0.2262 -1.3278
 8718SOL    HW237788   2.593   4.251   3.655  0.2742 -0.9168 -1.0723
 8719SOL     OW37789   4.554   1.280   1.943 -0.2185  0.1915 -0.6493
 8719SOL    HW137790   4.564   1.373   1.922 -0.2339 -0.0661 -1.7808
 8719SOL    HW237791   4.542   1.291   2.037 -0.2131  1.4791 -0.7997
 8720SOL     OW37792   3.440   2.212   0.250 -0.1080  0.5067  0.0605
 8720SOL    HW137793   3.451   2.195   0.344 -0.2022 -0.3634 -0.0851
 8720SOL    HW237794   3.393   2.133   0.221  2.4078 -1.2596  0.8323
 8721SOL     OW37795   1.824   2.068   0.006  0.1076 -0.2071 -0.1712
 8721SOL    HW137796   1.842   2.023  17.664  0.3343  3.8027 -2.3559
 8721SOL    HW237797   1.863   2.014   0.075  0.3802  1.1791  0.7726
 8722SOL     OW37798   0.412   3.396   2.982  0.2736 -0.4262 -0.2622
 8722SOL    HW137799   0.500   3.417   2.950  0.9775 -1.8695  0.7227
 8722SOL    HW237800   0.370   3.396   2.896  0.1896  0.6192 -0.2194
 8723SOL     OW37801   3.946   4.368  10.866 -0.3906  0.1667  0.1834
 8723SOL    HW137802   4.017   4.304  10.869 -0.2606  0.2046 -2.3639
 8723SOL    HW237803   3.925   4.365  10.959  0.0391 -0.6368  0.2506
 8724SOL     OW37804   1.677   2.125   1.731 -0.0901 -0.8344  0.0546
 8724SOL    HW137805   1.671   2.148   1.638  0.7160 -0.4342  0.1024
 8724SOL    HW237806   1.755   2.070   1.734  1.2511  1.1143  0.8788
 8725SOL     OW37807   2.683   3.558   8.069 -0.2129 -0.7330  0.2468
 8725SOL    HW137808   2.724   3.620   8.010  1.7042 -1.0596  1.2368
 8725SOL    HW237809   2.731   3.477   8.052  1.1703  0.4690 -1.5452
 8726SOL     OW37810   4.584   2.558  16.502  0.2347  0.1160 -0.0797
 8726SOL    HW137811   4.617   2.582  16.589 -0.4869 -1.9728  0.7518
 8726SOL    HW237812   4.489   2.565  16.510  0.4744  0.9951  2.1296
 8727SOL     OW37813   3.156   0.043  17.618 -0.0402  0.5156  0.3831
 8727SOL    HW137814   3.120   4.718  17.553 -0.3181  0.2574  0.7842
 8727SOL    HW237815   3.206   4.722  17.677 -0.7619 -0.7646 -0.2203
 8728SOL     OW37816   2.610   2.133   4.563  0.7016 -0.6227 -0.8106
 8728SOL    HW137817   2.523   2.131   4.602  1.4555 -0.6022  0.8492
 8728SOL    HW237818   2.659   2.134   4.645  0.0478 -0.0000 -0.4247
 8729SOL     OW37819   4.579   1.547   2.491  0.1665  0.5781  0.1349
 8729SOL    HW137820   4.643   1.489   2.532 -0.6178 -1.1213 -1.0874
 8729SOL    HW237821   4.621   1.583   2.413 -0.3888 -1.0479 -0.8908
 8730SOL     OW37822   2.531   4.545   2.546 -0.0817  0.3761  0.0545
 8730SOL    HW137823   2.520   4.499   2.629  0.4260 -1.1867 -0.7417
 8730SOL    HW237824   2.616   4.585   2.564  0.3892 -0.9799  0.8886
 8731SOL     OW37825   2.375   0.088   5.015 -0.2175 -0.4222  0.3553
 8731SOL    HW137826   2.392   0.180   4.997 -0.2505 -0.3715  0.5871
 8731SOL    HW237827   2.307   0.060   4.953  0.7474 -2.0786  0.0568
 8732SOL     OW37828   2.714   0.547  15.513 -0.5648  0.3592 -0.1434
 8732SOL    HW137829   2.657   0.605  15.463 -1.4154 -0.9536 -0.6950
 8732SOL    HW237830   2.657   0.475  15.541 -2.0213 -0.4728 -5.3257
 8733SOL     OW37831   2.342   4.117   3.726  0.4176 -0.3268  0.0045
 8733SOL    HW137832   2.285   4.184   3.764  1.2732  0.0541  0.5905
 8733SOL    HW237833   2.285   4.044   3.748 -1.1310  0.6290 -0.7985
 8734SOL     OW37834   1.927   2.534   2.437 -0.0558 -0.2435  0.5854
 8734SOL    HW137835   2.020   2.544   2.454  0.3346 -0.8044 -1.2266
 8734SOL    HW237836   1.905   2.613   2.389 -2.2409 -1.9996 -1.3196
 8735SOL     OW37837   2.470   3.367  10.423 -0.2933  0.0654  0.2442
 8735SOL    HW137838   2.426   3.289  10.456 -0.0072 -1.7630 -3.6514
 8735SOL    HW237839   2.434   3.434  10.480  1.6072 -1.1481  2.8622
 8736SOL     OW37840   1.698   2.848   8.633  0.4244 -0.0642 -0.3705
 8736SOL    HW137841   1.689   2.927   8.581 -2.1112 -0.8806 -1.1554
 8736SOL    HW237842   1.688   2.782   8.565 -2.9065  3.2437 -3.0471
 8737SOL     OW37843   0.856   1.690  14.259 -0.2657 -0.2900  0.1563
 8737SOL    HW137844   0.884   1.631  14.328 -2.7338 -1.9109 -0.2121
 8737SOL    HW237845   0.825   1.627  14.194  3.3096 -0.1053 -1.7396
 8738SOL     OW37846   1.826   3.789   7.198  0.3150 -0.1085  0.1526
 8738SOL    HW137847   1.839   3.722   7.264  1.7527  0.4895  0.4681
 8738SOL    HW237848   1.751   3.760   7.145 -1.0459  1.4437  1.2220
 8739SOL     OW37849   4.470   3.493   6.708  0.1009 -0.3835 -0.1389
 8739SOL    HW137850   4.498   3.542   6.631  1.2085 -0.5554  0.1472
 8739SOL    HW237851   4.508   3.405   6.698  2.0627  0.2848  1.4146
 8740SOL     OW37852   4.527   3.454  12.206  0.0633 -0.1650 -0.3784
 8740SOL    HW137853   4.471   3.448  12.283  0.3093  0.3560 -0.1563
 8740SOL    HW237854   4.542   3.549  12.200  1.5533 -0.4254 -0.9027
 8741SOL     OW37855   2.428   1.043  12.061 -0.3327  0.3255 -0.3143
 8741SOL    HW137856   2.407   1.042  12.154 -0.4453  1.0117 -0.3336
 8741SOL    HW237857   2.394   0.962  12.023 -0.1919 -0.4543  1.2043
 8742SOL     OW37858   3.624   3.458   8.584 -0.3986 -0.6217  0.0209
 8742SOL    HW137859   3.595   3.464   8.675 -0.3261  0.2121 -0.0102
 8742SOL    HW237860   3.689   3.388   8.586  1.0720  0.7538  0.3781
 8743SOL     OW37861   2.735   0.402   1.903 -0.3041  0.0826  0.7375
 8743SOL    HW137862   2.750   0.385   1.996 -0.1512 -0.4169  0.6188
 8743SOL    HW237863   2.703   0.318   1.871 -0.2377 -1.1242  3.8147
 8744SOL     OW37864   3.552   2.981   6.141  0.0274  0.4299  0.0041
 8744SOL    HW137865   3.642   2.963   6.115 -0.3173 -2.2274  0.6739
 8744SOL    HW237866   3.558   3.055   6.201  2.8384 -0.2160  0.5106
 8745SOL     OW37867   3.159   2.401   2.935  0.0399  0.2149  0.2032
 8745SOL    HW137868   3.118   2.316   2.947 -0.1711  0.1662 -0.8413
 8745SOL    HW237869   3.253   2.385   2.948 -0.1716 -2.0778 -1.0333
 8746SOL     OW37870   0.132   3.754   8.402  0.1245  0.4343  0.3630
 8746SOL    HW137871   0.203   3.690   8.406 -0.5989 -0.5384 -2.6571
 8746SOL    HW237872   0.071   3.718   8.339  0.0890  0.3468  0.4472
 8747SOL     OW37873   3.121   1.743   1.054 -0.1349  1.1317  0.5083
 8747SOL    HW137874   3.061   1.700   1.115 -1.3805  1.2581 -0.6190
 8747SOL    HW237875   3.125   1.827   1.101  3.5078  0.6563  1.0695
 8748SOL     OW37876   3.485   4.714   2.278  0.1752 -0.2886 -0.6844
 8748SOL    HW137877   3.564   0.010   2.323 -0.2307 -0.7463  0.3335
 8748SOL    HW237878   3.433   0.058   2.291 -0.7259 -0.8793 -0.7029
 8749SOL     OW37879   2.918   2.494  12.563 -0.0087 -0.4289 -0.0566
 8749SOL    HW137880   2.956   2.574  12.528  0.9386 -1.9070 -2.3513
 8749SOL    HW237881   2.996   2.479  12.617 -0.2190  1.2213  0.6917
 8750SOL     OW37882   1.189   1.262   1.590 -0.1427  0.2122  0.4202
 8750SOL    HW137883   1.219   1.176   1.561 -2.0981  0.1430 -1.3827
 8750SOL    HW237884   1.266   1.287   1.641 -0.1242 -0.7679  0.8610
 8751SOL     OW37885   1.704   2.132   7.040 -0.0311 -0.1719 -0.0263
 8751SOL    HW137886   1.783   2.178   7.010 -0.9576  0.5779 -1.2815
 8751SOL    HW237887   1.655   2.195   7.092 -1.7021 -1.4157 -0.0873
 8752SOL     OW37888   1.397   1.368   6.007  0.1228 -0.1441 -0.2184
 8752SOL    HW137889   1.305   1.382   6.029 -0.4071 -2.1120 -1.2147
 8752SOL    HW237890   1.404   1.374   5.912 -1.4609 -1.0879 -0.3896
 8753SOL     OW37891   1.369   2.247  13.990 -0.1145 -0.3308  0.3430
 8753SOL    HW137892   1.423   2.323  14.015 -1.8946  0.2864  2.3162
 8753SOL    HW237893   1.361   2.211  14.078  2.4294  2.1048  1.6050
 8754SOL     OW37894   3.081   2.525  14.407 -0.1355 -0.5336 -0.2898
 8754SOL    HW137895   3.002   2.477  14.381 -2.0886  2.6356 -0.2257
 8754SOL    HW237896   3.131   2.505  14.328  1.2786  0.8401  0.2586
 8755SOL     OW37897   0.832   0.032   6.810  0.0237  0.4480  0.1275
 8755SOL    HW137898   0.910   4.730   6.850 -1.1401  0.6845  2.6443
 8755SOL    HW237899   0.809   4.696   6.750  3.5942 -1.5523  1.1424
 8756SOL     OW37900   2.026   3.062   3.434 -0.1693 -0.4787  0.0444
 8756SOL    HW137901   1.997   2.984   3.482 -2.9775 -0.9922 -2.4269
 8756SOL    HW237902   1.982   3.141   3.466 -2.3807 -1.7721  0.2521
 8757SOL     OW37903   0.046   2.906   4.590  0.0828  0.3400 -0.2958
 8757SOL    HW137904   4.723   2.837   4.559 -1.6762  1.8014 -0.2363
 8757SOL    HW237905   0.102   2.916   4.513 -0.1942 -2.5315 -0.8560
 8758SOL     OW37906   3.882   1.447   6.337  0.1962 -0.0559 -0.0414
 8758SOL    HW137907   3.929   1.522   6.300 -0.0046 -0.7366 -1.7279
 8758SOL    HW237908   3.948   1.378   6.331  0.3009  0.1061 -0.8469
 8759SOL     OW37909   3.370   3.729   7.414 -0.1455  0.0477 -0.0417
 8759SOL    HW137910   3.279   3.753   7.397  0.2069  0.6462 -1.0714
 8759SOL    HW237911   3.406   3.709   7.328  1.9988 -1.8473  1.3041
 8760SOL     OW37912   1.793   2.288   2.284 -0.3561  0.0844 -0.0507
 8760SOL    HW137913   1.714   2.337   2.261 -1.1190 -2.4403 -2.7831
 8760SOL    HW237914   1.862   2.351   2.263  0.4631 -0.4810  0.9607
 8761SOL     OW37915   0.642   0.625   8.727  0.3058  0.3666  0.4618
 8761SOL    HW137916   0.642   0.706   8.779  1.2274  1.7244 -1.6596
 8761SOL    HW237917   0.582   0.644   8.656 -0.3558  0.5916  1.0761
 8762SOL     OW37918   3.664   2.064   6.792 -0.4954 -0.1309  0.2890
 8762SOL    HW137919   3.697   1.989   6.743 -1.3238 -1.2235  1.4030
 8762SOL    HW237920   3.593   2.020   6.839 -0.1068 -2.1166 -1.0154
 8763SOL     OW37921   1.611   0.162   7.796 -0.0562  0.3924  0.1598
 8763SOL    HW137922   1.528   0.210   7.804 -0.6846 -1.0223  2.2412
 8763SOL    HW237923   1.582   0.081   7.754 -1.1981  0.6255  0.4867
 8764SOL     OW37924   2.895   4.184   4.870  0.0845 -0.1682 -0.3308
 8764SOL    HW137925   2.856   4.185   4.957  0.0027 -0.7095 -0.3662
 8764SOL    HW237926   2.891   4.092   4.845 -1.8931  0.2270 -1.5189
 8765SOL     OW37927   0.316   1.208   9.009  1.1648  0.1697 -0.5455
 8765SOL    HW137928   0.230   1.248   8.993  1.2597  0.1014 -1.2160
 8765SOL    HW237929   0.297   1.136   9.070 -0.8722  0.3593 -0.9488
 8766SOL     OW37930   1.361   1.542   3.041 -0.7472  0.3801  0.3725
 8766SOL    HW137931   1.350   1.575   3.130 -1.1718  0.9822  0.0939
 8766SOL    HW237932   1.347   1.450   3.063 -1.7455  0.9972  2.3568
 8767SOL     OW37933   3.525   1.197  13.936  0.3190  0.0766 -0.5678
 8767SOL    HW137934   3.577   1.176  13.858  0.5096  0.7967 -0.6408
 8767SOL    HW237935   3.453   1.134  13.942 -0.7495  1.4834  1.2749
 8768SOL     OW37936   3.278   4.362  13.082 -0.0865  0.6065 -0.0434
 8768SOL    HW137937   3.286   4.420  13.158 -0.0821 -1.1028  1.2613
 8768SOL    HW237938   3.359   4.389  13.038 -0.1772  0.0702 -0.5356
 8769SOL     OW37939   2.693   1.606   0.687 -0.0578  0.3399 -0.3541
 8769SOL    HW137940   2.753   1.674   0.658  0.5807 -0.2327 -0.3966
 8769SOL    HW237941   2.701   1.611   0.782 -1.7751 -1.2144 -0.1385
 8770SOL     OW37942   3.816   4.518  12.295 -0.2291 -0.6060  0.0758
 8770SOL    HW137943   3.804   4.447  12.358 -0.1007 -0.8939 -0.2253
 8770SOL    HW237944   3.726   4.505  12.264 -0.8294  2.8245  0.3686
 8771SOL     OW37945   1.009   2.416  12.995 -0.2524 -0.4181 -0.0038
 8771SOL    HW137946   1.094   2.400  12.955 -1.3227 -0.2181 -2.3177
 8771SOL    HW237947   0.964   2.337  12.965  0.2654 -0.6383 -0.2077
 8772SOL     OW37948   3.171   2.110   5.522 -0.3467 -0.2300 -0.3089
 8772SOL    HW137949   3.110   2.138   5.454 -1.1929 -1.6898 -0.1686
 8772SOL    HW237950   3.195   2.193   5.562 -0.4040 -1.6919  2.7388
 8773SOL     OW37951   0.337   2.512   6.044  0.4399  0.1391  0.0713
 8773SOL    HW137952   0.345   2.465   6.127  0.6742 -2.2044 -1.2799
 8773SOL    HW237953   0.247   2.490   6.024  0.7308 -0.8292 -0.1642
 8774SOL     OW37954   1.538   4.032   4.114  0.3774  0.0527 -0.2674
 8774SOL    HW137955   1.461   3.980   4.088  1.1653 -1.8828  1.3113
 8774SOL    HW237956   1.603   3.966   4.137  1.1141  0.9113  0.0917
 8775SOL     OW37957   3.070   4.495  16.164 -0.6125 -0.5846  0.3233
 8775SOL    HW137958   3.026   4.460  16.087 -2.2249 -0.5726  1.2250
 8775SOL    HW237959   3.019   4.573  16.190  1.5567  1.2808 -1.0589
 8776SOL     OW37960   2.950   2.443   7.021  0.4092  0.2571  0.0624
 8776SOL    HW137961   2.886   2.463   7.089 -1.4729 -1.1186 -1.3291
 8776SOL    HW237962   2.919   2.484   6.941 -0.6202 -0.2952  0.1777
 8777SOL     OW37963   3.111   3.675   4.628  0.1090  0.1775  0.2382
 8777SOL    HW137964   3.123   3.724   4.546 -2.3321  2.0738  1.0235
 8777SOL    HW237965   3.202   3.651   4.649  0.3561  1.0035  0.1146
 8778SOL     OW37966   1.682   1.562   1.661  0.0260  0.7885  0.1419
 8778SOL    HW137967   1.647   1.599   1.742  0.0104 -1.6961  1.2774
 8778SOL    HW237968   1.639   1.477   1.660 -0.2854  0.9494 -0.0643
 8779SOL     OW37969   2.321   1.610   1.789  0.1087 -0.4486  0.3525
 8779SOL    HW137970   2.271   1.672   1.842  0.0217 -1.0844  1.0048
 8779SOL    HW237971   2.361   1.666   1.722  0.5839 -0.5382  0.5569
 8780SOL     OW37972   3.130   2.426   2.247  0.5718  0.1663  0.6049
 8780SOL    HW137973   3.219   2.408   2.276  0.1089 -1.5562  0.9737
 8780SOL    HW237974   3.115   2.341   2.206 -1.2680  0.3335  0.9033
 8781SOL     OW37975   1.270   3.147   3.851  0.6703  0.0793  0.0965
 8781SOL    HW137976   1.359   3.112   3.851  0.9107  0.6952  0.2034
 8781SOL    HW237977   1.258   3.172   3.942 -0.5180  0.7865 -0.2489
 8782SOL     OW37978   2.483   3.813   9.258 -0.0688 -0.1463  0.3462
 8782SOL    HW137979   2.530   3.824   9.341  0.9010 -0.7448 -0.1260
 8782SOL    HW237980   2.500   3.899   9.219 -2.2311  0.2471  0.2607
 8783SOL     OW37981   3.168   1.659   3.895  0.1011  0.2197  0.1069
 8783SOL    HW137982   3.171   1.580   3.948 -2.3950 -1.1063 -1.7356
 8783SOL    HW237983   3.178   1.623   3.807 -0.9799 -0.2380  0.1828
 8784SOL     OW37984   2.273   2.566   8.115  0.2809  0.7932 -0.6981
 8784SOL    HW137985   2.295   2.475   8.092 -1.0108  1.0994 -3.1530
 8784SOL    HW237986   2.207   2.579   8.046 -1.2133  1.3412  0.8393
 8785SOL     OW37987   4.649   1.165  16.104  0.1397 -0.3808 -0.5710
 8785SOL    HW137988   4.645   1.174  16.009 -1.1658 -0.4447 -0.5284
 8785SOL    HW237989   4.600   1.241  16.137  1.0214 -0.0659  0.0195
 8786SOL     OW37990   2.318   1.006   0.175 -0.3161 -0.6249 -0.4335
 8786SOL    HW137991   2.361   1.030   0.093 -0.5868  1.8971  0.1621
 8786SOL    HW237992   2.279   0.919   0.164 -0.2531 -0.5130 -1.5938
 8787SOL     OW37993   2.007   0.172   1.357  0.0614 -0.0821 -0.1141
 8787SOL    HW137994   1.981   0.249   1.306 -1.3994  0.9821  2.2112
 8787SOL    HW237995   1.970   0.194   1.442  0.0386  2.6261 -0.8220
 8788SOL     OW37996   4.114   1.617   8.521  0.0294  0.1448 -0.8482
 8788SOL    HW137997   4.188   1.593   8.464  0.7891 -1.7543  0.9558
 8788SOL    HW237998   4.052   1.547   8.498 -1.4053  0.3182  2.5920
 8789SOL     OW37999   2.182   1.591   3.744 -0.0197 -0.0929 -0.1230
 8789SOL    HW138000   2.133   1.519   3.783 -0.6082 -0.3427 -1.3254
 8789SOL    HW238001   2.218   1.549   3.666 -1.7979  0.2565 -1.1223
 8790SOL     OW38002   3.705   3.465   7.410  0.3211  0.3841 -0.1085
 8790SOL    HW138003   3.632   3.494   7.465  0.8795 -2.2076  1.9835
 8790SOL    HW238004   3.668   3.480   7.323  3.9890 -0.8049 -1.8557
 8791SOL     OW38005   1.072   4.221  11.468  0.7525  0.5270  0.0165
 8791SOL    HW138006   1.018   4.190  11.395  1.2427  0.7889 -0.4632
 8791SOL    HW238007   1.158   4.185  11.445  0.3084 -0.8562  0.5156
 8792SOL     OW38008   4.498   1.209  14.170  0.1342  0.2738 -0.1021
 8792SOL    HW138009   4.585   1.250  14.170  0.1806  0.1725 -0.6112
 8792SOL    HW238010   4.456   1.289  14.138  0.0452  0.3714  0.2656
 8793SOL     OW38011   2.804   2.863  12.114 -0.4010 -0.2674 -0.3194
 8793SOL    HW138012   2.862   2.930  12.077  0.4339  0.3947  2.2226
 8793SOL    HW238013   2.865   2.793  12.138  1.2763  1.3305  0.0348
 8794SOL     OW38014   2.636   1.011   6.079 -0.1306  0.2157 -0.2694
 8794SOL    HW138015   2.701   1.067   6.123 -0.1211 -1.9466  2.4597
 8794SOL    HW238016   2.700   0.976   6.017  1.1650  1.3273  0.4180
 8795SOL     OW38017   4.541   2.113  16.904 -0.0225  0.2061  0.3998
 8795SOL    HW138018   4.479   2.095  16.834  0.5757  0.5385 -0.2090
 8795SOL    HW238019   4.619   2.141  16.856 -0.5115 -0.1091 -0.5845
 8796SOL     OW38020   2.072   2.961  11.143 -0.0769 -0.1990  0.0573
 8796SOL    HW138021   2.010   2.998  11.206 -0.0357  3.3172 -1.9765
 8796SOL    HW238022   2.024   2.892  11.098 -2.0764  1.3742 -0.2600
 8797SOL     OW38023   0.179   3.886   4.564 -0.2521 -0.1261  0.2320
 8797SOL    HW138024   0.096   3.928   4.539  0.0884  0.1740 -0.3937
 8797SOL    HW238025   0.155   3.795   4.549 -0.2513 -0.0829 -0.0391
 8798SOL     OW38026   4.320   2.872  11.309 -0.3214 -0.3263 -0.3605
 8798SOL    HW138027   4.264   2.894  11.235 -0.0195 -1.1193 -0.8276
 8798SOL    HW238028   4.403   2.917  11.303 -0.3063 -0.3474 -0.3157
 8799SOL     OW38029   3.114   1.508   7.825  0.5218 -0.0978  0.0188
 8799SOL    HW138030   3.060   1.456   7.885 -1.4841 -0.7657 -2.3694
 8799SOL    HW238031   3.099   1.476   7.736 -0.5238 -2.3401  1.0088
 8800SOL     OW38032   1.987   1.285  17.735  0.1850 -0.0959  0.1343
 8800SOL    HW138033   2.065   1.308  17.684  0.1813 -0.2061  0.0805
 8800SOL    HW238034   2.016   1.202   0.032 -0.1206  0.9240  2.6671
 8801SOL     OW38035   2.365   2.124   5.787  0.2198 -0.5936 -0.4015
 8801SOL    HW138036   2.363   2.030   5.801 -0.3924 -0.3626  1.1158
 8801SOL    HW238037   2.437   2.139   5.726 -0.8548  0.6329 -1.3825
 8802SOL     OW38038   2.982   2.682  15.100 -0.1233 -0.0025 -0.0562
 8802SOL    HW138039   2.960   2.747  15.167 -0.5351  1.6364 -1.7667
 8802SOL    HW238040   3.024   2.734  15.031  1.8469  0.0891  1.2149
 8803SOL     OW38041   3.706   1.353  17.024  0.5887 -0.0565 -0.3191
 8803SOL    HW138042   3.702   1.265  17.063 -2.9127  0.0997 -0.3432
 8803SOL    HW238043   3.706   1.325  16.933 -5.5856  0.9425 -0.6307
 8804SOL     OW38044   4.611   0.313   5.134 -0.5522  0.1370 -0.2372
 8804SOL    HW138045   4.521   0.285   5.151 -0.6298  0.0299 -0.8358
 8804SOL    HW238046   4.621   0.293   5.041  1.1398 -0.3395  0.0563
 8805SOL     OW38047   4.067   4.072   5.197 -0.2614  0.6342 -0.4087
 8805SOL    HW138048   3.972   4.081   5.184 -0.2105 -0.0080 -1.1816
 8805SOL    HW238049   4.079   4.162   5.226  0.9726 -0.2481  1.7998
 8806SOL     OW38050   2.140   1.052  14.852  0.1400 -0.3612 -0.0816
 8806SOL    HW138051   2.171   1.027  14.765 -0.8590  1.4326 -0.9456
 8806SOL    HW238052   2.227   1.060  14.892 -0.1073 -1.9494  0.7426
 8807SOL     OW38053   0.638   2.004   4.851 -0.1653 -0.5139 -0.1914
 8807SOL    HW138054   0.670   1.917   4.827  1.7516  0.7332 -2.1159
 8807SOL    HW238055   0.669   2.062   4.782 -0.3746 -0.4595 -0.2405
 8808SOL     OW38056   3.854   3.179   3.581  0.6591  0.6771 -0.0413
 8808SOL    HW138057   3.928   3.127   3.549  0.7349  0.1153  1.0381
 8808SOL    HW238058   3.887   3.219   3.661 -0.7035  2.6948 -0.5072
 8809SOL     OW38059   1.319   1.983   2.745  0.6987 -0.2257  0.1272
 8809SOL    HW138060   1.297   1.935   2.665  0.6150 -0.8160  0.5101
 8809SOL    HW238061   1.368   2.060   2.717 -0.4097 -0.2338 -1.9101
 8810SOL     OW38062   3.170   2.105   4.503 -0.1300 -0.1653 -0.0283
 8810SOL    HW138063   3.099   2.050   4.472  0.9967 -2.1884  0.9678
 8810SOL    HW238064   3.213   2.134   4.423  0.9501 -0.9597  0.2671
 8811SOL     OW38065   3.311   0.617  10.836  0.5540 -0.6990 -0.5859
 8811SOL    HW138066   3.386   0.587  10.886 -0.7609 -0.9286  1.2158
 8811SOL    HW238067   3.347   0.631  10.748  1.7797 -0.8365 -0.1010
 8812SOL     OW38068   2.970   1.964   7.843 -0.2115  0.4477  0.4125
 8812SOL    HW138069   2.956   2.012   7.925  2.0442  1.2351  0.3379
 8812SOL    HW238070   2.893   1.911   7.862  0.4424 -0.4267  0.5994
 8813SOL     OW38071   0.454   1.507  13.678  0.2592 -0.2701  0.3750
 8813SOL    HW138072   0.499   1.423  13.682  0.0854 -0.4402 -1.0755
 8813SOL    HW238073   0.365   1.471  13.671  0.5885 -0.7654 -1.2950
 8814SOL     OW38074   4.128   4.096  13.140  0.0677  0.2692 -1.0997
 8814SOL    HW138075   4.178   4.162  13.187  2.3043 -1.6379 -0.8086
 8814SOL    HW238076   4.057   4.080  13.203  1.9092  0.0086  0.8819
 8815SOL     OW38077   4.626   2.168   7.928  0.2883 -0.2172  0.2158
 8815SOL    HW138078   4.642   2.260   7.909  0.3471 -0.8884 -2.9902
 8815SOL    HW238079   4.635   2.139   7.837 -1.5975  2.2944 -0.7508
 8816SOL     OW38080   0.598   1.859   2.372  0.6388 -0.2833  0.1432
 8816SOL    HW138081   0.546   1.842   2.293  1.7002  0.1548 -0.6445
 8816SOL    HW238082   0.668   1.794   2.363 -1.1983 -2.3606  0.7201
 8817SOL     OW38083   3.846   4.482   9.013  0.2434  0.5678 -0.0610
 8817SOL    HW138084   3.804   4.495   8.928  2.3469 -1.6516 -1.4479
 8817SOL    HW238085   3.785   4.539   9.060 -0.9601 -1.0805  0.3478
 8818SOL     OW38086   3.874   3.753   5.322 -0.4689  0.2865  0.5974
 8818SOL    HW138087   3.789   3.714   5.302  0.4118 -0.5755 -1.4711
 8818SOL    HW238088   3.856   3.814   5.393  0.1916 -0.7249  1.6273
 8819SOL     OW38089   0.537   4.412   9.345  0.0128  0.2811 -0.2744
 8819SOL    HW138090   0.612   4.364   9.380  1.8805  2.1130 -1.7700
 8819SOL    HW238091   0.582   4.477   9.292 -1.0713  2.4807  1.4809
 8820SOL     OW38092   3.984   4.332   5.520 -0.1618 -0.2163 -0.6969
 8820SOL    HW138093   3.917   4.323   5.588  1.5716 -0.6310  0.9632
 8820SOL    HW238094   3.951   4.410   5.475 -0.4689  0.5363  0.8256
 8821SOL     OW38095   1.606   0.483   4.620  0.5139  0.1727  0.2380
 8821SOL    HW138096   1.658   0.476   4.700  0.0468  4.3751  0.9399
 8821SOL    HW238097   1.538   0.417   4.632 -0.6520  0.8088 -2.9626
 8822SOL     OW38098   2.987   1.950   0.037 -0.4282 -0.0720  0.3213
 8822SOL    HW138099   2.901   1.939   0.077  0.5776 -1.1871  2.1382
 8822SOL    HW238100   3.014   1.860   0.019  0.7399  0.1631  0.9264
 8823SOL     OW38101   1.424   4.355  10.825 -0.4309  0.2346 -0.2881
 8823SOL    HW138102   1.455   4.264  10.829 -1.3362 -0.0737 -0.0854
 8823SOL    HW238103   1.378   4.350  10.742  0.4549  2.0864 -0.8707
 8824SOL     OW38104   3.016   3.952   6.143  0.3667 -0.0043  0.8254
 8824SOL    HW138105   3.007   3.858   6.162 -0.8981  0.1789  1.1163
 8824SOL    HW238106   2.930   3.984   6.169 -0.1717 -0.1085 -0.8098
 8825SOL     OW38107   0.935   3.923  13.594 -0.5007 -0.2865  0.0952
 8825SOL    HW138108   0.950   3.844  13.646  0.2258  0.2487  0.6956
 8825SOL    HW238109   0.861   3.963  13.639  0.5690 -2.3254  3.7193
 8826SOL     OW38110   1.273   4.260  10.159  0.3885  0.9783  0.6642
 8826SOL    HW138111   1.254   4.226  10.246  1.8320  1.0224  0.9925
 8826SOL    HW238112   1.248   4.192  10.097 -1.9344  0.8868  1.7234
 8827SOL     OW38113   4.654   1.188  13.044 -0.1050  0.6143  0.0046
 8827SOL    HW138114   4.607   1.107  13.066 -2.1811  1.7044 -0.3605
 8827SOL    HW238115   4.583   1.230  12.995  1.1448  1.6068 -0.9263
 8828SOL     OW38116   2.008   4.412   7.303 -0.0107 -0.5238  0.6901
 8828SOL    HW138117   2.070   4.419   7.230 -1.9466  1.5235 -0.7399
 8828SOL    HW238118   2.076   4.374   7.359 -2.2642 -3.8701  1.1144
 8829SOL     OW38119   0.978   2.370  17.361 -0.1177  0.0947 -0.3866
 8829SOL    HW138120   1.021   2.341  17.441 -0.5823  0.8581  0.1461
 8829SOL    HW238121   1.040   2.359  17.289 -1.3280  0.6593 -1.5392
 8830SOL     OW38122   4.540   2.906   7.337 -0.6413  0.1265  0.7757
 8830SOL    HW138123   4.509   2.956   7.262 -0.1599 -1.0572 -0.2218
 8830SOL    HW238124   4.474   2.910   7.405 -1.9753 -0.1516 -0.5060
 8831SOL     OW38125   2.663   2.660   7.306 -0.3359 -0.5859  0.3654
 8831SOL    HW138126   2.676   2.747   7.269 -3.4848 -0.8534 -1.3942
 8831SOL    HW238127   2.715   2.670   7.386 -0.6647 -2.8576  0.8787
 8832SOL     OW38128   3.375   4.631   7.981  0.1595 -0.1996  0.2311
 8832SOL    HW138129   3.445   4.576   7.947 -2.8203  0.0438 -6.2654
 8832SOL    HW238130   3.389   4.714   7.936 -0.8205 -0.6518 -0.9100
 8833SOL     OW38131   3.993   1.642   8.952  0.1298 -0.4624 -0.3066
 8833SOL    HW138132   4.028   1.591   9.024 -0.6132  0.1312  0.4729
 8833SOL    HW238133   4.046   1.616   8.876  0.5451  1.6105 -0.7377
 8834SOL     OW38134   0.674   0.170   2.445  0.5857  0.2987 -0.0586
 8834SOL    HW138135   0.592   0.215   2.464 -2.0425 -3.7591 -1.9074
 8834SOL    HW238136   0.714   0.248   2.405 -0.5679  0.0829 -1.6534
 8835SOL     OW38137   3.439   2.155   3.596  0.1672  0.2224 -0.5986
 8835SOL    HW138138   3.482   2.120   3.518  1.4333 -1.6376  0.9676
 8835SOL    HW238139   3.510   2.174   3.657 -0.5010 -3.4884  1.3190
 8836SOL     OW38140   1.088   4.564   0.360 -0.0524  0.0469  0.3602
 8836SOL    HW138141   1.087   4.618   0.281  1.2884  2.0447  1.7097
 8836SOL    HW238142   1.004   4.579   0.403 -0.0388  2.3888 -0.4215
 8837SOL     OW38143   3.392   0.869   3.978 -0.1208  0.3029 -0.3151
 8837SOL    HW138144   3.389   0.857   3.883 -1.1560 -0.7918 -0.1534
 8837SOL    HW238145   3.485   0.875   3.996 -0.1597 -0.9566  0.3608
 8838SOL     OW38146   2.449   2.893   3.843  0.5732  0.1205  0.1304
 8838SOL    HW138147   2.491   2.860   3.922 -0.1670 -0.9446  0.0760
 8838SOL    HW238148   2.399   2.815   3.819  0.4997 -0.0672  0.8996
 8839SOL     OW38149   0.080   0.555   6.363 -0.1753 -0.0804  0.2532
 8839SOL    HW138150   0.144   0.623   6.342  0.9879 -1.6502 -1.2896
 8839SOL    HW238151   0.132   0.510   6.429  0.6715 -0.8431 -0.9339
 8840SOL     OW38152   2.568   4.174   6.329  0.3281  0.3461 -0.1443
 8840SOL    HW138153   2.485   4.186   6.282 -0.2421 -3.3132 -0.1143
 8840SOL    HW238154   2.556   4.251   6.385 -2.4407 -0.0687 -0.1646
 8841SOL     OW38155   0.656   3.964   8.488  0.0489 -0.3740  0.1919
 8841SOL    HW138156   0.587   3.908   8.521  1.5603 -2.1033  0.4139
 8841SOL    HW238157   0.619   4.048   8.516  0.0681  0.7907 -3.2586
 8842SOL     OW38158   3.787   3.922   7.790  0.3863 -0.1513 -0.4685
 8842SOL    HW138159   3.854   3.855   7.805  1.0091  1.2993  3.3645
 8842SOL    HW238160   3.705   3.876   7.773  0.8286 -0.4493 -1.7449
 8843SOL     OW38161   3.790   2.955  11.952 -0.2311  0.4981 -0.6061
 8843SOL    HW138162   3.752   3.012  11.886  0.2746  0.9044 -0.5505
 8843SOL    HW238163   3.841   2.894  11.900 -0.9501 -1.0095  0.4559
 8844SOL     OW38164   0.559   0.567  11.213 -0.0311 -0.2647 -0.6566
 8844SOL    HW138165   0.646   0.572  11.251 -0.5582 -0.3977  0.5778
 8844SOL    HW238166   0.546   0.478  11.182 -0.5180 -1.1846  2.1551
 8845SOL     OW38167   1.548   2.677   4.620  0.3677  0.6449 -0.5193
 8845SOL    HW138168   1.503   2.626   4.553  0.2948  2.2800 -1.7145
 8845SOL    HW238169   1.490   2.661   4.694  1.8093  0.3262  0.5367
 8846SOL     OW38170   2.201   1.449   7.375 -0.6880  0.2246 -0.0811
 8846SOL    HW138171   2.221   1.408   7.459  1.6827 -1.5105 -1.5054
 8846SOL    HW238172   2.224   1.540   7.394 -0.4294 -0.0375  0.8675
 8847SOL     OW38173   2.099   4.731   2.697 -0.7539 -0.1572  0.4739
 8847SOL    HW138174   2.112   4.638   2.680 -1.7191 -0.6485  2.4535
 8847SOL    HW238175   2.004   4.733   2.694 -0.7568 -1.9147 -0.3838
 8848SOL     OW38176   3.531   1.882   8.098  0.3801  0.6504 -0.5603
 8848SOL    HW138177   3.531   1.938   8.176  1.2078 -0.7927  0.4609
 8848SOL    HW238178   3.599   1.922   8.043  1.8722 -1.3061 -0.1295
 8849SOL     OW38179   1.236   3.820   9.185  0.0173  0.1516 -0.2502
 8849SOL    HW138180   1.295   3.748   9.163 -1.3644 -1.1557  0.3418
 8849SOL    HW238181   1.183   3.772   9.248  0.2839  0.4456  0.1952
 8850SOL     OW38182   3.346   0.207   4.958  0.0422 -0.3263 -0.0431
 8850SOL    HW138183   3.331   0.290   5.002 -0.9005 -0.1153 -0.7703
 8850SOL    HW238184   3.260   0.191   4.919 -0.5416  2.3924  0.1523
 8851SOL     OW38185   2.718   2.659   1.305  0.0716 -0.1839  0.0903
 8851SOL    HW138186   2.807   2.691   1.290 -0.5302  0.3304 -2.4122
 8851SOL    HW238187   2.679   2.689   1.223  3.4630 -1.6274 -2.0309
 8852SOL     OW38188   2.491   2.661   4.783 -0.3201  0.2211 -0.1213
 8852SOL    HW138189   2.484   2.712   4.864 -0.1719  0.3834 -0.2117
 8852SOL    HW238190   2.417   2.675   4.724 -1.5760  0.5831  1.5572
 8853SOL     OW38191   0.100   3.899   2.596 -0.4536 -0.1742  0.0789
 8853SOL    HW138192   0.063   3.814   2.570  2.2472 -0.9242 -1.3135
 8853SOL    HW238193   0.090   3.890   2.690  1.8948  1.6331  0.5008
 8854SOL     OW38194   2.710   0.750   5.764 -0.1816 -0.4662 -0.2680
 8854SOL    HW138195   2.726   0.830   5.814 -1.2947 -0.9730  0.9077
 8854SOL    HW238196   2.789   0.755   5.710 -1.2763 -0.8576 -1.9266
 8855SOL     OW38197   2.922   2.918   1.990  0.1237 -0.0261  0.1948
 8855SOL    HW138198   2.898   3.011   1.993 -2.7032 -0.7005 -1.4273
 8855SOL    HW238199   3.004   2.912   2.039 -0.1543  0.0965  0.6795
 8856SOL     OW38200   1.618   2.108  13.478 -0.0317  0.7299 -0.4464
 8856SOL    HW138201   1.568   2.067  13.407 -0.3745  0.9077 -0.3090
 8856SOL    HW238202   1.667   2.169  13.424 -0.5827  1.2518 -0.3521
 8857SOL     OW38203   0.780   3.402   2.345  0.1704  0.8970  0.4859
 8857SOL    HW138204   0.757   3.372   2.433 -0.2718  0.0234  0.0770
 8857SOL    HW238205   0.872   3.379   2.336 -0.3642 -1.3393  0.6375
 8858SOL     OW38206   1.741   2.509  15.277  0.4030  0.7415 -0.2055
 8858SOL    HW138207   1.810   2.507  15.342 -0.3917  1.2500  0.6546
 8858SOL    HW238208   1.677   2.454  15.324  0.8215  0.9984  0.6529
 8859SOL     OW38209   1.000   4.278  16.474  0.4397  0.6924 -0.0323
 8859SOL    HW138210   1.041   4.217  16.535 -1.0688 -0.7209 -0.4582
 8859SOL    HW238211   1.044   4.247  16.395 -0.9198  2.7139 -1.5903
 8860SOL     OW38212   3.799   2.507   8.624 -0.5048 -0.0619  0.1980
 8860SOL    HW138213   3.818   2.479   8.713  0.2394  0.7464  0.2967
 8860SOL    HW238214   3.806   2.420   8.585 -1.6917 -0.5983  1.1953
 8861SOL     OW38215   3.484   2.929   3.420  1.1223  0.6244 -0.5413
 8861SOL    HW138216   3.531   2.987   3.480  0.0843  1.0706 -0.1625
 8861SOL    HW238217   3.513   2.845   3.454 -0.1063  0.0830 -0.8613
 8862SOL     OW38218   3.106   1.508   2.048 -0.3613 -0.2926  0.1062
 8862SOL    HW138219   3.146   1.422   2.061  0.4407 -0.2503 -2.1940
 8862SOL    HW238220   3.143   1.536   1.965 -0.5467 -1.2979 -0.3096
 8863SOL     OW38221   2.895   2.147   8.054 -0.4612 -0.6775  0.1880
 8863SOL    HW138222   2.923   2.237   8.036  1.0022 -1.2597 -0.4887
 8863SOL    HW238223   2.969   2.127   8.112 -0.7372  0.0394  0.7910
 8864SOL     OW38224   3.135   0.842   4.389 -0.0268  0.4745  0.1045
 8864SOL    HW138225   3.137   0.808   4.300  0.2926 -1.5698  0.8773
 8864SOL    HW238226   3.181   0.775   4.440 -0.8099 -0.4020 -0.3454
 8865SOL     OW38227   4.596   2.020   6.554 -0.3123 -0.0909  0.0307
 8865SOL    HW138228   4.541   2.095   6.576 -1.1451 -0.0888 -2.1218
 8865SOL    HW238229   4.577   1.965   6.631 -0.2961 -1.8538 -1.2183
 8866SOL     OW38230   1.125   0.824  12.816  0.1038 -0.9506  0.6053
 8866SOL    HW138231   1.208   0.800  12.857  1.0332 -0.3911 -0.9741
 8866SOL    HW238232   1.079   0.741  12.827  1.1423 -1.5834  0.1891
 8867SOL     OW38233   4.692   3.727   9.822  0.2174  0.2326  0.1057
 8867SOL    HW138234   0.003   3.661   9.770 -0.8808  0.2285 -0.8771
 8867SOL    HW238235   4.667   3.783   9.749  2.3116  1.3296  0.2333
 8868SOL     OW38236   2.892   3.052   4.045 -0.0881  0.2899 -0.4066
 8868SOL    HW138237   2.953   3.066   4.118  1.5401  0.0612 -1.7217
 8868SOL    HW238238   2.819   3.109   4.067  0.3373 -0.0720  1.9294
 8869SOL     OW38239   2.775   4.127   8.419  0.7729 -0.2609 -0.0820
 8869SOL    HW138240   2.861   4.170   8.421 -0.0754  1.3542  1.8239
 8869SOL    HW238241   2.723   4.199   8.383  1.0618  0.3986  0.8130
 8870SOL     OW38242   1.376   1.497  14.421  0.6376 -0.0301 -0.0320
 8870SOL    HW138243   1.353   1.541  14.339 -2.6302  1.0452  1.4640
 8870SOL    HW238244   1.296   1.468  14.464 -0.7334  1.1582 -1.7543
 8871SOL     OW38245   3.436   0.044   4.449 -0.3184  0.3046  0.5052
 8871SOL    HW138246   3.422   0.057   4.356  0.8900 -2.1865 -0.0075
 8871SOL    HW238247   3.497   4.706   4.453  0.4967  1.0408  1.7631
 8872SOL     OW38248   0.454   3.798   8.605 -0.0302  0.0898 -0.7916
 8872SOL    HW138249   0.369   3.822   8.644  0.6186 -0.6742  1.0892
 8872SOL    HW238250   0.486   3.733   8.667 -0.7003  0.7263  0.2368
 8873SOL     OW38251   1.016   4.251   6.406  0.6635  0.8994 -0.8517
 8873SOL    HW138252   1.109   4.243   6.428  0.2862 -0.6306  0.1705
 8873SOL    HW238253   1.022   4.279   6.314 -0.8627  0.1519 -1.1747
 8874SOL     OW38254   0.924   2.097   9.497  0.2602 -0.1852  0.1217
 8874SOL    HW138255   0.966   2.081   9.581 -0.4671  1.0133  0.7034
 8874SOL    HW238256   0.934   2.192   9.496 -1.2072 -0.0318  1.1740
 8875SOL     OW38257   1.780   0.830   6.713  0.4362 -0.7041 -0.1651
 8875SOL    HW138258   1.752   0.821   6.804  0.6124 -0.1770 -0.0543
 8875SOL    HW238259   1.872   0.846   6.733 -0.0682  1.6939  0.3063
 8876SOL     OW38260   3.949   0.115   3.833 -1.2127  0.1842 -0.2340
 8876SOL    HW138261   3.966   0.201   3.794  0.8709 -0.3538 -0.5100
 8876SOL    HW238262   3.856   0.097   3.819 -1.1152  0.1678 -0.8667
 8877SOL     OW38263   1.908   1.471   6.292  0.5635  0.3298  0.6226
 8877SOL    HW138264   1.869   1.558   6.298 -3.1503 -1.0219 -4.0170
 8877SOL    HW238265   1.846   1.425   6.349 -1.1661  1.4876 -0.3402
 8878SOL     OW38266   3.675   0.333   6.885  0.7227  0.0013  0.2358
 8878SOL    HW138267   3.590   0.316   6.925  1.0124  0.6356  1.1243
 8878SOL    HW238268   3.663   0.418   6.845 -0.6687 -0.6219 -0.6486
 8879SOL     OW38269   3.541   4.176   9.541 -0.5085 -0.1165  0.3579
 8879SOL    HW138270   3.452   4.142   9.539 -0.8131  0.7867 -2.7817
 8879SOL    HW238271   3.540   4.235   9.465 -2.2861  1.6546  1.7706
 8880SOL     OW38272   1.785   3.673   3.513  0.0349  0.3844  0.2910
 8880SOL    HW138273   1.703   3.624   3.516  0.5961 -0.7278 -2.5812
 8880SOL    HW238274   1.772   3.718   3.430 -2.3839 -1.3057 -0.2452
 8881SOL     OW38275   1.515   3.774   5.174  0.0018  0.3184 -0.2082
 8881SOL    HW138276   1.529   3.680   5.158  0.1367  0.3111 -0.0444
 8881SOL    HW238277   1.429   3.786   5.133 -0.2470  2.4851  0.9755
 8882SOL     OW38278   1.855   0.742  13.281 -0.2821  0.3149  0.5690
 8882SOL    HW138279   1.917   0.799  13.326 -0.6409  1.3470 -0.2375
 8882SOL    HW238280   1.815   0.793  13.211 -1.5008 -1.9510 -0.3989
 8883SOL     OW38281   1.980   0.375   3.366 -0.3822  0.4318 -0.3949
 8883SOL    HW138282   2.066   0.351   3.398 -0.4930  0.1320 -0.3276
 8883SOL    HW238283   1.960   0.449   3.423 -1.6671  0.9096 -1.4694
 8884SOL     OW38284   0.337   4.470   3.905  0.7595 -0.9239 -0.5225
 8884SOL    HW138285   0.309   4.399   3.847 -1.1546  0.2012 -0.9599
 8884SOL    HW238286   0.413   4.499   3.855  0.6602  0.2951  0.0293
 8885SOL     OW38287   3.788   4.715   1.513 -0.6736  0.3215  0.1305
 8885SOL    HW138288   3.859   4.709   1.576  0.2068  0.2717 -0.8778
 8885SOL    HW238289   3.723   4.663   1.560 -0.1299  0.9717  1.5832
 8886SOL     OW38290   2.982   4.221  10.819  0.7692  0.0145  0.0863
 8886SOL    HW138291   2.988   4.306  10.862 -2.4683  0.4736 -0.4037
 8886SOL    HW238292   3.038   4.175  10.882  1.7533 -1.1107 -1.6073
 8887SOL     OW38293   0.386   2.811  13.658  0.5568  0.1064 -0.0970
 8887SOL    HW138294   0.461   2.824  13.715  0.1105  0.8000  0.3399
 8887SOL    HW238295   0.362   2.903  13.648 -0.4763 -0.1449  0.0607
 8888SOL     OW38296   4.175   3.089   4.647  0.3300  0.6710  0.0577
 8888SOL    HW138297   4.123   3.161   4.612  2.0890  0.9915 -1.8528
 8888SOL    HW238298   4.188   3.042   4.565 -0.6292  1.4489 -0.5381
 8889SOL     OW38299   3.472   1.860   1.466 -0.6462  0.2708 -0.1912
 8889SOL    HW138300   3.560   1.871   1.500 -0.4716  0.3909 -0.6821
 8889SOL    HW238301   3.473   1.769   1.435  0.5842 -0.7982  2.9812
 8890SOL     OW38302   1.823   4.693  12.577 -0.1170  0.3502  0.4226
 8890SOL    HW138303   1.750   0.019  12.564 -1.8516 -1.7575  0.2011
 8890SOL    HW238304   1.770   4.615  12.594 -0.8234  0.7790  0.2177
 8891SOL     OW38305   1.192   2.620   3.653  0.1190  0.1272 -0.0268
 8891SOL    HW138306   1.211   2.707   3.689 -2.2252  1.8308 -2.9585
 8891SOL    HW238307   1.121   2.640   3.593 -1.5650 -0.4885  1.7886
 8892SOL     OW38308   0.705   1.530   4.499  0.0322  0.2563 -0.3008
 8892SOL    HW138309   0.729   1.619   4.475 -0.6201  0.7490  0.8992
 8892SOL    HW238310   0.764   1.508   4.572 -1.5689  0.5169  1.0629
 8893SOL     OW38311   3.960   3.452  10.289  0.5834  0.1741 -0.2448
 8893SOL    HW138312   3.964   3.537  10.245  3.0043  1.3502  2.2550
 8893SOL    HW238313   3.866   3.437  10.279  0.4655  0.6538  0.1097
 8894SOL     OW38314   0.066   4.697  11.490  0.5796 -0.1971 -0.1001
 8894SOL    HW138315   4.732   4.703  11.556  0.0348  0.6804 -0.7581
 8894SOL    HW238316   0.091   0.052  11.471 -0.4901  0.3647  1.2064
 8895SOL     OW38317   4.238   1.363  16.894 -0.4510 -0.2920 -0.2643
 8895SOL    HW138318   4.304   1.296  16.913  2.2900  2.1914 -0.9538
 8895SOL    HW238319   4.187   1.320  16.825  0.0207 -0.2110 -0.6628
 8896SOL     OW38320   0.944   3.396   6.684 -0.1205 -0.0007  0.3775
 8896SOL    HW138321   1.011   3.328   6.688  0.0118  0.2581  2.2546
 8896SOL    HW238322   0.993   3.473   6.653  1.7330 -1.3845 -0.1469
 8897SOL     OW38323   2.235   1.592  12.320 -0.1861  0.2340 -0.2271
 8897SOL    HW138324   2.247   1.637  12.404 -0.8872  1.4736 -0.7908
 8897SOL    HW238325   2.302   1.524  12.322  0.3651  0.7652 -0.7416
 8898SOL     OW38326   0.717   1.751   4.810 -0.2475 -0.0229 -0.2590
 8898SOL    HW138327   0.705   1.670   4.859 -1.7903  1.4783  1.8711
 8898SOL    HW238328   0.640   1.738   4.755 -1.2722 -1.3325  1.4938
 8899SOL     OW38329   4.420   3.754   5.076 -0.1127 -0.9638 -0.2891
 8899SOL    HW138330   4.466   3.765   5.159  1.7134  0.1226 -1.4501
 8899SOL    HW238331   4.434   3.843   5.045 -0.0058 -0.7296  0.4490
 8900SOL     OW38332   1.393   1.081   2.504 -0.5945  0.3120  0.5301
 8900SOL    HW138333   1.445   1.134   2.443 -0.0318 -0.7467  0.0983
 8900SOL    HW238334   1.309   1.128   2.505 -1.2191 -0.7659 -1.9399
 8901SOL     OW38335   2.281   2.805   2.686  0.0144  0.8539  0.3151
 8901SOL    HW138336   2.294   2.764   2.771 -1.5709 -0.8591 -0.2681
 8901SOL    HW238337   2.369   2.833   2.661  0.1882 -0.3560 -0.4528
 8902SOL     OW38338   1.472   3.055  10.119 -0.0516  0.4668 -0.6339
 8902SOL    HW138339   1.552   3.063  10.067 -0.5722  4.1927 -0.8197
 8902SOL    HW238340   1.444   3.146  10.120 -0.2749  0.4180 -2.7499
 8903SOL     OW38341   0.283   3.481   3.196  0.3329 -0.3802  0.1143
 8903SOL    HW138342   0.205   3.426   3.206 -0.1306  0.3407  0.4801
 8903SOL    HW238343   0.310   3.456   3.108 -0.1287  0.6634 -0.3271
 8904SOL     OW38344   2.889   3.872   8.810 -0.2268 -0.4492 -0.1161
 8904SOL    HW138345   2.869   3.891   8.718 -0.0422  1.3595  0.2025
 8904SOL    HW238346   2.872   3.950   8.864 -1.8594 -0.1264 -1.0971
 8905SOL     OW38347   2.575   3.078  15.702 -0.0047 -0.2383 -0.5392
 8905SOL    HW138348   2.585   3.097  15.795 -2.3715  1.2228 -0.5892
 8905SOL    HW238349   2.595   3.166  15.668  2.5944 -0.7138 -0.2442
 8906SOL     OW38350   0.626   1.466   5.990 -0.0661 -0.2945  0.0289
 8906SOL    HW138351   0.651   1.484   5.899 -0.7388 -3.6597 -0.7939
 8906SOL    HW238352   0.594   1.554   6.013  1.4984  0.2466  0.1193
 8907SOL     OW38353   2.271   0.716   5.223  0.0748 -0.5028 -0.3878
 8907SOL    HW138354   2.262   0.811   5.230  1.4303 -0.4194  0.2514
 8907SOL    HW238355   2.366   0.712   5.233 -0.2775  0.4212  3.6266
 8908SOL     OW38356   3.977   0.570   7.668  0.1916 -0.1660 -0.0048
 8908SOL    HW138357   3.948   0.484   7.699  0.3372 -0.0157  0.5646
 8908SOL    HW238358   3.897   0.622   7.672 -0.4341 -1.2045  1.1244
 8909SOL     OW38359   2.079   3.033   7.641  0.1834 -0.0788  0.0954
 8909SOL    HW138360   2.059   2.985   7.721  0.9965  1.2396  1.0853
 8909SOL    HW238361   2.008   3.097   7.632  0.6597  0.2233 -1.5897
 8910SOL     OW38362   2.998   2.242   3.659 -0.1214  0.2326  0.3875
 8910SOL    HW138363   3.070   2.203   3.708  1.0208  2.6952  0.6527
 8910SOL    HW238364   2.972   2.169   3.602 -0.2351  0.4782  0.1226
 8911SOL     OW38365   4.658   0.449  15.678  0.3362  0.6335  0.3519
 8911SOL    HW138366   4.578   0.440  15.729 -0.7138  1.2598 -1.1921
 8911SOL    HW238367   4.726   0.405  15.729  1.3864  1.5271 -0.2522
 8912SOL     OW38368   1.456   2.452  10.996 -0.5374 -0.0926  0.1270
 8912SOL    HW138369   1.378   2.398  11.003  0.9557 -2.1978  0.5930
 8912SOL    HW238370   1.436   2.531  11.047 -1.8962  0.0232 -0.6125
 8913SOL     OW38371   0.892   4.149   5.655 -0.3633 -0.2709 -0.2032
 8913SOL    HW138372   0.959   4.173   5.720 -1.1732 -0.6575  0.7708
 8913SOL    HW238373   0.927   4.076   5.604  1.1868  0.1501  0.2494
 8914SOL     OW38374   1.027   1.268   4.521 -0.2751 -1.0271  0.1595
 8914SOL    HW138375   0.983   1.253   4.605  0.1110 -1.4494  0.2852
 8914SOL    HW238376   0.980   1.205   4.467 -0.7882  0.8340 -1.5767
 8915SOL     OW38377   1.869   0.411   2.384  0.2939 -0.1674 -0.1682
 8915SOL    HW138378   1.811   0.393   2.310  0.7662 -0.7008 -0.4143
 8915SOL    HW238379   1.930   0.343   2.356  0.1407 -0.1447 -0.5512
 8916SOL     OW38380   3.259   4.022   2.819  0.1641  0.7356  0.3559
 8916SOL    HW138381   3.219   3.987   2.898 -3.3588  0.5109 -1.5149
 8916SOL    HW238382   3.350   3.992   2.817  0.5484  1.7203  3.8078
 8917SOL     OW38383   1.995   1.450   1.971  0.2478  0.6038 -0.3921
 8917SOL    HW138384   2.076   1.402   1.952 -0.3762 -1.3826  1.8991
 8917SOL    HW238385   1.995   1.473   2.063 -2.9079  1.7345 -0.6836
 8918SOL     OW38386   1.913   1.107  17.498 -0.0200 -0.0947  0.0731
 8918SOL    HW138387   1.876   1.178  17.550 -0.5856  0.0775 -0.5590
 8918SOL    HW238388   1.890   1.023  17.537 -3.1992  0.9749  0.5224
 8919SOL     OW38389   2.448   1.229   2.116  0.6320 -0.2493  0.5088
 8919SOL    HW138390   2.538   1.244   2.087 -0.4746 -0.6395 -3.1306
 8919SOL    HW238391   2.413   1.295   2.056 -0.0691 -1.3681 -0.3365
 8920SOL     OW38392   4.198   4.225   6.299 -0.1744 -0.4301  0.4143
 8920SOL    HW138393   4.283   4.266   6.282 -0.4890 -1.1969 -2.9248
 8920SOL    HW238394   4.227   4.136   6.320 -0.2606 -0.8958 -1.4377
 8921SOL     OW38395   3.188   0.220   6.228  0.0894 -0.0072 -0.6265
 8921SOL    HW138396   3.191   0.299   6.283 -1.6661 -1.7906  2.0439
 8921SOL    HW238397   3.226   0.155   6.287  1.7900  0.5912 -1.0559
 8922SOL     OW38398   1.448   2.768  12.926  0.3278  0.1659  0.2588
 8922SOL    HW138399   1.392   2.762  13.003 -1.1346 -1.7829 -0.9571
 8922SOL    HW238400   1.524   2.801  12.974  1.0266 -0.6002 -0.3309
 8923SOL     OW38401   4.085   1.051   0.510 -1.2531 -1.0606  0.3628
 8923SOL    HW138402   3.999   1.066   0.550 -0.0166  3.4779  1.2547
 8923SOL    HW238403   4.100   1.141   0.480 -0.1395 -1.5353 -0.5201
 8924SOL     OW38404   0.199   2.327  12.490  0.0198 -0.0014  0.4723
 8924SOL    HW138405   0.294   2.336  12.495  0.1195 -0.3208 -0.8317
 8924SOL    HW238406   0.180   2.354  12.580 -0.2303  0.6556  0.2230
 8925SOL     OW38407   4.301   3.567   4.876  0.4018 -0.6325  0.4511
 8925SOL    HW138408   4.391   3.581   4.904  0.6323 -2.4415  0.6752
 8925SOL    HW238409   4.256   3.546   4.958 -1.0802 -1.9444 -0.6816
 8926SOL     OW38410   1.110   1.005  12.373 -0.4324  0.2169  0.5439
 8926SOL    HW138411   1.090   0.919  12.410 -0.2121  0.4025  1.0875
 8926SOL    HW238412   1.023   1.024  12.339  0.1034  0.2298 -0.8036
 8927SOL     OW38413   0.378   1.089   2.814  0.3196 -0.0225 -0.1256
 8927SOL    HW138414   0.298   1.059   2.769  0.2400 -1.1474  0.7729
 8927SOL    HW238415   0.423   1.005   2.810  0.2016 -0.1572  1.4791
 8928SOL     OW38416   0.303   4.137   2.856 -0.3205 -0.2416  0.5535
 8928SOL    HW138417   0.267   4.138   2.945  0.1622  0.0927  0.7476
 8928SOL    HW238418   0.398   4.126   2.865 -0.1382  1.3213  0.4647
 8929SOL     OW38419   4.149   3.771   3.123  0.2005 -0.2532 -0.0191
 8929SOL    HW138420   4.168   3.855   3.164  0.1872 -0.1979 -0.1260
 8929SOL    HW238421   4.077   3.796   3.065 -0.3282  0.2707  0.8685
 8930SOL     OW38422   0.917   1.016  12.793 -0.1169 -0.0213 -0.1797
 8930SOL    HW138423   0.981   0.946  12.794  1.3807  1.3244 -0.9826
 8930SOL    HW238424   0.976   1.082  12.756  1.2208 -0.7131  0.7101
 8931SOL     OW38425   3.910   1.178   3.728 -0.6291 -0.2366  0.0524
 8931SOL    HW138426   3.821   1.181   3.693  0.2144 -0.1381 -2.0673
 8931SOL    HW238427   3.890   1.227   3.807  2.1918 -0.9686  1.2050
 8932SOL     OW38428   2.117   1.847   8.155  0.1683  0.2697 -0.2340
 8932SOL    HW138429   2.038   1.866   8.206  0.3810  2.3658 -0.6544
 8932SOL    HW238430   2.166   1.794   8.217  0.4894  2.2774  1.2231
 8933SOL     OW38431   2.983   1.071   6.899  0.4304 -0.3438 -0.1337
 8933SOL    HW138432   2.945   1.120   6.826 -0.0141  0.8253  0.8825
 8933SOL    HW238433   2.998   1.143   6.960 -0.4142 -2.1063  2.1706
 8934SOL     OW38434   4.225   3.351  17.102 -0.1655 -0.2378  0.0708
 8934SOL    HW138435   4.221   3.396  17.018  0.5219  0.6263  0.4965
 8934SOL    HW238436   4.313   3.315  17.094 -0.3185 -0.8013  0.9161
 8935SOL     OW38437   2.835   1.657   5.129 -0.4988  0.4191  0.1821
 8935SOL    HW138438   2.819   1.672   5.222 -1.7529  0.7904 -0.0907
 8935SOL    HW238439   2.927   1.677   5.118 -0.2070 -0.6644  0.6103
 8936SOL     OW38440   4.064   2.388   6.343  0.3845  0.4345  0.0636
 8936SOL    HW138441   4.024   2.427   6.266 -4.1499 -0.4437  1.9945
 8936SOL    HW238442   4.147   2.355   6.308  1.3613  0.5760  2.2648
 8937SOL     OW38443   1.359   0.238  10.204 -0.1836  0.0900 -0.3388
 8937SOL    HW138444   1.281   0.186  10.185 -0.3820 -0.2664  1.4083
 8937SOL    HW238445   1.410   0.215  10.126 -0.1659 -5.3112  1.2769
 8938SOL     OW38446   4.023   2.554   3.828  0.3031 -0.2056  0.1408
 8938SOL    HW138447   4.020   2.494   3.902  0.9804 -0.5071 -0.0727
 8938SOL    HW238448   3.958   2.518   3.768 -2.0997  0.8130  2.1250
 8939SOL     OW38449   1.736   1.259   9.785 -0.6135  0.3163 -0.0835
 8939SOL    HW138450   1.709   1.229   9.698  0.6927  1.5579 -0.9223
 8939SOL    HW238451   1.829   1.277   9.770 -0.3842 -0.4011  0.4916
 8940SOL     OW38452   1.192   1.766  15.098 -0.0476 -0.4843  0.0065
 8940SOL    HW138453   1.223   1.819  15.171  0.0470 -0.1227 -0.2945
 8940SOL    HW238454   1.281   1.765  15.061  0.0811 -0.3967  0.3110
 8941SOL     OW38455   3.241   0.072   3.156  0.2959 -0.0377 -0.1723
 8941SOL    HW138456   3.149   0.048   3.170  0.3246  0.3329  0.6360
 8941SOL    HW238457   3.234   0.167   3.156 -1.4657 -0.1511 -0.5082
 8942SOL     OW38458   0.064   2.362   6.017 -0.0083 -0.1036  0.1253
 8942SOL    HW138459   4.720   2.316   6.046  0.7369 -1.5044 -0.0795
 8942SOL    HW238460   0.098   2.305   5.948 -0.1733 -1.9919  1.5960
 8943SOL     OW38461   0.092   3.707   6.065 -0.2053  0.0717  0.1507
 8943SOL    HW138462   0.176   3.745   6.090 -1.3080  1.8708  1.1426
 8943SOL    HW238463   0.121   3.654   5.991  0.4721  0.1197  0.3843
 8944SOL     OW38464   2.525   1.149   1.554  0.3235  0.0425 -0.3614
 8944SOL    HW138465   2.454   1.180   1.498 -0.0727 -1.4073 -0.6510
 8944SOL    HW238466   2.596   1.180   1.498  3.4694 -0.5360  3.2766
 8945SOL     OW38467   3.112   4.049  17.334 -0.1539  0.1761  0.2872
 8945SOL    HW138468   3.041   4.003  17.290 -0.3299  0.7007  0.0206
 8945SOL    HW238469   3.170   3.975  17.354  2.2338  2.2357  1.0116
 8946SOL     OW38470   3.742   1.513   7.131 -0.7699  0.3696  0.0160
 8946SOL    HW138471   3.708   1.472   7.211  0.5432 -0.5397  0.1055
 8946SOL    HW238472   3.804   1.570   7.176  0.4094  0.5342 -1.8359
 8947SOL     OW38473   1.980   1.143   5.111  0.3023  0.0620  0.1033
 8947SOL    HW138474   1.930   1.223   5.130 -1.7086 -0.9720 -0.8823
 8947SOL    HW238475   2.064   1.163   5.153 -0.5683  1.1967  1.3127
 8948SOL     OW38476   1.684   4.717   2.043  0.0505  0.2031 -0.4776
 8948SOL    HW138477   1.600   0.028   2.040 -0.3406 -0.4493  0.5309
 8948SOL    HW238478   1.704   0.010   2.132 -2.0016 -0.7209  0.2935
 8949SOL     OW38479   3.112   0.745   1.731 -0.1995 -0.3556  0.3787
 8949SOL    HW138480   3.093   0.742   1.637  1.0772  0.4131  0.1040
 8949SOL    HW238481   3.059   0.820   1.756  1.6592  1.5923 -1.5655
 8950SOL     OW38482   1.461   2.607   3.023 -0.3483 -0.1687 -0.1922
 8950SOL    HW138483   1.405   2.572   3.092 -0.5677  1.9695  0.7052
 8950SOL    HW238484   1.550   2.626   3.050 -0.5840  3.1436 -1.7092
 8951SOL     OW38485   3.914   1.589  16.001  0.4362 -0.9584 -0.5090
 8951SOL    HW138486   3.901   1.495  15.986  0.4911 -1.1020  0.3350
 8951SOL    HW238487   3.824   1.598  16.032  0.0926 -1.3164 -1.3700
 8952SOL     OW38488   0.426   2.915   3.709  0.3474  0.0999 -0.0988
 8952SOL    HW138489   0.374   2.938   3.632 -0.1764 -1.1090 -0.0980
 8952SOL    HW238490   0.443   2.997   3.755  1.2091 -0.1953  0.1101
 8953SOL     OW38491   0.001   4.711   9.064 -0.1115 -0.2377  0.0910
 8953SOL    HW138492   0.061   4.692   9.136 -0.2105  1.8789  0.7200
 8953SOL    HW238493   0.063   0.022   9.008  1.1273 -0.1806  1.4804
 8954SOL     OW38494   1.540   0.738   4.914 -0.2844 -0.0093  0.3898
 8954SOL    HW138495   1.614   0.729   4.974 -1.0251 -2.8964  0.8720
 8954SOL    HW238496   1.584   0.801   4.857  0.7581 -1.3468 -0.2939
 8955SOL     OW38497   1.998   0.896   1.494  0.1990  0.2568  0.0677
 8955SOL    HW138498   1.963   0.975   1.453 -0.4426 -0.2248 -0.3085
 8955SOL    HW238499   2.076   0.926   1.540  0.1450 -0.3475  0.5544
 8956SOL     OW38500   0.772   1.765   9.778  0.2227  0.1472 -0.5405
 8956SOL    HW138501   0.764   1.856   9.806  0.7076  0.3104 -0.9465
 8956SOL    HW238502   0.833   1.721   9.837  2.4938  0.7189 -2.4724
 8957SOL     OW38503   2.591   4.678   3.372 -0.4605  0.1293  0.1042
 8957SOL    HW138504   2.541   0.023   3.387 -0.4474  0.0758  0.4264
 8957SOL    HW238505   2.674   4.715   3.403  0.1662 -0.7305 -0.5454
 8958SOL     OW38506   1.597   4.505   3.942 -0.4227  0.4732  0.9609
 8958SOL    HW138507   1.624   4.427   3.893 -4.2606 -0.1936 -0.0954
 8958SOL    HW238508   1.565   4.465   4.023 -1.1924  0.2444  0.5473
 8959SOL     OW38509   0.258   1.391  13.279  0.1956  0.4211 -0.8857
 8959SOL    HW138510   0.179   1.384  13.225  0.6774  1.6090 -1.7360
 8959SOL    HW238511   0.256   1.486  13.290 -0.4242  0.2122  0.7175
 8960SOL     OW38512   0.869   1.969   9.946 -0.2482  0.4180 -0.3437
 8960SOL    HW138513   0.932   2.042   9.950 -0.4010  0.6701 -2.3964
 8960SOL    HW238514   0.893   1.904  10.012 -0.5903  0.5194 -0.1250
 8961SOL     OW38515   1.873   3.883   9.763 -0.5451 -0.3434  0.0680
 8961SOL    HW138516   1.789   3.849   9.732 -1.2347  1.6423 -0.1998
 8961SOL    HW238517   1.887   3.820   9.834  1.1201  0.9794  0.9013
 8962SOL     OW38518   1.091   2.095  10.894 -0.3563 -0.0509 -0.1686
 8962SOL    HW138519   1.034   2.108  10.818  2.0541  0.0536 -1.9778
 8962SOL    HW238520   1.067   2.004  10.908 -0.8221 -0.2831 -2.4056
 8963SOL     OW38521   3.459   4.298   8.885 -0.4598 -0.8423  0.3443
 8963SOL    HW138522   3.519   4.262   8.820 -0.3497  0.7254 -0.4203
 8963SOL    HW238523   3.418   4.373   8.842  1.6602  0.9913  1.5148
 8964SOL     OW38524   0.534   3.064   5.175 -0.6803 -0.0677  0.1669
 8964SOL    HW138525   0.511   3.011   5.098  1.1482 -1.7186  0.7572
 8964SOL    HW238526   0.620   3.093   5.145 -1.0847 -0.4388 -1.3356
 8965SOL     OW38527   0.578   4.161   9.756 -0.2431 -0.3575  0.2877
 8965SOL    HW138528   0.544   4.241   9.715 -0.4590 -0.6132 -0.0288
 8965SOL    HW238529   0.645   4.130   9.695 -0.0660 -1.5017  1.0745
 8966SOL     OW38530   3.857   0.144   5.234  0.6967  0.0399  0.3937
 8966SOL    HW138531   3.942   0.120   5.270  0.2982 -0.2245  1.1724
 8966SOL    HW238532   3.863   0.076   5.167 -0.5692  1.2031 -0.9052
 8967SOL     OW38533   4.014   0.261   9.969 -0.2636 -0.3851 -0.4265
 8967SOL    HW138534   4.045   0.348   9.994  0.6916 -0.8878  0.1156
 8967SOL    HW238535   4.063   0.208  10.032 -2.9266 -2.0721  0.2101
 8968SOL     OW38536   1.007   0.181   1.148  0.1464 -0.3227 -0.0302
 8968SOL    HW138537   1.053   0.129   1.215  1.6693  0.4947 -0.4476
 8968SOL    HW238538   1.085   0.196   1.094  0.6547 -2.6571  0.0271
 8969SOL     OW38539   3.876   2.455   6.152 -0.1770 -0.1975  0.0101
 8969SOL    HW138540   3.809   2.478   6.216  0.0283  1.1103 -0.2578
 8969SOL    HW238541   3.834   2.382   6.105  0.6756  0.1807 -1.3329
 8970SOL     OW38542   3.877   3.593   4.692 -0.0423 -0.0514  0.0398
 8970SOL    HW138543   3.952   3.534   4.696  0.6690  0.8834  0.5810
 8970SOL    HW238544   3.924   3.670   4.724  2.0267 -1.5222  0.5735
 8971SOL     OW38545   0.257   1.283  16.639  0.2778  0.0220 -0.2482
 8971SOL    HW138546   0.311   1.324  16.572 -0.4420 -1.4543 -1.7153
 8971SOL    HW238547   0.171   1.316  16.615  0.4178 -1.6427 -2.9378
 8972SOL     OW38548   1.141   0.953   2.729  1.0770  0.0363 -0.2755
 8972SOL    HW138549   1.151   0.875   2.675  0.4168 -0.2751  0.0521
 8972SOL    HW238550   1.107   0.909   2.807  2.2186 -1.0157 -0.3807
 8973SOL     OW38551   0.030   3.105  10.267 -0.0594  0.0290  0.4353
 8973SOL    HW138552   0.060   3.124  10.178 -1.1133 -1.1799 -0.1833
 8973SOL    HW238553   0.023   3.009  10.269 -0.4030  0.0733  1.4625
 8974SOL     OW38554   4.585   3.513  12.516  0.8326  0.2841 -0.7884
 8974SOL    HW138555   4.585   3.420  12.492  0.8910  0.7080 -2.3952
 8974SOL    HW238556   4.508   3.529  12.461 -0.1968 -1.7089  0.0740
 8975SOL     OW38557   2.654   3.143   5.996 -0.3809 -0.0377 -0.3113
 8975SOL    HW138558   2.613   3.196   5.928  0.9868  0.0415 -1.0758
 8975SOL    HW238559   2.581   3.101   6.041 -0.5360 -0.0797 -0.6051
 8976SOL     OW38560   4.725   1.990   5.845  0.4613 -0.8467 -0.1335
 8976SOL    HW138561   4.655   1.925   5.843 -0.2105 -0.1213  0.0660
 8976SOL    HW238562   0.065   1.941   5.878 -1.1953 -2.7430  0.8032
 8977SOL     OW38563   4.271   1.846   6.987 -0.0531  0.2352 -0.1468
 8977SOL    HW138564   4.284   1.763   6.942  1.0100  0.0815  0.4470
 8977SOL    HW238565   4.177   1.839   7.005 -0.5638  0.7207 -2.6655
 8978SOL     OW38566   1.107   3.151   7.819 -0.2577 -0.9293 -0.4438
 8978SOL    HW138567   1.031   3.111   7.778 -0.1018  0.0643 -1.6847
 8978SOL    HW238568   1.142   3.072   7.861  0.2815  0.0345  0.9048
 8979SOL     OW38569   3.859   0.525   6.535 -0.4965  0.2545  0.1497
 8979SOL    HW138570   3.794   0.467   6.496 -0.2976  0.6704 -0.8051
 8979SOL    HW238571   3.907   0.461   6.587  1.3139 -0.5193 -2.4582
 8980SOL     OW38572   4.336   4.566   9.075  0.1830  0.2802 -0.2622
 8980SOL    HW138573   4.252   4.520   9.072  0.3679 -0.2383  2.8545
 8980SOL    HW238574   4.363   4.545   8.985 -0.1975  0.3272 -0.3912
 8981SOL     OW38575   2.729   2.243   6.685 -0.3089 -0.3676  0.5414
 8981SOL    HW138576   2.781   2.323   6.698  2.9330 -2.5469  1.1088
 8981SOL    HW238577   2.672   2.246   6.762  1.9162 -0.9005  2.2118
 8982SOL     OW38578   3.214   2.483  13.072  0.4835  0.4443  0.1322
 8982SOL    HW138579   3.201   2.414  13.137 -2.0644  1.9458  1.2457
 8982SOL    HW238580   3.281   2.452  13.012 -1.3873 -1.4641 -0.9700
 8983SOL     OW38581   4.179   3.126   8.675 -0.0191 -0.5519 -0.2906
 8983SOL    HW138582   4.210   3.194   8.734 -2.7529 -0.7316  1.3780
 8983SOL    HW238583   4.153   3.059   8.737  0.0531  0.3168  0.6729
 8984SOL     OW38584   0.517   2.327   6.641 -0.1560 -0.1614 -0.4979
 8984SOL    HW138585   0.567   2.342   6.561  1.1740 -1.8019  0.0107
 8984SOL    HW238586   0.428   2.321   6.606 -0.7794  0.5118  0.9810
 8985SOL     OW38587   2.816   0.018   3.916 -0.4202  0.1427 -0.1898
 8985SOL    HW138588   2.867   4.673   3.935 -0.4178  0.1823 -0.0225
 8985SOL    HW238589   2.818   0.066   3.999 -1.0939  2.7195 -1.6944
 8986SOL     OW38590   2.050   3.770   7.450  0.4740  0.2494  0.0862
 8986SOL    HW138591   2.097   3.746   7.530 -1.0949 -1.2474  0.5725
 8986SOL    HW238592   1.969   3.718   7.454  0.1262  0.8866  1.4602
 8987SOL     OW38593   1.946   1.923   6.595  0.3151 -0.2527  0.2454
 8987SOL    HW138594   1.984   1.928   6.507 -0.7192  0.9762 -0.1284
 8987SOL    HW238595   1.899   1.839   6.590 -1.8068  0.9174  0.7974
 8988SOL     OW38596   1.413   3.959   2.132  0.1554  0.0850 -0.0762
 8988SOL    HW138597   1.390   4.052   2.132 -0.0828  0.0261  0.1262
 8988SOL    HW238598   1.329   3.921   2.156 -0.8006  1.8052 -0.6761
 8989SOL     OW38599   1.778   3.043   4.010 -0.0626 -0.7821 -0.5164
 8989SOL    HW138600   1.720   3.117   4.028  1.2687  0.1356  0.0247
 8989SOL    HW238601   1.757   2.978   4.078  2.4910 -0.9720  0.1159
 8990SOL     OW38602   3.422   2.763   7.513  0.0154  0.3677  0.1074
 8990SOL    HW138603   3.394   2.819   7.441 -1.4723 -1.1281 -0.4741
 8990SOL    HW238604   3.499   2.816   7.531 -1.1375  1.8841  0.6594
 8991SOL     OW38605   4.520   2.587   2.727  0.1769 -0.2971 -1.2416
 8991SOL    HW138606   4.441   2.557   2.682 -1.0347 -0.2920  0.9310
 8991SOL    HW238607   4.520   2.676   2.692 -2.1506  0.0033 -0.4639
 8992SOL     OW38608   4.321   2.931   7.502 -0.0063 -0.2941  0.2218
 8992SOL    HW138609   4.368   2.956   7.582 -0.0404 -1.2496  0.5347
 8992SOL    HW238610   4.239   2.980   7.505 -0.9664 -1.9011  0.2011
 8993SOL     OW38611   0.342   1.401   6.523 -0.3864  0.1278 -1.0423
 8993SOL    HW138612   0.278   1.459   6.482 -0.3186  0.4380 -0.7165
 8993SOL    HW238613   0.408   1.467   6.539 -0.2730  0.1549 -1.6289
 8994SOL     OW38614   2.010   0.374   3.086 -0.1177 -0.1254  0.0118
 8994SOL    HW138615   1.993   0.367   3.180 -0.4929  0.0301 -0.0439
 8994SOL    HW238616   2.007   0.469   3.077 -0.1763 -0.3317 -1.9762
 8995SOL     OW38617   4.521   2.822  13.998  0.7115  0.0637  0.3603
 8995SOL    HW138618   4.563   2.834  14.083 -1.5834  0.0343  1.4808
 8995SOL    HW238619   4.451   2.760  14.018 -1.9275  3.2560  0.8543
 8996SOL     OW38620   3.938   0.316  11.837 -0.0929 -0.7552 -0.0267
 8996SOL    HW138621   4.023   0.358  11.827  0.9082 -2.7742  0.1643
 8996SOL    HW238622   3.887   0.374  11.895  1.4417  0.2211  0.3491
 8997SOL     OW38623   1.895   1.424   8.816 -0.2943 -0.3628  0.4410
 8997SOL    HW138624   1.850   1.412   8.900 -3.3015  2.6628 -0.7197
 8997SOL    HW238625   1.830   1.398   8.751  0.2375  0.6519 -0.4999
 8998SOL     OW38626   2.225   0.850   3.742  0.5392 -0.4155  0.1470
 8998SOL    HW138627   2.299   0.879   3.796 -0.2393 -0.6361  1.3163
 8998SOL    HW238628   2.154   0.904   3.777 -1.1051 -0.8763 -2.4636
 8999SOL     OW38629   4.612   2.516   3.936 -0.4893  0.2540 -0.0024
 8999SOL    HW138630   4.638   2.466   3.859  1.0344 -1.0201  1.3154
 8999SOL    HW238631   4.583   2.446   3.995  3.2278 -1.3717 -0.1200
 9000SOL     OW38632   3.740   2.218   8.413 -0.8563 -0.0754 -0.9844
 9000SOL    HW138633   3.769   2.185   8.498 -0.2152 -1.7544 -1.8579
 9000SOL    HW238634   3.820   2.224   8.361 -2.2913  1.2013 -3.0336
 9001SOL     OW38635   4.668   0.540   2.284  0.3124 -0.1795 -0.6627
 9001SOL    HW138636   4.673   0.501   2.371 -2.3217 -0.2503 -0.5419
 9001SOL    HW238637   4.613   0.618   2.291 -0.0990 -0.4498 -0.8644
 9002SOL     OW38638   2.369   2.228   5.286 -0.6769 -0.4797 -0.4161
 9002SOL    HW138639   2.343   2.238   5.195  0.3849 -1.1995 -0.7893
 9002SOL    HW238640   2.354   2.137   5.309 -0.4934  0.5975  4.1222
 9003SOL     OW38641   2.016   2.463   2.167  0.2423  0.3362  0.0499
 9003SOL    HW138642   2.006   2.435   2.076  0.9355  2.1032 -0.5731
 9003SOL    HW238643   2.110   2.483   2.170  0.0358  1.4999 -1.1116
 9004SOL     OW38644   1.249   2.576   5.889  0.5396 -0.9956  0.7348
 9004SOL    HW138645   1.292   2.621   5.962 -2.2515  2.0872  0.4722
 9004SOL    HW238646   1.175   2.635   5.875  0.0372 -2.2198 -1.8997
 9005SOL     OW38647   2.436   4.088   7.453  0.1791  0.0716  0.0027
 9005SOL    HW138648   2.450   4.171   7.408  1.1449 -0.5569 -0.8580
 9005SOL    HW238649   2.432   4.036   7.373 -0.7482 -0.0579  0.1311
 9006SOL     OW38650   4.685   1.961  12.118  0.7721  0.5714  0.1578
 9006SOL    HW138651   4.608   1.963  12.174 -0.0418 -2.2280 -0.8464
 9006SOL    HW238652   0.007   2.016  12.172 -1.5469  2.6031  0.5804
 9007SOL     OW38653   1.439   0.002  10.361 -0.6649 -0.0514  0.2863
 9007SOL    HW138654   1.426   0.080  10.307  0.9278  0.3679  0.5298
 9007SOL    HW238655   1.462   0.039  10.447  0.9274 -3.1553  1.2040
 9008SOL     OW38656   1.982   1.184   9.176  0.1465 -0.0667  0.3559
 9008SOL    HW138657   1.928   1.105   9.178 -0.4247  0.3288  0.4631
 9008SOL    HW238658   1.964   1.217   9.264 -0.3442  3.1726 -0.9696
 9009SOL     OW38659   4.226   4.104   7.500  0.1263  0.1690  0.1977
 9009SOL    HW138660   4.252   4.169   7.435 -1.9507  0.4457 -0.3490
 9009SOL    HW238661   4.303   4.048   7.493  1.2078  1.7687 -0.6600
 9010SOL     OW38662   3.746   2.983  10.189  0.0428  0.6486  0.7677
 9010SOL    HW138663   3.704   2.988  10.275 -0.0554  2.4439  0.6211
 9010SOL    HW238664   3.681   2.941  10.133  0.8574  1.2190 -0.6113
 9011SOL     OW38665   1.672   1.473   5.780  0.2219 -0.0887 -0.2529
 9011SOL    HW138666   1.661   1.437   5.868  1.9909  1.3482  0.5626
 9011SOL    HW238667   1.599   1.425   5.743  0.3044  0.4798 -1.1545
 9012SOL     OW38668   1.342   0.993  17.694 -0.6202  0.1515  0.2369
 9012SOL    HW138669   1.306   1.072  17.654 -0.4251  0.3453  0.4477
 9012SOL    HW238670   1.308   0.923  17.638  2.3063 -0.5959 -0.5972
 9013SOL     OW38671   1.094   2.086   9.721  0.3213  0.1066 -0.3377
 9013SOL    HW138672   1.182   2.110   9.693  0.5301 -1.4000 -0.9420
 9013SOL    HW238673   1.088   2.127   9.808 -0.3457  1.0091 -0.8028
 9014SOL     OW38674   2.534   2.331   8.679  0.3602 -0.2338  0.5083
 9014SOL    HW138675   2.549   2.331   8.585  1.2051  0.7033  0.6488
 9014SOL    HW238676   2.618   2.295   8.708  0.8202  0.1346 -0.3951
 9015SOL     OW38677   4.329   2.216  15.531 -0.2984  0.3507  0.2796
 9015SOL    HW138678   4.269   2.266  15.476 -0.4394  0.3408  0.4215
 9015SOL    HW238679   4.266   2.151  15.564 -1.3416  1.8258  1.1680
 9016SOL     OW38680   4.637   1.384   5.544  0.6356  0.2597  0.0826
 9016SOL    HW138681   4.681   1.469   5.541 -1.2894  1.2792  1.1695
 9016SOL    HW238682   4.599   1.398   5.631 -0.0006  0.9210 -0.3042
 9017SOL     OW38683   4.089   0.169   6.155 -0.5373  0.3269 -0.5318
 9017SOL    HW138684   4.160   0.118   6.193  0.6246  2.7052  0.4489
 9017SOL    HW238685   4.144   0.239   6.121 -0.8785  0.7210 -0.2773
 9018SOL     OW38686   1.771   2.526   4.815  0.4184 -0.0574  0.1463
 9018SOL    HW138687   1.778   2.619   4.795  1.4754 -0.1489  0.1188
 9018SOL    HW238688   1.855   2.516   4.859 -0.3748 -1.5718  1.3521
 9019SOL     OW38689   0.491   4.675   9.781 -0.0003 -0.6408  0.2991
 9019SOL    HW138690   0.542   0.002   9.834  0.2539 -0.5740 -0.0258
 9019SOL    HW238691   0.552   4.690   9.708  0.3391  0.6311  0.8413
 9020SOL     OW38692   2.782   2.419  11.985 -0.2044 -0.0756 -0.3110
 9020SOL    HW138693   2.765   2.509  12.014  1.9653 -0.1096  1.0523
 9020SOL    HW238694   2.744   2.371  12.058 -0.4987 -1.0667 -1.1111
 9021SOL     OW38695   2.426   1.630  10.540 -0.0665  0.2967 -0.3090
 9021SOL    HW138696   2.396   1.655  10.453 -3.2068 -0.5102  0.5465
 9021SOL    HW238697   2.491   1.697  10.559 -1.7245  1.9632 -0.5315
 9022SOL     OW38698   2.697   3.909  17.218  0.4095 -0.1743  0.1675
 9022SOL    HW138699   2.684   3.892  17.312 -1.4634  0.3947  0.0072
 9022SOL    HW238700   2.628   3.972  17.196  0.6796 -1.3589 -4.0741
 9023SOL     OW38701   3.429   2.811   3.081 -0.1338  0.4182  0.0076
 9023SOL    HW138702   3.474   2.761   3.013 -0.3569 -0.4323  0.4819
 9023SOL    HW238703   3.380   2.739   3.121 -1.3219  0.1712 -1.9083
 9024SOL     OW38704   3.738   0.612   5.410 -0.0279  0.1909 -0.1702
 9024SOL    HW138705   3.774   0.531   5.373 -0.7076  0.0522 -0.5246
 9024SOL    HW238706   3.786   0.681   5.364  1.3088  0.9483  2.3476
 9025SOL     OW38707   2.160   4.484   7.090 -1.0608 -0.0935  0.4764
 9025SOL    HW138708   2.252   4.498   7.067 -1.3406  0.3262 -0.3606
 9025SOL    HW238709   2.121   4.463   7.006  1.2463 -1.9140 -0.1560
 9026SOL     OW38710   2.334   2.117   4.186 -0.8296 -0.0722 -0.0271
 9026SOL    HW138711   2.337   2.210   4.208 -0.2397  0.2165 -1.3690
 9026SOL    HW238712   2.394   2.113   4.111 -1.8601  1.0269 -0.8934
 9027SOL     OW38713   0.355   2.240   4.514  0.1852 -0.1446 -0.0320
 9027SOL    HW138714   0.332   2.328   4.482 -1.1044 -0.2361  0.6312
 9027SOL    HW238715   0.285   2.236   4.579 -0.6137 -0.0979 -0.8874
 9028SOL     OW38716   0.308   0.561  11.416  0.1464  0.3770 -0.1547
 9028SOL    HW138717   0.229   0.558  11.362  0.7561  1.4739 -1.1039
 9028SOL    HW238718   0.339   0.650  11.394  0.2753  0.7601  1.5873
 9029SOL     OW38719   1.303   1.800   2.130 -0.1824 -0.3565 -0.1772
 9029SOL    HW138720   1.218   1.842   2.142 -0.3851 -0.6698 -0.5153
 9029SOL    HW238721   1.271   1.721   2.172 -1.0264 -0.5661 -1.2112
 9030SOL     OW38722   3.691   1.009   4.051  0.3843  0.2205 -0.2037
 9030SOL    HW138723   3.739   1.091   4.041 -2.0572  1.4013 -2.0982
 9030SOL    HW238724   3.645   1.023   4.134  1.3812 -0.4573  0.4697
 9031SOL     OW38725   1.008   4.469   1.058  0.1074  0.4698  0.0253
 9031SOL    HW138726   0.946   4.540   1.044 -0.9200 -0.2362  0.9526
 9031SOL    HW238727   1.094   4.508   1.043 -0.5789  2.3179  0.8474
 9032SOL     OW38728   3.521   1.171   8.331  0.0592 -0.3507  0.6690
 9032SOL    HW138729   3.588   1.148   8.395  1.4269  3.2709  0.5224
 9032SOL    HW238730   3.443   1.160   8.386  0.3972  2.1170  1.6698
 9033SOL     OW38731   2.976   0.745   3.895  0.3900 -0.5191  0.4800
 9033SOL    HW138732   2.893   0.710   3.863  0.0909  0.6964 -0.0702
 9033SOL    HW238733   3.032   0.670   3.874  0.8153  0.5479 -2.1807
 9034SOL     OW38734   0.065   0.913   7.118  0.1865  0.0733  0.6390
 9034SOL    HW138735   0.044   1.003   7.139  2.3852  0.5426  0.8150
 9034SOL    HW238736   0.030   0.877   7.199 -0.2941 -1.8974 -0.4381
 9035SOL     OW38737   2.950   4.161   6.359  0.6225  0.8066 -0.1837
 9035SOL    HW138738   2.905   4.121   6.286 -0.8589 -1.4305  1.9547
 9035SOL    HW238739   2.969   4.095   6.426 -1.0933  1.4397  0.9268
 9036SOL     OW38740   3.850   0.189   3.033  0.6282 -0.4602  0.2180
 9036SOL    HW138741   3.883   0.213   3.120 -0.0530 -0.4128  0.4612
 9036SOL    HW238742   3.838   0.278   2.999  1.3287 -0.7197 -0.7138
 9037SOL     OW38743   2.014   1.765   5.506 -0.0509  0.1384 -0.1867
 9037SOL    HW138744   1.958   1.777   5.429 -1.9619  0.2659  1.2084
 9037SOL    HW238745   2.088   1.731   5.456 -0.8966 -2.7965  0.5557
 9038SOL     OW38746   0.340   2.298  14.140 -0.3270 -0.1580 -0.4730
 9038SOL    HW138747   0.256   2.260  14.115 -0.9582 -0.4984  2.1537
 9038SOL    HW238748   0.384   2.285  14.056  2.6793  1.0991  0.9009
 9039SOL     OW38749   3.939   3.094   7.766 -0.4697 -0.5033  0.0845
 9039SOL    HW138750   3.850   3.109   7.734 -0.2406  2.1354  0.6568
 9039SOL    HW238751   3.959   3.154   7.838  2.5221 -1.3066 -0.0852
 9040SOL     OW38752   1.179   4.332   2.606  0.5675 -0.4085 -0.0247
 9040SOL    HW138753   1.210   4.254   2.561 -0.0103 -0.7308  0.1323
 9040SOL    HW238754   1.178   4.300   2.696 -0.9796 -0.0219  0.1022
 9041SOL     OW38755   3.989   4.225   2.211 -0.1267  0.7996  0.4127
 9041SOL    HW138756   3.938   4.145   2.219  0.4028  0.3552 -0.5666
 9041SOL    HW238757   3.980   4.239   2.116  0.6403 -0.6771  0.1072
 9042SOL     OW38758   2.520   2.344   2.288  0.1955 -0.0420 -0.4067
 9042SOL    HW138759   2.534   2.418   2.229 -1.0519  0.3753 -0.1848
 9042SOL    HW238760   2.603   2.352   2.337  0.3646 -0.3417 -0.6428
 9043SOL     OW38761   2.990   0.879   2.125  0.1320  0.0256  0.0650
 9043SOL    HW138762   2.975   0.957   2.179  0.7913 -0.5518  1.0872
 9043SOL    HW238763   2.936   0.897   2.048 -0.8726 -1.1874  0.4986
 9044SOL     OW38764   0.180   3.196   2.391 -0.3533 -0.1210 -0.0987
 9044SOL    HW138765   0.235   3.140   2.445 -1.8999 -1.7804 -0.2552
 9044SOL    HW238766   0.241   3.269   2.382  0.9367 -1.0433  1.2354
 9045SOL     OW38767   4.118   1.375  16.255  0.0008  0.4478 -0.1794
 9045SOL    HW138768   4.104   1.444  16.190  0.8676  2.2646  1.5677
 9045SOL    HW238769   4.137   1.295  16.205 -1.6721  0.0194 -0.1449
 9046SOL     OW38770   1.183   1.814   7.584 -0.4737  0.1828  0.1922
 9046SOL    HW138771   1.118   1.789   7.649 -1.9324  2.9409 -0.2368
 9046SOL    HW238772   1.147   1.902   7.571  0.7441  0.3467 -2.1169
 9047SOL     OW38773   0.214   4.715  11.924 -0.5032 -0.2488 -0.3238
 9047SOL    HW138774   0.278   0.026  11.871  1.1507  0.7855  2.5932
 9047SOL    HW238775   0.164   0.056  11.952  1.8298  0.8510  0.8269
 9048SOL     OW38776   0.860   1.754   6.071 -0.0487  0.2464 -0.3084
 9048SOL    HW138777   0.898   1.816   6.133  0.0997  0.0014 -0.1524
 9048SOL    HW238778   0.903   1.683   6.120 -0.5702 -0.4026 -0.7988
 9049SOL     OW38779   2.685   1.484   8.999 -0.3609  0.3688 -0.7037
 9049SOL    HW138780   2.660   1.573   9.022  0.9293  0.8318 -1.1169
 9049SOL    HW238781   2.655   1.462   8.911 -0.7056 -1.3928 -0.1517
 9050SOL     OW38782   0.910   2.272   8.474  0.3128 -0.5915 -0.6461
 9050SOL    HW138783   0.827   2.281   8.522  1.8176  1.5965  1.5362
 9050SOL    HW238784   0.873   2.213   8.409 -0.5381 -1.4326  0.5996
 9051SOL     OW38785   4.290   2.492   6.033 -0.1127 -0.2928  0.3000
 9051SOL    HW138786   4.325   2.450   5.954 -0.0158  0.7706 -0.2232
 9051SOL    HW238787   4.202   2.515   6.004  0.4837  0.3618 -0.9950
 9052SOL     OW38788   1.771   3.307   5.006  0.0016 -0.3077  0.1101
 9052SOL    HW138789   1.862   3.296   5.033  0.3875  2.2138 -0.2179
 9052SOL    HW238790   1.751   3.231   4.951 -1.4878  0.8604 -0.9671
 9053SOL     OW38791   1.404   4.495   6.354 -0.2124 -0.1641  0.8384
 9053SOL    HW138792   1.431   4.587   6.349 -0.2447 -0.2009  0.0273
 9053SOL    HW238793   1.405   4.476   6.261  1.5356  0.8480  0.6456
 9054SOL     OW38794   2.695   2.160   7.097 -0.0664 -0.3791  0.3020
 9054SOL    HW138795   2.709   2.238   7.151 -2.1584 -0.0887  0.4215
 9054SOL    HW238796   2.630   2.122   7.157 -0.3467 -1.9970 -1.0202
 9055SOL     OW38797   1.147   1.402  15.806 -0.2313  0.1395  0.6541
 9055SOL    HW138798   1.072   1.433  15.756  0.1971  2.0296  1.2000
 9055SOL    HW238799   1.154   1.314  15.767  0.5496  1.3044 -1.8372
 9056SOL     OW38800   4.307   0.288   4.792  0.2067  0.0549  0.8011
 9056SOL    HW138801   4.272   0.199   4.803  1.1095 -0.1546  2.0947
 9056SOL    HW238802   4.240   0.333   4.843 -1.5126 -1.8349  0.1901
 9057SOL     OW38803   4.730   0.817   6.853 -0.5351 -0.2637 -0.0587
 9057SOL    HW138804   0.030   0.845   6.937 -0.4482  0.0882 -0.2106
 9057SOL    HW238805   0.000   0.894   6.796 -1.8065  0.7343  1.1648
 9058SOL     OW38806   2.939   4.247   2.534  0.8462  0.0922  0.1918
 9058SOL    HW138807   2.944   4.191   2.457  0.1387 -2.1836  1.7857
 9058SOL    HW238808   2.849   4.233   2.565  0.2768 -0.2704 -1.6193
 9059SOL     OW38809   3.883   0.722   5.797 -0.9313  0.3385  0.0611
 9059SOL    HW138810   3.805   0.717   5.851 -1.1045  2.4369 -0.0214
 9059SOL    HW238811   3.948   0.749   5.862 -0.3326 -0.7301 -0.0893
 9060SOL     OW38812   3.742   0.761  17.669  0.1010  0.5857 -0.1287
 9060SOL    HW138813   3.723   0.706  17.593  1.9220 -3.1152  2.0573
 9060SOL    HW238814   3.738   0.702   0.005  1.5487  0.5092 -0.1085
 9061SOL     OW38815   0.723   4.522   5.466 -0.4165 -0.1690 -0.0793
 9061SOL    HW138816   0.637   4.497   5.433 -0.1324 -1.7088  0.3809
 9061SOL    HW238817   0.775   4.447   5.438  0.2900  0.6306 -0.8978
 9062SOL     OW38818   0.833   4.528  15.260 -0.0144 -0.9005  0.0373
 9062SOL    HW138819   0.776   4.501  15.188 -1.0780  1.5157 -0.0337
 9062SOL    HW238820   0.885   4.600  15.224 -1.7887 -0.6750 -2.0642
 9063SOL     OW38821   0.766   3.557   9.412 -0.4635  0.3515 -0.1206
 9063SOL    HW138822   0.684   3.535   9.457 -1.0101  0.5930 -0.9886
 9063SOL    HW238823   0.725   3.618   9.350  0.5432  2.8585  1.6996
 9064SOL     OW38824   1.466   1.313   3.619 -0.2959  0.4225  0.3206
 9064SOL    HW138825   1.434   1.274   3.537  0.5187 -1.3623  0.8404
 9064SOL    HW238826   1.413   1.265   3.682  0.2571  0.0022  0.4702
 9065SOL     OW38827   3.055   1.227   5.571  0.0649 -0.1207 -0.2356
 9065SOL    HW138828   3.026   1.317   5.577 -0.7325 -0.4530  0.8112
 9065SOL    HW238829   2.984   1.198   5.514  0.1586  0.4225 -0.6250
 9066SOL     OW38830   0.185   2.014   4.427  0.5593  0.8323  0.4809
 9066SOL    HW138831   0.206   2.022   4.520 -2.1999  0.9737  1.1072
 9066SOL    HW238832   0.199   1.920   4.413 -2.3094  0.6174 -1.1714
 9067SOL     OW38833   1.806   1.353   6.055  0.1107 -0.3245 -0.2790
 9067SOL    HW138834   1.884   1.297   6.059  0.0940 -0.4336 -1.6022
 9067SOL    HW238835   1.810   1.386   6.145  0.0916  1.4387 -0.9388
 9068SOL     OW38836   0.246   4.228   3.817  0.5129 -0.5024 -0.2495
 9068SOL    HW138837   0.188   4.168   3.770  1.0922 -0.7936 -0.5869
 9068SOL    HW238838   0.328   4.212   3.771 -0.2835  1.5792 -2.4189
 9069SOL     OW38839   4.297   1.388   7.896 -0.2470 -0.1497  0.6372
 9069SOL    HW138840   4.209   1.412   7.926  0.7090  2.0010  1.7515
 9069SOL    HW238841   4.345   1.381   7.978 -1.7282  0.0266  1.5219
 9070SOL     OW38842   0.525   4.563   8.194 -0.3480  0.0246 -0.4497
 9070SOL    HW138843   0.563   4.590   8.277  0.5815  0.8208 -1.1346
 9070SOL    HW238844   0.493   4.477   8.221  0.0362  0.6972  2.1478
 9071SOL     OW38845   1.776   4.468   3.294 -0.3994  0.8520 -0.2077
 9071SOL    HW138846   1.867   4.439   3.288 -0.7451 -0.3272  0.3243
 9071SOL    HW238847   1.772   4.557   3.258 -0.6741  1.3155  0.9664
 9072SOL     OW38848   0.555   3.520   4.461 -0.4176 -0.2010  0.3319
 9072SOL    HW138849   0.539   3.428   4.441  1.2352  0.1233 -2.4671
 9072SOL    HW238850   0.631   3.501   4.517 -0.3577  0.8260  0.6003
 9073SOL     OW38851   2.108   3.683   6.066 -0.2302  0.2562  0.5043
 9073SOL    HW138852   2.014   3.666   6.077 -0.3229  1.0385  0.9382
 9073SOL    HW238853   2.158   3.620   6.118 -0.9196 -0.7761 -0.0815
 9074SOL     OW38854   3.942   2.106  12.670  0.2968  0.0436  0.0984
 9074SOL    HW138855   3.897   2.111  12.585 -0.2097  1.3213  0.4362
 9074SOL    HW238856   4.013   2.046  12.649  0.1603  0.0550 -0.4153
 9075SOL     OW38857   1.096   1.752   4.739  0.1202  0.0208  0.2509
 9075SOL    HW138858   1.155   1.704   4.681 -0.1688  0.5982 -0.5151
 9075SOL    HW238859   1.148   1.730   4.817  1.0755 -1.7125 -0.8773
 9076SOL     OW38860   3.784   0.948   0.246 -0.2432  0.6679  0.2146
 9076SOL    HW138861   3.760   0.956   0.338 -2.0685 -0.1066 -0.2028
 9076SOL    HW238862   3.713   0.891   0.216  1.6207  0.2047 -3.3437
 9077SOL     OW38863   4.011   1.478   1.531 -0.2379  0.1984 -0.4656
 9077SOL    HW138864   3.922   1.442   1.525  0.1258 -0.7557 -0.0404
 9077SOL    HW238865   4.060   1.463   1.450  0.2588  0.1999 -0.1646
 9078SOL     OW38866   0.629   3.361  14.712 -0.0944 -0.2572  0.2325
 9078SOL    HW138867   0.683   3.282  14.720 -1.8032 -1.4490 -0.2084
 9078SOL    HW238868   0.580   3.330  14.637 -2.5105 -0.1354  1.7579
 9079SOL     OW38869   0.710   4.088   6.217  0.3749 -0.5673 -0.6332
 9079SOL    HW138870   0.694   3.993   6.210  2.1612 -0.7775 -1.8804
 9079SOL    HW238871   0.686   4.100   6.309 -0.4165 -0.0454 -0.9174
 9080SOL     OW38872   1.044   2.899   8.666 -0.4812  0.2204  0.4604
 9080SOL    HW138873   1.017   2.841   8.738 -1.2126 -1.6249 -1.3199
 9080SOL    HW238874   1.102   2.843   8.615  0.2704  1.0962  0.3545
 9081SOL     OW38875   1.007   1.292  10.226  0.1963 -0.4939  0.1380
 9081SOL    HW138876   1.052   1.294  10.310 -0.3033  1.2622  0.3790
 9081SOL    HW238877   0.962   1.377  10.234  1.0408 -0.0812  0.4488
 9082SOL     OW38878   1.827   0.153   2.981  0.2574 -0.5656 -0.1484
 9082SOL    HW138879   1.783   0.220   3.033  0.1177 -0.2751 -0.6361
 9082SOL    HW238880   1.916   0.186   2.963 -0.2197  0.1664 -1.1815
 9083SOL     OW38881   3.507   0.453   4.721 -0.3765 -0.1771  0.0590
 9083SOL    HW138882   3.448   0.524   4.748  0.1272  0.9983 -1.9289
 9083SOL    HW238883   3.451   0.382   4.690  2.3297 -1.2814 -2.3132
 9084SOL     OW38884   1.736   1.286   6.373 -0.2330  0.2422  0.2285
 9084SOL    HW138885   1.649   1.267   6.340 -0.1331 -0.7041  0.5106
 9084SOL    HW238886   1.743   1.219   6.442 -0.8374  1.4919  1.4962
 9085SOL     OW38887   1.560   0.338   3.420 -0.0975  0.1394 -0.2830
 9085SOL    HW138888   1.494   0.276   3.452  0.2530 -0.2594 -0.3293
 9085SOL    HW238889   1.635   0.294   3.462 -1.0039  0.3679  1.5892
 9086SOL     OW38890   2.022   0.610   5.249  0.0251 -0.4862 -0.3710
 9086SOL    HW138891   2.113   0.641   5.242  0.2960 -1.3937 -0.8168
 9086SOL    HW238892   2.001   0.639   5.338 -0.1552  1.1634 -0.9481
 9087SOL     OW38893   4.058   1.376   0.228  0.1500 -0.2079  0.4491
 9087SOL    HW138894   4.125   1.324   0.184 -2.3361 -2.0201 -1.2769
 9087SOL    HW238895   3.979   1.368   0.173 -0.1569  0.7015  0.7614
 9088SOL     OW38896   0.736   2.544   3.502  0.1241  0.7709  0.5902
 9088SOL    HW138897   0.692   2.557   3.418 -1.5018  1.7073  1.5878
 9088SOL    HW238898   0.763   2.452   3.503  1.3445  1.1654  2.7713
 9089SOL     OW38899   1.503   1.508   8.000  0.0686  0.2015 -0.6008
 9089SOL    HW138900   1.575   1.487   8.060  0.1852  1.3824 -0.3270
 9089SOL    HW238901   1.433   1.540   8.057  1.0055 -0.9926  1.2182
 9090SOL     OW38902   2.751   0.333   3.290 -0.1184  0.5310  0.1039
 9090SOL    HW138903   2.700   0.348   3.211 -0.9973 -0.0842  0.5514
 9090SOL    HW238904   2.699   0.374   3.360 -1.9012 -2.5030  0.5394
 9091SOL     OW38905   0.376   3.977  15.135 -0.0508 -0.2193 -0.3848
 9091SOL    HW138906   0.348   3.979  15.226 -0.1911  2.6889 -0.5150
 9091SOL    HW238907   0.471   3.988  15.141 -0.1224 -0.1980  0.7005
 9092SOL     OW38908   0.981   4.575   7.218 -0.0239 -0.0344 -0.0484
 9092SOL    HW138909   1.004   4.655   7.265 -1.8341  1.0160 -0.9819
 9092SOL    HW238910   0.971   4.509   7.287  2.3644 -0.7273 -0.3549
 9093SOL     OW38911   3.518   2.314  17.062  0.6892 -0.2613 -0.2823
 9093SOL    HW138912   3.562   2.395  17.035  0.2716  0.0904  0.0867
 9093SOL    HW238913   3.547   2.308  17.153  0.3598  0.0594 -0.1571
 9094SOL     OW38914   4.469   3.180   0.249 -0.1470  0.6896 -0.3795
 9094SOL    HW138915   4.509   3.093   0.250  1.2905  1.3486 -0.8197
 9094SOL    HW238916   4.526   3.231   0.305 -1.0149 -0.9008  1.9494
 9095SOL     OW38917   1.154   2.452  14.610 -0.1092  0.2775  0.3257
 9095SOL    HW138918   1.128   2.393  14.680  0.3306  0.8378  0.9523
 9095SOL    HW238919   1.247   2.430  14.610  0.5709  3.0647 -1.2742
 9096SOL     OW38920   0.895   2.788   7.247 -0.1824  0.2077  0.5161
 9096SOL    HW138921   0.953   2.774   7.321  1.0837  0.8953 -0.3484
 9096SOL    HW238922   0.961   2.836   7.197 -0.1740  0.8214  1.1112
 9097SOL     OW38923   1.409   0.111   3.576 -0.1468 -0.1582  0.1427
 9097SOL    HW138924   1.357   0.067   3.643 -0.5318 -0.3809 -0.3025
 9097SOL    HW238925   1.491   0.062   3.565  0.1384  0.7291 -1.7323
 9098SOL     OW38926   4.612   1.405   5.108  0.4022  0.5513 -0.3671
 9098SOL    HW138927   4.519   1.424   5.105 -0.1682 -1.8400  1.8352
 9098SOL    HW238928   4.612   1.309   5.101 -0.6837  0.4955  0.4061
 9099SOL     OW38929   1.351   1.496   8.809 -0.7199 -0.7828 -0.2984
 9099SOL    HW138930   1.386   1.460   8.891  0.8795 -0.1918 -0.7270
 9099SOL    HW238931   1.429   1.505   8.754 -0.3863 -0.3379  0.2478
 9100SOL     OW38932   2.448   1.375  12.290  0.3566  0.4028  0.0203
 9100SOL    HW138933   2.367   1.331  12.317 -0.2399  2.3707  1.4560
 9100SOL    HW238934   2.509   1.330  12.348  0.0443 -0.7078 -0.5190
 9101SOL     OW38935   4.113   2.099   6.637 -0.1884  0.4375  1.1462
 9101SOL    HW138936   4.120   2.025   6.698  3.9070  1.4050  1.8486
 9101SOL    HW238937   4.052   2.063   6.573  1.4311  0.7379 -0.5728
 9102SOL     OW38938   3.018   3.125  10.204 -0.0150  0.5635  0.2324
 9102SOL    HW138939   3.037   3.202  10.257  1.6404 -0.9133  1.8129
 9102SOL    HW238940   2.980   3.066  10.269 -1.8293 -0.0856 -1.4205
 9103SOL     OW38941   3.931   0.419   5.893 -0.0716 -0.1614 -0.4543
 9103SOL    HW138942   3.877   0.488   5.853  1.8738  1.1524 -0.7826
 9103SOL    HW238943   4.019   0.455   5.885 -0.6256  2.0051  3.5849
 9104SOL     OW38944   3.378   3.082   5.859  0.6256  0.2474  0.0724
 9104SOL    HW138945   3.337   3.097   5.944 -0.6524  0.5528 -0.6031
 9104SOL    HW238946   3.447   3.146   5.872  1.8131 -1.5788  2.7802
 9105SOL     OW38947   0.701   3.271  13.302  0.6459  0.1750  0.4933
 9105SOL    HW138948   0.732   3.348  13.349 -0.3609 -0.0654  1.5571
 9105SOL    HW238949   0.751   3.284  13.221 -1.1003 -1.1372 -0.8079
 9106SOL     OW38950   3.496   0.172   9.071 -0.2507  0.4622  0.0662
 9106SOL    HW138951   3.590   0.189   9.068  0.4474 -2.9957  2.4135
 9106SOL    HW238952   3.496   0.078   9.053  1.2006  1.2468 -4.0959
 9107SOL     OW38953   2.589   0.354  15.926  0.0092  0.3039  0.3845
 9107SOL    HW138954   2.587   0.277  15.869 -0.3845  1.6538 -1.4056
 9107SOL    HW238955   2.678   0.343  15.959 -0.5173 -0.6673  1.4923
 9108SOL     OW38956   1.114   0.001   1.762  0.1430  0.4217 -0.2270
 9108SOL    HW138957   1.131   0.056   1.686 -0.7327  1.2708  0.1908
 9108SOL    HW238958   1.040   0.042   1.806 -0.1059 -0.0724 -0.1842
 9109SOL     OW38959   2.585   3.412  15.288 -0.5070 -0.5718 -0.5888
 9109SOL    HW138960   2.523   3.458  15.232 -0.2434 -0.4472 -0.7798
 9109SOL    HW238961   2.601   3.333  15.237  1.1672  0.0857 -1.0961
 9110SOL     OW38962   2.259   2.194   8.606 -0.4075  0.0110 -0.5058
 9110SOL    HW138963   2.240   2.151   8.689 -1.6073 -1.8961 -1.7821
 9110SOL    HW238964   2.327   2.258   8.627 -1.1042  0.2911  0.9077
 9111SOL     OW38965   4.451   4.165   3.637 -0.1094  0.2337  0.1808
 9111SOL    HW138966   4.514   4.169   3.565  0.5395 -1.2244  0.6762
 9111SOL    HW238967   4.436   4.260   3.641 -1.5824  0.0542 -1.0882
 9112SOL     OW38968   4.221   0.055   5.930 -0.4284 -0.0076 -0.1969
 9112SOL    HW138969   4.172   4.713   5.959 -1.5510  1.0687  0.7520
 9112SOL    HW238970   4.309   0.031   5.958 -0.7687 -0.8640  0.1281
 9113SOL     OW38971   0.238   4.211   3.406 -0.3638  0.5337 -0.8335
 9113SOL    HW138972   0.206   4.281   3.350  0.6718  1.5477 -0.1509
 9113SOL    HW238973   0.158   4.164   3.432  0.0325  1.0191  1.2108
 9114SOL     OW38974   0.177   0.317   1.770  0.2086  0.5400  0.6679
 9114SOL    HW138975   0.202   0.237   1.724  1.3214  0.6765  1.0493
 9114SOL    HW238976   0.220   0.307   1.855 -0.0469 -0.8806  0.6370
 9115SOL     OW38977   4.092   1.408   4.942  0.7768 -0.5737 -0.0584
 9115SOL    HW138978   4.050   1.459   5.011  1.5088 -2.3617  1.7091
 9115SOL    HW238979   4.043   1.439   4.866  1.8379 -1.6122 -1.1814
 9116SOL     OW38980   2.996   1.866   4.877 -0.2451 -0.1492  0.1380
 9116SOL    HW138981   2.995   1.792   4.938 -2.0284 -0.4080 -0.2072
 9116SOL    HW238982   3.022   1.935   4.938  0.9824 -0.3802 -0.1121
 9117SOL     OW38983   4.283   0.546   4.139 -0.0689  0.2759 -0.1683
 9117SOL    HW138984   4.314   0.486   4.071  2.1087  0.4820  0.6406
 9117SOL    HW238985   4.189   0.557   4.126 -0.0118  3.3151  2.0190
 9118SOL     OW38986   0.040   1.211   8.007  0.2888 -0.2620 -0.4556
 9118SOL    HW138987   0.049   1.149   8.079 -3.1374 -1.1079 -0.7677
 9118SOL    HW238988   0.107   1.275   8.031  2.5384 -2.2519 -1.3186
 9119SOL     OW38989   3.975   4.281  17.617  0.0173 -0.0955  0.4579
 9119SOL    HW138990   4.025   4.208  17.580 -2.2230 -1.1364 -0.5823
 9119SOL    HW238991   3.954   4.310  17.528  2.3840 -1.0141 -0.3963
 9120SOL     OW38992   0.713   4.656   9.633  0.2986  0.4724  0.6704
 9120SOL    HW138993   0.746   4.569   9.610 -0.8046 -0.2948  1.9732
 9120SOL    HW238994   0.798   4.696   9.651 -0.4304  1.4901  1.8394
 9121SOL     OW38995   4.703   1.466   6.060  0.2012  0.9635 -0.3553
 9121SOL    HW138996   4.703   1.521   6.138  0.3357 -1.8393  1.6012
 9121SOL    HW238997   0.023   1.393   6.086 -0.3089  0.4418 -0.7433
 9122SOL     OW38998   4.050   0.572   6.364 -0.0201  0.1971 -0.1765
 9122SOL    HW138999   4.126   0.587   6.419 -2.3708 -0.3318  3.1812
 9122SOL    HW239000   3.987   0.529   6.422 -3.1028  1.9613 -2.2219
 9123SOL     OW39001   2.891   0.386   6.028  0.1558 -0.3496 -0.0092
 9123SOL    HW139002   2.807   0.429   6.018 -0.6591 -1.4377  2.0820
 9123SOL    HW239003   2.925   0.398   5.940 -0.1713 -0.9329 -0.2154
 9124SOL     OW39004   1.527   1.340   1.726  0.0783  0.1247  0.3553
 9124SOL    HW139005   1.457   1.396   1.761 -0.8210 -1.1676  0.6019
 9124SOL    HW239006   1.578   1.310   1.800  0.3855 -1.2655 -0.4275
 9125SOL     OW39007   3.341   1.882   3.904 -0.1769 -0.1458 -0.1427
 9125SOL    HW139008   3.292   1.801   3.898  1.0631 -0.8763 -0.3693
 9125SOL    HW239009   3.287   1.933   3.843  1.9616  0.0067 -1.9317
 9126SOL     OW39010   3.805   0.421   9.775  0.0666 -0.3123  0.4877
 9126SOL    HW139011   3.829   0.503   9.732  0.5643 -0.7583 -0.0802
 9126SOL    HW239012   3.876   0.407   9.838 -0.7182 -0.6426  1.2967
 9127SOL     OW39013   3.259   1.537   5.565  0.6263  0.0941  0.2456
 9127SOL    HW139014   3.263   1.626   5.601 -1.2643 -0.0327  0.7672
 9127SOL    HW239015   3.344   1.495   5.578 -0.0399 -1.5358 -0.5965
 9128SOL     OW39016   1.330   1.655   4.585 -0.2705 -0.3149  0.4451
 9128SOL    HW139017   1.265   1.610   4.531  1.2619  0.1140 -1.7194
 9128SOL    HW239018   1.411   1.623   4.546 -0.1872  0.2354  0.1831
 9129SOL     OW39019   1.694   0.798   7.775  0.0853  0.0954 -0.4448
 9129SOL    HW139020   1.726   0.746   7.701  0.3245 -0.4441  0.0303
 9129SOL    HW239021   1.728   0.885   7.753 -2.8325  1.6001  1.0149
 9130SOL     OW39022   3.149   2.045   1.876  0.0666  0.4263  0.5550
 9130SOL    HW139023   3.120   2.114   1.816  2.0152  1.6398  1.0255
 9130SOL    HW239024   3.061   2.013   1.899 -0.3917  0.7384 -0.7945
 9131SOL     OW39025   2.674   1.730   7.108 -0.9264 -0.1485 -0.0784
 9131SOL    HW139026   2.585   1.695   7.104 -1.5611  1.5731 -1.3132
 9131SOL    HW239027   2.721   1.650   7.085  1.1043  0.3224  2.3975
 9132SOL     OW39028   0.681   4.160   4.053  0.4891  0.1080  0.0645
 9132SOL    HW139029   0.663   4.210   3.974  2.0319 -0.3209 -0.5608
 9132SOL    HW239030   0.606   4.101   4.061  0.4188  0.1700 -0.1704
 9133SOL     OW39031   1.560   1.741   5.000 -0.6836 -0.2649  0.5983
 9133SOL    HW139032   1.569   1.707   4.911  0.5368  3.3259 -0.6435
 9133SOL    HW239033   1.469   1.716   5.018 -0.8432  0.9107  1.4043
 9134SOL     OW39034   1.620   4.351   8.667 -0.4282 -0.8297 -0.2291
 9134SOL    HW139035   1.639   4.412   8.596  1.6511 -1.4875 -0.2214
 9134SOL    HW239036   1.640   4.409   8.740  1.8837 -1.9211  0.0057
 9135SOL     OW39037   1.850   1.661   8.154 -0.7485 -0.2402  0.1625
 9135SOL    HW139038   1.868   1.741   8.105  1.9754  0.0503  1.6695
 9135SOL    HW239039   1.866   1.684   8.245 -0.8260 -0.3157  0.1957
 9136SOL     OW39040   3.249   1.275   8.804  0.1038  0.5107  0.4682
 9136SOL    HW139041   3.273   1.236   8.888 -2.5228 -3.2629 -0.5256
 9136SOL    HW239042   3.319   1.339   8.800  1.3089 -0.7248  1.9499
 9137SOL     OW39043   1.876   0.281  16.233  0.3850 -0.0285  0.6174
 9137SOL    HW139044   1.967   0.305  16.215  0.6292 -0.4457  1.3236
 9137SOL    HW239045   1.824   0.329  16.168  1.5552 -1.7168 -1.5683
 9138SOL     OW39046   1.691   2.125   1.446  0.3136 -0.4500  0.4076
 9138SOL    HW139047   1.692   2.170   1.362  0.4008  0.1352  0.7171
 9138SOL    HW239048   1.778   2.084   1.446  1.2515  1.5058  1.3611
 9139SOL     OW39049   2.897   0.844   5.500  0.1740  0.2360 -0.0172
 9139SOL    HW139050   2.983   0.845   5.459  1.0277 -1.7108  1.7411
 9139SOL    HW239051   2.880   0.938   5.508 -0.1342  0.0967  0.9814
 9140SOL     OW39052   4.612   3.493   9.584  0.5105 -0.5084 -0.0725
 9140SOL    HW139053   4.562   3.422   9.624 -1.7461  0.3973 -1.2453
 9140SOL    HW239054   4.647   3.442   9.512 -1.5051 -0.5802 -1.0021
 9141SOL     OW39055   3.620   3.687   5.211  0.3640  0.3483 -0.5094
 9141SOL    HW139056   3.633   3.737   5.130  0.6513  1.9409  0.5240
 9141SOL    HW239057   3.612   3.593   5.197 -0.5222  0.4983 -1.0073
 9142SOL     OW39058   1.766   4.295  10.332  0.0081 -0.8380  0.2413
 9142SOL    HW139059   1.852   4.318  10.367 -0.1895  0.8369 -0.3676
 9142SOL    HW239060   1.704   4.320  10.401 -1.2880 -0.4900 -1.0491
 9143SOL     OW39061   3.333   1.006  17.496  0.1833 -0.1773 -0.0814
 9143SOL    HW139062   3.306   1.096  17.482  1.4766  0.3037  0.5268
 9143SOL    HW239063   3.256   0.972  17.450 -1.0087  2.4670 -0.0396
 9144SOL     OW39064   1.482   2.006  12.012  0.7558  0.3303 -0.6772
 9144SOL    HW139065   1.500   2.056  11.933  1.4953  1.4615  0.1998
 9144SOL    HW239066   1.401   1.960  11.988  0.3090  0.7694 -0.0264
 9145SOL     OW39067   3.558   2.332  12.701 -0.2173 -0.0447 -0.1259
 9145SOL    HW139068   3.627   2.389  12.666  0.4343 -0.6063  0.2411
 9145SOL    HW239069   3.618   2.270  12.743 -2.1197 -2.4646 -0.9574
 9146SOL     OW39070   0.010   1.460  17.050  0.6583  0.3839 -0.6288
 9146SOL    HW139071   0.075   1.486  16.985  1.8861  3.2735  1.7155
 9146SOL    HW239072   4.667   1.451  16.996 -0.0014 -1.8054  0.7114
 9147SOL     OW39073   3.649   0.534  13.721  0.0776  0.5316 -0.0339
 9147SOL    HW139074   3.671   0.482  13.797 -0.1408  0.0272 -0.3166
 9147SOL    HW239075   3.590   0.602  13.752 -1.7940 -1.3080  0.4202
 9148SOL     OW39076   2.323   0.038   6.750 -0.1537  0.0817  0.7414
 9148SOL    HW139077   2.243   0.062   6.703  0.7185 -1.5755 -1.5411
 9148SOL    HW239078   2.359   0.122   6.779 -0.0852  0.2441  0.1796
 9149SOL     OW39079   1.680   2.940   7.705  0.2163  0.3673  0.3725
 9149SOL    HW139080   1.724   2.980   7.781  0.0684  0.2329  0.5290
 9149SOL    HW239081   1.592   2.979   7.707  0.5721  1.2374 -0.6209
 9150SOL     OW39082   1.705   0.745   2.557  0.4795  0.4093  1.0933
 9150SOL    HW139083   1.634   0.805   2.579  0.3398  0.5083  0.3449
 9150SOL    HW239084   1.655   0.670   2.526  0.6321  0.2693  1.1844
 9151SOL     OW39085   1.605   3.708   5.547  0.4408  0.3862  0.0283
 9151SOL    HW139086   1.518   3.676   5.571  0.3658  0.1355 -0.5543
 9151SOL    HW239087   1.647   3.622   5.549  1.7944  1.0369 -0.3145
 9152SOL     OW39088   0.654   3.116  10.752 -0.3304 -0.2431 -0.2323
 9152SOL    HW139089   0.645   3.122  10.847 -0.2895 -1.0369 -0.1763
 9152SOL    HW239090   0.748   3.131  10.741 -0.1513 -1.5187 -0.4436
 9153SOL     OW39091   0.543   0.954   4.487 -0.2486  0.2088  0.8198
 9153SOL    HW139092   0.543   0.868   4.529  0.2918 -1.3883 -2.3662
 9153SOL    HW239093   0.455   0.959   4.450  0.1993  2.0136  0.0006
 9154SOL     OW39094   1.024   4.238  16.106 -0.2328 -0.0207 -0.5399
 9154SOL    HW139095   1.117   4.261  16.105 -0.5054  1.0944  2.0989
 9154SOL    HW239096   1.024   4.153  16.149  0.0783 -0.3417 -1.1737
 9155SOL     OW39097   0.451   3.235  17.136  0.0195  0.3339  0.4384
 9155SOL    HW139098   0.437   3.163  17.075 -0.3341  1.9349 -1.3613
 9155SOL    HW239099   0.525   3.197  17.184 -0.6054 -0.9692  0.3468
 9156SOL     OW39100   1.463   1.096  12.006  0.0542 -0.2082  0.0284
 9156SOL    HW139101   1.531   1.030  11.994  1.4213  1.2135 -0.1036
 9156SOL    HW239102   1.508   1.175  12.036  2.8580 -2.3003  1.2910
 9157SOL     OW39103   3.878   0.774   0.846  0.6572  0.0472 -0.2925
 9157SOL    HW139104   3.804   0.761   0.787 -0.4384 -0.0489  1.0938
 9157SOL    HW239105   3.951   0.780   0.785  0.7118  2.8654  0.0499
 9158SOL     OW39106   1.924   1.063   8.072  0.2272  0.1058 -0.0989
 9158SOL    HW139107   1.954   1.026   7.989  0.6479  0.8034 -0.2614
 9158SOL    HW239108   1.990   1.031   8.134 -0.9201  2.7376  2.5209
 9159SOL     OW39109   4.129   2.362   8.902 -0.3101  0.1515  0.1510
 9159SOL    HW139110   4.201   2.425   8.895  0.4505 -0.5054  2.0442
 9159SOL    HW239111   4.175   2.290   8.945  0.3121  0.3476 -0.1941
 9160SOL     OW39112   3.725   2.312  10.339 -0.6468 -0.1972 -0.1885
 9160SOL    HW139113   3.768   2.323  10.424 -1.3442 -1.5489  0.3420
 9160SOL    HW239114   3.641   2.270  10.361 -0.6391  1.1020  2.3216
 9161SOL     OW39115   4.643   0.823   9.063 -0.2884  0.0708 -0.0874
 9161SOL    HW139116   4.563   0.831   9.011  0.5045  0.2479 -1.2741
 9161SOL    HW239117   4.617   0.741   9.105 -0.5705 -0.2273 -0.8464
 9162SOL     OW39118   3.691   4.213   8.723 -0.3648  0.4196  0.0257
 9162SOL    HW139119   3.750   4.205   8.798  0.3062  3.8949 -0.1216
 9162SOL    HW239120   3.770   4.235   8.673 -0.3568 -0.7370 -0.4558
 9163SOL     OW39121   3.374   2.473   4.690  0.6746 -0.2024  0.2024
 9163SOL    HW139122   3.304   2.410   4.702  1.2740 -0.5387  1.9513
 9163SOL    HW239123   3.336   2.560   4.700  2.8049  0.5896  1.4396
 9164SOL     OW39124   4.546   2.560   7.354  0.4267  0.3538 -0.0812
 9164SOL    HW139125   4.556   2.537   7.446 -3.4970 -1.5985 -0.1431
 9164SOL    HW239126   4.462   2.606   7.348  0.6984  0.8403 -0.1869
 9165SOL     OW39127   0.899   0.235   2.883 -0.1163  0.3536 -0.7374
 9165SOL    HW139128   0.817   0.265   2.921  0.2096 -2.6058  2.3647
 9165SOL    HW239129   0.965   0.259   2.948 -0.5781 -0.6182  0.0963
 9166SOL     OW39130   0.327   3.912   6.010  0.2707  0.0707 -0.2084
 9166SOL    HW139131   0.385   3.977   5.970  0.5013 -0.2208 -0.3462
 9166SOL    HW239132   0.247   3.957   5.981  0.1516 -1.9363 -3.0369
 9167SOL     OW39133   4.220   3.523   5.537  0.6168 -0.0581  0.1968
 9167SOL    HW139134   4.216   3.611   5.576  1.1948 -0.2595  0.7210
 9167SOL    HW239135   4.141   3.524   5.483  2.7605  0.5199 -2.9174
 9168SOL     OW39136   1.139   2.434   5.083  0.6445  0.4437  0.0547
 9168SOL    HW139137   1.094   2.355   5.055  0.3960  1.3319 -2.0481
 9168SOL    HW239138   1.111   2.433   5.175  0.0295 -0.2021 -0.1456
 9169SOL     OW39139   3.953   3.752  14.354 -0.0370 -0.8109 -0.3954
 9169SOL    HW139140   3.897   3.803  14.412  0.9772  0.2125 -0.3147
 9169SOL    HW239141   4.012   3.708  14.415 -1.4927 -0.5187  1.2172
 9170SOL     OW39142   2.932   1.197   4.332 -0.1862 -0.0861 -0.6853
 9170SOL    HW139143   3.022   1.208   4.301  0.9419 -2.1222  1.8353
 9170SOL    HW239144   2.931   1.140   4.409 -1.6370 -2.6004 -2.5516
 9171SOL     OW39145   4.013   0.510   0.087  0.2469 -0.4160 -0.8762
 9171SOL    HW139146   4.089   0.505   0.030 -0.6824 -1.5761 -2.0134
 9171SOL    HW239147   3.976   0.422   0.088 -0.0670 -0.2869 -1.5380
 9172SOL     OW39148   1.082   2.941   7.119 -0.2061  0.3048  0.0523
 9172SOL    HW139149   1.160   2.938   7.064 -0.7506  1.6213 -0.8056
 9172SOL    HW239150   1.107   3.020   7.168  2.6596 -2.0340  2.3060
 9173SOL     OW39151   1.341   2.176   9.558  0.1116 -0.2634  0.7518
 9173SOL    HW139152   1.372   2.247   9.615 -1.0757  2.6525 -2.2052
 9173SOL    HW239153   1.356   2.221   9.475 -0.9236 -1.3584 -0.0029
 9174SOL     OW39154   3.659   1.023   2.456  0.1895 -0.0048  0.7217
 9174SOL    HW139155   3.575   1.004   2.415  0.3785  0.0035  0.3261
 9174SOL    HW239156   3.621   1.067   2.532 -0.0518 -1.2612  1.3170
 9175SOL     OW39157   4.217   4.126   7.075 -0.1923 -0.1407 -0.1913
 9175SOL    HW139158   4.167   4.173   7.007  1.7129  2.2857  0.0603
 9175SOL    HW239159   4.279   4.089   7.013  0.9762 -0.0707  0.9479
 9176SOL     OW39160   1.980   3.123   8.890  0.7274  0.5512  0.2813
 9176SOL    HW139161   1.976   3.219   8.890 -1.3765  0.4848  0.8988
 9176SOL    HW239162   1.961   3.109   8.797  1.5639  3.6076 -0.3322
 9177SOL     OW39163   4.238   2.358   1.999 -0.2549  0.1506 -0.4111
 9177SOL    HW139164   4.252   2.349   2.093  1.3381 -0.4885 -0.7093
 9177SOL    HW239165   4.326   2.336   1.970  0.2535  0.8775  0.6028
 9178SOL     OW39166   2.923   2.250   3.977 -0.2311 -0.3753  0.5608
 9178SOL    HW139167   2.998   2.204   4.014  0.6320  0.1299 -0.5692
 9178SOL    HW239168   2.865   2.261   4.052  0.7125  0.3437  1.1740
 9179SOL     OW39169   4.477   3.495   0.124 -0.8708 -0.0094 -0.5164
 9179SOL    HW139170   4.534   3.421   0.146 -1.2268 -0.5717 -1.4418
 9179SOL    HW239171   4.488   3.483   0.029 -1.7853 -0.9259 -0.5069
 9180SOL     OW39172   2.993   4.648   4.197  0.4478  0.6349  0.1713
 9180SOL    HW139173   2.907   4.614   4.224  0.2691 -0.8301 -2.2129
 9180SOL    HW239174   3.021   4.686   4.280  0.7992 -0.9871  0.7846
 9181SOL     OW39175   1.757   2.961   2.116 -0.4821 -0.3334  0.1327
 9181SOL    HW139176   1.723   3.049   2.104 -1.5028 -0.6868  0.4553
 9181SOL    HW239177   1.820   2.953   2.045 -1.1002 -0.3745 -0.4126
 9182SOL     OW39178   1.248   3.570   5.576 -0.1328 -0.2222 -0.1803
 9182SOL    HW139179   1.202   3.491   5.603 -0.7557  1.0197  2.3700
 9182SOL    HW239180   1.317   3.522   5.529  1.4172  1.3823  0.4202
 9183SOL     OW39181   2.854   0.113  11.749 -0.0007  1.2152  0.3741
 9183SOL    HW139182   2.809   0.173  11.689  0.2112  0.8259 -0.1802
 9183SOL    HW239183   2.859   0.169  11.827  1.6403  1.0087  0.4180
 9184SOL     OW39184   1.624   2.521   6.627 -0.1650 -0.7434 -0.0207
 9184SOL    HW139185   1.536   2.555   6.641  0.6658  1.4568 -0.1444
 9184SOL    HW239186   1.608   2.430   6.602 -2.0887 -0.3076 -0.3711
 9185SOL     OW39187   4.582   0.215   3.018  0.5746  0.2802 -0.3215
 9185SOL    HW139188   4.491   0.186   3.028  0.4051  0.8416 -0.2122
 9185SOL    HW239189   4.618   0.170   3.094 -1.0259  0.4891  0.5749
 9186SOL     OW39190   1.463   2.538   0.995  0.0387 -0.1258 -0.3890
 9186SOL    HW139191   1.435   2.458   0.950  0.5089  0.0560 -1.0070
 9186SOL    HW239192   1.556   2.544   0.974 -0.7548  0.0285 -3.8503
 9187SOL     OW39193   2.720   2.127   3.832 -0.0668 -0.0922  0.3594
 9187SOL    HW139194   2.811   2.154   3.844  0.6163 -1.6500 -1.3150
 9187SOL    HW239195   2.721   2.059   3.900 -1.5661  0.2783  0.7410
 9188SOL     OW39196   1.736   4.585   6.132 -0.3542  0.6761 -0.0401
 9188SOL    HW139197   1.642   4.595   6.112 -0.8834 -0.4421  1.8678
 9188SOL    HW239198   1.770   4.667   6.097 -0.1584  1.5204  2.0804
 9189SOL     OW39199   3.221   3.907  17.081 -0.1712 -0.3531  0.1876
 9189SOL    HW139200   3.128   3.921  17.066 -0.2404 -1.3099 -0.2948
 9189SOL    HW239201   3.256   3.935  16.996  0.9842  1.0916  1.1281
 9190SOL     OW39202   2.675   1.006   2.213  0.3172  0.2434  0.5106
 9190SOL    HW139203   2.654   1.094   2.245 -0.0006 -0.3562  1.9222
 9190SOL    HW239204   2.721   0.961   2.285 -1.0297 -2.5175 -0.3572
 9191SOL     OW39205   1.030   4.100  11.745 -0.0693  0.4651  0.0599
 9191SOL    HW139206   0.960   4.089  11.681 -0.0078 -1.9585  0.3873
 9191SOL    HW239207   1.013   4.192  11.765  0.7429  0.6977 -0.3108
 9192SOL     OW39208   1.496   3.019   4.593  0.4035  0.6809 -0.1142
 9192SOL    HW139209   1.571   3.056   4.548  1.3390 -0.4400  0.5220
 9192SOL    HW239210   1.459   2.956   4.531 -1.2238  1.1202  0.3949
 9193SOL     OW39211   2.599   4.005   5.852  0.0470  0.3250  0.2081
 9193SOL    HW139212   2.658   4.068   5.811 -0.2640 -0.3167 -1.2397
 9193SOL    HW239213   2.669   3.944   5.874 -0.4890 -0.8462 -1.3033
 9194SOL     OW39214   3.108   0.323   7.894 -0.6972  0.3377  0.3826
 9194SOL    HW139215   3.183   0.267   7.875  0.5410  1.8571  0.7722
 9194SOL    HW239216   3.140   0.374   7.968 -3.1258  0.3143  1.4552
 9195SOL     OW39217   3.436   2.155  11.777  0.0872  0.3169  0.5420
 9195SOL    HW139218   3.360   2.128  11.725 -1.3602 -0.4414  3.0663
 9195SOL    HW239219   3.440   2.093  11.849 -0.6401  0.2086  0.4950
 9196SOL     OW39220   0.752   0.681   4.296 -0.0527 -0.1767 -0.3719
 9196SOL    HW139221   0.668   0.719   4.270  0.2310  0.4582 -0.3502
 9196SOL    HW239222   0.772   0.653   4.207  0.6448  3.3644 -1.2819
 9197SOL     OW39223   0.156   1.169  15.157 -0.7622 -0.4393 -0.1642
 9197SOL    HW139224   0.140   1.262  15.145 -0.4346 -0.3161  0.3457
 9197SOL    HW239225   0.123   1.158  15.246  0.7026  2.0369  0.6685
 9198SOL     OW39226   3.154   1.893   3.451 -0.2857 -0.5470 -0.5576
 9198SOL    HW139227   3.220   1.940   3.400  2.6273 -2.7459  1.2640
 9198SOL    HW239228   3.147   1.805   3.414 -1.8980 -1.5789  2.2218
 9199SOL     OW39229   3.148   2.548   0.761  0.6231 -0.4441 -0.0453
 9199SOL    HW139230   3.087   2.483   0.724 -0.4904  0.3993  0.2993
 9199SOL    HW239231   3.185   2.582   0.679  1.4085  0.8005  0.8414
 9200SOL     OW39232   3.799   2.316   6.687  0.5790  0.0233  0.4258
 9200SOL    HW139233   3.808   2.247   6.752  0.7205 -0.0499  0.3288
 9200SOL    HW239234   3.889   2.348   6.681  0.3699  0.0318 -3.0803
 9201SOL     OW39235   3.559   1.707   8.753  0.0942 -0.4027 -0.4292
 9201SOL    HW139236   3.632   1.702   8.691  0.5394  1.7169 -0.0521
 9201SOL    HW239237   3.562   1.786   8.806 -0.3002  1.6986 -3.5148
 9202SOL     OW39238   3.526   0.439   7.344 -0.4381  0.4441 -0.1248
 9202SOL    HW139239   3.524   0.514   7.404  0.1795  0.4298 -0.0881
 9202SOL    HW239240   3.498   0.479   7.261  0.9397 -0.9970 -1.2808
 9203SOL     OW39241   0.429   2.057  17.071  0.1179  0.4295  0.3184
 9203SOL    HW139242   0.524   2.043  17.067 -0.3476 -1.9424 -2.0718
 9203SOL    HW239243   0.410   2.024  17.158  0.6870 -0.5531  0.0685
 9204SOL     OW39244   2.201   0.767  13.460 -0.1953 -0.3960 -0.6219
 9204SOL    HW139245   2.240   0.718  13.387  0.0260  0.1101 -0.8410
 9204SOL    HW239246   2.229   0.712  13.533  0.4508 -1.3267 -1.5537
 9205SOL     OW39247   0.800   1.582  17.308  0.0624 -0.2608  0.3579
 9205SOL    HW139248   0.834   1.670  17.324  1.1649 -1.0472  2.3647
 9205SOL    HW239249   0.876   1.551  17.258 -0.5582  1.6264 -1.7639
 9206SOL     OW39250   0.517   1.560   8.369  0.1659 -0.0090 -0.2464
 9206SOL    HW139251   0.520   1.464   8.377 -1.2218 -0.0252  0.1537
 9206SOL    HW239252   0.605   1.591   8.349  0.3191 -0.7533 -0.7362
 9207SOL     OW39253   3.366   4.578  17.692 -0.0304 -0.3788 -0.4192
 9207SOL    HW139254   3.406   4.576   0.039 -3.8441 -1.3355  1.3080
 9207SOL    HW239255   3.411   4.501  17.655  0.7968  0.9099 -2.1068
 9208SOL     OW39256   3.211   1.127   4.244  0.7384 -0.0041  0.3071
 9208SOL    HW139257   3.164   1.107   4.163  1.6816 -0.9844  0.0005
 9208SOL    HW239258   3.222   1.034   4.266  3.2931  0.2826  0.2071
 9209SOL     OW39259   3.981   1.836   5.931  0.4158  0.0917  0.4967
 9209SOL    HW139260   3.956   1.904   5.869 -0.0897 -0.5052  0.0455
 9209SOL    HW239261   4.056   1.809   5.879  0.7133  0.3331  0.8054
 9210SOL     OW39262   0.685   2.957   1.703 -0.1675 -0.1795 -0.4108
 9210SOL    HW139263   0.768   2.910   1.694 -0.3946 -0.1626 -2.7072
 9210SOL    HW239264   0.718   3.047   1.709  0.8329 -0.4175 -2.1451
 9211SOL     OW39265   4.686   2.151   2.520 -0.2744 -0.2955 -0.4916
 9211SOL    HW139266   4.615   2.099   2.482  1.0466 -1.0406 -1.9722
 9211SOL    HW239267   4.638   2.231   2.542  1.0151 -0.0727  1.5221
 9212SOL     OW39268   3.661   1.053   7.624  0.4057 -0.2531  0.1371
 9212SOL    HW139269   3.697   0.984   7.680  0.4964 -1.7008 -1.6889
 9212SOL    HW239270   3.733   1.115   7.633 -0.6081  0.8486  0.7184
 9213SOL     OW39271   2.567   3.836   1.988  0.1191  0.6735 -0.1121
 9213SOL    HW139272   2.536   3.922   2.019  0.9691  1.2085 -0.7526
 9213SOL    HW239273   2.500   3.821   1.922 -0.6540  0.3786  0.7330
 9214SOL     OW39274   1.084   0.453   9.780 -0.4631  0.3619 -0.1441
 9214SOL    HW139275   1.036   0.415   9.854 -0.3483 -2.8805 -1.7480
 9214SOL    HW239276   1.027   0.443   9.704  0.1114 -0.7015 -0.4374
 9215SOL     OW39277   0.657   3.805   6.451 -0.5524  0.1251 -0.4856
 9215SOL    HW139278   0.671   3.775   6.361 -2.5571 -0.0425 -0.7266
 9215SOL    HW239279   0.592   3.875   6.442 -1.7497 -0.4689  3.6881
 9216SOL     OW39280   3.109   0.577   6.093  0.1939 -0.1445  0.0167
 9216SOL    HW139281   3.068   0.663   6.100 -0.8504 -0.4820 -2.0620
 9216SOL    HW239282   3.043   0.510   6.075  0.8780 -0.9665  0.5983
 9217SOL     OW39283   4.130   1.804  14.962 -0.6347  0.2264  0.1591
 9217SOL    HW139284   4.091   1.866  15.024  3.5615  3.1536 -0.1229
 9217SOL    HW239285   4.212   1.852  14.949 -1.0197  0.5314 -1.1754
 9218SOL     OW39286   1.868   4.422   1.557  0.1287 -1.0951 -0.4568
 9218SOL    HW139287   1.947   4.430   1.503  0.0830  0.4723 -0.3168
 9218SOL    HW239288   1.848   4.329   1.551  0.9519 -1.4083  1.7058
 9219SOL     OW39289   2.055   0.437   5.705  0.3961  0.5375 -0.4490
 9219SOL    HW139290   1.993   0.476   5.644 -1.5966 -0.2651  1.0667
 9219SOL    HW239291   2.053   0.505   5.771  0.7055 -1.4659  1.6318
 9220SOL     OW39292   4.397   3.984  14.831 -0.1185 -0.3870 -0.4401
 9220SOL    HW139293   4.487   4.015  14.833 -0.3782  0.4267 -1.1597
 9220SOL    HW239294   4.346   4.030  14.897 -0.4915 -0.6728 -0.5279
 9221SOL     OW39295   3.970   0.321   3.268  0.1969  0.5711  0.2156
 9221SOL    HW139296   3.887   0.291   3.305 -0.8801  0.7657 -2.1003
 9221SOL    HW239297   3.993   0.390   3.330 -0.8439  0.8206  0.3171
 9222SOL     OW39298   3.431   1.228   4.121 -0.7308 -0.0301  0.4209
 9222SOL    HW139299   3.487   1.173   4.175  0.6456  2.2092  1.2535
 9222SOL    HW239300   3.348   1.191   4.151 -1.9435  1.2567 -1.3245
 9223SOL     OW39301   3.520   0.382   4.400  0.3130 -0.1320 -0.0218
 9223SOL    HW139302   3.539   0.303   4.349  2.8816  0.3920  0.1105
 9223SOL    HW239303   3.462   0.354   4.470 -0.5564  0.4156 -0.5329
 9224SOL     OW39304   4.107   1.226   7.712  0.3060  0.7965  0.6823
 9224SOL    HW139305   4.131   1.244   7.621 -0.5026 -0.3104  0.2562
 9224SOL    HW239306   4.158   1.300   7.745  0.2852  0.6140  1.1206
 9225SOL     OW39307   0.311   1.749   7.025 -0.4586  0.5885  0.0023
 9225SOL    HW139308   0.393   1.707   7.048 -1.9264 -2.0863  0.3211
 9225SOL    HW239309   0.350   1.813   6.965  1.6678 -0.3943  0.3483
 9226SOL     OW39310   2.041   3.921  14.600 -0.2871 -0.3949  0.8301
 9226SOL    HW139311   2.059   3.864  14.525 -0.0563  3.3016 -1.9769
 9226SOL    HW239312   2.083   4.000  14.564 -2.8648  0.2558 -0.7573
 9227SOL     OW39313   3.042   1.244  16.633  0.6283  0.0303 -0.3273
 9227SOL    HW139314   3.136   1.257  16.622  0.8068 -0.9637  0.0162
 9227SOL    HW239315   3.019   1.164  16.588 -1.2296  1.4506 -1.8859
 9228SOL     OW39316   2.478   3.861   7.290 -0.1533  0.3123  0.1063
 9228SOL    HW139317   2.452   3.879   7.200  2.6321  0.4686 -0.6453
 9228SOL    HW239318   2.506   3.770   7.279  0.6123  0.7618 -1.5457
 9229SOL     OW39319   4.090   2.872   7.753 -0.5308  0.3889  0.4107
 9229SOL    HW139320   4.027   2.944   7.762  0.3964  1.6853 -3.2285
 9229SOL    HW239321   4.030   2.802   7.777 -0.4886  0.5545  0.9982
 9230SOL     OW39322   4.106   1.415   1.894  0.2396  0.0127 -0.1193
 9230SOL    HW139323   4.025   1.463   1.911  0.4382  0.5040 -0.5502
 9230SOL    HW239324   4.081   1.327   1.922 -0.4941 -0.2877 -1.6966
 9231SOL     OW39325   1.280   2.086   8.812  0.2949 -0.1467  0.0607
 9231SOL    HW139326   1.356   2.033   8.787  1.6203  0.4476  2.8078
 9231SOL    HW239327   1.225   2.065   8.736 -2.2463  0.6980  1.6828
 9232SOL     OW39328   2.776   3.910   0.875  0.0271 -0.2447  0.5232
 9232SOL    HW139329   2.831   3.988   0.885  0.5970 -0.2847 -2.1159
 9232SOL    HW239330   2.764   3.901   0.780  0.2467 -1.3887  0.6090
 9233SOL     OW39331   3.993   0.106   8.909  0.2279  0.1832 -0.3420
 9233SOL    HW139332   4.064   0.117   8.972  0.1459 -2.3862  0.2165
 9233SOL    HW239333   4.018   0.027   8.861 -0.8902 -0.3865  0.0048
 9234SOL     OW39334   2.327   2.984  15.629 -0.2066 -0.2525  0.1540
 9234SOL    HW139335   2.345   3.025  15.544  0.6934  0.5503  0.7357
 9234SOL    HW239336   2.394   3.031  15.679 -2.5427  0.3815  2.6919
 9235SOL     OW39337   0.186   1.663   4.888  0.1331 -0.2801 -0.4045
 9235SOL    HW139338   0.144   1.657   4.802 -1.2164  0.6721  0.1934
 9235SOL    HW239339   0.162   1.575   4.917 -3.4263  0.9503  0.3455
 9236SOL     OW39340   2.165   4.424   2.004 -0.4431 -0.6941  0.2359
 9236SOL    HW139341   2.090   4.405   1.948  0.1039 -1.5627 -0.2076
 9236SOL    HW239342   2.124   4.472   2.076 -0.2534  1.3070 -0.9901
 9237SOL     OW39343   4.655   0.024   7.057  0.7631  0.3500  0.5082
 9237SOL    HW139344   4.564   0.023   7.026  1.4043 -1.9369 -1.3067
 9237SOL    HW239345   4.681   0.112   7.030  0.1883  0.5325  0.5420
 9238SOL     OW39346   1.589   2.364   4.922 -0.0708 -0.0784  0.5352
 9238SOL    HW139347   1.650   2.410   4.864  1.5257 -0.4077  1.9769
 9238SOL    HW239348   1.509   2.410   4.895  0.4729  0.0727 -0.8051
 9239SOL     OW39349   4.186   4.545   8.438  0.0818 -0.4302  0.2999
 9239SOL    HW139350   4.173   4.478   8.372  3.6493  1.0226 -1.8653
 9239SOL    HW239351   4.153   4.626   8.398  0.1692  0.0086  1.1139
 9240SOL     OW39352   0.542   0.051   7.488 -0.0046 -0.2496 -0.2956
 9240SOL    HW139353   0.484   4.719   7.525  1.2079 -0.2017  1.6757
 9240SOL    HW239354   0.623   0.021   7.530  0.7228  0.9058 -0.9089
 9241SOL     OW39355   0.214   0.491   3.014 -0.0628 -0.0771 -0.3856
 9241SOL    HW139356   0.199   0.433   3.089 -2.1292  1.8632  0.7085
 9241SOL    HW239357   0.154   0.460   2.946 -1.4061  0.3784  0.5850
 9242SOL     OW39358   4.165   3.379   4.209 -0.5171  0.4142 -0.6021
 9242SOL    HW139359   4.180   3.461   4.255 -1.8758  0.7014 -0.6622
 9242SOL    HW239360   4.074   3.360   4.234  0.0568 -0.5945  0.7032
 9243SOL     OW39361   3.355   1.104   1.561  0.0163 -0.2352  0.1166
 9243SOL    HW139362   3.316   1.099   1.648 -1.3500 -3.5879 -0.6883
 9243SOL    HW239363   3.279   1.083   1.507 -0.9052  3.0568  0.1191
 9244SOL     OW39364   0.268   0.476   2.140  0.8159  1.0107 -0.2025
 9244SOL    HW139365   0.184   0.518   2.158 -1.0135 -1.9109 -1.9203
 9244SOL    HW239366   0.240   0.402   2.086  0.0175  0.6163  0.7610
 9245SOL     OW39367   0.648   0.984   3.042 -0.5813 -0.0805 -0.1357
 9245SOL    HW139368   0.600   1.001   2.962 -0.1068 -2.5319 -0.9682
 9245SOL    HW239369   0.652   0.891   3.065  0.3857 -0.6765 -2.7072
 9246SOL     OW39370   3.839   0.213   6.098 -0.4129 -0.3350 -0.3715
 9246SOL    HW139371   3.927   0.206   6.133 -0.8844  2.9728  1.4697
 9246SOL    HW239372   3.857   0.280   6.032  0.0721  0.6174  0.7322
 9247SOL     OW39373   4.449   4.079   5.578 -0.2335  0.4257  0.0112
 9247SOL    HW139374   4.379   4.069   5.513 -0.5324  2.0141  0.1048
 9247SOL    HW239375   4.433   4.168   5.609  1.1418  1.2974 -1.7645
 9248SOL     OW39376   0.539   3.005   5.957 -0.3942  0.4260  0.2004
 9248SOL    HW139377   0.538   3.028   6.050  1.7973 -1.1573  0.6219
 9248SOL    HW239378   0.497   3.083   5.921 -1.1189  0.7391  1.7588
 9249SOL     OW39379   3.274   2.526   1.221  0.4558  0.4622  0.5210
 9249SOL    HW139380   3.237   2.443   1.193  1.2685  0.6915 -1.2038
 9249SOL    HW239381   3.225   2.597   1.180 -0.6067  0.3942  1.6811
 9250SOL     OW39382   2.220   0.953   7.065 -0.3753  0.1834  0.2170
 9250SOL    HW139383   2.185   0.876   7.110 -0.9441  0.7955  0.8200
 9250SOL    HW239384   2.163   0.944   6.988  1.1811  0.0544 -0.9366
 9251SOL     OW39385   2.593   2.331  11.630  0.3299 -0.0256  0.1387
 9251SOL    HW139386   2.568   2.302  11.718  2.9608  3.3887  2.0444
 9251SOL    HW239387   2.521   2.390  11.609  0.6643  0.5197  0.5135
 9252SOL     OW39388   2.214   2.410   9.253 -0.2576  0.3500  0.0354
 9252SOL    HW139389   2.222   2.387   9.160  1.2621 -0.0912  0.2795
 9252SOL    HW239390   2.201   2.324   9.292 -1.3619  0.9083  0.9060
 9253SOL     OW39391   2.433   4.729  12.976  0.2569  0.0156  0.4268
 9253SOL    HW139392   2.475   4.657  12.928 -2.4987 -0.4924 -1.2036
 9253SOL    HW239393   2.501   0.015  13.040 -0.7754 -1.1270  1.9165
 9254SOL     OW39394   2.522   0.679   4.928  0.7572 -0.4377  0.1635
 9254SOL    HW139395   2.469   0.612   4.972 -1.3000  2.7300  2.4632
 9254SOL    HW239396   2.487   0.666   4.840  0.8156  1.7668 -0.1673
 9255SOL     OW39397   3.921   0.923  12.136 -0.1361  0.2790  0.1998
 9255SOL    HW139398   3.932   0.901  12.043  0.0333  1.3000 -0.0304
 9255SOL    HW239399   3.854   0.991  12.124  0.1173  0.2795 -1.3214
 9256SOL     OW39400   0.138   2.274  11.778 -0.6013 -0.4932  0.0948
 9256SOL    HW139401   0.074   2.234  11.719  0.4693 -1.7342 -0.2004
 9256SOL    HW239402   0.142   2.369  11.767  0.8462 -0.5306  0.4107
 9257SOL     OW39403   0.347   1.816  15.673 -0.7393 -0.0426  0.5471
 9257SOL    HW139404   0.413   1.884  15.663  1.0279 -1.7643  0.3846
 9257SOL    HW239405   0.318   1.835  15.762  0.5648 -0.9312  1.1596
 9258SOL     OW39406   4.589   2.198   5.986  0.6428 -1.2291 -0.2781
 9258SOL    HW139407   4.632   2.125   5.941  1.0090 -1.9353  1.2310
 9258SOL    HW239408   4.511   2.150   6.011 -0.7493  0.4923 -1.2840
 9259SOL     OW39409   0.399   1.063   2.299  0.2574  0.0883 -0.1899
 9259SOL    HW139410   0.432   1.027   2.217  0.1700 -0.4107 -0.0031
 9259SOL    HW239411   0.452   1.016   2.363  1.1466  1.0386 -0.2328
 9260SOL     OW39412   2.155   3.177   9.854 -0.0062 -0.3009  0.2052
 9260SOL    HW139413   2.246   3.155   9.836  0.0181 -0.0997  0.0793
 9260SOL    HW239414   2.135   3.262   9.815 -2.4474 -1.5092 -1.1497
 9261SOL     OW39415   2.864   1.033   1.477 -0.3497 -0.1391  0.0575
 9261SOL    HW139416   2.815   0.965   1.431 -1.3227 -0.5458  1.6888
 9261SOL    HW239417   2.811   1.110   1.458 -0.0895 -0.5269 -2.2522
 9262SOL     OW39418   4.597   3.138   5.337  0.1998  0.1511  0.1083
 9262SOL    HW139419   4.625   3.155   5.427  1.6433 -0.6068 -0.1938
 9262SOL    HW239420   4.576   3.225   5.304  2.1872 -0.4301 -2.6555
 9263SOL     OW39421   1.673   0.391  16.066  0.0304 -0.1236 -0.4751
 9263SOL    HW139422   1.588   0.351  16.087  1.9427 -2.4011  2.8968
 9263SOL    HW239423   1.648   0.483  16.070  1.0667  0.1122  0.4861
 9264SOL     OW39424   4.121   2.739  12.139 -0.0643 -0.2411  0.5148
 9264SOL    HW139425   4.131   2.692  12.222  2.4169  0.5898  0.6928
 9264SOL    HW239426   4.091   2.673  12.077 -0.4228  1.6466 -1.3216
 9265SOL     OW39427   0.459   4.238   5.690  0.0935 -0.4037  0.1887
 9265SOL    HW139428   0.370   4.266   5.711  0.5245  1.4149 -0.3741
 9265SOL    HW239429   0.456   4.237   5.595 -0.8358 -4.2418  0.2709
 9266SOL     OW39430   1.123   3.216   6.718  0.3085 -0.1095 -0.5226
 9266SOL    HW139431   1.191   3.266   6.763 -0.1978 -0.4478  0.6132
 9266SOL    HW239432   1.161   3.129   6.732 -0.4172  0.0609  2.6163
 9267SOL     OW39433   4.413   4.191   2.493  0.1512  0.0476 -0.3685
 9267SOL    HW139434   4.479   4.233   2.438 -1.2541  2.7151  0.0035
 9267SOL    HW239435   4.464   4.117   2.527  0.0095 -0.2965 -0.9092
 9268SOL     OW39436   0.264   0.135   6.657  0.0192 -0.3524  0.6132
 9268SOL    HW139437   0.328   0.130   6.728  0.0818 -1.2913  0.4967
 9268SOL    HW239438   0.260   0.230   6.646 -1.4932 -0.5837 -0.7110
 9269SOL     OW39439   2.742   1.340  12.026 -0.5042  0.0895 -0.5572
 9269SOL    HW139440   2.717   1.248  12.038  0.4043 -0.2369 -1.1586
 9269SOL    HW239441   2.742   1.352  11.931 -0.6652 -2.5282 -0.8885
 9270SOL     OW39442   3.490   0.321  15.481  0.2493  0.2039 -0.6210
 9270SOL    HW139443   3.511   0.229  15.500 -2.0315 -0.2555 -0.2764
 9270SOL    HW239444   3.521   0.325  15.391  0.6774 -3.0868 -0.6341
 9271SOL     OW39445   4.043   3.347   6.884  0.0255  0.1052  0.2700
 9271SOL    HW139446   4.024   3.254   6.880  1.5113 -0.2573  1.7769
 9271SOL    HW239447   4.051   3.370   6.791  0.4672  0.0915  0.3071
 9272SOL     OW39448   3.856   0.736   9.411 -0.1384  0.1744 -0.1154
 9272SOL    HW139449   3.945   0.705   9.389 -0.3603 -0.9605  0.5588
 9272SOL    HW239450   3.806   0.687   9.346 -0.8882 -0.0561  0.6321
 9273SOL     OW39451   0.305   4.383   7.030  0.6482 -0.3687 -0.2651
 9273SOL    HW139452   0.310   4.315   7.097  0.5412 -0.8529 -0.7562
 9273SOL    HW239453   0.232   4.431   7.070 -0.1597 -0.8891 -1.1203
 9274SOL     OW39454   3.241   1.826   0.823  0.1247  0.1737 -0.1471
 9274SOL    HW139455   3.261   1.735   0.800 -4.7738 -1.1137  0.5506
 9274SOL    HW239456   3.221   1.819   0.917 -2.2490  1.1391 -0.5733
 9275SOL     OW39457   2.827   2.268  12.701  0.0901 -0.2643 -0.3692
 9275SOL    HW139458   2.839   2.341  12.641 -2.7881  0.5846  0.0951
 9275SOL    HW239459   2.826   2.189  12.647 -5.1655  0.8684 -1.9075
 9276SOL     OW39460   0.908   3.022   4.561 -0.8053  0.5462  0.1112
 9276SOL    HW139461   0.873   2.971   4.634  0.2636  0.1743  0.3620
 9276SOL    HW239462   0.841   3.007   4.493 -0.9768 -0.3682  0.4781
 9277SOL     OW39463   3.787   1.564   8.615  0.2086  0.2749 -0.1207
 9277SOL    HW139464   3.873   1.607   8.607 -0.3415  1.3989 -0.0854
 9277SOL    HW239465   3.783   1.516   8.698  0.8791  0.6980  0.1598
 9278SOL     OW39466   3.343   1.304   7.167  0.9517  0.1221 -0.1452
 9278SOL    HW139467   3.271   1.356   7.133  0.9995  1.0435  1.1694
 9278SOL    HW239468   3.410   1.370   7.180  0.1401  0.9685 -0.2909
 9279SOL     OW39469   4.052   0.573  15.071  0.2828  0.0732 -0.2730
 9279SOL    HW139470   4.016   0.551  15.156  1.4683  1.8461  0.6905
 9279SOL    HW239471   3.983   0.557  15.005  1.0814 -0.3566 -1.0046
 9280SOL     OW39472   0.236   3.978   1.525  0.0811  0.6652  0.0502
 9280SOL    HW139473   0.196   4.028   1.596  0.3780  1.8742 -0.6280
 9280SOL    HW239474   0.318   3.954   1.569 -1.3196 -1.3425  1.5333
 9281SOL     OW39475   2.035   2.780   5.998  0.2402  0.8020 -0.0446
 9281SOL    HW139476   1.959   2.735   6.034  1.8675 -0.2170  2.1310
 9281SOL    HW239477   2.098   2.711   6.018  1.4629  1.1889 -2.5840
 9282SOL     OW39478   1.928   3.392   8.197  0.0832 -0.2294 -0.2049
 9282SOL    HW139479   1.854   3.415   8.254 -1.1902 -1.9455 -1.1380
 9282SOL    HW239480   1.939   3.471   8.145 -0.9421 -0.7590 -1.2189
 9283SOL     OW39481   4.535   2.332   3.696  0.1706  0.2925 -0.1371
 9283SOL    HW139482   4.549   2.408   3.640 -1.2302  1.4885  1.1473
 9283SOL    HW239483   4.450   2.302   3.666  0.2622 -0.4391  0.3481
 9284SOL     OW39484   0.852   4.037   8.860 -0.0436  0.0229 -0.0065
 9284SOL    HW139485   0.935   4.028   8.906 -0.7512 -0.6725  1.1356
 9284SOL    HW239486   0.879   4.021   8.770  0.5372  1.8546 -0.1608
 9285SOL     OW39487   3.331   0.174   7.813  0.5700 -0.1412  0.5908
 9285SOL    HW139488   3.407   0.188   7.755 -1.4515 -2.3108 -2.5710
 9285SOL    HW239489   3.299   0.101   7.760  0.5250 -0.9505  1.7398
 9286SOL     OW39490   1.971   0.526  13.880 -0.2661 -0.2658  0.4038
 9286SOL    HW139491   2.052   0.476  13.884 -0.3601 -0.5703 -1.9525
 9286SOL    HW239492   1.942   0.511  13.790  0.1492 -0.2579  0.2655
 9287SOL     OW39493   3.842   2.335  10.565  0.2545 -0.0991  0.2002
 9287SOL    HW139494   3.894   2.416  10.567  0.7580 -0.3901 -1.6644
 9287SOL    HW239495   3.855   2.308  10.656  1.6593 -0.9268 -0.2402
 9288SOL     OW39496   2.306   2.250   2.457  0.2980 -0.1886  0.1166
 9288SOL    HW139497   2.366   2.289   2.393 -0.4521 -1.0086 -1.0840
 9288SOL    HW239498   2.335   2.293   2.537 -0.6953  0.4112  0.1564
 9289SOL     OW39499   0.729   3.400   7.659  0.0408  0.0898 -0.3563
 9289SOL    HW139500   0.693   3.335   7.720  0.7243 -0.8848 -0.9812
 9289SOL    HW239501   0.798   3.348   7.617  0.5443 -1.5841  2.4973
 9290SOL     OW39502   1.116   4.005  15.016 -0.3219 -0.1445 -0.1621
 9290SOL    HW139503   1.036   3.951  15.013  0.0429 -0.6380 -1.3385
 9290SOL    HW239504   1.175   3.960  15.077 -0.9211  1.2864  1.4585
 9291SOL     OW39505   4.685   3.943   2.878 -0.0592  0.2478 -0.0952
 9291SOL    HW139506   4.614   3.879   2.879  0.7432 -0.6082  2.0077
 9291SOL    HW239507   4.725   3.929   2.964  1.0553 -1.6012 -0.9149
 9292SOL     OW39508   4.200   3.840  13.687 -0.4798 -0.1540 -0.4942
 9292SOL    HW139509   4.149   3.919  13.672  0.5556  0.7989  0.9535
 9292SOL    HW239510   4.126   3.781  13.676 -0.6243  0.0274 -0.4885
 9293SOL     OW39511   3.159   2.696  14.096 -0.2066 -0.2197 -0.0195
 9293SOL    HW139512   3.120   2.737  14.018 -1.1093 -0.9166  0.0785
 9293SOL    HW239513   3.154   2.775  14.150 -3.7435 -0.3576 -0.1848
 9294SOL     OW39514   2.179   3.836  11.390  0.6014 -0.2611 -0.1327
 9294SOL    HW139515   2.211   3.843  11.480 -1.6710 -0.0669  0.6528
 9294SOL    HW239516   2.232   3.906  11.352 -1.0522  0.3530 -1.2660
 9295SOL     OW39517   3.027   4.517  17.700  0.3982  0.2358  0.1177
 9295SOL    HW139518   3.104   4.523   0.016  0.9155 -0.3498 -0.5322
 9295SOL    HW239519   3.052   4.451  17.635 -2.0054  0.8017 -1.3699
 9296SOL     OW39520   1.309   0.852   3.089  0.1641  0.5522  0.1765
 9296SOL    HW139521   1.304   0.823   3.180  2.5140 -0.6340 -0.0644
 9296SOL    HW239522   1.382   0.914   3.094  0.8884 -0.4247  1.7755
 9297SOL     OW39523   1.087   2.278  14.813 -0.0099  0.0022  0.0041
 9297SOL    HW139524   1.164   2.243  14.857  1.5747  0.4006 -2.4409
 9297SOL    HW239525   1.031   2.201  14.826 -0.3795  0.1547 -0.6700
 9298SOL     OW39526   0.548   4.240   8.503 -0.0278 -0.0379  0.1964
 9298SOL    HW139527   0.504   4.318   8.469  1.2412  0.7043  0.2561
 9298SOL    HW239528   0.556   4.198   8.417  0.7463  1.4461 -0.4526
 9299SOL     OW39529   2.766   2.226   8.777  0.0410  0.7203  0.0380
 9299SOL    HW139530   2.847   2.262   8.812  1.1563 -0.8340 -0.9559
 9299SOL    HW239531   2.755   2.150   8.834  1.7127  0.2018 -0.3396
 9300SOL     OW39532   2.494   1.787   5.169  0.5285  0.1557 -0.1918
 9300SOL    HW139533   2.477   1.697   5.142  0.1559  0.2936 -0.4261
 9300SOL    HW239534   2.551   1.821   5.101 -0.3007 -0.7488 -1.3374
 9301SOL     OW39535   1.495   2.777  12.119 -0.7795  0.2568 -0.1966
 9301SOL    HW139536   1.404   2.759  12.097  0.2022 -1.3491 -2.8656
 9301SOL    HW239537   1.490   2.775  12.215  1.5602 -0.7150 -0.1018
 9302SOL     OW39538   2.987   0.102   1.977 -0.5626  0.1501  0.0417
 9302SOL    HW139539   3.081   0.101   1.995 -0.7021 -0.6896  0.7207
 9302SOL    HW239540   2.952   0.121   2.064 -0.0352 -0.3895  0.3729
 9303SOL     OW39541   3.500   0.617   2.367  0.1479 -0.1470 -0.0586
 9303SOL    HW139542   3.460   0.609   2.453  0.7750 -0.6480  0.1776
 9303SOL    HW239543   3.468   0.533   2.336  2.4039 -0.3062 -1.9761
 9304SOL     OW39544   2.545   0.887   1.631  0.3843 -0.2080 -0.2485
 9304SOL    HW139545   2.525   0.973   1.595  1.5826  0.2634  0.2080
 9304SOL    HW239546   2.578   0.904   1.719 -0.3329 -1.7497  0.3140
 9305SOL     OW39547   2.087   4.114  16.945 -0.0802  0.1363  0.1404
 9305SOL    HW139548   2.093   4.114  16.850  1.6395  1.7246  0.2425
 9305SOL    HW239549   2.090   4.208  16.964 -1.9418  0.2160  0.0652
 9306SOL     OW39550   3.164   3.818   8.933 -0.0356  0.1252  0.2710
 9306SOL    HW139551   3.098   3.793   8.997  0.5086  1.3188  1.3086
 9306SOL    HW239552   3.116   3.877   8.875 -0.8014  0.9064  1.7144
 9307SOL     OW39553   0.116   4.659   5.407 -0.6273 -1.1368 -0.3611
 9307SOL    HW139554   0.133   4.651   5.313  0.5700  0.1263 -0.2571
 9307SOL    HW239555   0.100   0.018   5.402  0.9151 -0.9146 -1.1671
 9308SOL     OW39556   4.333   3.404   6.079 -0.5830 -0.0659 -0.5563
 9308SOL    HW139557   4.263   3.468   6.091 -0.4796 -0.6550  3.1130
 9308SOL    HW239558   4.287   3.322   6.065 -0.2154 -0.3015 -0.3942
 9309SOL     OW39559   3.831   4.723   4.533 -0.2267  0.2663 -0.0135
 9309SOL    HW139560   3.761   4.731   4.468 -0.4045 -3.6439 -0.3292
 9309SOL    HW239561   3.871   0.074   4.529 -0.5469  0.3497 -1.6136
 9310SOL     OW39562   0.307   1.788   3.570  0.3635  0.0488 -1.0120
 9310SOL    HW139563   0.347   1.874   3.576  0.1346  0.0682  0.3111
 9310SOL    HW239564   0.360   1.722   3.615 -0.2091 -1.1213 -2.0404
 9311SOL     OW39565   2.929   0.378   6.827 -0.3265 -0.6896  0.2455
 9311SOL    HW139566   2.930   0.336   6.913  0.2204  0.2767  0.7098
 9311SOL    HW239567   3.010   0.347   6.787 -0.1849  0.0960 -0.0762
 9312SOL     OW39568   0.860   1.487  17.587  0.4530 -0.6216 -0.3174
 9312SOL    HW139569   0.828   1.515  17.502 -1.4471 -0.4959  0.4293
 9312SOL    HW239570   0.955   1.501  17.588  0.4373 -0.5155 -0.3392
 9313SOL     OW39571   0.440   3.350   2.470  0.0368  0.6090  0.2574
 9313SOL    HW139572   0.459   3.442   2.452 -4.0317  1.5097  0.7156
 9313SOL    HW239573   0.531   3.340   2.499 -0.1240 -1.1593  0.1533
 9314SOL     OW39574   4.615   0.492   3.542  0.1049 -0.1562  0.1315
 9314SOL    HW139575   4.702   0.500   3.504  0.4565 -2.7439  0.4322
 9314SOL    HW239576   4.561   0.564   3.509  0.4927 -0.3256 -0.8650
 9315SOL     OW39577   1.235   1.886  13.832  0.3802 -0.2222 -0.2095
 9315SOL    HW139578   1.165   1.951  13.837  1.2561  0.7395 -0.4177
 9315SOL    HW239579   1.257   1.868  13.924  1.7981 -2.1719 -0.9379
 9316SOL     OW39580   0.224   0.647   4.819  0.4613 -0.4498 -0.5746
 9316SOL    HW139581   0.186   0.589   4.753 -0.1723 -0.5757 -0.1073
 9316SOL    HW239582   0.197   0.609   4.902 -1.7523  1.4600 -0.4160
 9317SOL     OW39583   0.711   1.573   7.228  0.1395 -0.5579 -0.1745
 9317SOL    HW139584   0.706   1.488   7.272 -1.0888 -0.1124  0.5626
 9317SOL    HW239585   0.793   1.612   7.257 -0.4966  0.0165  0.8707
 9318SOL     OW39586   3.050   2.804   8.428 -0.1684  1.0122 -0.5998
 9318SOL    HW139587   3.036   2.821   8.522  1.4495  0.3456 -0.2369
 9318SOL    HW239588   3.131   2.849   8.406 -1.5951  2.7825 -2.2486
 9319SOL     OW39589   0.981   1.755   5.140  0.8935  0.3920 -0.3484
 9319SOL    HW139590   0.967   1.808   5.062  2.0828  0.4169 -0.5458
 9319SOL    HW239591   1.040   1.814   5.188  0.2044  0.8879 -0.1109
 9320SOL     OW39592   3.612   1.128   1.618  0.1964 -0.1340  0.2485
 9320SOL    HW139593   3.598   1.219   1.646 -0.9098 -0.2343  0.0394
 9320SOL    HW239594   3.525   1.106   1.584  0.8626 -0.4823 -1.2259
 9321SOL     OW39595   0.566   1.453   5.324 -0.0244 -0.1058 -0.3371
 9321SOL    HW139596   0.607   1.534   5.295 -2.1099  1.6099  1.5394
 9321SOL    HW239597   0.489   1.487   5.370 -0.4347 -1.4720 -0.0070
 9322SOL     OW39598   2.613   0.654   4.041  0.4292  0.2614 -0.4469
 9322SOL    HW139599   2.637   0.562   4.053 -0.5443  0.1279  0.5426
 9322SOL    HW239600   2.547   0.665   4.110  1.1322 -3.8914  0.8522
 9323SOL     OW39601   2.189   3.359   2.653  0.0562  0.4124  0.2378
 9323SOL    HW139602   2.219   3.401   2.734 -0.9984  1.9183 -0.1524
 9323SOL    HW239603   2.256   3.375   2.587 -0.3480  0.2413 -0.2113
 9324SOL     OW39604   1.758   2.201   2.000 -0.6116 -0.0148 -0.0039
 9324SOL    HW139605   1.839   2.248   1.984 -0.1489 -1.4882 -2.0076
 9324SOL    HW239606   1.711   2.197   1.917 -2.3600  1.1780  0.9238
 9325SOL     OW39607   3.109   1.978  16.945 -0.1607  0.0255  0.6616
 9325SOL    HW139608   3.149   2.053  16.988  1.6056 -1.4245  1.5960
 9325SOL    HW239609   3.179   1.923  16.907 -0.8131 -2.5106  3.1176
 9326SOL     OW39610   2.391   3.213  16.383  0.2679  0.2828 -0.5210
 9326SOL    HW139611   2.360   3.294  16.342  0.3713 -0.1285 -1.4082
 9326SOL    HW239612   2.456   3.254  16.440  0.5955 -2.0293  0.7442
 9327SOL     OW39613   3.495   3.471   2.602 -0.0140 -0.2984 -0.4304
 9327SOL    HW139614   3.565   3.528   2.633  0.0803 -1.2562  1.1100
 9327SOL    HW239615   3.431   3.500   2.667 -0.0677  1.3291 -1.2054
 9328SOL     OW39616   3.051   1.410   6.459 -0.1394 -0.1425 -0.3405
 9328SOL    HW139617   3.145   1.404   6.439 -0.3132  0.6598 -1.3746
 9328SOL    HW239618   3.036   1.503   6.470 -1.0069 -0.3253 -0.0042
 9329SOL     OW39619   2.735   2.200  17.270  0.2206  0.1461  0.3904
 9329SOL    HW139620   2.795   2.237  17.205 -1.4294 -0.7252 -1.6118
 9329SOL    HW239621   2.768   2.208  17.360 -1.1868  0.1867  0.9085
 9330SOL     OW39622   1.745   2.243   5.342 -0.1268 -0.1454 -0.1563
 9330SOL    HW139623   1.669   2.228   5.285 -1.8196  2.8864  1.3601
 9330SOL    HW239624   1.735   2.328   5.383 -1.7525 -0.7631  0.7313
 9331SOL     OW39625   0.492   0.413  16.055  0.4878 -0.2038 -0.2968
 9331SOL    HW139626   0.437   0.357  16.109 -0.7160  1.0516 -0.2200
 9331SOL    HW239627   0.448   0.423  15.971  1.7797 -0.5905 -1.0080
 9332SOL     OW39628   1.278   1.570   8.144  0.0013  0.0760 -0.3030
 9332SOL    HW139629   1.217   1.583   8.071 -0.8313  1.4680  0.6431
 9332SOL    HW239630   1.258   1.479   8.168  2.5726  0.0545  1.7013
 9333SOL     OW39631   3.901   4.589   2.530  0.3640  0.2918  0.7935
 9333SOL    HW139632   3.942   4.514   2.488  1.0731  0.7550  0.6559
 9333SOL    HW239633   3.944   4.667   2.493  2.2197  0.1862  2.7575
 9334SOL     OW39634   2.781   2.371   3.509 -0.3552  0.6327  0.4206
 9334SOL    HW139635   2.728   2.294   3.530 -0.2603  0.1864 -0.9890
 9334SOL    HW239636   2.853   2.355   3.570  1.4055  1.3274 -1.4625
 9335SOL     OW39637   1.490   0.966   1.824  0.1794  0.2580  0.3453
 9335SOL    HW139638   1.579   0.979   1.858  0.4661  0.2750 -0.4250
 9335SOL    HW239639   1.507   0.994   1.735  2.1059 -2.1210 -0.0344
 9336SOL     OW39640   2.278   1.402   6.303 -0.6063  0.3432 -0.2888
 9336SOL    HW139641   2.340   1.460   6.347 -0.1072  0.3106 -0.9561
 9336SOL    HW239642   2.309   1.413   6.214 -0.1305  2.6401  0.1699
 9337SOL     OW39643   1.491   3.686  12.331 -0.1930  0.1471 -0.2166
 9337SOL    HW139644   1.417   3.664  12.387  0.1476 -1.4286 -0.3994
 9337SOL    HW239645   1.498   3.781  12.346  2.5901 -0.3169  1.3305
 9338SOL     OW39646   0.236   1.300   5.192 -0.2810 -0.1965 -0.6125
 9338SOL    HW139647   0.269   1.373   5.244  0.6743 -1.6872  0.8799
 9338SOL    HW239648   0.197   1.247   5.261  0.0738  0.7295  0.2912
 9339SOL     OW39649   4.704   4.208   8.521 -0.2545 -0.0045 -0.1811
 9339SOL    HW139650   4.643   4.134   8.523 -0.0474 -0.1187  1.4563
 9339SOL    HW239651   0.054   4.166   8.513 -0.2651  0.2553 -1.7063
 9340SOL     OW39652   1.878   3.020   8.397  0.5235  0.3331 -0.5288
 9340SOL    HW139653   1.818   2.986   8.331 -1.3934  0.9046  0.9117
 9340SOL    HW239654   1.963   3.031   8.354  0.7981  0.4516  0.0343
 9341SOL     OW39655   1.020   1.469  16.047 -0.4687  0.2642 -0.3376
 9341SOL    HW139656   1.077   1.476  15.970  1.3059  1.8087  1.1085
 9341SOL    HW239657   0.942   1.420  16.021 -1.8176  1.0921  2.1938
 9342SOL     OW39658   2.667   1.226   6.942  0.1275  0.4294  0.5451
 9342SOL    HW139659   2.584   1.254   6.904  0.2043 -0.0409  0.0301
 9342SOL    HW239660   2.709   1.301   6.983  3.5785 -0.3946 -1.4005
 9343SOL     OW39661   3.307   4.633   4.821 -0.2604  0.2049 -0.2119
 9343SOL    HW139662   3.239   4.646   4.886 -1.6090 -0.2237 -1.5311
 9343SOL    HW239663   3.327   4.541   4.840  2.3697  0.9837  0.7507
 9344SOL     OW39664   3.758   4.221  16.930 -0.3810 -0.2272  0.5928
 9344SOL    HW139665   3.746   4.140  16.978  0.2142 -0.3481  0.5363
 9344SOL    HW239666   3.833   4.194  16.876 -1.8587  1.4450 -2.3154
 9345SOL     OW39667   3.517   4.508   5.424  0.7801  0.3187  0.2475
 9345SOL    HW139668   3.488   4.421   5.452 -0.3783  0.9334  0.9631
 9345SOL    HW239669   3.498   4.560   5.502  0.4401 -0.2756  0.5640
 9346SOL     OW39670   1.658   3.267   8.971  0.3904 -0.2755 -0.2420
 9346SOL    HW139671   1.711   3.261   8.892 -0.5444  1.7389 -1.0290
 9346SOL    HW239672   1.572   3.279   8.929  0.6974 -0.8870 -1.0427
 9347SOL     OW39673   4.041   0.445   8.895 -0.0714 -0.0883  0.1203
 9347SOL    HW139674   3.988   0.366   8.898  0.8098 -0.6907 -0.2660
 9347SOL    HW239675   4.105   0.411   8.958 -1.1133 -0.6886  0.8605
 9348SOL     OW39676   0.428   3.946   4.623  0.4459  0.0516  0.1338
 9348SOL    HW139677   0.457   3.863   4.587 -0.2312  0.5838 -1.6340
 9348SOL    HW239678   0.334   3.927   4.624  0.5915 -0.6221  1.1766
 9349SOL     OW39679   0.674   2.593   7.488  0.2687 -0.0772  0.7473
 9349SOL    HW139680   0.725   2.515   7.465 -0.3272  0.0387 -0.9521
 9349SOL    HW239681   0.647   2.628   7.403 -1.5067  1.8108  2.1003
 9350SOL     OW39682   1.718   1.081   2.493 -0.0043  0.0192 -0.4421
 9350SOL    HW139683   1.640   1.136   2.498  1.8319  2.6211 -0.2066
 9350SOL    HW239684   1.760   1.108   2.411 -0.9391 -3.6253 -2.1504
 9351SOL     OW39685   2.247   1.148   4.390 -0.1354 -0.8875  0.2982
 9351SOL    HW139686   2.247   1.242   4.409  1.3393 -0.6548 -0.8720
 9351SOL    HW239687   2.218   1.137   4.299  0.4983  1.2842 -0.1836
 9352SOL     OW39688   2.260   3.167   7.450  0.5438 -0.3553 -0.3517
 9352SOL    HW139689   2.213   3.248   7.468  0.5744 -0.3007 -0.5105
 9352SOL    HW239690   2.201   3.094   7.470  2.4763 -1.4014  1.5070
 9353SOL     OW39691   1.444   2.081  13.782  0.2661 -0.9438  0.4668
 9353SOL    HW139692   1.423   2.137  13.857  2.0242 -2.3083  2.0049
 9353SOL    HW239693   1.440   1.996  13.827 -1.5978 -1.2150 -0.1978
 9354SOL     OW39694   3.347   1.607   0.971  0.0862 -0.3357  0.1146
 9354SOL    HW139695   3.428   1.625   1.018 -0.3550  1.5479  0.1683
 9354SOL    HW239696   3.277   1.650   1.021 -0.5253  0.6263 -1.5602
 9355SOL     OW39697   4.159   2.712   7.134 -0.3719  0.7999  0.4246
 9355SOL    HW139698   4.132   2.649   7.067  1.7811 -1.4020  1.6106
 9355SOL    HW239699   4.097   2.781   7.111 -0.5261  0.5033 -0.0470
 9356SOL     OW39700   0.710   3.407   7.067  0.0838  0.4616 -0.2854
 9356SOL    HW139701   0.780   3.349   7.038 -0.0076  0.1493  0.1291
 9356SOL    HW239702   0.718   3.408   7.162 -0.5339 -0.7636 -0.2235
 9357SOL     OW39703   4.226   2.625   2.213 -0.1015 -0.4410  0.6694
 9357SOL    HW139704   4.176   2.707   2.210 -0.4249 -0.6876 -0.7404
 9357SOL    HW239705   4.152   2.564   2.207 -0.0885 -0.3680 -0.2178
 9358SOL     OW39706   1.195   4.685   9.579  0.1033  0.0115 -0.4547
 9358SOL    HW139707   1.222   4.722   9.495  0.6791 -0.0566 -0.3002
 9358SOL    HW239708   1.255   4.611   9.588 -0.9980 -0.7458  0.6273
 9359SOL     OW39709   2.084   1.591   0.061 -0.0242 -0.3360 -0.1014
 9359SOL    HW139710   2.094   1.576   0.155 -1.4207  0.8581  0.2449
 9359SOL    HW239711   2.128   1.510   0.036  0.3231  0.3943 -1.8132
 9360SOL     OW39712   2.900   4.416   6.870 -0.1467  0.0197 -0.5834
 9360SOL    HW139713   2.905   4.323   6.892 -1.5483 -0.1442 -0.9462
 9360SOL    HW239714   2.916   4.452   6.957 -1.9873 -2.0441  0.6029
 9361SOL     OW39715   4.415   3.277  11.517  0.1466 -0.4867  0.4294
 9361SOL    HW139716   4.369   3.357  11.493 -2.2770 -2.1334 -0.4751
 9361SOL    HW239717   4.357   3.212  11.476 -0.6351  0.8633 -0.6057
 9362SOL     OW39718   1.585   3.557   7.992  0.3297  0.1062  0.1104
 9362SOL    HW139719   1.605   3.555   8.085  0.8468  2.7622  0.0625
 9362SOL    HW239720   1.581   3.651   7.972 -0.1806 -0.2206 -1.3725
 9363SOL     OW39721   4.724   1.339  16.480  0.2767 -0.0014  0.9995
 9363SOL    HW139722   4.655   1.288  16.523 -0.5793  0.4015  0.0994
 9363SOL    HW239723   0.015   1.283  16.407 -0.3374  0.1511  0.6588
 9364SOL     OW39724   2.755   3.504   4.002 -0.2922  0.0383 -0.0227
 9364SOL    HW139725   2.698   3.554   4.061  1.7252  0.1481  1.8421
 9364SOL    HW239726   2.829   3.564   3.997  0.3146 -0.7071 -0.0297
 9365SOL     OW39727   1.273   1.838  11.849 -0.1105 -0.3430 -0.3994
 9365SOL    HW139728   1.261   1.901  11.778 -0.7242 -0.9725 -0.8542
 9365SOL    HW239729   1.237   1.756  11.814 -0.6596 -0.3963  0.3001
 9366SOL     OW39730   3.355   2.642   9.943  0.4338 -0.4612 -0.3695
 9366SOL    HW139731   3.422   2.658  10.009  0.1519 -1.4062  0.1467
 9366SOL    HW239732   3.406   2.641   9.862 -1.1763 -1.4553 -1.3738
 9367SOL     OW39733   0.048   3.230  12.921  0.1972  0.1292  0.0261
 9367SOL    HW139734   0.107   3.198  12.989  0.4617  2.7964  1.0629
 9367SOL    HW239735   0.045   3.325  12.933 -2.7492  0.1008 -0.4175
 9368SOL     OW39736   4.331   3.484  12.385 -0.2542 -0.1104  0.3608
 9368SOL    HW139737   4.331   3.566  12.434 -1.3007  0.5038 -0.6672
 9368SOL    HW239738   4.283   3.430  12.448  1.4149 -2.1614 -0.1016
 9369SOL     OW39739   1.676   2.225   4.334  0.3472  0.0683 -0.0215
 9369SOL    HW139740   1.584   2.197   4.337  0.5029 -0.5461 -1.3204
 9369SOL    HW239741   1.674   2.302   4.391  1.9262  0.4063 -0.4187
 9370SOL     OW39742   1.716   3.309   7.937  0.8559  0.2107  0.4526
 9370SOL    HW139743   1.671   3.391   7.958  1.2768  0.5768 -0.0878
 9370SOL    HW239744   1.715   3.272   8.025 -2.1961  0.6046  0.5692
 9371SOL     OW39745   3.959   4.040  11.229 -0.2929  0.1141 -0.2445
 9371SOL    HW139746   3.999   3.959  11.199  0.9871 -0.9320  4.2683
 9371SOL    HW239747   3.872   4.007  11.252 -0.2542 -0.0405 -0.3236
 9372SOL     OW39748   1.919   0.640   2.662  0.4343 -0.3849  0.1435
 9372SOL    HW139749   1.948   0.717   2.712 -0.3715  0.2041 -0.3005
 9372SOL    HW239750   1.827   0.659   2.645  0.3020  0.1660  1.4629
 9373SOL     OW39751   2.281   1.129  10.369 -0.7792  0.1353  0.3220
 9373SOL    HW139752   2.291   1.050  10.316 -1.8509 -0.6811  1.3583
 9373SOL    HW239753   2.346   1.109  10.437 -1.5051 -1.4655  0.5520
 9374SOL     OW39754   3.637   1.282  13.582  0.2249 -0.1788 -0.0736
 9374SOL    HW139755   3.645   1.205  13.639  1.9934 -0.6645 -1.0068
 9374SOL    HW239756   3.727   1.313  13.591 -0.7955  3.0785 -1.2510
 9375SOL     OW39757   3.214   2.454   7.112 -0.4237 -0.0672  0.2712
 9375SOL    HW139758   3.123   2.457   7.082 -0.6616 -0.0261  0.9924
 9375SOL    HW239759   3.206   2.451   7.207 -1.1785  0.4542  0.2233
 9376SOL     OW39760   0.339   3.510   6.550  0.6977  0.0360  0.5851
 9376SOL    HW139761   0.274   3.556   6.497  1.7340 -1.2455 -1.7857
 9376SOL    HW239762   0.290   3.428   6.562  1.2850 -0.4606 -0.4645
 9377SOL     OW39763   3.510   0.976  11.836  0.1090 -0.0838  0.5233
 9377SOL    HW139764   3.502   1.034  11.760  2.5280 -2.7660 -1.7946
 9377SOL    HW239765   3.425   0.979  11.880  0.4929 -0.5025  1.3048
 9378SOL     OW39766   2.376   1.500  15.191 -0.0071  0.4846 -0.2810
 9378SOL    HW139767   2.463   1.466  15.173  0.9563  1.3713  2.6762
 9378SOL    HW239768   2.365   1.464  15.280  2.0072  1.0094  0.1681
 9379SOL     OW39769   4.729   4.557  16.951  0.1287 -0.0048 -0.0174
 9379SOL    HW139770   0.034   4.546  16.865 -0.4809  2.9638 -0.6964
 9379SOL    HW239771   4.639   4.547  16.919  0.5274 -2.4138 -0.3404
 9380SOL     OW39772   3.619   1.610   1.128  0.2122  0.2314  0.3726
 9380SOL    HW139773   3.704   1.567   1.142 -1.4398 -4.0838 -2.8430
 9380SOL    HW239774   3.649   1.700   1.134 -2.0910  0.9193  1.3339
 9381SOL     OW39775   3.861   1.542   1.971 -0.3468  0.0519  0.3482
 9381SOL    HW139776   3.792   1.609   1.971 -0.7864 -0.3878 -0.6391
 9381SOL    HW239777   3.895   1.549   2.060 -0.7377  2.7668  0.2836
 9382SOL     OW39778   0.227   1.184   4.002  0.3900  0.5008 -0.0367
 9382SOL    HW139779   0.183   1.238   3.937 -2.4656  0.6076  2.0162
 9382SOL    HW239780   0.233   1.245   4.075  1.8167  0.7808 -0.3820
 9383SOL     OW39781   0.020   0.112   9.785  0.2982 -0.7020  0.0497
 9383SOL    HW139782   0.110   0.092   9.759  0.2282  0.4259 -1.0523
 9383SOL    HW239783   0.008   0.198   9.746  2.2427 -2.2093 -3.9040
 9384SOL     OW39784   1.782   2.941   5.521 -0.2613 -0.5320  0.2263
 9384SOL    HW139785   1.695   2.902   5.523  0.0932 -1.3348  0.0336
 9384SOL    HW239786   1.795   2.957   5.614 -4.5834 -0.1054  0.7280
 9385SOL     OW39787   2.123   4.351  10.018 -0.2454 -0.0136 -0.5375
 9385SOL    HW139788   2.076   4.270  10.037  1.0778 -0.7572 -0.4409
 9385SOL    HW239789   2.204   4.324   9.975  0.2237  1.3871 -0.5461
 9386SOL     OW39790   1.112   3.732   4.109  0.6516 -0.1439  0.3762
 9386SOL    HW139791   1.071   3.812   4.142 -0.3281 -0.4277 -0.1703
 9386SOL    HW239792   1.078   3.670   4.174  0.5838  1.2140  1.6243
 9387SOL     OW39793   2.561   3.014   1.445  0.0002  0.6530 -0.6439
 9387SOL    HW139794   2.637   3.051   1.400  0.9461  0.2034  0.5599
 9387SOL    HW239795   2.583   2.926   1.477 -1.5225 -0.3740 -2.3613
 9388SOL     OW39796   3.156   1.642   3.357  0.7545  0.6680 -0.1566
 9388SOL    HW139797   3.218   1.571   3.344 -0.8243 -0.9181  0.9300
 9388SOL    HW239798   3.094   1.609   3.292  1.1920 -4.0398  1.8490
 9389SOL     OW39799   2.849   0.611   7.296 -0.0389  0.5524 -0.4654
 9389SOL    HW139800   2.814   0.522   7.302  0.5741  0.2090 -1.9800
 9389SOL    HW239801   2.900   0.609   7.377 -0.8410 -1.4921 -0.0126
 9390SOL     OW39802   3.254   3.504  13.532  0.0245  0.2111  0.5810
 9390SOL    HW139803   3.267   3.445  13.607  0.8278  0.9485  1.0307
 9390SOL    HW239804   3.266   3.593  13.566 -0.1064 -0.1509  1.5867
 9391SOL     OW39805   0.793   3.994   1.817  0.5037  0.1746  0.4224
 9391SOL    HW139806   0.856   3.937   1.773  0.0063  0.3147 -0.4749
 9391SOL    HW239807   0.742   4.046   1.754 -1.6198 -0.8781  1.2560
 9392SOL     OW39808   0.762   1.266   1.282  0.0275  0.0386  0.2636
 9392SOL    HW139809   0.813   1.347   1.276 -0.4692  0.2735 -0.8082
 9392SOL    HW239810   0.751   1.255   1.187  0.5136 -0.8629  0.3111
 9393SOL     OW39811   2.131   1.704   2.529 -0.4852  0.0048 -0.6359
 9393SOL    HW139812   2.051   1.720   2.578 -0.3940  0.1024 -0.5193
 9393SOL    HW239813   2.117   1.758   2.451 -1.5698 -0.4325 -0.7409
 9394SOL     OW39814   3.482   1.274  16.145  0.5223 -0.4914  0.0979
 9394SOL    HW139815   3.535   1.208  16.100 -0.0400  0.9586 -2.7343
 9394SOL    HW239816   3.530   1.284  16.227  2.5117 -1.3992 -0.9548
 9395SOL     OW39817   4.560   2.566   1.884 -0.1277  0.3129 -0.1604
 9395SOL    HW139818   4.512   2.585   1.804  0.3042 -1.6397 -0.8776
 9395SOL    HW239819   4.483   2.588   1.937  1.1905  2.2541  0.9715
 9396SOL     OW39820   3.920   1.921   2.170  0.0864  0.5174  0.0119
 9396SOL    HW139821   3.960   2.008   2.166  0.4597  0.3007 -1.2779
 9396SOL    HW239822   3.991   1.862   2.194  0.0709 -1.0413 -3.6311
 9397SOL     OW39823   2.065   4.019   4.311 -0.3237 -0.1576  0.0217
 9397SOL    HW139824   2.112   3.954   4.362  0.9158  0.2735 -0.5778
 9397SOL    HW239825   1.975   3.997   4.335 -0.4475  1.0673  0.7150
 9398SOL     OW39826   2.693   3.098   0.875 -1.0547  0.1593 -0.4395
 9398SOL    HW139827   2.666   3.102   0.966  0.1756  0.8025 -0.1027
 9398SOL    HW239828   2.700   3.192   0.861 -2.6373  0.4153  0.4822
 9399SOL     OW39829   0.103   2.145   6.731  0.2222  0.4036 -0.1329
 9399SOL    HW139830   0.075   2.207   6.799 -1.1041  0.7229 -0.9683
 9399SOL    HW239831   0.076   2.210   6.666  0.2850 -0.4122 -0.9622
 9400SOL     OW39832   1.485   3.660   5.858  0.7798  0.4561 -0.4873
 9400SOL    HW139833   1.574   3.636   5.833  1.0741  1.0883 -0.0409
 9400SOL    HW239834   1.494   3.680   5.951 -2.5835  1.8913 -0.4449
 9401SOL     OW39835   3.794   3.530   4.060  0.2335  0.3297 -0.2187
 9401SOL    HW139836   3.704   3.561   4.073 -0.0612 -0.7307  0.2586
 9401SOL    HW239837   3.781   3.482   3.978 -0.9746  0.2657  0.0087
 9402SOL     OW39838   3.160   1.653  13.293  0.2457 -0.3034 -0.2685
 9402SOL    HW139839   3.248   1.616  13.282  0.0919 -0.0704 -2.2932
 9402SOL    HW239840   3.169   1.693  13.379 -0.5353 -2.3641  0.7603
 9403SOL     OW39841   3.965   0.750  11.883  0.8734  0.2524  0.1024
 9403SOL    HW139842   3.873   0.724  11.871  1.2029 -0.0007 -1.8473
 9403SOL    HW239843   4.002   0.672  11.924  1.8624  0.7600  0.1802
 9404SOL     OW39844   1.819   4.184   2.564  0.1401 -0.2580 -0.7218
 9404SOL    HW139845   1.831   4.122   2.637 -0.8491  0.9513  0.4855
 9404SOL    HW239846   1.828   4.128   2.487 -1.4587 -0.0987 -1.0341
 9405SOL     OW39847   0.671   2.699   4.949  0.0094 -0.0853 -0.5675
 9405SOL    HW139848   0.764   2.710   4.969  0.3169 -1.0186 -1.5378
 9405SOL    HW239849   0.660   2.626   5.009 -0.8885 -0.8363 -1.6443
 9406SOL     OW39850   4.719   2.420   3.141  0.6531 -0.0244 -0.8576
 9406SOL    HW139851   0.058   2.468   3.175  1.2711 -1.5567 -0.0390
 9406SOL    HW239852   0.014   2.371   3.064  0.4434 -0.8629 -0.4127
 9407SOL     OW39853   0.768   3.642  10.175  0.3181  0.3807 -0.3227
 9407SOL    HW139854   0.844   3.594  10.208 -2.1808 -3.3925  0.0533
 9407SOL    HW239855   0.724   3.569  10.131  1.0124 -0.5393  0.5185
 9408SOL     OW39856   4.577   3.806  11.973 -0.5877  0.0810 -1.0264
 9408SOL    HW139857   4.619   3.884  12.010 -1.2616  0.4365 -1.0161
 9408SOL    HW239858   4.554   3.770  12.059  3.5013  1.6411  0.7156
 9409SOL     OW39859   0.645   3.885   7.686  0.3250  0.3012  0.0526
 9409SOL    HW139860   0.682   3.816   7.741 -0.8209 -1.1189 -0.9235
 9409SOL    HW239861   0.561   3.840   7.672  0.7971 -0.0975 -1.5510
 9410SOL     OW39862   2.039   4.117   2.872  0.1394  0.0613 -0.1594
 9410SOL    HW139863   2.131   4.140   2.856 -0.2967  0.9178 -1.4325
 9410SOL    HW239864   2.016   4.155   2.957 -2.0074  0.5885 -0.9718
 9411SOL     OW39865   2.382   1.986   2.577  0.5875  0.3816  0.1527
 9411SOL    HW139866   2.437   2.021   2.647  0.7773  1.0186 -0.3151
 9411SOL    HW239867   2.367   2.065   2.526  0.4595  0.5962  0.5335
 9412SOL     OW39868   4.734   3.366   6.465 -0.7314 -0.0189 -0.6577
 9412SOL    HW139869   0.029   3.457   6.461 -0.8971  0.0439 -0.5354
 9412SOL    HW239870   0.082   3.324   6.486 -0.2360  1.1764 -0.2074
 9413SOL     OW39871   2.575   0.134   5.438 -0.0969 -0.3889 -0.9508
 9413SOL    HW139872   2.559   0.062   5.376 -1.4211 -2.3464  1.6683
 9413SOL    HW239873   2.659   0.176   5.420  0.3705 -1.2418 -0.7806
 9414SOL     OW39874   4.687   3.625  17.054  0.1910 -0.2309  0.3297
 9414SOL    HW139875   4.595   3.631  17.080 -0.3947 -1.6246 -1.4282
 9414SOL    HW239876   4.732   3.631  17.138 -2.0067  1.3982  1.4039
 9415SOL     OW39877   1.698   3.363   2.471  0.1568 -0.1106 -0.6232
 9415SOL    HW139878   1.692   3.448   2.515 -2.7693 -0.1965 -0.8677
 9415SOL    HW239879   1.788   3.367   2.438  0.3603  0.5287 -0.0034
 9416SOL     OW39880   0.206   0.600   8.730  0.1294  0.0140 -0.0344
 9416SOL    HW139881   0.214   0.692   8.755  1.3166 -0.8187  2.6245
 9416SOL    HW239882   0.223   0.599   8.635 -0.7254 -0.9646 -0.1778
 9417SOL     OW39883   0.048   4.275   5.407 -0.4425  0.4620  0.1940
 9417SOL    HW139884   0.045   4.285   5.312  0.7293  2.2375  0.3492
 9417SOL    HW239885   0.013   4.187   5.420  1.0957  0.2427  2.8437
 9418SOL     OW39886   1.449   3.616   1.272 -0.0045  0.1052 -0.3706
 9418SOL    HW139887   1.434   3.535   1.322  1.8781  1.2493  2.0839
 9418SOL    HW239888   1.540   3.603   1.244 -0.8156 -0.8920 -2.5629
 9419SOL     OW39889   1.256   3.231   5.897  0.0066 -0.2017 -0.4158
 9419SOL    HW139890   1.270   3.219   5.804 -0.5332 -0.9391 -0.3990
 9419SOL    HW239891   1.244   3.326   5.898 -3.0660 -0.5799 -2.9752
 9420SOL     OW39892   3.256   4.527  17.035  0.0727 -0.3435  0.6468
 9420SOL    HW139893   3.268   4.536  17.130  0.9305 -0.4806  0.5516
 9420SOL    HW239894   3.228   4.437  17.023 -1.9808  0.6872 -2.1275
 9421SOL     OW39895   3.135   1.264   1.175  0.3118  0.5269  0.6500
 9421SOL    HW139896   3.111   1.308   1.094  1.4359 -2.2712 -1.2008
 9421SOL    HW239897   3.129   1.175   1.141  1.1864  0.3394  0.9695
 9422SOL     OW39898   4.547   4.139   7.889  0.1791  0.4705 -0.2278
 9422SOL    HW139899   4.584   4.050   7.884  0.0654  0.4533 -0.7204
 9422SOL    HW239900   4.513   4.148   7.801 -0.8146 -1.1978 -0.0121
 9423SOL     OW39901   2.897   3.010  13.295  0.4578 -0.1020  0.1557
 9423SOL    HW139902   2.934   3.093  13.264  0.0801 -0.2963 -0.8322
 9423SOL    HW239903   2.910   3.016  13.389  0.7198 -0.4469  0.1408
 9424SOL     OW39904   1.038   0.869  14.510 -0.2288 -0.4840  0.1500
 9424SOL    HW139905   1.098   0.859  14.436 -0.1915  0.2111  0.0932
 9424SOL    HW239906   0.954   0.857  14.466 -1.2332  4.8959  0.6511
 9425SOL     OW39907   3.613   4.545   1.301  0.4283  0.1136 -0.3322
 9425SOL    HW139908   3.601   4.512   1.390  0.2024  1.8891  0.2856
 9425SOL    HW239909   3.541   4.607   1.296 -0.6037 -1.2099 -1.7149
 9426SOL     OW39910   3.017   2.745   2.672  0.8586 -0.1692 -0.4249
 9426SOL    HW139911   3.071   2.821   2.648  1.5234  0.9212  4.6298
 9426SOL    HW239912   2.926   2.770   2.660  0.6468 -0.6067  0.2703
 9427SOL     OW39913   0.635   2.550   3.766 -0.2901 -0.3381 -0.2515
 9427SOL    HW139914   0.552   2.503   3.758 -0.7000  0.1065  1.4096
 9427SOL    HW239915   0.673   2.553   3.678 -1.0412 -0.8028 -0.5860
 9428SOL     OW39916   3.552   4.416   3.778 -0.2175 -0.0769  0.1541
 9428SOL    HW139917   3.625   4.425   3.717 -1.0236  0.2050 -0.7807
 9428SOL    HW239918   3.591   4.368   3.851  0.4327 -0.2630 -0.3200
 9429SOL     OW39919   3.216   2.394   7.661  0.1349  0.1917 -0.2385
 9429SOL    HW139920   3.234   2.305   7.693  0.0611  0.0685 -0.5399
 9429SOL    HW239921   3.301   2.437   7.665  0.9092 -1.2577 -0.9890
 9430SOL     OW39922   2.929   0.723   9.617 -0.1571 -0.6477  0.2656
 9430SOL    HW139923   2.948   0.767   9.699 -0.2915 -0.8051  0.3826
 9430SOL    HW239924   3.005   0.668   9.596  0.4941  0.1555  0.5527
 9431SOL     OW39925   1.864   2.158   4.664  0.5002 -0.4954 -0.2905
 9431SOL    HW139926   1.904   2.124   4.584 -0.0328  0.3409 -0.9182
 9431SOL    HW239927   1.791   2.096   4.671  0.0072  0.0667 -0.5205
 9432SOL     OW39928   3.829   1.097   8.024 -0.6832  0.1916  0.1276
 9432SOL    HW139929   3.850   1.041   7.949 -4.1073  0.6307 -1.1267
 9432SOL    HW239930   3.765   1.042   8.069  0.2093 -0.8016  0.1789
 9433SOL     OW39931   1.980   3.052   1.204  0.0156 -0.0729 -0.1051
 9433SOL    HW139932   1.911   3.096   1.253 -0.3943  1.1507 -1.7875
 9433SOL    HW239933   2.044   3.123   1.208  0.7879 -0.8927  2.5125
 9434SOL     OW39934   1.202   0.522  13.157  0.4399 -0.1158 -0.4256
 9434SOL    HW139935   1.111   0.550  13.167 -0.0592 -1.7547 -0.3811
 9434SOL    HW239936   1.240   0.563  13.234 -1.2785 -1.3163  1.0742
 9435SOL     OW39937   2.860   2.559   0.800  0.0952 -0.1927 -0.2462
 9435SOL    HW139938   2.869   2.586   0.708  0.1898 -2.1714 -0.8005
 9435SOL    HW239939   2.820   2.637   0.839 -0.1184 -0.3542 -0.1448
 9436SOL     OW39940   2.922   2.801   6.045 -0.0615  0.0734  0.1674
 9436SOL    HW139941   2.998   2.841   6.004  0.0172  1.1607  1.3739
 9436SOL    HW239942   2.874   2.788   5.963  0.4381  0.3552 -0.1678
 9437SOL     OW39943   3.671   1.992   7.395 -0.1241 -0.3944 -0.2931
 9437SOL    HW139944   3.620   1.916   7.365 -2.0592  1.1588 -0.9671
 9437SOL    HW239945   3.638   1.990   7.485  2.2676  2.8221  0.6475
 9438SOL     OW39946   1.283   2.998  13.329 -0.2623  0.3061 -0.2402
 9438SOL    HW139947   1.190   2.978  13.343 -0.2283  1.3453  1.4795
 9438SOL    HW239948   1.320   2.994  13.417 -0.9703  0.8173  0.0827
 9439SOL     OW39949   4.131   3.457   4.682 -0.0100  0.0008  0.4853
 9439SOL    HW139950   4.194   3.502   4.738 -0.0727 -0.9268  1.3092
 9439SOL    HW239951   4.195   3.404   4.635 -0.3292 -1.5552  1.7863
 9440SOL     OW39952   0.991   0.603   8.702  0.0219  0.1532  0.2370
 9440SOL    HW139953   0.982   0.696   8.721 -0.6392 -0.4093  2.6444
 9440SOL    HW239954   1.081   0.593   8.735 -0.3597  1.8934  1.7706
 9441SOL     OW39955   1.770   2.725   4.185  0.6714  0.2063  0.3223
 9441SOL    HW139956   1.694   2.777   4.161  0.7787  0.7842  1.2171
 9441SOL    HW239957   1.784   2.749   4.277  0.1072 -1.1052  0.7580
 9442SOL     OW39958   1.987   3.398   8.831 -0.6520 -0.4546  0.4842
 9442SOL    HW139959   2.071   3.444   8.828 -0.5812 -0.7149 -1.7215
 9442SOL    HW239960   1.920   3.466   8.821  0.3627  0.7112  1.6977
 9443SOL     OW39961   2.652   0.381  14.675  0.1922  0.8191  0.2548
 9443SOL    HW139962   2.696   0.430  14.745  2.5160 -0.3910 -0.3589
 9443SOL    HW239963   2.562   0.378  14.709 -1.0268  1.5878 -2.9240
 9444SOL     OW39964   4.549   1.629   8.163  0.2980  0.5113  0.3566
 9444SOL    HW139965   4.525   1.715   8.197  2.6110 -0.4959  4.5348
 9444SOL    HW239966   4.461   1.592   8.160  0.7031 -0.3064 -1.4371
 9445SOL     OW39967   3.160   2.989  10.730 -0.3345  0.2918 -0.6587
 9445SOL    HW139968   3.192   3.004  10.819  0.4433  1.9062 -1.2116
 9445SOL    HW239969   3.066   2.980  10.744 -0.2911  3.6366  1.8159
 9446SOL     OW39970   0.933   2.781   4.992  0.3392 -0.1037  0.1403
 9446SOL    HW139971   0.995   2.708   4.993 -1.0812 -1.2589  2.7065
 9446SOL    HW239972   0.979   2.830   4.923  0.3364  0.3538  0.4641
 9447SOL     OW39973   3.264   4.532  14.746  0.5416  0.8476 -0.5004
 9447SOL    HW139974   3.284   4.551  14.654  0.4096  1.9190 -0.2962
 9447SOL    HW239975   3.234   4.616  14.779 -2.5155 -1.0292  1.4704
 9448SOL     OW39976   4.264   1.618   7.748  0.1905 -0.1867 -0.0848
 9448SOL    HW139977   4.316   1.560   7.803 -0.2026 -0.4187  0.0405
 9448SOL    HW239978   4.322   1.694   7.741  1.7743 -1.4155 -0.3425
 9449SOL     OW39979   1.540   4.144   9.883 -0.5372 -0.5088  0.0909
 9449SOL    HW139980   1.511   4.063   9.926  0.6688 -0.7271  0.4965
 9449SOL    HW239981   1.572   4.197   9.956  1.4037 -0.0818 -1.0632
 9450SOL     OW39982   3.431   0.533   3.309  0.0802 -0.0702  0.2435
 9450SOL    HW139983   3.515   0.506   3.273  0.0793 -2.5805  2.0715
 9450SOL    HW239984   3.366   0.482   3.260 -0.0210  0.2449  0.0537
 9451SOL     OW39985   1.764   0.028   9.497 -0.2546  0.5473 -0.3879
 9451SOL    HW139986   1.717   0.029   9.414 -1.0595 -1.2160  0.0523
 9451SOL    HW239987   1.774   4.668   9.506 -1.7972  0.1546 -3.0014
 9452SOL     OW39988   0.060   1.789   4.635  0.2120 -0.1757 -0.3400
 9452SOL    HW139989   4.732   1.811   4.704 -0.3604  0.0749 -0.9479
 9452SOL    HW239990   0.121   1.860   4.651  0.0699 -0.2555  0.5866
 9453SOL     OW39991   4.299   4.621   3.482  0.0328  0.1884 -0.4109
 9453SOL    HW139992   4.225   4.607   3.423 -1.2171  1.9397  0.7299
 9453SOL    HW239993   4.266   4.692   3.537 -0.7934  0.1716 -0.8728
 9454SOL     OW39994   1.353   1.811   6.769  0.1207 -0.7328  0.2547
 9454SOL    HW139995   1.358   1.850   6.682  0.1472 -0.0343  0.5753
 9454SOL    HW239996   1.411   1.736   6.756  3.4343  2.0976 -1.1885
 9455SOL     OW39997   1.131   3.572   6.366  0.2493  0.5203 -0.4791
 9455SOL    HW139998   1.073   3.503   6.397 -0.3140  0.9694 -0.5229
 9455SOL    HW239999   1.177   3.588   6.448 -0.2514  3.0150 -0.6845
 9456SOL     OW40000   3.234   1.940  15.319  0.6502  0.2438 -0.5818
 9456SOL    HW140001   3.171   2.011  15.314 -0.8040 -0.9312  1.0645
 9456SOL    HW240002   3.284   1.963  15.241  0.7794 -0.9393 -0.8500
 9457SOL     OW40003   2.288   0.293   7.950  0.4757 -0.5424  0.2274
 9457SOL    HW140004   2.352   0.303   7.880  0.5235  0.3461  0.3985
 9457SOL    HW240005   2.296   0.200   7.972 -0.7933 -0.8627 -0.6923
 9458SOL     OW40006   4.366   0.969  11.341  0.1293  0.2966 -0.2251
 9458SOL    HW140007   4.324   0.890  11.375  0.5453 -0.2509 -0.9911
 9458SOL    HW240008   4.408   0.989  11.425  1.7216  4.1739 -1.9729
 9459SOL     OW40009   2.056   2.166   4.906 -0.1655 -0.3915 -0.3103
 9459SOL    HW140010   1.975   2.188   4.861  0.4211  0.9087 -0.7110
 9459SOL    HW240011   2.119   2.208   4.848 -0.5331 -0.1542 -0.5344
 9460SOL     OW40012   4.534   1.306  11.843 -0.1606  0.5258  0.5120
 9460SOL    HW140013   4.552   1.252  11.921  1.6124  0.1605 -0.1559
 9460SOL    HW240014   4.601   1.283  11.779 -0.6147 -0.5795  0.4289
 9461SOL     OW40015   0.916   2.154  10.694  0.1155  0.1229  0.0958
 9461SOL    HW140016   0.950   2.232  10.652  1.5010 -0.0945  0.8376
 9461SOL    HW240017   0.902   2.103  10.614  1.1308  1.0731 -0.6834
 9462SOL     OW40018   4.215   1.055  13.410 -0.0379 -0.0089 -0.9158
 9462SOL    HW140019   4.228   1.060  13.315 -1.6451 -0.2728 -1.1391
 9462SOL    HW240020   4.121   1.043  13.421  0.0115  0.0154 -0.4607
 9463SOL     OW40021   1.708   3.605   0.525  0.1229  0.0657  0.1928
 9463SOL    HW140022   1.703   3.538   0.457  1.7549  0.2968 -0.1560
 9463SOL    HW240023   1.786   3.652   0.495  1.2924 -1.4181  0.8867
 9464SOL     OW40024   4.141   4.124   8.577  0.0411  0.7078 -0.5966
 9464SOL    HW140025   4.233   4.150   8.575  0.7839 -1.7309  2.5427
 9464SOL    HW240026   4.138   4.039   8.620 -0.1292  0.3469 -1.3226
 9465SOL     OW40027   4.387   1.523   4.772 -0.2534  0.0850  0.3862
 9465SOL    HW140028   4.466   1.574   4.789  1.3356 -2.1394 -0.3880
 9465SOL    HW240029   4.360   1.502   4.861  1.3826  0.1947  0.9181
 9466SOL     OW40030   0.796   0.355  16.699  0.0792  0.1451 -0.3552
 9466SOL    HW140031   0.829   0.297  16.767  2.7328  1.6146 -0.3623
 9466SOL    HW240032   0.875   0.366  16.646  0.1216  1.4849 -0.0126
 9467SOL     OW40033   2.652   1.773  13.114  0.3184  0.6218  0.0987
 9467SOL    HW140034   2.673   1.826  13.190  3.1471  2.4262 -1.9624
 9467SOL    HW240035   2.578   1.720  13.143  0.1188  0.4794 -0.6812
 9468SOL     OW40036   0.085   4.385  17.191 -0.6121  0.6506 -0.2926
 9468SOL    HW140037   0.110   4.455  17.130 -0.6496  1.4493  0.6123
 9468SOL    HW240038   0.137   4.312  17.158 -3.1730 -0.8212 -1.0769
 9469SOL     OW40039   4.110   4.611  13.308  0.2667 -0.2908 -0.0594
 9469SOL    HW140040   4.099   4.700  13.341  1.4817 -0.6820  1.3456
 9469SOL    HW240041   4.028   4.568  13.333  2.0329 -1.7667  3.1957
 9470SOL     OW40042   0.468   0.358   1.627 -0.1912  0.0685 -0.0610
 9470SOL    HW140043   0.408   0.420   1.670 -1.2062  0.2614 -1.7634
 9470SOL    HW240044   0.402   0.296   1.598  0.4146 -1.8685  2.6685
 9471SOL     OW40045   3.658   3.408   6.721 -0.0524  0.4699  0.6356
 9471SOL    HW140046   3.588   3.472   6.708 -2.0860 -1.8674 -0.0530
 9471SOL    HW240047   3.736   3.461   6.736 -0.2892  0.7161  0.9907
 9472SOL     OW40048   2.654   3.326   5.222 -0.3246 -0.4319 -0.1146
 9472SOL    HW140049   2.620   3.257   5.165  0.4657  0.6751 -1.9347
 9472SOL    HW240050   2.735   3.288   5.256  1.1223  1.9275 -0.9306
 9473SOL     OW40051   0.182   4.602   4.516 -0.6877  0.1120 -0.1122
 9473SOL    HW140052   0.140   4.656   4.583 -2.0837 -0.7155 -0.3080
 9473SOL    HW240053   0.212   4.680   4.470 -2.0229  1.4206  1.2245
 9474SOL     OW40054   1.850   0.957   4.148  0.2808  0.1232 -0.0651
 9474SOL    HW140055   1.770   0.926   4.106  0.4326  0.0578 -0.3078
 9474SOL    HW240056   1.854   0.902   4.226  2.8921 -0.6843 -0.7701
 9475SOL     OW40057   0.694   3.872   6.758 -0.4935  0.6156 -0.6527
 9475SOL    HW140058   0.628   3.872   6.689  0.0513 -2.0606 -1.2020
 9475SOL    HW240059   0.711   3.781   6.783 -1.8866  0.4673 -0.2951
 9476SOL     OW40060   2.010   1.365   2.540 -0.2775 -0.1284  0.3417
 9476SOL    HW140061   2.056   1.344   2.459  1.4180  0.8198  1.0506
 9476SOL    HW240062   1.921   1.388   2.516 -0.2279 -0.0348  0.2521
 9477SOL     OW40063   3.377   1.300  17.341 -0.8233  0.3569  0.1132
 9477SOL    HW140064   3.408   1.390  17.330 -0.9453  0.6293  1.9767
 9477SOL    HW240065   3.454   1.249  17.362 -0.5842 -0.7309 -3.4247
 9478SOL     OW40066   0.343   1.917   9.302  0.4059 -0.1379 -0.0986
 9478SOL    HW140067   0.432   1.891   9.281  0.4408  0.5171 -0.7602
 9478SOL    HW240068   0.338   2.011   9.318  0.7338 -0.2052  0.3908
 9479SOL     OW40069   1.990   4.034   5.906 -0.1211 -0.1188  0.1788
 9479SOL    HW140070   1.946   4.024   5.822  1.5175 -0.4445 -0.6405
 9479SOL    HW240071   2.055   4.095   5.871  0.6652  0.2933  2.3023
 9480SOL     OW40072   2.322   3.885   2.687  0.1386  0.5763 -0.3562
 9480SOL    HW140073   2.283   3.908   2.603 -1.5560 -0.5554  0.1354
 9480SOL    HW240074   2.389   3.953   2.702 -0.4040  1.4279 -1.8752
 9481SOL     OW40075   0.899   2.440  12.708  0.2913  0.6275  0.2255
 9481SOL    HW140076   0.915   2.351  12.740  0.4430  0.9656  1.1198
 9481SOL    HW240077   0.958   2.436  12.633  1.5849 -2.7501  1.4425
 9482SOL     OW40078   1.410   4.505   9.545  0.0694 -0.1360  0.1892
 9482SOL    HW140079   1.428   4.476   9.634 -0.2654 -1.1305 -0.0699
 9482SOL    HW240080   1.482   4.462   9.499 -0.1506  1.0122 -1.2463
 9483SOL     OW40081   4.099   0.650   4.542  0.1482 -0.3085 -0.4820
 9483SOL    HW140082   4.088   0.625   4.450  1.1619 -1.5205 -0.2713
 9483SOL    HW240083   4.105   0.746   4.537 -1.3143 -0.1980 -0.0846
 9484SOL     OW40084   1.169   3.494   7.505 -0.6114 -0.2153  0.0885
 9484SOL    HW140085   1.211   3.566   7.553 -1.4875  0.4453 -0.1330
 9484SOL    HW240086   1.157   3.525   7.415  1.1200  0.5033  0.1166
 9485SOL     OW40087   3.389   0.326   1.013 -0.1866  0.7420  0.0432
 9485SOL    HW140088   3.384   0.241   0.970 -0.6954  1.2097 -0.8265
 9485SOL    HW240089   3.468   0.318   1.066 -0.5172 -1.0782  0.2482
 9486SOL     OW40090   4.332   0.085   8.166 -0.6731 -0.0767 -0.0495
 9486SOL    HW140091   4.299   0.163   8.209 -2.6581 -0.3433 -1.1002
 9486SOL    HW240092   4.247   0.059   8.131 -1.3402  0.5490  1.1358
 9487SOL     OW40093   1.978   0.207   7.855 -0.0330 -0.2450 -0.1407
 9487SOL    HW140094   1.939   0.211   7.942 -2.2171  1.9211 -1.2049
 9487SOL    HW240095   1.902   0.241   7.807  1.0362  0.9003 -1.0318
 9488SOL     OW40096   2.692   4.165  10.612  0.6616 -0.1855  0.0574
 9488SOL    HW140097   2.686   4.092  10.550  0.7627 -1.6418  1.7546
 9488SOL    HW240098   2.786   4.169  10.628  1.3485 -1.8981 -3.3962
 9489SOL     OW40099   3.006   3.667  15.534  0.1267  0.2086 -0.2439
 9489SOL    HW140100   3.003   3.572  15.547  0.1764  0.2990  0.4300
 9489SOL    HW240101   3.080   3.673  15.474  0.0704  0.7332 -0.2622
 9490SOL     OW40102   3.671   0.848  17.229  0.3469 -0.0649  0.8550
 9490SOL    HW140103   3.624   0.845  17.312  1.9652  1.1890  1.8291
 9490SOL    HW240104   3.764   0.841  17.252 -0.2165 -1.6022  2.5737
 9491SOL     OW40105   1.189   2.629   4.163  0.1810  0.0428  0.2217
 9491SOL    HW140106   1.126   2.643   4.233 -0.1439  0.5606 -0.1707
 9491SOL    HW240107   1.130   2.589   4.098 -1.1861  0.3519  1.2802
 9492SOL     OW40108   2.040   0.763   5.486  0.2853  0.1201  0.0395
 9492SOL    HW140109   2.133   0.768   5.464 -0.2904  2.6944 -1.8160
 9492SOL    HW240110   2.031   0.841   5.542  2.3897 -0.2254  0.8514
 9493SOL     OW40111   1.705   0.201  16.874 -0.4202  0.0427  0.0434
 9493SOL    HW140112   1.655   0.282  16.868 -0.1159  0.1769 -0.6732
 9493SOL    HW240113   1.638   0.133  16.869 -0.5187  0.1127  0.3998
 9494SOL     OW40114   3.786   3.932  16.447  0.1975  0.3423  0.0114
 9494SOL    HW140115   3.763   3.963  16.534 -0.6176 -0.2873  0.0176
 9494SOL    HW240116   3.877   3.905  16.457 -0.1341 -0.3145  1.2860
 9495SOL     OW40117   3.176   3.402   8.645  0.3218 -0.2973 -0.3478
 9495SOL    HW140118   3.186   3.397   8.740  0.0400  0.0559 -0.2954
 9495SOL    HW240119   3.205   3.315   8.619 -1.9260 -1.1032 -0.2260
 9496SOL     OW40120   1.038   2.076  13.754 -0.0280  0.0271  0.0939
 9496SOL    HW140121   1.004   2.164  13.740 -0.3965 -0.0974  0.2239
 9496SOL    HW240122   1.120   2.100  13.711  0.0039  1.3526  0.8938
 9497SOL     OW40123   1.804   1.388   9.060 -0.4621 -0.4902  0.1287
 9497SOL    HW140124   1.841   1.314   9.109  0.0676 -0.7244 -0.6296
 9497SOL    HW240125   1.727   1.408   9.113  0.7831  0.5755  1.5747
 9498SOL     OW40126   2.674   1.612  15.572 -0.3602 -0.2768 -0.0387
 9498SOL    HW140127   2.737   1.543  15.552 -1.1610 -1.0920  0.2386
 9498SOL    HW240128   2.598   1.558  15.595  0.5530 -0.7899  1.7722
 9499SOL     OW40129   0.667   2.105   6.440  0.0344 -0.1737 -0.2157
 9499SOL    HW140130   0.762   2.109   6.447 -0.0188 -1.3701  0.9994
 9499SOL    HW240131   0.653   2.196   6.413 -1.3394 -0.8341 -1.6826
 9500SOL     OW40132   2.441   2.473   6.763 -0.5364  0.2024 -0.2976
 9500SOL    HW140133   2.463   2.380   6.776 -0.1748  0.4240  0.7033
 9500SOL    HW240134   2.370   2.489   6.825 -0.3102  0.7940 -0.1950
 9501SOL     OW40135   1.060   4.629   7.733  0.1650  0.6240 -0.1711
 9501SOL    HW140136   1.085   4.627   7.825 -2.1412 -0.2660  0.4419
 9501SOL    HW240137   1.139   4.609   7.684  0.0500  2.1367 -0.9828
 9502SOL     OW40138   2.494   4.696   4.142 -0.5555  0.3140 -0.0615
 9502SOL    HW140139   2.404   4.699   4.108 -0.1971 -0.1026 -1.0462
 9502SOL    HW240140   2.509   4.602   4.130 -1.5613 -0.1448  2.2647
 9503SOL     OW40141   3.608   4.526   4.629 -0.0601  0.1526  0.4131
 9503SOL    HW140142   3.644   4.612   4.651 -1.6626  0.7207  0.8062
 9503SOL    HW240143   3.611   4.480   4.713  2.2869 -1.5097 -0.5574
 9504SOL     OW40144   0.737   2.519   8.222 -0.2289 -0.2778 -0.2926
 9504SOL    HW140145   0.678   2.510   8.148 -2.8147 -0.2788  1.7741
 9504SOL    HW240146   0.680   2.471   8.282  2.1266 -0.6899  1.6361
 9505SOL     OW40147   0.975   0.898   8.757  0.7420  0.1556 -0.6199
 9505SOL    HW140148   0.936   0.985   8.750 -2.3920 -1.3578 -2.0123
 9505SOL    HW240149   0.922   0.864   8.829  1.4473  0.6857  0.1509
 9506SOL     OW40150   2.462   0.271   6.867  0.1246  0.1972 -0.3001
 9506SOL    HW140151   2.546   0.272   6.820  0.6884 -0.8932  0.6900
 9506SOL    HW240152   2.492   0.280   6.958  1.5019 -2.0820 -0.5265
 9507SOL     OW40153   1.930   3.934  14.840  0.1316  0.3945  0.3675
 9507SOL    HW140154   1.860   3.870  14.827 -1.6929  2.8091 -1.5853
 9507SOL    HW240155   1.977   3.939  14.757 -0.2723 -2.4097 -0.0445
 9508SOL     OW40156   1.757   2.677   6.006 -0.2919 -0.2587 -0.1817
 9508SOL    HW140157   1.757   2.660   6.100  1.9177  2.4540  0.3273
 9508SOL    HW240158   1.695   2.750   6.010 -0.6201 -0.4769 -1.4418
 9509SOL     OW40159   0.847   2.586   3.048 -0.0431  0.2474  0.6878
 9509SOL    HW140160   0.868   2.657   2.988  1.9756  0.7923  2.0653
 9509SOL    HW240161   0.863   2.512   2.990  0.6166  1.3125 -0.4708
 9510SOL     OW40162   3.196   1.624  17.496 -0.0837 -0.2610 -0.1773
 9510SOL    HW140163   3.238   1.666  17.421  0.8445  0.6871  0.8802
 9510SOL    HW240164   3.159   1.543  17.459  0.8526 -1.0266  0.5415
 9511SOL     OW40165   3.939   1.597   2.557  0.4560 -0.5528 -0.3729
 9511SOL    HW140166   4.026   1.630   2.535 -0.5860  2.8528  0.5798
 9511SOL    HW240167   3.961   1.507   2.580 -0.2487 -0.1212  1.9551
 9512SOL     OW40168   3.937   3.622   3.665  0.0057 -0.0168 -0.1964
 9512SOL    HW140169   3.961   3.607   3.573 -0.8050  0.6222 -0.5189
 9512SOL    HW240170   3.843   3.602   3.668  0.0503 -0.4812 -1.5337
 9513SOL     OW40171   1.382   4.209   2.028  0.2087 -0.6955 -0.1021
 9513SOL    HW140172   1.440   4.233   1.955 -0.3364  1.1596  0.0689
 9513SOL    HW240173   1.299   4.206   1.980  0.1003 -0.7881  0.0915
 9514SOL     OW40174   2.061   0.072  17.696  0.1576  0.1355 -0.3599
 9514SOL    HW140175   2.104   0.056   0.041 -0.7450  1.0546  0.2696
 9514SOL    HW240176   2.101   0.155  17.669 -1.1807  0.4268 -1.4355
 9515SOL     OW40177   1.496   1.959  13.265 -0.1756 -0.5810 -0.3448
 9515SOL    HW140178   1.487   1.882  13.209  1.1063 -0.9219 -0.0872
 9515SOL    HW240179   1.408   1.953  13.301  0.7307  0.4707  2.0326
 9516SOL     OW40180   3.099   4.510   1.922 -0.5583 -0.1630 -0.1515
 9516SOL    HW140181   3.145   4.520   1.839 -0.4599  1.6823  0.1268
 9516SOL    HW240182   3.156   4.563   1.978  1.3253 -1.1616 -1.1243
 9517SOL     OW40183   4.300   1.415   2.343 -0.6943  0.4767  0.0092
 9517SOL    HW140184   4.282   1.333   2.389  2.1722 -0.2432 -0.0965
 9517SOL    HW240185   4.368   1.458   2.395  1.3567 -1.8095 -0.7740
 9518SOL     OW40186   2.466   3.645  10.296 -0.1962  0.5004  0.5839
 9518SOL    HW140187   2.554   3.625  10.327  0.5380 -0.1353 -1.9027
 9518SOL    HW240188   2.471   3.619  10.204 -1.6529 -0.4006  0.7620
 9519SOL     OW40189   4.417   3.632  17.117  0.3573  1.1283  0.1058
 9519SOL    HW140190   4.332   3.597  17.089  0.1046  0.1562  2.0876
 9519SOL    HW240191   4.418   3.635  17.213 -1.5091 -0.6247  0.1890
 9520SOL     OW40192   0.247   3.949  12.985  0.1787  0.1905  0.0886
 9520SOL    HW140193   0.234   3.931  12.892 -1.2305  0.8541  0.1643
 9520SOL    HW240194   0.342   3.939  12.982  0.0618 -0.0144 -2.8861
 9521SOL     OW40195   4.645   4.086  13.641 -0.3365  0.5062 -0.0172
 9521SOL    HW140196   4.598   4.153  13.690 -1.3152 -0.6218  0.5931
 9521SOL    HW240197   4.660   4.024  13.712  0.1354  0.8703  0.1963
 9522SOL     OW40198   3.545   1.355   9.024 -0.0903 -0.1520  0.2355
 9522SOL    HW140199   3.562   1.346   9.117  0.1040 -2.1019  0.0071
 9522SOL    HW240200   3.542   1.267   8.986  1.2184 -0.0139 -0.2169
 9523SOL     OW40201   2.929   2.733   5.606  0.1364 -0.0983 -0.0575
 9523SOL    HW140202   2.995   2.670   5.579  0.1398  0.0305 -0.3582
 9523SOL    HW240203   2.889   2.766   5.526 -0.7747 -1.6723 -0.2470
 9524SOL     OW40204   1.244   0.262  16.972 -0.7487  0.2147 -0.3714
 9524SOL    HW140205   1.303   0.194  17.006 -0.1319  1.0926  0.3065
 9524SOL    HW240206   1.248   0.254  16.877  0.5838  0.4122 -0.3353
 9525SOL     OW40207   0.865   2.310  17.695  0.0881  0.0060  0.0625
 9525SOL    HW140208   0.873   2.401  17.723  1.2105 -0.4438  1.1625
 9525SOL    HW240209   0.788   2.281   0.005 -0.9320 -2.8561 -3.1691
 9526SOL     OW40210   3.336   4.665  12.213  1.0028  0.3084 -0.3715
 9526SOL    HW140211   3.243   4.682  12.196  1.2268 -0.0854 -2.0394
 9526SOL    HW240212   3.353   0.003  12.272 -0.6109  0.2590  0.1604
 9527SOL     OW40213   0.032   3.110   7.132 -0.2931 -0.0284  0.0156
 9527SOL    HW140214   0.011   3.020   7.157 -0.1963  0.6518  2.5480
 9527SOL    HW240215   0.114   3.098   7.084 -0.2842  0.7302 -0.1683
 9528SOL     OW40216   0.886   4.393   3.665  0.6517  0.4101 -0.2191
 9528SOL    HW140217   0.825   4.401   3.738 -1.5376 -1.7962 -1.7996
 9528SOL    HW240218   0.830   4.375   3.589 -0.7987  2.4781  0.3447
 9529SOL     OW40219   4.259   1.101   3.437 -0.1026 -0.0910 -0.4773
 9529SOL    HW140220   4.255   1.119   3.343 -0.6716 -1.4974 -0.7329
 9529SOL    HW240221   4.259   1.194   3.459  1.3198 -0.3697  0.6737
 9530SOL     OW40222   1.785   0.255   7.618 -0.0679  0.2080  0.1744
 9530SOL    HW140223   1.721   0.223   7.682  0.5647  1.9546  1.6738
 9530SOL    HW240224   1.776   0.189   7.549  0.5206 -2.5519  2.7119
 9531SOL     OW40225   4.290   1.199   4.111  0.0868  0.0978 -0.0487
 9531SOL    HW140226   4.342   1.188   4.191 -0.9403 -0.0194  0.6051
 9531SOL    HW240227   4.338   1.133   4.061  0.0090 -2.2915  3.0021
 9532SOL     OW40228   4.274   4.116   5.375  0.1226  0.2353  0.0246
 9532SOL    HW140229   4.217   4.075   5.311  1.0578 -2.7977  1.1307
 9532SOL    HW240230   4.262   4.211   5.361  1.3042  0.3183 -0.4660
 9533SOL     OW40231   4.450   1.017   7.435  0.0496 -0.1571  0.4245
 9533SOL    HW140232   4.424   1.001   7.526  0.5335 -2.4684  0.1462
 9533SOL    HW240233   4.448   1.113   7.432  0.2154 -0.1821 -0.4149
 9534SOL     OW40234   0.487   2.408   4.817 -0.7580  0.1152  0.1698
 9534SOL    HW140235   0.558   2.459   4.857  1.1944 -1.9383 -0.6884
 9534SOL    HW240236   0.523   2.386   4.731  2.5975  4.2316  0.4989
 9535SOL     OW40237   0.879   0.942  11.185 -0.6529  0.4465 -0.8022
 9535SOL    HW140238   0.899   0.854  11.216 -2.5036  0.9347  1.8101
 9535SOL    HW240239   0.785   0.926  11.179 -0.6299 -0.8070  1.8633
 9536SOL     OW40240   3.048   4.037   4.636 -0.2395 -0.6843  0.1732
 9536SOL    HW140241   3.107   3.992   4.697  0.6528  0.7934  0.3894
 9536SOL    HW240242   3.073   4.128   4.651 -2.2159 -0.2545  0.8321
 9537SOL     OW40243   2.335   1.258   8.676  0.0630  0.7051  0.0904
 9537SOL    HW140244   2.264   1.318   8.699 -0.0126  2.2068 -4.0311
 9537SOL    HW240245   2.313   1.243   8.584  2.5053 -0.0694 -0.3696
 9538SOL     OW40246   3.688   0.744  11.887  0.2596  0.6837 -0.2762
 9538SOL    HW140247   3.636   0.812  11.844  0.7343  1.5817  0.5647
 9538SOL    HW240248   3.650   0.753  11.974 -0.8323 -0.1991 -0.6711
 9539SOL     OW40249   4.002   3.518  14.229 -0.0399 -0.4698  0.0788
 9539SOL    HW140250   4.012   3.576  14.153 -1.4399 -1.2946 -0.7371
 9539SOL    HW240251   3.953   3.578  14.286 -0.2630  0.1898 -0.8033
 9540SOL     OW40252   1.764   1.407   8.084 -0.6480 -0.6190 -0.4134
 9540SOL    HW140253   1.815   1.485   8.107 -1.4675 -0.6254  1.4318
 9540SOL    HW240254   1.764   1.382   8.177  1.8804  0.7079 -0.0473
 9541SOL     OW40255   4.513   1.188   8.822 -0.1707  0.5204 -0.2051
 9541SOL    HW140256   4.587   1.156   8.874  1.1191  0.8388 -1.8553
 9541SOL    HW240257   4.467   1.245   8.884  1.3250  0.4436  0.9881
 9542SOL     OW40258   0.945   0.624  12.837  0.5575 -0.1482 -0.2600
 9542SOL    HW140259   0.882   0.611  12.766  1.9456  0.5824 -1.6030
 9542SOL    HW240260   0.906   0.571  12.907 -0.9415 -1.2800 -1.9549
 9543SOL     OW40261   2.591   1.059   4.020 -0.2434  0.1000 -0.4742
 9543SOL    HW140262   2.637   1.115   4.082 -1.3738  0.3234  0.1665
 9543SOL    HW240263   2.667   1.018   3.979  0.1810 -1.4242  1.8514
 9544SOL     OW40264   0.647   2.146   5.106 -0.2935 -0.6959  0.4801
 9544SOL    HW140265   0.558   2.129   5.137 -1.5167 -0.8901 -3.0722
 9544SOL    HW240266   0.633   2.137   5.011 -0.9124  1.6423  0.3443
 9545SOL     OW40267   4.177   4.098   8.260 -0.4312  0.0392 -0.1266
 9545SOL    HW140268   4.101   4.040   8.269 -1.1893  1.3306  1.7710
 9545SOL    HW240269   4.251   4.044   8.288 -2.1517 -3.0793 -1.5895
 9546SOL     OW40270   1.893   0.174   6.375  0.0999  0.3970 -0.2368
 9546SOL    HW140271   1.820   0.226   6.410 -0.7700 -0.0022 -1.4892
 9546SOL    HW240272   1.926   0.138   6.457  3.6724  1.3146 -1.2784
 9547SOL     OW40273   3.012   2.443   5.482 -0.0703 -0.1541  0.1101
 9547SOL    HW140274   2.990   2.405   5.567 -0.8439  0.4536  0.1816
 9547SOL    HW240275   2.926   2.443   5.441 -0.0991 -2.9695  0.1274
 9548SOL     OW40276   0.084   4.050   5.833  0.5792  0.3878 -0.8918
 9548SOL    HW140277   4.728   4.025   5.825  0.6541 -0.2838  0.4325
 9548SOL    HW240278   0.114   4.014   5.749  0.2058  0.3024 -0.9850
 9549SOL     OW40279   1.735   0.367   2.601 -0.7224 -0.3223 -0.4824
 9549SOL    HW140280   1.770   0.395   2.516  1.2190 -2.2158 -0.3188
 9549SOL    HW240281   1.814   0.330   2.641 -1.4243 -1.7738 -0.4115
 9550SOL     OW40282   2.826   1.385   0.990  0.5142  0.0896 -0.1571
 9550SOL    HW140283   2.834   1.396   1.085 -0.7217 -1.2842  0.1032
 9550SOL    HW240284   2.915   1.363   0.964  1.3352  0.6571  2.1569
 9551SOL     OW40285   3.603   4.235   2.020 -0.1629  0.2026  0.3828
 9551SOL    HW140286   3.590   4.305   2.084  0.6685 -0.3310  1.1475
 9551SOL    HW240287   3.524   4.181   2.019  1.1726 -1.7423 -2.2326
 9552SOL     OW40288   3.152   3.492   7.373 -0.7181  0.2185 -0.0892
 9552SOL    HW140289   3.247   3.494   7.369 -0.6111 -2.0607  1.0449
 9552SOL    HW240290   3.122   3.578   7.345 -1.3095  0.2146  0.4962
 9553SOL     OW40291   2.729   0.570   7.801  0.2124  0.0398 -0.2306
 9553SOL    HW140292   2.799   0.614   7.849  1.4127 -1.1326 -0.9053
 9553SOL    HW240293   2.698   0.502   7.862  0.5344 -0.4328 -0.5997
 9554SOL     OW40294   4.282   2.068   8.335  0.1656 -0.1490  0.0526
 9554SOL    HW140295   4.302   2.066   8.429 -0.9241 -2.5582  0.2376
 9554SOL    HW240296   4.187   2.056   8.336  0.2069 -0.5034 -1.6032
 9555SOL     OW40297   2.964   2.410   5.917 -0.4873  0.1192 -0.3334
 9555SOL    HW140298   3.022   2.376   5.986  0.1080  2.4915  0.3290
 9555SOL    HW240299   3.020   2.480   5.883  0.2392  0.3231  1.2327
 9556SOL     OW40300   3.693   4.611   8.053  0.2054 -0.0527  0.0302
 9556SOL    HW140301   3.777   4.567   8.064  0.1810 -0.4052 -1.2540
 9556SOL    HW240302   3.658   4.557   7.982 -0.5324  0.4581  0.0036
 9557SOL     OW40303   2.585   1.893   2.321 -0.6535 -0.0129 -0.4228
 9557SOL    HW140304   2.637   1.971   2.338 -0.5524  0.4198 -2.6584
 9557SOL    HW240305   2.498   1.931   2.305 -0.8570 -0.6597 -0.8751
 9558SOL     OW40306   4.098   2.787   8.384  0.6568  0.1642 -0.2176
 9558SOL    HW140307   4.085   2.786   8.290 -2.9150  0.6978  0.2503
 9558SOL    HW240308   4.019   2.735   8.399  0.4714  0.6642  0.5829
 9559SOL     OW40309   0.863   0.001   1.013  0.1119  1.0035  0.0692
 9559SOL    HW140310   0.875   0.015   0.919  1.1302 -0.5413 -0.0170
 9559SOL    HW240311   0.906   0.075   1.056  0.5113  1.4488 -1.0960
 9560SOL     OW40312   1.366   2.816   3.432  0.4891  0.4044  0.3313
 9560SOL    HW140313   1.347   2.740   3.376 -1.5645 -0.0291  1.6137
 9560SOL    HW240314   1.443   2.839   3.380  0.6222  1.1089  0.8490
 9561SOL     OW40315   4.095   2.355   3.310  0.2872 -0.4449  0.6456
 9561SOL    HW140316   4.096   2.441   3.267 -1.1188 -1.4377 -1.3493
 9561SOL    HW240317   4.181   2.322   3.289  0.5009  1.1601 -1.0431
 9562SOL     OW40318   2.741   2.747   2.990  0.4534  0.1677  0.1987
 9562SOL    HW140319   2.831   2.780   2.980  0.2674  0.4121 -0.5985
 9562SOL    HW240320   2.707   2.822   3.038  0.1841  0.4902 -0.5054
 9563SOL     OW40321   4.426   4.480   0.855 -0.3586 -0.1595  0.1425
 9563SOL    HW140322   4.479   4.401   0.848  2.3133  1.7763 -1.6882
 9563SOL    HW240323   4.417   4.520   0.769 -0.7774 -2.5097 -0.8945
 9564SOL     OW40324   0.935   1.270   2.735  0.2613 -0.0104  0.1339
 9564SOL    HW140325   0.930   1.205   2.806 -2.7328  0.3865  0.2770
 9564SOL    HW240326   0.843   1.288   2.715  0.2215 -0.3976 -0.0344
 9565SOL     OW40327   1.233   1.356   7.762 -0.5323 -0.0300 -0.0781
 9565SOL    HW140328   1.166   1.316   7.706 -1.0957  0.0121  0.5566
 9565SOL    HW240329   1.185   1.422   7.812  0.0682 -0.7454  1.4479
 9566SOL     OW40330   1.623   2.342   9.467 -0.2159 -0.0730  0.4155
 9566SOL    HW140331   1.600   2.398   9.540  0.3283  0.4219  0.2097
 9566SOL    HW240332   1.658   2.407   9.405  0.3633 -1.0470 -0.2933
 9567SOL     OW40333   0.659   2.131  12.336  0.1422  0.1775 -0.5423
 9567SOL    HW140334   0.571   2.167  12.345 -0.1285 -0.8253  0.7811
 9567SOL    HW240335   0.700   2.197  12.280  0.5736 -0.7410 -1.3064
 9568SOL     OW40336   0.519   3.302  17.513  0.4874 -0.2207  0.1805
 9568SOL    HW140337   0.539   3.227  17.457 -0.8378 -0.4608  0.0478
 9568SOL    HW240338   0.538   3.272  17.602 -0.1992  0.2008  0.4654
 9569SOL     OW40339   0.774   1.164   8.351 -0.0442 -0.0856  0.3603
 9569SOL    HW140340   0.859   1.123   8.363  0.9751  1.2878 -2.2378
 9569SOL    HW240341   0.739   1.168   8.440  0.9716 -0.4226  0.7735
 9570SOL     OW40342   3.847   4.073  10.280 -0.6709 -0.7303  0.1881
 9570SOL    HW140343   3.757   4.052  10.306 -0.5531 -0.1864  1.0172
 9570SOL    HW240344   3.838   4.140  10.212 -0.6472 -0.5563  0.3562
 9571SOL     OW40345   4.027   0.630  13.905  0.5571  0.1110 -0.0952
 9571SOL    HW140346   3.938   0.647  13.934  0.6944  0.6431  0.0222
 9571SOL    HW240347   4.029   0.701  13.840  2.4643  0.4174  0.2663
   4.73531   4.73531  17.74006
