Membrane in water
40347
    1TMC1    C1    1   0.498   1.226  11.554 -0.2672  0.3191 -0.1885
    1TMC1    C2    2   0.626   1.263  11.513  0.4064 -0.0251 -0.0312
    1TMC1    C3    3   0.626   1.373  11.426 -0.1936  0.4136 -0.1422
    1TMC1    C4    4   0.379   1.287  11.525  0.0135  0.1061  0.5969
    1TMC1    C5    5   0.400   1.394  11.443  0.0643  0.5968  0.9325
    1TMC1    C6    6   0.511   1.432  11.381  0.6262  0.0581 -0.9986
    1TMC1     C    7   0.482   1.115  11.650  1.1785  0.2817  0.6060
    1TMC1     O    8   0.380   1.049  11.654 -0.0893  0.3281 -0.1840
    1TMC1     H    9   0.715   1.201  11.514 -1.5199 -2.7482 -0.2235
    1TMC1    H1   10   0.288   1.272  11.582  0.3222 -0.6862  0.8855
    1TMC1    H2   11   0.512   1.515  11.312 -0.7450 -0.5881 -1.7988
    1TMC1    C7   12   0.270   1.434  11.377  0.1735 -0.0778  0.0674
    1TMC1    C8   13   0.745   1.390  11.344 -0.1304 -0.0662 -0.4167
    1TMC1    O1   14   0.166   1.371  11.371  0.2294  0.3576  0.2512
    1TMC1    O2   15   0.797   1.290  11.298 -0.8547 -0.3452  0.1755
    1TMC1    O3   16   0.292   1.556  11.306  0.0139 -0.5403 -0.5690
    1TMC1    H3   17   0.368   1.615  11.328 -1.2488  1.1202 -0.7041
    1TMC1    O5   18   0.748   1.510  11.285  0.2080 -0.5819 -0.5586
    1TMC1    H5   19   0.702   1.582  11.334  0.7240 -0.2649 -0.5437
    2MPD2     C   20   0.640   0.860  12.054 -0.8984  0.1734  0.0149
    2MPD2    C1   21   0.526   0.855  11.981 -0.1424 -0.1663  0.5271
    2MPD2    C2   22   0.504   0.942  11.885 -0.1968  0.0558  0.0567
    2MPD2    C3   23   0.595   1.044  11.857 -0.4568  0.0437 -0.4908
    2MPD2    C4   24   0.706   1.055  11.934 -0.1009 -0.0060  0.3952
    2MPD2    C5   25   0.731   0.965  12.028 -0.1946  0.7400 -0.5509
    2MPD2     H   26   0.408   0.928  11.836  0.2889 -0.2054 -0.8316
    2MPD2    H1   27   0.779   1.132  11.911 -0.0203 -0.2898 -0.3261
    2MPD2    H2   28   0.659   0.791  12.136 -0.1859  0.5954  0.2069
    2MPD2    H3   29   0.819   0.970  12.092 -1.1805  1.3165  0.7650
    2MPD2     N   30   0.584   1.127  11.744 -0.0136  0.1848 -0.2535
    2MPD2    H5   31   0.644   1.209  11.746 -0.1346  0.2480  1.1527
    2MPD2    N1   32   0.421   0.764  12.012  0.3332  0.1644 -0.0735
    2MPD2    H7   33   0.332   0.774  11.964  0.1598 -1.2300 -0.0378
    3TMC1    C1   34   3.995   1.594  10.529  0.2633 -0.3313 -1.1938
    3TMC1    C2   35   3.919   1.703  10.493  0.5225  0.5525 -0.1813
    3TMC1    C3   36   3.817   1.672  10.414  0.1926  0.0263  0.2311
    3TMC1    C4   37   3.969   1.467  10.480 -0.2366  0.5041  0.3632
    3TMC1    C5   38   3.864   1.449  10.396 -0.0923  0.8363 -0.3396
    3TMC1    C6   39   3.779   1.551  10.363  0.4386 -0.8349 -0.6124
    3TMC1     C   40   4.109   1.605  10.628  0.5056  0.0929 -0.2768
    3TMC1     O   41   4.200   1.529  10.617 -0.3131  0.0871  0.3050
    3TMC1     H   42   3.929   1.806  10.524  2.3879  0.3940 -0.2334
    3TMC1    H1   43   4.025   1.385  10.525 -2.2767  1.7898  5.2596
    3TMC1    H2   44   3.691   1.544  10.300 -0.7573 -2.4705  1.2537
    3TMC1    C7   45   3.820   1.315  10.378  0.7898  0.1627  0.1424
    3TMC1    C8   46   3.752   1.784  10.370 -0.5585 -0.2648 -0.5888
    3TMC1    O1   47   3.825   1.225  10.463  0.5098  0.3268  0.2457
    3TMC1    O2   48   3.803   1.878  10.311 -0.2184  0.2808 -0.7203
    3TMC1    O3   49   3.825   1.288  10.243 -0.9554  0.5483  0.4106
    3TMC1    H3   50   3.827   1.371  10.191  4.0390 -0.8302 -1.6233
    3TMC1    O5   51   3.619   1.752  10.371 -0.1606  0.0447 -0.2081
    3TMC1    H5   52   3.608   1.676  10.432  1.8240  1.0030  1.3732
    4MPD2     C   53   4.300   1.834  11.040  0.3561  0.4434  0.6135
    4MPD2    C1   54   4.164   1.874  11.034 -0.5785 -0.2427 -0.5878
    4MPD2    C2   55   4.080   1.818  10.934 -0.2758 -0.1140  0.3056
    4MPD2    C3   56   4.130   1.731  10.838 -0.1914 -0.5214  0.1586
    4MPD2    C4   57   4.265   1.701  10.844 -0.1788  0.2840 -0.0613
    4MPD2    C5   58   4.353   1.750  10.943 -0.1060 -0.2204 -0.6827
    4MPD2     H   59   3.976   1.844  10.919  0.0379  0.7071 -0.4374
    4MPD2    H1   60   4.319   1.655  10.762 -0.1786  0.0571  0.0654
    4MPD2    H2   61   4.360   1.862  11.126  0.8744  0.7232  0.1569
    4MPD2    H3   62   4.459   1.732  10.938  0.1119  0.9328 -0.2349
    4MPD2     N   63   4.063   1.695  10.726  0.1247 -0.1772 -1.2753
    4MPD2    H5   64   3.966   1.725  10.727  0.4641  0.8488  1.1762
    4MPD2    N1   65   4.123   1.963  11.134 -0.0150  0.2181 -0.2714
    4MPD2    H7   66   4.185   1.983  11.211 -1.4692 -0.9624  1.2082
    5TCq1    O1   67   0.312   3.829  11.485 -0.1528 -0.3135  0.6145
    5TCq1    C1   68   0.274   3.696  11.489  0.0696 -0.2029  0.1986
    5TCq1    O2   69   0.352   3.604  11.518 -0.1249  0.1493 -0.5216
    5TCq1    C2   70   0.131   3.699  11.489 -0.6697  0.4530 -0.1251
    5TCq1    C3   71   0.055   3.813  11.521 -0.1247  0.7319  0.4446
    5TCq1    C4   72   4.661   3.806  11.491  0.0293 -0.2225  0.2848
    5TCq1    C5   73   4.597   3.694  11.447 -0.0203  0.1102  0.0935
    5TCq1    C6   74   4.679   3.582  11.419  0.1246  0.8344 -0.3383
    5TCq1    C7   75   0.075   3.584  11.440 -1.0974 -0.4049  0.1808
    5TCq1    C8   76   4.612   3.461  11.368  0.6154  0.0796 -0.3121
    5TCq1    O4   77   4.671   3.387  11.292  0.4790 -0.1585  0.2088
    5TCq1    C9   78   4.573   3.914  11.528  0.0151  0.6678 -0.3260
    5TCq1    O5   79   4.628   3.998  11.604 -0.2875 -0.0434 -0.0708
    5TCq1    O6   80   4.458   3.910  11.492  0.1370  0.0894  0.1890
    5TCq1    H1   81   0.248   3.893  11.447  1.1510  1.8096  1.9802
    5TCq1    H2   82   0.102   3.896  11.573  0.8439 -0.1631  1.0114
    5TCq1    H3   83   4.490   3.691  11.433 -0.0348 -1.4417  0.4549
    5TCq1    H4   84   0.136   3.498  11.416  0.2774  0.6003  0.0668
    6MPD2     C   85   4.262   3.361  11.422  0.0986  0.3380  0.3282
    6MPD2    C1   86   4.393   3.344  11.382 -0.8457 -0.0677  0.1054
    6MPD2    C2   87   4.423   3.233  11.310  0.5318 -0.0214 -0.0587
    6MPD2    C3   88   4.331   3.139  11.280 -0.3281 -0.2035  0.5007
    6MPD2    C4   89   4.198   3.165  11.309  0.0945 -0.2703 -0.3292
    6MPD2    C5   90   4.167   3.271  11.386 -0.1659  0.6151 -0.1465
    6MPD2     H   91   4.524   3.222  11.272  1.0313  2.2020  0.6294
    6MPD2    H1   92   4.114   3.103  11.280  0.5899 -0.5948 -1.0723
    6MPD2    H2   93   4.227   3.435  11.493 -0.6104 -0.7095  1.0615
    6MPD2    H3   94   4.065   3.283  11.422 -0.5771  1.8825 -1.7190
    6MPD2     N   95   4.377   3.030  11.204 -0.3320 -0.2059 -0.5361
    6MPD2    H5   96   4.476   3.025  11.185  0.1074  0.9290  1.4931
    6MPD2    N1   97   4.484   3.446  11.419  1.0605 -0.1349 -0.2534
    6MPD2    H7   98   4.451   3.506  11.494  0.0235 -1.5824  0.4469
    7TCq1    O1   99   2.349   3.068  13.329 -0.3378 -0.8632 -0.6424
    7TCq1    C1  100   2.411   2.949  13.341  0.5936 -0.0067 -0.0999
    7TCq1    O2  101   2.360   2.843  13.322  0.2188  0.0028 -0.3824
    7TCq1    C2  102   2.551   2.963  13.361 -0.0916  0.8165 -0.6715
    7TCq1    C3  103   2.608   3.067  13.426 -0.0033 -0.2168 -0.4306
    7TCq1    C4  104   2.736   3.057  13.475 -0.1831  0.0846  0.2322
    7TCq1    C5  105   2.814   2.952  13.444  0.4332 -0.2797  0.2742
    7TCq1    C6  106   2.754   2.844  13.390 -0.0198 -0.5273 -0.2112
    7TCq1    C7  107   2.622   2.846  13.354  0.0736  0.3759  0.6583
    7TCq1    C8  108   2.831   2.719  13.377  0.2606 -0.0746 -0.6687
    7TCq1    O4  109   2.764   2.616  13.364  0.3720 -0.4903  0.2195
    7TCq1    C9  110   2.782   3.162  13.552  0.1677  0.4607  0.4081
    7TCq1    O5  111   2.699   3.246  13.598 -0.2505 -0.5769  0.0403
    7TCq1    O6  112   2.904   3.168  13.577 -0.4231  0.2172  0.1907
    7TCq1    H1  113   2.415   3.136  13.305 -0.1215 -0.8982 -0.1311
    7TCq1    H2  114   2.551   3.151  13.464  1.9787  0.9859 -0.1208
    7TCq1    H3  115   2.914   2.954  13.486 -0.5732 -0.4096  2.6348
    7TCq1    H4  116   2.581   2.770  13.288  3.0359 -0.2829 -0.4325
    8MPD2     C  117   3.251   2.465  13.544 -0.5153 -0.3782  0.6790
    8MPD2    C1  118   3.116   2.429  13.552  0.9276 -0.3396 -0.5486
    8MPD2    C2  119   3.016   2.522  13.510 -0.2037  0.8377 -0.2074
    8MPD2    C3  120   3.054   2.642  13.457 -0.2814 -0.5793  0.8026
    8MPD2    C4  121   3.183   2.686  13.463  0.9062 -0.0777  0.1907
    8MPD2    C5  122   3.282   2.596  13.497 -0.4426  0.0016  0.1692
    8MPD2     H  123   2.909   2.507  13.524  0.1248  0.5292  1.9361
    8MPD2    H1  124   3.211   2.785  13.428  2.0928 -1.4469 -2.6308
    8MPD2    H2  125   3.340   2.411  13.575 -1.9862 -2.4380  1.2554
    8MPD2    H3  126   3.381   2.640  13.500  0.0734 -1.0724 -1.5320
    8MPD2     N  127   2.964   2.738  13.399 -0.0921  0.0254 -0.8814
    8MPD2    H5  128   2.993   2.834  13.386  1.0456 -0.0682  0.9439
    8MPD2    N1  129   3.086   2.301  13.604 -0.2987 -0.1385  0.9641
    8MPD2    H7  130   3.166   2.246  13.631  1.0949 -0.4453 -3.7819
    9TMC1    C1  131   0.223   1.632  10.995  0.3725 -0.1776  0.9191
    9TMC1    C2  132   0.203   1.503  11.038 -0.5830 -0.3487  0.6504
    9TMC1    C3  133   0.303   1.416  11.009 -0.0783  0.1520 -0.2682
    9TMC1    C4  134   0.327   1.671  10.921 -0.2514 -0.0929 -0.7693
    9TMC1    C5  135   0.428   1.577  10.904 -0.1895  0.3058  0.0594
    9TMC1    C6  136   0.417   1.451  10.948 -0.5435  0.2494 -0.1305
    9TMC1     C  137   0.136   1.735  11.034  0.1158 -0.2961  0.1615
    9TMC1     O  138   0.132   1.841  10.973 -0.0112  0.2843  0.1922
    9TMC1     H  139   0.114   1.478  11.094 -0.2496  0.4552  1.5330
    9TMC1    H1  140   0.345   1.775  10.896 -0.1848  0.0911  0.0311
    9TMC1    H2  141   0.500   1.382  10.940  0.2466  1.3632 -1.4674
    9TMC1    C7  142   0.555   1.612  10.847  0.0529 -0.0932  0.6665
    9TMC1    C8  143   0.278   1.280  11.037 -0.4204  0.6160  0.1926
    9TMC1    O1  144   0.626   1.520  10.819 -0.3060  0.1114 -0.4486
    9TMC1    O2  145   0.207   1.233  11.128  0.1078  0.2470 -0.2703
    9TMC1    O3  146   0.589   1.731  10.899 -0.4875  0.1695 -0.0766
    9TMC1    H3  147   0.523   1.770  10.961 -0.2925  1.5070 -0.7152
    9TMC1    O5  148   0.299   1.213  10.919  0.0157 -0.2250  0.6635
    9TMC1    H5  149   0.317   1.273  10.844 -1.5171  0.0569  0.5242
   10MPD2     C  150   4.709   1.919  11.222 -0.0302 -0.7858  0.2742
   10MPD2    C1  151   0.012   1.792  11.248 -0.0222  0.3185 -0.0681
   10MPD2    C2  152   4.720   1.738  11.375 -0.0719  0.8703 -0.2425
   10MPD2    C3  153   4.651   1.809  11.470 -0.1277  0.2732  0.2349
   10MPD2    C4  154   4.612   1.938  11.446 -0.2149 -0.5465  0.3771
   10MPD2    C5  155   4.644   1.988  11.318 -0.3599  0.0503  0.1703
   10MPD2     H  156   0.026   1.644  11.405  0.5872  1.4129  0.4453
   10MPD2    H1  157   4.555   1.996  11.518  0.7562 -0.7247  1.2846
   10MPD2    H2  158   4.732   1.960  11.124  1.1323 -0.5785  0.6366
   10MPD2    H3  159   4.612   2.090  11.303  0.2693 -0.1281 -2.4348
   10MPD2     N  160   4.625   1.754  11.601  0.0505  0.4253 -0.1640
   10MPD2    H5  161   4.584   1.823  11.663 -1.8043 -2.0179  1.3368
   10MPD2    N1  162   0.087   1.704  11.158  0.2610  0.1860 -0.2350
   10MPD2    H7  163   0.106   1.612  11.196 -1.2983 -0.8877 -2.0550
   11TCq1    O1  164   0.963   2.000  14.606  0.0290  0.2539 -0.3176
   11TCq1    C1  165   1.055   1.902  14.632  0.1138  0.2529  0.2219
   11TCq1    O2  166   1.063   1.839  14.736  0.7237 -0.0627  0.2465
   11TCq1    C2  167   1.091   1.834  14.501 -0.4793 -0.0952 -0.3839
   11TCq1    C3  168   1.082   1.898  14.383  0.1219  0.2181 -0.0189
   11TCq1    C4  169   1.077   1.835  14.264 -0.6668 -0.1603  0.0868
   11TCq1    C5  170   1.074   1.694  14.266 -0.3768 -0.4263 -0.3247
   11TCq1    C6  171   1.071   1.623  14.387 -0.0410  0.0958 -0.2428
   11TCq1    C7  172   1.088   1.697  14.504 -0.1985  0.4549 -0.2597
   11TCq1    C8  173   1.120   1.487  14.394 -0.2895 -0.7557 -0.3586
   11TCq1    O4  174   1.222   1.471  14.458  0.4227 -0.0301  0.4127
   11TCq1    C9  175   1.076   1.914  14.141 -0.1693 -0.0206 -0.0599
   11TCq1    O5  176   1.056   1.848  14.032 -0.7452  0.0562 -0.1154
   11TCq1    O6  177   1.107   2.031  14.150  0.0669  0.3904 -1.2525
   11TCq1    H1  178   0.935   2.003  14.512  0.4528 -0.3198 -0.4665
   11TCq1    H2  179   1.071   2.006  14.384 -2.9420 -0.0820 -0.5856
   11TCq1    H3  180   1.066   1.637  14.174 -1.2729 -1.2133  0.2301
   11TCq1    H4  181   1.094   1.646  14.599  1.1506  0.8221 -0.1424
   12MPD2     C  182   1.178   1.209  14.299 -0.1071 -0.5978  1.2527
   12MPD2    C1  183   1.051   1.268  14.300  0.2197  0.1227  0.4292
   12MPD2    C2  184   0.944   1.189  14.268  0.4787 -0.0412  0.2100
   12MPD2    C3  185   0.962   1.056  14.229  0.3621 -0.5230 -0.8224
   12MPD2    C4  186   1.080   0.997  14.239  0.1061 -0.2616  0.2296
   12MPD2    C5  187   1.191   1.074  14.265 -0.1905  0.8588  0.0359
   12MPD2     H  188   0.849   1.240  14.265  0.5211  0.2556  3.4626
   12MPD2    H1  189   1.092   0.894  14.210 -0.0777  0.2831 -1.7685
   12MPD2    H2  190   1.268   1.266  14.323  0.1053 -0.4675  0.1442
   12MPD2    H3  191   1.293   1.036  14.261 -0.8773 -0.7194 -2.4335
   12MPD2     N  192   0.861   0.967  14.183  0.0182  0.3905  0.0704
   12MPD2    H5  193   0.890   0.872  14.162  0.3472  0.7260 -0.9745
   12MPD2    N1  194   1.035   1.404  14.327  0.5119 -0.3729 -0.9171
   12MPD2    H7  195   0.941   1.443  14.323  1.0014  1.0523  1.2992
   13TCq1    O1  196   0.748   1.587  11.939  0.5704 -0.0719 -0.5508
   13TCq1    C1  197   0.728   1.518  11.827 -0.1603 -0.0329  0.4289
   13TCq1    O2  198   0.725   1.397  11.821  0.4530 -0.5884  0.9315
   13TCq1    C2  199   0.634   1.602  11.767  1.0964 -0.4449  0.1318
   13TCq1    C3  200   0.655   1.660  11.645 -0.2575  0.3074 -0.1734
   13TCq1    C4  201   0.547   1.704  11.567 -0.2460  0.0783 -0.5047
   13TCq1    C5  202   0.425   1.695  11.615  0.3894 -0.2912  0.4671
   13TCq1    C6  203   0.413   1.638  11.736  0.3896  0.6126  0.2690
   13TCq1    C7  204   0.514   1.600  11.816 -0.4697 -0.1642 -0.2376
   13TCq1    C8  205   0.284   1.576  11.747  0.0971 -0.5303 -0.8700
   13TCq1    O4  206   0.191   1.620  11.680  0.0533  0.0295  0.0172
   13TCq1    C9  207   0.558   1.753  11.434 -0.3400  0.5672  0.1652
   13TCq1    O5  208   0.458   1.728  11.359  0.3086  1.1871  0.2567
   13TCq1    O6  209   0.673   1.727  11.392  0.2023  0.5866 -0.3888
   13TCq1    H1  210   0.724   1.682  11.932  1.6584  0.0728 -2.4192
   13TCq1    H2  211   0.756   1.675  11.609 -0.0370 -1.4971 -0.2736
   13TCq1    H3  212   0.341   1.702  11.547  0.0298  1.0450  1.0479
   13TCq1    H4  213   0.504   1.556  11.915 -1.4735  0.1353 -0.2028
   14MPD2     C  214   0.198   1.276  11.954 -0.2076  0.4888  0.2771
   14MPD2    C1  215   0.191   1.364  11.851 -0.8008  0.3898  0.0447
   14MPD2    C2  216   0.094   1.353  11.761 -0.0619  0.7180  0.4602
   14MPD2    C3  217   0.011   1.249  11.751 -0.3794 -0.4791 -0.2010
   14MPD2    C4  218   0.018   1.151  11.852  1.0074 -0.3242  0.0919
   14MPD2    C5  219   0.105   1.175  11.951 -0.2733  0.3277  0.2935
   14MPD2     H  220   0.087   1.416  11.673  1.2846  0.1599 -0.0470
   14MPD2    H1  221   4.692   1.064  11.855  3.5035 -2.2560 -1.1979
   14MPD2    H2  222   0.265   1.298  12.036  0.6059  0.1895 -0.3023
   14MPD2    H3  223   0.097   1.107  12.035 -0.2279  1.2377  1.0308
   14MPD2     N  224   4.653   1.247  11.647 -0.2833 -0.1486  0.3616
   14MPD2    H5  225   4.658   1.333  11.593  0.5080  0.9206  2.1028
   14MPD2    N1  226   0.289   1.471  11.841  0.4153  0.0780 -0.4678
   14MPD2    H7  227   0.370   1.464  11.902  0.3491 -1.8236 -0.5905
   15TCq1    O1  228   1.700   1.129   1.891 -0.2361  0.2420 -0.2399
   15TCq1    C1  229   1.674   1.020   1.809 -0.2957 -0.0084  0.0084
   15TCq1    O2  230   1.587   1.006   1.722  0.2258 -0.6331 -0.0558
   15TCq1    C2  231   1.762   0.912   1.853  0.4518 -0.5295  0.1913
   15TCq1    C3  232   1.819   0.918   1.977 -0.2430  0.2705  0.6842
   15TCq1    C4  233   1.897   0.806   2.012  0.1318 -0.3631 -0.2394
   15TCq1    C5  234   1.932   0.710   1.912  0.1042 -0.6204 -0.1911
   15TCq1    C6  235   1.878   0.716   1.791 -0.0375 -0.2072  0.9569
   15TCq1    C7  236   1.790   0.817   1.760  0.4328  0.4897  0.2802
   15TCq1    C8  237   1.916   0.610   1.694 -0.0143 -0.4279 -0.6722
   15TCq1    O4  238   2.015   0.545   1.717 -0.3650 -0.1554  0.1383
   15TCq1    C9  239   1.970   0.799   2.134  0.4220  0.1174 -0.2176
   15TCq1    O5  240   2.074   0.730   2.128  0.0072  0.4191 -0.2074
   15TCq1    O6  241   1.936   0.880   2.228 -0.6686  0.1278 -0.1717
   15TCq1    H1  242   1.793   1.113   1.917 -0.1960  0.2997 -0.3544
   15TCq1    H2  243   1.793   0.998   2.045  1.1260  1.0015  0.3386
   15TCq1    H3  244   1.991   0.625   1.944  1.1284 -0.0629 -0.6056
   15TCq1    H4  245   1.740   0.811   1.665  0.5435  1.5669  0.1621
   16MPD2     C  246   1.751   0.523   1.382 -0.3991  0.2889 -0.1624
   16MPD2    C1  247   1.845   0.514   1.477  0.1939  0.2741  0.0608
   16MPD2    C2  248   1.955   0.429   1.464 -0.1090  0.2437 -0.4521
   16MPD2    C3  249   1.959   0.340   1.355 -0.2015  0.6314  0.3479
   16MPD2    C4  250   1.858   0.339   1.261  0.1585  0.1489 -0.6123
   16MPD2    C5  251   1.761   0.437   1.276 -0.2206  0.0054 -0.0917
   16MPD2     H  252   2.044   0.431   1.526 -0.2001  2.3172 -0.3643
   16MPD2    H1  253   1.866   0.287   1.167 -2.6058  1.2769 -1.4701
   16MPD2    H2  254   1.671   0.595   1.392 -1.0747 -0.3661 -0.9110
   16MPD2    H3  255   1.680   0.444   1.204  1.2772  2.6917 -1.5026
   16MPD2     N  256   2.072   0.254   1.352  0.1365 -0.0665  0.1676
   16MPD2    H5  257   2.132   0.269   1.432 -1.6623  0.5936  1.4017
   16MPD2    N1  258   1.832   0.607   1.583  0.3393  0.0915 -0.5799
   16MPD2    H7  259   1.760   0.678   1.575  0.8174  0.9082  2.3437
   17TMC1    C1  260   0.057   4.340  10.045  0.2692 -0.2414  0.0763
   17TMC1    C2  261   0.029   4.342  10.182  0.7010 -0.6870  0.0016
   17TMC1    C3  262   4.657   4.268  10.225  0.2684 -0.3992 -0.4599
   17TMC1    C4  263   4.734   4.248   9.962 -0.1815 -0.1271  0.3578
   17TMC1    C5  264   4.625   4.169  10.016  0.4064 -0.7734  0.0298
   17TMC1    C6  265   4.581   4.192  10.138 -0.3075 -0.4996  0.1858
   17TMC1     C  266   0.176   4.409  10.000 -0.4235 -0.6814 -0.8950
   17TMC1     O  267   0.195   4.392   9.879  0.8618 -0.2918  0.1274
   17TMC1     H  268   0.086   4.390  10.261 -0.3423  0.3985  0.1059
   17TMC1    H1  269   0.043   4.226   9.868 -0.5632  0.4450  0.0252
   17TMC1    H2  270   4.492   4.146  10.180 -0.6872  0.4955  0.4873
   17TMC1    C7  271   4.579   4.052   9.939  0.4765 -0.1498  0.1493
   17TMC1    C8  272   4.606   4.296  10.354  0.4945  0.5664 -0.5406
   17TMC1    O1  273   4.528   3.957   9.992 -0.2454  0.0929 -0.6069
   17TMC1    O2  274   4.515   4.228  10.405 -0.4478 -0.0414 -0.3592
   17TMC1    O3  275   4.574   4.082   9.806 -0.1358 -0.2409  0.4487
   17TMC1    H3  276   4.570   4.179   9.793 -0.2736 -0.0579  1.8463
   17TMC1    O5  277   4.613   4.432  10.372  0.2110 -0.4176  0.0596
   17TMC1    H5  278   4.684   4.483  10.327 -1.2541 -0.0983 -1.9031
   18MPD2     C  279   0.405   4.587   9.943 -0.4652  0.0208 -0.6214
   18MPD2    C1  280   0.331   4.600  10.057  0.3157 -0.1478  0.0120
   18MPD2    C2  281   0.356   4.700  10.149 -0.1285  0.6162  0.4446
   18MPD2    C3  282   0.432   0.073  10.111 -0.3553  0.7290  0.4103
   18MPD2    C4  283   0.488   0.071   9.982 -0.0664  0.1266  1.1209
   18MPD2    C5  284   0.482   4.692   9.902  0.0986  0.0237 -0.7102
   18MPD2     H  285   0.306   4.705  10.246 -1.5233 -0.2826 -0.2286
   18MPD2    H1  286   0.543   0.154   9.938 -0.9014  0.0142 -0.1014
   18MPD2    H2  287   0.401   4.497   9.881 -0.3173 -0.5918  0.2544
   18MPD2    H3  288   0.535   4.694   9.807  2.5208  1.0743  0.6665
   18MPD2     N  289   0.432   0.193  10.185 -0.0697  0.1468 -0.1837
   18MPD2    H5  290   0.459   0.271  10.125 -1.0796 -1.0347 -2.1740
   18MPD2    N1  291   0.229   4.505  10.088  0.7616  0.2046  0.5734
   18MPD2    H7  292   0.191   4.520  10.181  0.8756  0.7938  0.5262
   19TMC2    C1  293   1.918   1.228  14.555  0.2391 -0.1150 -0.4986
   19TMC2    C2  294   1.850   1.350  14.550 -0.0993  0.9122 -0.0563
   19TMC2    C3  295   1.743   1.362  14.471 -0.3522  0.4112  0.7461
   19TMC2    C4  296   1.877   1.116  14.488  0.4189 -0.3307 -0.4594
   19TMC2    C5  297   1.763   1.134  14.406  0.4432 -0.8621 -0.4409
   19TMC2    C6  298   1.696   1.258  14.397 -0.6329 -0.2609  0.0145
   19TMC2     C  299   2.045   1.221  14.620 -1.0870 -0.4036  0.1119
   19TMC2     O  300   2.083   1.328  14.673 -0.0005  0.1494 -0.5280
   19TMC2     H  301   1.892   1.423  14.618 -1.4985  2.6561 -1.0702
   19TMC2    H1  302   1.926   1.020  14.481 -2.6825 -1.8720 -1.0482
   19TMC2    H2  303   1.597   1.268  14.353 -0.4945 -0.1519 -0.2698
   19TMC2    C7  304   1.715   1.023  14.325  0.5844  0.2174  1.1182
   19TMC2    C8  305   1.636   1.444  14.523  0.1307 -0.2459  0.5361
   19TMC2    O1  306   1.748   0.912  14.366  0.4203 -0.1410  0.1318
   19TMC2    O2  307   1.560   1.384  14.599  0.5457 -0.7897  0.0801
   19TMC2    O5  308   1.696   1.567  14.553 -0.3043  0.2766  0.1037
   19TMC2    H5  309   1.730   1.614  14.474  3.4155  1.2837  2.2583
   20MPD2     C  310   2.298   1.161  14.777 -0.2251  0.2794 -0.1452
   20MPD2    C1  311   2.239   1.076  14.683  1.0079  0.3584  0.3577
   20MPD2    C2  312   2.301   0.956  14.655  0.2308 -0.2683  0.0016
   20MPD2    C3  313   2.437   0.939  14.692 -0.2721  0.6721 -0.5946
   20MPD2    C4  314   2.504   1.039  14.761  0.9285 -0.3145 -0.8419
   20MPD2    C5  315   2.431   1.147  14.804  0.5160  0.1557  0.4509
   20MPD2     H  316   2.257   0.873  14.601 -0.4628 -0.1143  0.3216
   20MPD2    H1  317   2.611   1.043  14.774  0.8479  0.3970 -0.4024
   20MPD2    H2  318   2.253   1.250  14.819  2.0374  1.0952  0.5792
   20MPD2    H3  319   2.478   1.218  14.871 -1.3013 -0.6744  2.6090
   20MPD2     N  320   2.516   0.822  14.666 -0.0476  0.0549 -0.3458
   20MPD2    H5  321   2.612   0.816  14.698  0.2916  1.9563 -0.9636
   20MPD2    N1  322   2.114   1.097  14.619 -0.2470 -0.3433 -0.1420
   20MPD2    H7  323   2.066   1.023  14.569 -1.0895 -0.9478  1.5668
   21TMC2    C1  324   4.406   1.299  14.671  0.0559  0.6155  0.0010
   21TMC2    C2  325   4.450   1.192  14.742 -0.3544  0.2000 -0.1924
   21TMC2    C3  326   4.444   1.190  14.881 -0.2730  1.1144 -0.3278
   21TMC2    C4  327   4.344   1.402  14.743  0.2048 -0.4602  0.6243
   21TMC2    C5  328   4.335   1.390  14.882  0.5229 -0.2387  0.5625
   21TMC2    C6  329   4.384   1.289  14.955 -0.4406 -0.3096 -0.8931
   21TMC2     C  330   4.444   1.315  14.536  0.5738  0.4756 -0.8593
   21TMC2     O  331   4.509   1.225  14.488  0.0495  0.6355  0.2869
   21TMC2     H  332   4.489   1.105  14.691 -1.1420  0.1401 -0.6984
   21TMC2    H1  333   4.313   1.491  14.690 -1.3586 -0.5967  1.3236
   21TMC2    H2  334   4.389   1.296  15.063 -0.4568  4.5085 -1.1699
   21TMC2    C7  335   4.281   1.497  14.964 -0.8241 -0.5165  0.0446
   21TMC2    C8  336   4.478   1.069  14.954 -0.1758 -0.0448 -0.5240
   21TMC2    O1  337   4.296   1.486  15.081 -0.0592 -0.6070 -0.6950
   21TMC2    O2  338   4.468   1.059  15.074 -0.2056  0.2298 -0.3642
   21TMC2    O5  339   4.571   1.004  14.882 -0.2929  0.2169 -0.7245
   21TMC2    H5  340   4.566   0.910  14.908 -0.5844  0.0543 -1.3682
   22MPD2     C  341   4.537   1.574  14.117  0.3194  0.5491 -0.2454
   22MPD2    C1  342   4.609   1.472  14.178 -0.1909 -0.4584 -0.4511
   22MPD2    C2  343   4.560   1.429  14.294  0.2189  0.3129  0.0753
   22MPD2    C3  344   4.447   1.478  14.352 -0.3486  0.7508  0.6172
   22MPD2    C4  345   4.380   1.585  14.292  0.7502  0.1268 -0.0338
   22MPD2    C5  346   4.427   1.630  14.172 -0.5311 -0.9351  0.4522
   22MPD2     H  347   4.622   1.349  14.333  0.5390  0.7160  0.4012
   22MPD2    H1  348   4.293   1.638  14.327 -1.2702 -1.2243 -3.0196
   22MPD2    H2  349   4.572   1.625  14.028 -0.0745  1.7213  0.2775
   22MPD2    H3  350   4.382   1.716  14.123 -1.2288 -1.0052  0.9698
   22MPD2     N  351   4.386   1.429  14.472 -0.4997  0.5663  0.6907
   22MPD2    H5  352   4.318   1.490  14.515 -0.1036  1.7840 -0.3840
   22MPD2    N1  353   4.719   1.408  14.119  0.7831  0.4234 -0.9619
   22MPD2    H7  354   0.025   1.333  14.171 -1.3096  1.2032  2.0045
   23TMC2    C1  355   0.881   2.933  14.621  0.6175 -0.0377 -0.2237
   23TMC2    C2  356   0.788   2.946  14.717 -0.1199  0.0599  0.0536
   23TMC2    C3  357   0.664   2.991  14.693  0.0626  0.5919 -0.3917
   23TMC2    C4  358   0.847   2.950  14.487 -0.1598  0.4698 -0.0575
   23TMC2    C5  359   0.718   2.994  14.466 -0.9649 -0.4310  0.2773
   23TMC2    C6  360   0.626   3.012  14.564  0.3818 -0.0050 -0.4934
   23TMC2     C  361   1.018   2.891  14.658  0.3868 -0.1622 -0.0045
   23TMC2     O  362   1.036   2.852  14.771  0.5850  0.3278  0.4620
   23TMC2     H  363   0.821   2.939  14.820 -0.4807  2.3002  0.3193
   23TMC2    H1  364   0.923   2.950  14.410 -0.3546 -0.6992 -0.2420
   23TMC2    H2  365   0.527   3.050  14.543  0.3990 -0.3209 -1.1387
   23TMC2    C7  366   0.700   3.064  14.331  0.4104  0.2963 -0.0603
   23TMC2    C8  367   0.577   3.022  14.805  0.0868 -0.7352 -0.3687
   23TMC2    O1  368   0.800   3.094  14.264 -0.1837  0.0372 -0.4923
   23TMC2    O2  369   0.512   2.946  14.874  0.0369 -0.1825  0.2360
   23TMC2    O5  370   0.552   3.148  14.774 -0.2700  0.2357  0.0086
   23TMC2    H5  371   0.634   3.184  14.735  0.7583 -2.6082 -0.4081
   24MPD2     C  372   1.447   2.681  14.504 -0.5860  0.1723  0.2598
   24MPD2    C1  373   1.391   2.675  14.628  0.2807 -1.0200  0.0535
   24MPD2    C2  374   1.273   2.750  14.644 -0.7037 -0.2804 -0.3509
   24MPD2    C3  375   1.219   2.825  14.541 -0.7121  0.1302 -0.7725
   24MPD2    C4  376   1.280   2.832  14.416  0.4407 -0.3803 -0.1007
   24MPD2    C5  377   1.393   2.757  14.396 -0.4001  0.1835 -0.5723
   24MPD2     H  378   1.236   2.736  14.745 -0.7582  1.3923 -0.1385
   24MPD2    H1  379   1.245   2.893  14.334 -1.2476 -2.8865 -1.2657
   24MPD2    H2  380   1.538   2.627  14.479 -1.0097 -0.9113  1.0708
   24MPD2    H3  381   1.444   2.765  14.301  1.3159 -0.7947  0.2737
   24MPD2     N  382   1.100   2.899  14.546  0.6546  0.1060  0.0708
   24MPD2    H5  383   1.070   2.949  14.464  1.4736  1.6682  0.7241
   24MPD2    N1  384   1.446   2.589  14.732 -0.1319 -0.6931  0.5203
   24MPD2    H7  385   1.390   2.596  14.816 -0.6293 -0.4060  0.1701
   25TMC2    C1  386   3.913   0.262  11.375 -0.1908 -0.5714 -0.0109
   25TMC2    C2  387   3.788   0.285  11.319 -0.2726  0.2029  0.6462
   25TMC2    C3  388   3.709   0.383  11.373 -0.8360  0.2781  0.3180
   25TMC2    C4  389   3.948   0.326  11.489 -0.7628 -0.0382  0.3963
   25TMC2    C5  390   3.860   0.412  11.544 -0.0472  0.3468 -0.0362
   25TMC2    C6  391   3.741   0.450  11.488 -0.5109  0.4674 -0.1274
   25TMC2     C  392   3.963   0.128  11.358 -0.1311 -0.7215 -0.4152
   25TMC2     O  393   3.891   0.046  11.302  0.5446  0.1512  0.1571
   25TMC2     H  394   3.748   0.225  11.238 -3.5339  1.6629  1.1772
   25TMC2    H1  395   4.032   0.292  11.549  0.1134 -2.0242 -1.9080
   25TMC2    H2  396   3.662   0.512  11.528 -0.5790 -0.4437  1.1629
   25TMC2    C7  397   3.902   0.476  11.666 -0.9294  0.2472  0.0164
   25TMC2    C8  398   3.579   0.403  11.323  0.4429 -0.0403 -0.3710
   25TMC2    O1  399   3.985   0.412  11.731  0.2384 -0.1431 -0.2445
   25TMC2    O2  400   3.518   0.314  11.265  0.1794 -0.1502  0.0986
   25TMC2    O5  401   3.573   0.538  11.290  0.4352  0.0566 -0.3458
   25TMC2    H5  402   3.651   0.594  11.311  1.1784 -1.4302  0.8523
   26MPD2     C  403   4.307   4.492  11.431  0.4683  0.7796  0.6012
   26MPD2    C1  404   4.199   4.497  11.349 -0.1589  0.8684 -0.1223
   26MPD2    C2  405   4.127   4.613  11.341  0.5293  0.0712  0.3673
   26MPD2    C3  406   4.166   4.733  11.403 -0.4540 -0.5831  0.1721
   26MPD2    C4  407   4.290   4.726  11.470  0.6231 -0.4710 -0.1094
   26MPD2    C5  408   4.357   4.608  11.485  0.6640  0.3735 -0.0708
   26MPD2     H  409   4.028   4.609  11.298 -0.8189  4.5674  3.0697
   26MPD2    H1  410   4.336   0.076  11.510 -2.1831  0.3324  1.3619
   26MPD2    H2  411   4.365   4.401  11.445 -1.3957 -0.4649  0.3620
   26MPD2    H3  412   4.454   4.599  11.534  1.2662 -0.6927 -1.4624
   26MPD2     N  413   4.095   0.113  11.394 -0.1472 -0.4725  0.4226
   26MPD2    H5  414   4.149   0.188  11.436 -1.6974  1.1685 -0.5399
   26MPD2    N1  415   4.151   4.377  11.282  0.0240  0.5419 -0.1258
   26MPD2    H7  416   4.207   4.294  11.300 -1.7605 -0.1973  2.1397
   27TMC2    C1  417   3.603   2.103  12.110 -0.0203  0.3496  0.0344
   27TMC2    C2  418   3.644   2.218  12.046  0.4623 -0.4871  0.2302
   27TMC2    C3  419   3.720   2.303  12.120  0.5322 -0.0808  0.1635
   27TMC2    C4  420   3.627   2.084  12.245 -0.0734 -0.1905 -0.4925
   27TMC2    C5  421   3.695   2.174  12.312  0.3725 -0.2838 -0.0546
   27TMC2    C6  422   3.751   2.282  12.247 -0.0153  0.1198 -0.1072
   27TMC2     C  423   3.482   2.035  12.058  0.3175  0.1176 -0.2343
   27TMC2     O  424   3.469   2.026  11.937  0.9405  0.0128  0.1220
   27TMC2     H  425   3.614   2.244  11.945  0.5873 -1.2510 -0.0071
   27TMC2    H1  426   3.588   1.997  12.296  1.3162 -1.4619 -1.5938
   27TMC2    H2  427   3.809   2.350  12.309  2.5168 -0.3732 -1.9226
   27TMC2    C7  428   3.689   2.171  12.457 -0.3718 -0.0719  0.5956
   27TMC2    C8  429   3.755   2.429  12.060  0.4103  0.2517  0.4712
   27TMC2    O1  430   3.699   2.067  12.521 -0.2634 -0.4916  1.0052
   27TMC2    O2  431   3.691   2.484  11.971 -0.2578 -0.4718  0.4688
   27TMC2    O5  432   3.888   2.423  12.059  0.0375 -0.5576  0.1290
   27TMC2    H5  433   3.929   2.360  12.123  0.1167 -0.5141  0.1215
   28MPD2     C  434   3.050   1.773  12.164  0.1576 -0.2800 -0.0460
   28MPD2    C1  435   3.065   1.873  12.264 -0.5966  0.4874 -0.4681
   28MPD2    C2  436   3.173   1.957  12.244  0.0069  0.6710 -0.0122
   28MPD2    C3  437   3.266   1.946  12.137  0.6816 -0.3935 -0.2658
   28MPD2    C4  438   3.239   1.855  12.038 -0.0234 -0.3015  0.0441
   28MPD2    C5  439   3.131   1.776  12.052 -0.4100  0.5759  0.2939
   28MPD2     H  440   3.196   2.031  12.319  0.7671 -0.1144  0.5153
   28MPD2    H1  441   3.307   1.838  11.955 -0.6881  1.1789 -0.8118
   28MPD2    H2  442   2.973   1.697  12.167 -0.4935  0.4752  2.1212
   28MPD2    H3  443   3.107   1.687  11.995  1.5477 -2.1819  3.7607
   28MPD2     N  444   3.389   2.015  12.156  0.5342 -0.1142  0.3592
   28MPD2    H5  445   3.395   2.069  12.242  1.3798  1.0773 -0.4470
   28MPD2    N1  446   2.974   1.896  12.368 -0.0356  0.0455 -0.4167
   28MPD2    H7  447   2.899   1.828  12.362  0.6696 -0.6986 -0.8444
   29TMC2    C1  448   2.774   4.692  14.808 -0.6370 -0.2743 -0.0957
   29TMC2    C2  449   2.782   4.716  14.940  0.6562  0.3094 -0.4440
   29TMC2    C3  450   2.872   0.073  14.978  0.0937  0.6013 -0.0891
   29TMC2    C4  451   2.846   0.020  14.716  0.4712 -0.4969  0.0181
   29TMC2    C5  452   2.938   0.116  14.754 -0.2361  0.3736 -0.2862
   29TMC2    C6  453   2.947   0.151  14.889  0.3957  0.3043  0.2571
   29TMC2     C  454   2.717   4.568  14.768 -0.0188 -0.1466 -0.0073
   29TMC2     O  455   2.733   4.476  14.847  0.3400 -0.2256 -0.6792
   29TMC2     H  456   2.711   4.679  15.013  0.8747 -0.0682 -0.4216
   29TMC2    H1  457   2.833   0.007  14.609 -3.0934 -0.0053  0.4075
   29TMC2    H2  458   3.001   0.234  14.934 -0.6258  0.6574  0.8488
   29TMC2    C7  459   2.987   0.213  14.657 -0.2050  0.2970 -0.0421
   29TMC2    C8  460   2.887   0.105  15.118  0.2475  0.0548 -0.4577
   29TMC2    O1  461   2.939   0.218  14.544 -0.0511 -0.2056 -0.0285
   29TMC2    O2  462   2.932   0.211  15.158  0.1639  0.1014 -0.3537
   29TMC2    O5  463   2.856   4.738  15.195 -0.5522 -0.2832 -0.1988
   29TMC2    H5  464   2.846   4.650  15.153  0.6862  0.4847 -2.1034
   30MPD2     C  465   2.561   4.231  14.421 -0.4360 -0.1225 -0.3142
   30MPD2    C1  466   2.655   4.226  14.521 -0.2596 -0.1353 -0.0124
   30MPD2    C2  467   2.687   4.340  14.591  0.1747  0.1647 -0.8622
   30MPD2    C3  468   2.631   4.465  14.565 -0.0766  0.4330  0.6441
   30MPD2    C4  469   2.528   4.456  14.467 -0.0392 -0.7228 -0.4697
   30MPD2    C5  470   2.500   4.349  14.396 -0.4496 -0.0739  0.6657
   30MPD2     H  471   2.768   4.327  14.662  1.0237 -1.4252 -2.1271
   30MPD2    H1  472   2.475   4.546  14.436 -0.6552 -1.7276 -2.2922
   30MPD2    H2  473   2.534   4.150  14.354  0.0412 -2.2506  2.0871
   30MPD2    H3  474   2.427   4.353  14.316  1.2441 -1.7217 -0.9481
   30MPD2     N  475   2.664   4.577  14.642 -0.5498 -0.2692  0.4420
   30MPD2    H5  476   2.646   4.669  14.603  0.8449 -0.2292 -0.1019
   30MPD2    N1  477   2.712   4.104  14.557  0.1884 -0.7545  0.1697
   30MPD2    H7  478   2.788   4.101  14.625 -1.3120 -0.8358  1.8468
   31TMC2    C1  479   0.553   3.224  15.718 -0.1751 -0.3837 -1.5020
   31TMC2    C2  480   0.496   3.262  15.835  0.1735  0.7951 -0.1650
   31TMC2    C3  481   0.554   3.222  15.949 -0.1410 -0.4870  0.2069
   31TMC2    C4  482   0.677   3.169  15.715 -0.1323  0.0482 -0.2947
   31TMC2    C5  483   0.736   3.140  15.831  0.0771 -0.6776  0.1798
   31TMC2    C6  484   0.684   3.165  15.954 -0.3217 -0.1951 -0.5663
   31TMC2     C  485   0.501   3.263  15.594  0.6724  0.2029  0.2111
   31TMC2     O  486   0.588   3.277  15.511 -0.7583  0.2189 -0.0844
   31TMC2     H  487   0.393   3.291  15.853  0.0763  0.0698  0.4558
   31TMC2    H1  488   0.686   3.122  15.618 -0.0982 -0.0411 -0.2481
   31TMC2    H2  489   0.730   3.127  16.045 -0.4860 -2.4339 -1.4275
   31TMC2    C7  490   0.869   3.080  15.822 -0.0668  0.2132 -0.3145
   31TMC2    C8  491   0.459   3.145  16.018 -0.6309  0.6662 -0.1740
   31TMC2    O1  492   0.932   3.056  15.921 -0.6149 -0.5672  0.3854
   31TMC2    O2  493   0.372   3.094  15.953  0.1972 -0.0804 -0.1653
   31TMC2    O5  494   0.519   3.089  16.124  0.0338 -0.4686 -0.0077
   31TMC2    H5  495   0.581   3.157  16.158  0.9056 -0.8668 -0.7819
   32MPD2     C  496   0.187   3.556  15.315  0.7014 -0.1737  0.2421
   32MPD2    C1  497   0.302   3.492  15.276  0.1351  0.3939  0.5251
   32MPD2    C2  498   0.366   3.396  15.354 -0.1035  0.1274  0.1962
   32MPD2    C3  499   0.309   3.370  15.482 -0.6474  0.4634 -0.3172
   32MPD2    C4  500   0.196   3.436  15.520 -0.2705  0.1451 -0.3218
   32MPD2    C5  501   0.135   3.522  15.435 -0.4533  0.8904 -0.0916
   32MPD2     H  502   0.455   3.343  15.323 -0.2570  0.4289 -0.7354
   32MPD2    H1  503   0.154   3.417  15.618 -0.3039 -1.3815 -0.6320
   32MPD2    H2  504   0.133   3.628  15.254  0.8951 -1.0904 -1.0380
   32MPD2    H3  505   0.046   3.576  15.466  2.6295  4.0870  3.1580
   32MPD2     N  506   0.368   3.297  15.588  0.2580 -0.5397 -0.1849
   32MPD2    H5  507   0.311   3.274  15.669  1.0567 -0.0079  0.5313
   32MPD2    N1  508   0.349   3.539  15.148 -0.3282  0.3171 -0.1559
   32MPD2    H7  509   0.286   3.597  15.094 -1.0050 -0.1349  0.1432
   33TMC2    C1  510   0.654   1.141   9.748 -0.1056  0.1469 -0.3945
   33TMC2    C2  511   0.609   1.078   9.635  0.6285 -0.7904 -0.1155
   33TMC2    C3  512   0.602   1.151   9.521 -0.0794 -0.6311  0.3524
   33TMC2    C4  513   0.675   1.278   9.746  0.3518 -0.0161  0.4697
   33TMC2    C5  514   0.662   1.344   9.629 -0.2503  0.2836  0.1696
   33TMC2    C6  515   0.630   1.282   9.509 -0.0422 -0.4001  0.3720
   33TMC2     C  516   0.628   1.066   9.872  0.2121  0.3354  1.1233
   33TMC2     O  517   0.608   0.947   9.860 -0.0704  0.5417  0.2696
   33TMC2     H  518   0.593   0.971   9.625 -2.0756 -0.3882  0.1609
   33TMC2    H1  519   0.705   1.326   9.838  1.4607 -0.3675  0.2904
   33TMC2    H2  520   0.597   1.329   9.417  1.0500 -2.0788 -0.8792
   33TMC2    C7  521   0.716   1.480   9.634  0.0590  0.0871 -0.7468
   33TMC2    C8  522   0.539   1.104   9.407  0.2082 -0.9021  0.2067
   33TMC2    O1  523   0.797   1.505   9.726  0.2701  0.2821  0.2303
   33TMC2    O2  524   0.585   1.115   9.290 -0.3400 -0.4295 -0.5486
   33TMC2    O5  525   0.431   1.036   9.451 -0.5165  0.8624  0.0695
   33TMC2    H5  526   0.401   1.066   9.540 -2.6620  0.2190 -0.4538
   34MPD2     C  527   0.473   1.034  10.372  0.3108  0.1257 -0.3078
   34MPD2    C1  528   0.492   0.933  10.279  0.5064 -0.2544  0.4895
   34MPD2    C2  529   0.554   0.960  10.152  0.6075  0.2063  0.4656
   34MPD2    C3  530   0.578   1.094  10.110 -0.0750  0.6461 -0.3144
   34MPD2    C4  531   0.551   1.196  10.201 -0.0050  0.3030  0.3386
   34MPD2    C5  532   0.502   1.154  10.326  0.2131  0.0975 -0.5019
   34MPD2     H  533   0.571   0.884  10.078 -0.5980 -0.0700  0.4745
   34MPD2    H1  534   0.558   1.302  10.177 -1.5206  0.2155 -0.4643
   34MPD2    H2  535   0.411   1.013  10.458  0.4980 -0.1265 -0.2354
   34MPD2    H3  536   0.486   1.227  10.404 -0.8661 -0.7857  0.1002
   34MPD2     N  537   0.617   1.145   9.987  0.1517  0.0544  0.5197
   34MPD2    H5  538   0.628   1.246   9.991 -0.9113  0.1401  1.1459
   34MPD2    N1  539   0.470   0.810  10.333  0.8762  0.1169 -0.3717
   34MPD2    H7  540   0.413   0.817  10.417 -0.1820  2.5028 -1.3094
   35TMC2    C1  541   2.035   2.055  11.200 -0.5348 -0.4406  0.1649
   35TMC2    C2  542   1.996   2.058  11.069  0.4054 -0.3617 -0.2643
   35TMC2    C3  543   1.870   2.103  11.051 -0.4226 -0.0998  0.1900
   35TMC2    C4  544   1.958   2.105  11.305 -0.0744  0.3494 -0.0070
   35TMC2    C5  545   1.830   2.143  11.275  0.0395  0.1044  0.4250
   35TMC2    C6  546   1.781   2.141  11.149 -0.0061 -0.6023 -0.8034
   35TMC2     C  547   2.161   1.983  11.218 -0.2895  0.8004  0.3419
   35TMC2     O  548   2.226   1.961  11.123 -0.0066  0.5006 -0.0559
   35TMC2     H  549   2.061   2.032  10.986  0.4948  0.8979 -0.5980
   35TMC2    H1  550   1.983   2.094  11.409 -0.1721  0.3203  0.0132
   35TMC2    H2  551   1.681   2.173  11.122 -0.8083 -1.1361  1.5514
   35TMC2    C7  552   1.725   2.118  11.377 -0.2254 -1.1279  0.5821
   35TMC2    C8  553   1.824   2.131  10.917  0.2820 -0.3714  0.0440
   35TMC2    O1  554   1.753   2.050  11.475  0.6524  0.1957  0.1039
   35TMC2    O2  555   1.706   2.140  10.890 -0.2014 -0.0826  0.3422
   35TMC2    O5  556   1.929   2.202  10.856 -0.0191 -0.0440 -0.6803
   35TMC2    H5  557   2.014   2.210  10.904 -0.4033 -0.5657  0.0856
   36MPD2     C  558   2.516   1.773  11.502 -0.6050  0.0038 -0.5750
   36MPD2    C1  559   2.453   1.864  11.589  0.8718  0.6749  0.4084
   36MPD2    C2  560   2.342   1.925  11.532  0.4599  0.4075  0.0688
   36MPD2    C3  561   2.300   1.908  11.402 -0.3099 -0.0223 -0.0738
   36MPD2    C4  562   2.365   1.816  11.319 -0.1561 -0.8295 -0.0383
   36MPD2    C5  563   2.479   1.758  11.368  0.0703 -0.0612  0.0247
   36MPD2     H  564   2.278   1.986  11.594 -1.3614 -0.3106 -1.0858
   36MPD2    H1  565   2.338   1.793  11.217 -1.2922  2.0052 -0.3979
   36MPD2    H2  566   2.605   1.717  11.529 -1.6001 -0.7551  1.1691
   36MPD2    H3  567   2.542   1.695  11.306 -1.5272  0.8274 -2.5127
   36MPD2     N  568   2.193   1.984  11.347 -0.7807  0.4139 -0.4603
   36MPD2    H5  569   2.137   2.040  11.410  0.5167 -0.0162  1.1110
   36MPD2    N1  570   2.517   1.895  11.713 -0.1672 -0.4941 -0.2208
   36MPD2    H7  571   2.594   1.839  11.747  0.7396  0.8582 -0.0651
   37TMC2    C1  572   3.553   2.813  11.907 -0.2223 -0.3093 -0.9244
   37TMC2    C2  573   3.436   2.858  11.849 -0.1598 -0.6844 -0.4444
   37TMC2    C3  574   3.441   2.880  11.717 -0.0330 -0.5262  0.9003
   37TMC2    C4  575   3.670   2.802  11.833 -0.1536 -0.1483  0.1918
   37TMC2    C5  576   3.670   2.827  11.703 -0.2609 -0.4137 -0.1178
   37TMC2    C6  577   3.547   2.856  11.642  0.2189  0.2163  0.1168
   37TMC2     C  578   3.560   2.810  12.054  0.6732  0.7105 -0.1921
   37TMC2     O  579   3.460   2.829  12.121 -0.0480 -0.2465  0.4051
   37TMC2     H  580   3.349   2.879  11.910  1.3989  0.0476  1.5248
   37TMC2    H1  581   3.756   2.763  11.886 -0.5018 -0.1426  0.7575
   37TMC2    H2  582   3.542   2.870  11.535  2.0262 -1.1637 -0.1567
   37TMC2    C7  583   3.791   2.795  11.635  0.2732 -0.8218 -0.1773
   37TMC2    C8  584   3.307   2.879  11.659  0.7342  0.5732  0.0657
   37TMC2    O1  585   3.886   2.806  11.710  0.2341 -0.1268 -0.3635
   37TMC2    O2  586   3.216   2.802  11.698  0.6995 -0.5027  0.3676
   37TMC2    O5  587   3.327   2.927  11.530  0.4878 -0.2317 -0.2300
   37TMC2    H5  588   3.407   2.983  11.523 -0.8586  1.9087  1.6115
   38MPD2     C  589   3.817   2.767  12.498 -0.5948  0.2747 -0.7828
   38MPD2    C1  590   3.878   2.693  12.407  0.7020  0.5637  0.4489
   38MPD2    C2  591   3.832   2.698  12.275  0.4985 -0.2673 -0.5616
   38MPD2    C3  592   3.722   2.770  12.237  0.1760  0.4117 -0.3584
   38MPD2    C4  593   3.657   2.845  12.334  0.4790  0.3349  0.4262
   38MPD2    C5  594   3.706   2.842  12.465 -0.1243  0.0961  0.2270
   38MPD2     H  595   3.887   2.644  12.198 -1.7374 -1.4721 -1.3148
   38MPD2    H1  596   3.563   2.897  12.315  0.2664  0.4058  1.6779
   38MPD2    H2  597   3.849   2.775  12.602  0.1460 -1.2364 -0.9024
   38MPD2    H3  598   3.651   2.904  12.535  0.9244 -1.2957  2.2446
   38MPD2     N  599   3.679   2.756  12.105  0.0749 -0.3231 -0.1797
   38MPD2    H5  600   3.748   2.716  12.042  0.8589 -1.8214  1.5820
   38MPD2    N1  601   4.001   2.617  12.439  0.0829 -0.6573  0.4669
   38MPD2    H7  602   4.052   2.584  12.358  0.7053 -0.0270  0.6000
   39TMC2    C1  603   2.368   0.388   1.729  1.1366 -0.6785  0.3388
   39TMC2    C2  604   2.313   0.508   1.688  0.3405 -0.3776  0.4200
   39TMC2    C3  605   2.391   0.621   1.683  0.0650 -0.2513 -0.0623
   39TMC2    C4  606   2.499   0.380   1.762 -0.0885 -0.0404 -0.2379
   39TMC2    C5  607   2.569   0.494   1.760  0.3898 -0.5630  0.5414
   39TMC2    C6  608   2.523   0.615   1.722  0.9077 -0.1912 -0.2502
   39TMC2     C  609   2.292   0.264   1.695  0.1761 -0.1193 -0.5297
   39TMC2     O  610   2.196   0.271   1.618  0.5540 -0.4911  0.5177
   39TMC2     H  611   2.222   0.507   1.630  1.4539  0.4063 -1.3390
   39TMC2    H1  612   2.552   0.288   1.782  1.5975  1.4308  2.1117
   39TMC2    H2  613   2.580   0.707   1.725  1.3398 -0.4648 -0.1130
   39TMC2    C7  614   2.712   0.475   1.766 -0.8692  0.0741 -0.1910
   39TMC2    C8  615   2.325   0.747   1.693 -0.3766  0.0247 -0.0491
   39TMC2    O1  616   2.747   0.408   1.862 -0.2901 -0.1446 -0.2779
   39TMC2    O2  617   2.396   0.845   1.710 -0.6160 -0.0092 -0.4318
   39TMC2    O5  618   2.209   0.724   1.762  0.3503  0.5927  0.6361
   39TMC2    H5  619   2.151   0.647   1.750  2.3245 -0.9775  1.2101
   40MPD2     C  620   2.387   4.664   1.777 -0.3977 -1.1600 -0.5825
   40MPD2    C1  621   2.307   0.021   1.730  0.8570 -0.3432  0.0570
   40MPD2    C2  622   2.201   4.720   1.653 -1.2594 -0.9581 -0.1102
   40MPD2    C3  623   2.167   4.587   1.637  0.2434 -0.3221  0.4586
   40MPD2    C4  624   2.250   4.491   1.681 -0.1436  0.1081  0.4635
   40MPD2    C5  625   2.361   4.529   1.754  0.4125 -0.1167 -0.0093
   40MPD2     H  626   2.129   0.052   1.614  0.5751  0.4238 -0.9917
   40MPD2    H1  627   2.236   4.389   1.646  0.5260 -0.0632  0.6940
   40MPD2    H2  628   2.471   4.693   1.838 -1.6360 -0.6859  0.8950
   40MPD2    H3  629   2.434   4.453   1.778  0.5562  0.1942  0.5480
   40MPD2     N  630   2.060   4.539   1.556  0.2616 -0.4558 -0.1746
   40MPD2    H5  631   2.056   4.440   1.537  0.7137 -0.3640 -0.7659
   40MPD2    N1  632   2.351   0.151   1.748 -0.4240 -0.4206 -0.0786
   40MPD2    H7  633   2.428   0.171   1.811 -0.5092  0.0382 -0.1158
   41TMC2    C1  634   1.905   1.907  14.061  0.4079  0.7074  0.7389
   41TMC2    C2  635   1.905   1.781  14.107 -0.5160  0.3554  0.1840
   41TMC2    C3  636   1.834   1.694  14.031 -0.1738  0.4957  0.0274
   41TMC2    C4  637   1.822   1.953  13.960 -0.1290 -0.3801  0.6485
   41TMC2    C5  638   1.749   1.859  13.896 -0.8002  0.0070  0.4909
   41TMC2    C6  639   1.756   1.721  13.921  0.3939  0.9443 -0.9846
   41TMC2     C  640   1.921   2.008  14.165  0.2588 -0.2055  0.6471
   41TMC2     O  641   1.859   2.114  14.171 -0.0699 -0.3383 -0.5596
   41TMC2     H  642   1.952   1.741  14.196  1.0596  0.7258 -0.4762
   41TMC2    H1  643   1.815   2.061  13.946  0.7379 -0.2447  1.2786
   41TMC2    H2  644   1.702   1.647  13.863 -0.1065  1.4764 -1.2024
   41TMC2    C7  645   1.687   1.897  13.767  0.2967 -0.2252  0.0361
   41TMC2    C8  646   1.856   1.551  14.047 -0.3951  0.3437  0.1021
   41TMC2    O1  647   1.637   1.801  13.707 -0.2382 -0.1159 -0.2238
   41TMC2    O2  648   1.854   1.471  13.956  0.3052 -0.5775 -0.0106
   41TMC2    O5  649   1.792   1.536  14.167  1.0329  0.1104  0.3878
   41TMC2    H5  650   1.787   1.622  14.214 -1.1944  0.6322 -0.7836
   42MPD2     C  651   1.956   2.119  14.439 -1.0219  0.1329 -0.1481
   42MPD2    C1  652   2.036   2.018  14.389 -0.3601 -0.2641 -0.1784
   42MPD2    C2  653   2.134   1.958  14.467  0.0136 -0.5634 -0.0679
   42MPD2    C3  654   2.157   2.012  14.596 -0.2578 -0.4926 -0.3606
   42MPD2    C4  655   2.072   2.112  14.645  0.2590 -0.3351 -0.7961
   42MPD2    C5  656   1.970   2.160  14.567 -0.0304  0.8029  0.7776
   42MPD2     H  657   2.196   1.878  14.428  0.2692  1.3041 -3.4853
   42MPD2    H1  658   2.089   2.162  14.740  0.2109  0.7064 -1.3336
   42MPD2    H2  659   1.878   2.170  14.384 -1.6041 -0.4056  0.1714
   42MPD2    H3  660   1.903   2.237  14.602 -0.9253  0.2328  0.3157
   42MPD2     N  661   2.247   1.960  14.693  0.1710  0.6241  0.3176
   42MPD2    H5  662   2.271   2.021  14.770 -0.3325  0.6809  0.4273
   42MPD2    N1  663   2.012   1.967  14.256  0.6938  0.0651 -0.5647
   42MPD2    H7  664   2.067   1.887  14.228  1.9323  1.1433 -1.2105
   43TMC2    C1  665   2.670   0.623   0.878 -0.4805  0.5181 -0.7606
   43TMC2    C2  666   2.548   0.680   0.869  0.0181 -0.0957  0.2391
   43TMC2    C3  667   2.495   0.731   0.981  0.5571  0.3040  0.2421
   43TMC2    C4  668   2.743   0.623   0.990 -0.1096  0.1214  0.3842
   43TMC2    C5  669   2.688   0.687   1.098  0.8799  0.3710  0.4516
   43TMC2    C6  670   2.570   0.752   1.096 -0.5857 -0.0528  0.3924
   43TMC2     C  671   2.733   0.537   0.781 -0.0192 -0.1861 -0.5929
   43TMC2     O  672   2.832   0.469   0.805 -0.2000 -0.1372  0.0822
   43TMC2     H  673   2.490   0.682   0.777  1.3990 -1.7379 -0.6873
   43TMC2    H1  674   2.838   0.572   0.996 -0.1355 -0.0608 -0.7150
   43TMC2    H2  675   2.519   0.802   1.177 -0.5440 -2.5071  1.9353
   43TMC2    C7  676   2.780   0.742   1.191 -0.8567  0.2392 -0.4208
   43TMC2    C8  677   2.363   0.786   0.982  0.0504 -0.5449  0.2461
   43TMC2    O1  678   2.897   0.709   1.186  0.4186 -0.0795  0.6714
   43TMC2    O2  679   2.312   0.869   1.059 -0.3018 -0.9985 -0.2066
   43TMC2    O5  680   2.285   0.703   0.910  0.1353  0.2690 -0.5744
   43TMC2    H5  681   2.341   0.623   0.898  0.9758  0.9146 -0.9854
   44MPD2     C  682   2.737   0.407   0.276 -0.1926 -1.4112  0.7691
   44MPD2    C1  683   2.833   0.386   0.369 -0.5295  0.1309 -0.0563
   44MPD2    C2  684   2.814   0.430   0.505 -0.1486  0.3652  0.0390
   44MPD2    C3  685   2.689   0.493   0.532 -0.3901  0.1541  1.0657
   44MPD2    C4  686   2.595   0.501   0.435 -0.6046  0.2301  0.1156
   44MPD2    C5  687   2.617   0.458   0.309 -0.6537 -0.4318  0.3459
   44MPD2     H  688   2.895   0.409   0.574 -0.1772  2.2304  0.6537
   44MPD2    H1  689   2.496   0.540   0.459 -0.4926 -0.9602  2.4798
   44MPD2    H2  690   2.737   0.366   0.176 -2.8041  0.1183  0.1252
   44MPD2    H3  691   2.542   0.463   0.232 -0.8706  2.8726  0.7695
   44MPD2     N  692   2.658   0.532   0.667 -0.0363 -0.2096  0.2647
   44MPD2    H5  693   2.570   0.581   0.679 -0.6644 -0.8572 -1.6822
   44MPD2    N1  694   2.957   0.318   0.348  0.2185 -0.4709  0.5138
   44MPD2    H7  695   3.020   0.311   0.427  1.5328 -2.9734 -0.7383
   45TMC2    C1  696   4.079   2.085   9.983  0.5893  0.3975  0.6853
   45TMC2    C2  697   4.207   2.036  10.018  0.1795  0.2195  0.1609
   45TMC2    C3  698   4.289   2.103  10.102  0.9040  0.4405 -0.3137
   45TMC2    C4  699   4.040   2.210  10.028  0.1820  0.3982  0.8095
   45TMC2    C5  700   4.128   2.279  10.109  0.1042  0.2192  0.2739
   45TMC2    C6  701   4.251   2.227  10.151 -0.3574  0.0659  0.6851
   45TMC2     C  702   4.002   2.015   9.888  0.2808  0.5433 -0.0474
   45TMC2     O  703   4.013   1.894   9.898 -0.4870 -0.1512  0.1290
   45TMC2     H  704   4.238   1.936   9.992  0.3910  0.4875 -0.6218
   45TMC2    H1  705   3.940   2.250  10.009 -0.3385 -2.0028 -1.5656
   45TMC2    H2  706   4.319   2.296  10.200 -0.1956 -0.0280  0.5914
   45TMC2    C7  707   4.098   2.414  10.152  0.1290  0.6129  0.3778
   45TMC2    C8  708   4.421   2.050  10.134  0.0653 -0.2757  0.3524
   45TMC2    O1  709   4.170   2.458  10.235 -0.8947  0.5298  0.1706
   45TMC2    O2  710   4.429   1.925  10.120  0.6180  0.9799  0.0200
   45TMC2    O5  711   4.503   2.136  10.068 -0.7167  0.1430  0.1793
   45TMC2    H5  712   4.470   2.228  10.069 -1.2376 -0.0425 -0.4213
   46MPD2     C  713   3.801   1.902   9.698  0.1766 -0.3583  0.3342
   46MPD2    C1  714   3.806   2.029   9.749 -0.1770 -0.2402  0.0709
   46MPD2    C2  715   3.697   2.113   9.728  0.5197  0.1993 -0.3165
   46MPD2    C3  716   3.583   2.064   9.668 -0.4242 -0.3046  0.3286
   46MPD2    C4  717   3.580   1.936   9.630 -0.3303 -0.8316  0.4277
   46MPD2    C5  718   3.685   1.855   9.648 -0.2231  0.5203 -0.6778
   46MPD2     H  719   3.700   2.217   9.756  1.3387  0.2068 -0.4184
   46MPD2    H1  720   3.497   1.880   9.587  1.2345 -2.5358 -0.3893
   46MPD2    H2  721   3.889   1.839   9.704  1.6160  1.6305  0.1420
   46MPD2    H3  722   3.678   1.752   9.618 -1.4319 -0.3010  2.4481
   46MPD2     N  723   3.465   2.138   9.658 -0.5473 -0.7634  0.4789
   46MPD2    H5  724   3.478   2.237   9.674 -0.1132 -0.5725 -1.0803
   46MPD2    N1  725   3.904   2.087   9.830  0.3921 -0.2628 -0.0227
   46MPD2    H7  726   3.898   2.185   9.855  2.7442  0.4176 -2.0552
   47TMC2    C1  727   0.446   3.728   9.900  0.3181 -0.3357 -0.5541
   47TMC2    C2  728   0.427   3.614   9.825  0.4587  0.1141  0.1497
   47TMC2    C3  729   0.329   3.612   9.734  0.8396  0.3611 -0.5824
   47TMC2    C4  730   0.362   3.838   9.881  0.5436 -0.1276  0.3480
   47TMC2    C5  731   0.260   3.829   9.789 -0.0821  0.3615  0.3286
   47TMC2    C6  732   0.247   3.724   9.701  0.2999  0.0634  0.1552
   47TMC2     C  733   0.549   3.749   9.995 -0.7609  0.3022 -0.5085
   47TMC2     O  734   0.541   3.837  10.082  0.7358 -1.0536  0.1634
   47TMC2     H  735   0.497   3.532   9.838  1.1821  0.8983  1.2245
   47TMC2    H1  736   0.366   3.923   9.948  0.7952  0.4774 -0.4255
   47TMC2    H2  737   0.158   3.710   9.642  0.8486 -2.8092  0.0387
   47TMC2    C7  738   0.210   3.955   9.746 -0.4941 -0.5030 -0.0709
   47TMC2    C8  739   0.361   3.509   9.637  0.2530 -0.5280 -0.1325
   47TMC2    O1  740   0.218   4.042   9.829  0.4997 -0.0204  0.8054
   47TMC2    O2  741   0.451   3.430   9.652  0.0778  0.2529  0.0910
   47TMC2    O5  742   0.348   3.574   9.519  0.3176 -0.1770 -0.6053
   47TMC2    H5  743   0.284   3.647   9.535  1.8190  0.9524  0.2228
   48MPD2     C  744   0.820   3.759  10.133 -0.7002 -0.6076 -0.2323
   48MPD2    C1  745   0.785   3.680  10.025  0.5181 -0.6223  0.4614
   48MPD2    C2  746   0.886   3.605   9.961 -0.6152  0.4611 -0.1168
   48MPD2    C3  747   1.015   3.600  10.006 -0.3461  0.6835  0.1592
   48MPD2    C4  748   1.055   3.675  10.118  0.1851  0.3681  0.2810
   48MPD2    C5  749   0.955   3.747  10.175 -0.5327  0.3385 -0.0272
   48MPD2     H  750   0.873   3.539   9.876 -2.0945 -0.3384  0.7315
   48MPD2    H1  751   1.150   3.666  10.170 -0.1889  0.1867  0.9376
   48MPD2    H2  752   0.753   3.816  10.196 -0.2792  1.1759 -1.3811
   48MPD2    H3  753   0.989   3.794  10.266 -0.9455  0.6607 -0.0355
   48MPD2     N  754   1.098   3.520   9.934  0.4734 -0.0340 -0.3496
   48MPD2    H5  755   1.058   3.462   9.860  0.4368  1.1997 -1.3166
   48MPD2    N1  756   0.656   3.676   9.957 -0.4255  0.4316  0.3454
   48MPD2    H7  757   0.657   3.631   9.866 -0.3929  0.2240  0.4472
   49TMC2    C1  758   4.650   0.248  10.514 -0.6820  0.4007 -0.5000
   49TMC2    C2  759   4.701   0.122  10.524  0.0007  0.0444  0.6983
   49TMC2    C3  760   0.040   0.074  10.424 -0.8949 -0.0526  0.1399
   49TMC2    C4  761   4.677   0.332  10.406  0.6396  0.5811  0.4180
   49TMC2    C5  762   0.022   0.278  10.307  0.4568 -0.7822  0.2529
   49TMC2    C6  763   0.071   0.149  10.314 -0.1780 -0.1618 -0.3558
   49TMC2     C  764   4.554   0.300  10.612  0.4402 -0.8528  0.9332
   49TMC2     O  765   4.511   0.220  10.690  0.3211  0.1756 -0.4096
   49TMC2     H  766   4.666   0.068  10.611  3.2974 -2.7198  0.3156
   49TMC2    H1  767   4.625   0.424  10.381  0.0354  0.1292  0.0150
   49TMC2    H2  768   0.124   0.106  10.229 -2.0400  1.6781 -2.4321
   49TMC2    C7  769   0.088   0.364  10.214  0.4737 -0.0704 -0.3011
   49TMC2    C8  770   0.077   4.672  10.422  0.2108 -0.4543  0.3595
   49TMC2    O1  771   0.144   0.311  10.118  0.1747 -0.7105  0.5273
   49TMC2    O2  772   0.087   4.607  10.321 -0.0143  0.6742 -0.0623
   49TMC2    O5  773   0.089   4.626  10.550  0.1786  0.0943  0.4705
   49TMC2    H5  774   0.086   4.696  10.618 -1.3305 -0.5239  1.0245
   50MPD2     C  775   4.330   0.442  10.735 -0.1219 -0.1975  0.2954
   50MPD2    C1  776   4.431   0.507  10.667 -0.1763 -0.3550 -0.2047
   50MPD2    C2  777   4.428   0.643  10.655  0.1560 -0.2920  0.6175
   50MPD2    C3  778   4.323   0.718  10.708  0.1530 -0.4515  0.1184
   50MPD2    C4  779   4.226   0.651  10.785 -0.6115 -0.6308 -0.0335
   50MPD2    C5  780   4.232   0.510  10.808  0.0127  0.3462  0.1731
   50MPD2     H  781   4.508   0.697  10.605  0.8315 -2.5103 -0.6787
   50MPD2    H1  782   4.151   0.703  10.843 -2.0093 -1.0431 -1.4755
   50MPD2    H2  783   4.327   0.334  10.748 -0.6208  0.1031  2.6153
   50MPD2    H3  784   4.154   0.456  10.859 -0.7517  0.5146 -0.8180
   50MPD2     N  785   4.314   0.858  10.712 -0.1824  0.5773 -0.1502
   50MPD2    H5  786   4.234   0.897  10.760 -0.7201 -0.8994  0.1673
   50MPD2    N1  787   4.527   0.434  10.599 -0.2915  1.0468  0.7986
   50MPD2    H7  788   4.588   0.495  10.545  3.2152 -2.8208  0.4079
   51TMC2    C1  789   0.044   3.928   1.579  0.1576  0.1786 -0.3094
   51TMC2    C2  790   0.014   3.870   1.699  1.1488  0.7577  0.1712
   51TMC2    C3  791   4.640   3.905   1.763 -0.6959  0.1913  0.0127
   51TMC2    C4  792   4.693   4.024   1.529  0.0780 -0.1738  0.3169
   51TMC2    C5  793   4.580   4.061   1.596 -0.1089  0.2532 -1.2424
   51TMC2    C6  794   4.550   3.997   1.717 -0.5289  0.6794  0.5563
   51TMC2     C  795   0.167   3.895   1.507 -0.0332  0.5837  0.0529
   51TMC2     O  796   0.183   3.943   1.396 -0.1291 -0.4872  0.0437
   51TMC2     H  797   0.071   3.790   1.746 -0.1965 -0.4463 -0.2301
   51TMC2    H1  798   4.719   4.077   1.438  2.6108 -1.8869  0.0340
   51TMC2    H2  799   4.479   4.033   1.790 -0.8892 -1.3663  1.2132
   51TMC2    C7  800   4.481   4.157   1.543  0.0357 -0.6592 -0.0512
   51TMC2    C8  801   4.616   3.842   1.889  0.6145  0.1437 -0.0464
   51TMC2    O1  802   4.368   4.153   1.587 -0.5008  0.2053 -0.1237
   51TMC2    O2  803   4.701   3.811   1.974 -1.4018 -0.6581  0.5323
   51TMC2    O5  804   4.500   3.782   1.870 -0.3066 -0.0550 -0.9272
   51TMC2    H5  805   4.466   3.778   1.779 -2.2896  1.3315 -0.2441
   52MPD2     C  806   0.601   3.631   1.434  0.5069 -0.0596  0.6399
   52MPD2    C1  807   0.503   3.681   1.349  0.6377  0.8879 -0.2836
   52MPD2    C2  808   0.398   3.748   1.398  0.1346  0.4657 -0.4737
   52MPD2    C3  809   0.378   3.766   1.532 -0.0690 -0.7593 -0.1283
   52MPD2    C4  810   0.468   3.703   1.621 -0.2233 -0.0509  0.1974
   52MPD2    C5  811   0.582   3.653   1.566  0.2075 -0.1212 -0.5052
   52MPD2     H  812   0.324   3.780   1.325  0.6743 -0.0166 -1.2390
   52MPD2    H1  813   0.453   3.703   1.729  1.2838 -1.7114  0.3969
   52MPD2    H2  814   0.696   3.590   1.404 -0.6607  0.5691 -3.8440
   52MPD2    H3  815   0.660   3.611   1.629  0.3561  1.4508  0.3749
   52MPD2     N  816   0.256   3.818   1.585  0.0761  0.3189 -0.1307
   52MPD2    H5  817   0.225   3.796   1.679  1.2034 -1.0627 -0.0928
   52MPD2    N1  818   0.509   3.669   1.207 -0.2977  0.1820  0.0749
   52MPD2    H7  819   0.439   3.716   1.150  0.1254  1.8358  0.9295
   53TMC2    C1  820   4.472   2.551  11.479  0.2690 -0.1795 -0.4731
   53TMC2    C2  821   4.596   2.568  11.419  0.8224 -0.3771  0.5471
   53TMC2    C3  822   4.712   2.568  11.497 -0.4187 -0.0460 -0.2082
   53TMC2    C4  823   4.470   2.540  11.617  0.5279 -0.2883  0.4778
   53TMC2    C5  824   4.590   2.541  11.688  0.4172  0.1750  0.3643
   53TMC2    C6  825   4.712   2.563  11.629  0.7892 -0.1100 -0.4625
   53TMC2     C  826   4.353   2.561  11.400 -0.4367 -0.8198 -0.2899
   53TMC2     O  827   4.364   2.509  11.288  0.0018 -0.2387 -0.3332
   53TMC2     H  828   4.607   2.576  11.311  1.0404  2.6637  0.7891
   53TMC2    H1  829   4.379   2.528  11.674  0.7765  0.6492  1.0736
   53TMC2    H2  830   0.062   2.573  11.690  0.5817 -2.0665  0.1567
   53TMC2    C7  831   4.567   2.560  11.833 -0.1040  0.1118 -0.5923
   53TMC2    C8  832   0.096   2.543  11.420  0.0580 -0.4384  0.1035
   53TMC2    O1  833   4.460   2.603  11.870 -0.6950 -0.2359 -0.3162
   53TMC2    O2  834   0.089   2.501  11.303 -0.1100  0.6062  0.6374
   53TMC2    O5  835   0.207   2.574  11.491  0.4911 -0.0948  0.5506
   53TMC2    H5  836   0.206   2.619  11.578 -2.3893 -0.6529  0.8110
   54MPD2     C  837   4.079   2.539  11.294  0.1087 -0.0974 -0.0702
   54MPD2    C1  838   4.112   2.600  11.413  0.1725 -0.0693  0.4416
   54MPD2    C2  839   4.007   2.652  11.485 -0.1328 -0.2803  0.0518
   54MPD2    C3  840   3.877   2.656  11.441  0.2026 -0.0086  0.4633
   54MPD2    C4  841   3.842   2.599  11.319  0.2128  0.8096  0.2353
   54MPD2    C5  842   3.946   2.538  11.251  0.5341 -0.3287  0.3839
   54MPD2     H  843   4.035   2.701  11.578 -1.6535  1.0294 -0.1639
   54MPD2    H1  844   3.741   2.599  11.280  0.6991  0.7884 -1.0059
   54MPD2    H2  845   4.152   2.492  11.229 -0.4739 -2.1525  0.7802
   54MPD2    H3  846   3.921   2.492  11.156  0.7247  3.4580 -1.4815
   54MPD2     N  847   3.773   2.717  11.516 -0.3744  0.2961 -0.5315
   54MPD2    H5  848   3.686   2.713  11.464 -2.7290  0.7163  3.4165
   54MPD2    N1  849   4.241   2.602  11.471 -0.5202 -0.0025 -0.3724
   54MPD2    H7  850   4.248   2.641  11.565 -0.8966 -0.4341 -0.1620
   55TMC2    C1  851   1.508   0.694   0.259  0.0266  0.2712  0.0349
   55TMC2    C2  852   1.549   0.659   0.137 -0.3345 -0.1330 -0.4649
   55TMC2    C3  853   1.557   0.528   0.109  0.4980 -0.1341 -0.2186
   55TMC2    C4  854   1.503   0.600   0.361  0.6643  0.1307  0.3807
   55TMC2    C5  855   1.543   0.467   0.335  0.5554 -0.9178  0.3112
   55TMC2    C6  856   1.560   0.430   0.205 -0.0569 -0.1224  0.0217
   55TMC2     C  857   1.445   0.822   0.295  0.2500  0.1951  1.1199
   55TMC2     O  858   1.383   0.825   0.400 -0.7080 -0.1299  0.6104
   55TMC2     H  859   1.524   0.730   0.058  0.5808  0.4455 -0.2309
   55TMC2    H1  860   1.486   0.634   0.463  0.3920  0.8761  0.0844
   55TMC2    H2  861   1.562   0.328   0.168 -0.1072  0.5077 -1.6829
   55TMC2    C7  862   1.520   0.358   0.431  0.0970  0.2641  0.2366
   55TMC2    C8  863   1.580   0.495  17.721 -0.2357  0.5396  0.0346
   55TMC2    O1  864   1.562   0.245   0.413  0.1897 -0.4610  0.0291
   55TMC2    O2  865   1.587   0.579  17.639  0.3343  0.1208  0.0971
   55TMC2    O5  866   1.665   0.391  17.718  0.4295  0.3077 -0.2278
   55TMC2    H5  867   1.668   0.330   0.039 -2.0987  1.4046  0.7478
   56MPD2     C  868   1.400   1.121   0.092  0.1669  0.6184 -0.0878
   56MPD2    C1  869   1.361   1.026   0.180 -0.9525  0.0605 -0.4014
   56MPD2    C2  870   1.267   1.063   0.275  0.6427  0.3534  0.0271
   56MPD2    C3  871   1.205   1.186   0.282 -0.5418 -0.2194 -0.0356
   56MPD2    C4  872   1.246   1.280   0.192 -1.3259  0.2508 -0.0755
   56MPD2    C5  873   1.345   1.246   0.101 -0.0142  0.1502 -0.8790
   56MPD2     H  874   1.248   0.993   0.356  1.6538  0.0163 -0.0196
   56MPD2    H1  875   1.213   1.383   0.195  0.3893  0.8059 -0.2965
   56MPD2    H2  876   1.475   1.106   0.015  0.8009  0.0206  0.6539
   56MPD2    H3  877   1.373   1.320   0.027  0.7590 -0.3411 -1.0720
   56MPD2     N  878   1.103   1.210   0.381 -0.3431 -0.6674  0.1710
   56MPD2    H5  879   1.076   1.126   0.432 -1.0731 -0.5536 -0.0276
   56MPD2    N1  880   1.441   0.911   0.188 -0.4205  0.3573  0.1381
   56MPD2    H7  881   1.512   0.903   0.116  0.8813  0.2887  1.4439
   57TMC2    C1  882   4.584   1.181  13.139 -0.8425 -0.4817  0.4060
   57TMC2    C2  883   4.674   1.278  13.177  0.2424 -0.4779  0.2345
   57TMC2    C3  884   0.070   1.250  13.166  0.1094 -0.0818  0.3425
   57TMC2    C4  885   4.624   1.059  13.097  0.0064  0.0202 -0.0377
   57TMC2    C5  886   0.017   1.034  13.077 -0.1194  0.0942 -0.3088
   57TMC2    C6  887   0.112   1.127  13.112  0.2109  0.2236 -0.1463
   57TMC2     C  888   4.475   1.177  13.235 -0.5284 -0.0500  0.1745
   57TMC2     O  889   4.478   1.259  13.323  0.5572 -0.1057 -0.3120
   57TMC2     H  890   4.653   1.383  13.186 -0.7243 -0.6486 -0.0969
   57TMC2    H1  891   4.548   0.982  13.100 -0.2385  0.3052  1.0715
   57TMC2    H2  892   0.217   1.108  13.094  0.3413  0.7791  0.0297
   57TMC2    C7  893   0.044   0.914  13.008 -0.5148 -0.2643 -0.7558
   57TMC2    C8  894   0.166   1.359  13.164  0.2300 -0.0726 -0.0826
   57TMC2    O1  895   4.693   0.879  12.932  0.4149 -0.1024  0.5189
   57TMC2    O2  896   0.131   1.478  13.177  0.6913 -0.5434  0.3531
   57TMC2    O5  897   0.267   1.309  13.233  0.0269 -0.5767 -0.2924
   57TMC2    H5  898   0.259   1.212  13.248 -1.8381 -0.4737 -0.7201
   58MPD2     C  899   4.068   0.999  13.481  0.3689 -0.1446  0.4843
   58MPD2    C1  900   4.190   1.045  13.531 -0.5403  0.0834 -0.0530
   58MPD2    C2  901   4.286   1.081  13.439 -0.2620  0.0151 -0.4239
   58MPD2    C3  902   4.268   1.060  13.301  0.1848  0.0836 -0.6961
   58MPD2    C4  903   4.155   1.001  13.263  1.3707  0.4420 -0.2609
   58MPD2    C5  904   4.056   0.974  13.347 -0.3834  0.5190  0.4007
   58MPD2     H  905   4.379   1.110  13.486 -0.4278  1.9946 -1.3015
   58MPD2    H1  906   4.146   0.976  13.158  0.1735  0.3547 -0.1392
   58MPD2    H2  907   3.987   0.979  13.550 -1.4741 -0.0986 -1.6894
   58MPD2    H3  908   3.956   0.953  13.309  0.0545  1.3319 -1.2062
   58MPD2     N  909   4.371   1.095  13.204 -0.0617  0.1480  0.0161
   58MPD2    H5  910   4.352   1.072  13.107 -1.1107  1.2238 -0.0313
   58MPD2    N1  911   4.215   1.055  13.669  0.8206 -0.0977 -0.4685
   58MPD2    H7  912   4.303   1.086  13.708  1.2337  0.4810 -1.8421
   59TMC2    C1  913   2.876   1.491  12.922 -0.2553  0.3774 -0.2367
   59TMC2    C2  914   2.842   1.394  13.015 -0.6047  0.4928  0.2273
   59TMC2    C3  915   2.777   1.289  12.963  0.1249  0.0477  0.7013
   59TMC2    C4  916   2.845   1.481  12.791 -0.4259  0.4534  0.2622
   59TMC2    C5  917   2.779   1.372  12.751  0.1678  0.0780  0.6819
   59TMC2    C6  918   2.739   1.272  12.832  0.3041 -0.2704  0.2009
   59TMC2     C  919   2.926   1.617  12.974  0.1867 -0.2017  0.6455
   59TMC2     O  920   2.926   1.709  12.889 -0.0376  0.8820  0.0352
   59TMC2     H  921   2.866   1.398  13.120  0.3500  3.0646 -0.1050
   59TMC2    H1  922   2.866   1.560  12.720  0.7877 -0.5246 -0.4618
   59TMC2    H2  923   2.695   1.185  12.786  0.9457 -2.3036  3.4698
   59TMC2    C7  924   2.760   1.346  12.605 -0.0791  0.2033  0.2019
   59TMC2    C8  925   2.746   1.186  13.066 -0.1471 -0.1337 -0.6844
   59TMC2    O1  926   2.766   1.227  12.571 -0.2725  0.6601  0.5076
   59TMC2    O2  927   2.730   1.220  13.182  0.0367  0.6754 -0.1894
   59TMC2    O5  928   2.717   1.064  13.019  0.4106  0.1601  0.3931
   59TMC2    H5  929   2.751   1.053  12.928 -1.4984 -1.3956 -0.1456
   60MPD2     C  930   2.984   1.859  13.138 -0.5938  0.2793  0.0798
   60MPD2    C1  931   3.017   1.728  13.173  0.7567 -0.3622 -0.2588
   60MPD2    C2  932   3.095   1.712  13.284  0.0113  0.0750  0.1067
   60MPD2    C3  933   3.144   1.818  13.362  0.1645  0.2568 -0.3450
   60MPD2    C4  934   3.112   1.944  13.321  0.1427  0.4750  0.4280
   60MPD2    C5  935   3.038   1.963  13.210  0.0409 -0.1880  0.4173
   60MPD2     H  936   3.112   1.610  13.317 -1.9755 -0.8820 -1.8314
   60MPD2    H1  937   3.134   2.032  13.381  0.4610  0.8021 -0.1718
   60MPD2    H2  938   2.925   1.881  13.050 -0.1129  1.0875 -0.0414
   60MPD2    H3  939   3.002   2.063  13.189  0.4950 -0.0660  0.2101
   60MPD2     N  940   3.216   1.785  13.480 -0.3864 -0.0583  0.1330
   60MPD2    H5  941   3.253   1.865  13.531  0.9997 -0.0919 -0.8120
   60MPD2    N1  942   2.984   1.614  13.097  0.4125  0.1106 -0.2954
   60MPD2    H7  943   3.007   1.523  13.135  1.5152 -0.1771 -1.6233
   61TMC2    C1  944   1.985   2.896  15.889  0.0191  0.3404 -0.8999
   61TMC2    C2  945   1.914   2.849  15.997  0.2042  1.1750  0.0844
   61TMC2    C3  946   1.810   2.930  16.030 -0.3086 -0.1984  0.1146
   61TMC2    C4  947   1.964   3.020  15.823 -0.3153  1.2333  0.6672
   61TMC2    C5  948   1.860   3.093  15.869  0.2801 -0.9485 -0.1189
   61TMC2    C6  949   1.780   3.047  15.967  0.1987 -0.1266  0.2171
   61TMC2     C  950   2.098   2.816  15.850  0.5948 -0.2252  0.4886
   61TMC2     O  951   2.152   2.735  15.925 -0.2404 -0.0823  0.0944
   61TMC2     H  952   1.941   2.751  16.036 -3.7271  0.8289  1.9487
   61TMC2    H1  953   2.047   3.068  15.774 -1.4175  1.9496 -0.4850
   61TMC2    H2  954   1.692   3.096  16.008 -1.6833 -0.4742 -3.4774
   61TMC2    C7  955   1.859   3.231  15.828 -0.5170  0.1215 -0.4351
   61TMC2    C8  956   1.717   2.874  16.111 -0.0143  0.2792 -0.0286
   61TMC2    O1  957   1.901   3.259  15.713  0.6952  0.3080 -0.1006
   61TMC2    O2  958   1.598   2.899  16.112 -0.1723 -0.6421 -0.3277
   61TMC2    O5  959   1.782   2.853  16.225  0.1265 -0.0669  0.5113
   61TMC2    H5  960   1.866   2.903  16.220 -2.0057  3.8034  3.3481
   62MPD2     C  961   2.266   2.650  15.677 -0.0442  0.2512 -0.9200
   62MPD2    C1  962   2.233   2.781  15.642 -0.1315 -0.3125 -0.1346
   62MPD2    C2  963   2.279   2.839  15.529  0.0151  0.2248  0.1897
   62MPD2    C3  964   2.371   2.765  15.456  0.1604 -0.5757 -0.1254
   62MPD2    C4  965   2.423   2.647  15.498  0.6455 -0.3332 -0.5766
   62MPD2    C5  966   2.364   2.586  15.607 -0.9411 -0.1322  0.1653
   62MPD2     H  967   2.234   2.935  15.506 -1.3219 -0.2110  0.9666
   62MPD2    H1  968   2.498   2.590  15.443  0.0632 -2.0564  0.4246
   62MPD2    H2  969   2.220   2.593  15.757  1.2302  1.8726  0.9980
   62MPD2    H3  970   2.389   2.485  15.637 -0.8838 -0.2897 -0.4189
   62MPD2     N  971   2.417   2.802  15.332  0.2158  0.2579  0.3380
   62MPD2    H5  972   2.505   2.768  15.296  0.1113  0.4419 -0.0897
   62MPD2    N1  973   2.132   2.844  15.718  0.1213  0.4450  0.4437
   62MPD2    H7  974   2.088   2.924  15.673  1.2149  1.8415  1.8821
   63TMC2    C1  975   1.398   2.747  11.170 -0.2907  0.0420  0.3606
   63TMC2    C2  976   1.420   2.813  11.283  0.9874  0.4146 -0.2337
   63TMC2    C3  977   1.519   2.904  11.290  0.7077 -0.3852 -0.5228
   63TMC2    C4  978   1.475   2.765  11.065  0.2663 -0.1917  0.2164
   63TMC2    C5  979   1.578   2.847  11.070  0.0403 -0.0991  0.3483
   63TMC2    C6  980   1.601   2.926  11.177 -0.7139  0.1453 -0.2977
   63TMC2     C  981   1.307   2.640  11.181 -0.4931  0.3089  0.4849
   63TMC2     O  982   1.267   2.621  11.296 -0.1101 -0.1032 -0.0441
   63TMC2     H  983   1.359   2.808  11.372  1.7803 -0.1540  0.2814
   63TMC2    H1  984   1.469   2.693  10.984 -1.8166  0.1640  0.0508
   63TMC2    H2  985   1.671   3.008  11.178 -0.9315  0.3453 -1.2717
   63TMC2    C7  986   1.618   2.913  10.949  0.1702  0.5244  0.0172
   63TMC2    C8  987   1.555   2.957  11.422 -0.4064 -0.0004 -0.5078
   63TMC2    O1  988   1.734   2.954  10.942 -0.4364  0.0626  0.1545
   63TMC2    O2  989   1.472   2.967  11.510  0.6702 -0.9293  0.0653
   63TMC2    O5  990   1.682   3.004  11.422  0.3631  0.0210  0.0649
   63TMC2    H5  991   1.737   2.980  11.344  0.7551  0.7469  0.1232
   64MPD2     C  992   1.072   2.206  11.045 -0.4872  0.0390  0.2849
   64MPD2    C1  993   1.154   2.249  10.942  0.3706  0.2793  0.3512
   64MPD2    C2  994   1.231   2.363  10.958  1.0956 -0.7529 -0.3107
   64MPD2    C3  995   1.212   2.444  11.070  0.0756 -0.1102  0.5270
   64MPD2    C4  996   1.118   2.404  11.172 -0.4067 -0.0907  0.5771
   64MPD2    C5  997   1.051   2.286  11.157 -0.0138 -0.3468 -0.1345
   64MPD2     H  998   1.292   2.406  10.879 -2.0973 -0.6373 -2.7001
   64MPD2    H1  999   1.090   2.474  11.249 -1.5873  0.5616 -0.4428
   64MPD2    H2 1000   1.018   2.112  11.043 -0.3785 -0.0377  0.8073
   64MPD2    H3 1001   0.976   2.251  11.227  1.2350 -0.6002  1.0860
   64MPD2     N 1002   1.275   2.570  11.067 -0.0008 -0.7230  0.5291
   64MPD2    H5 1003   1.325   2.590  10.981 -1.6408 -0.2693 -0.3287
   64MPD2    N1 1004   1.171   2.169  10.823  0.3778 -0.6395 -0.0915
   64MPD2    H7 1005   1.250   2.194  10.764 -0.3843 -2.7653 -1.9861
   65TMC2    C1 1006   2.574   3.121  15.529 -0.1748  0.3653 -0.0974
   65TMC2    C2 1007   2.672   3.047  15.466 -0.2690 -0.2257  0.4661
   65TMC2    C3 1008   2.780   3.116  15.413  0.6575 -0.0367  0.6198
   65TMC2    C4 1009   2.574   3.257  15.529  0.4128 -0.2853 -0.5344
   65TMC2    C5 1010   2.682   3.318  15.470  0.1405 -0.3249 -0.5102
   65TMC2    C6 1011   2.793   3.251  15.422 -0.0391 -0.2749 -0.0140
   65TMC2     C 1012   2.557   3.099  15.668 -0.3625  0.8803 -0.1680
   65TMC2     O 1013   2.566   3.198  15.743  0.6682  0.1271 -0.0781
   65TMC2     H 1014   2.662   2.940  15.451 -0.6604 -0.2634  1.0043
   65TMC2    H1 1015   2.484   3.307  15.563  0.6627 -0.7646  0.8322
   65TMC2    H2 1016   2.883   3.309  15.406  0.4791 -1.0975 -0.1171
   65TMC2    C7 1017   2.721   3.441  15.536 -0.2404 -0.1719 -0.2630
   65TMC2    C8 1018   2.883   3.025  15.350 -0.3607 -0.6213  0.3524
   65TMC2    O1 1019   2.792   3.525  15.481  0.1752  0.4168 -0.2974
   65TMC2    O2 1020   2.862   2.919  15.297  0.2718  0.3677 -0.4910
   65TMC2    O5 1021   3.003   3.082  15.350 -0.3750 -0.4052 -0.9032
   65TMC2    H5 1022   3.016   3.154  15.415  0.6677 -1.6930  0.3224
   66MPD2     C 1023   2.593   2.983  15.935  0.8537  0.0896  0.2657
   66MPD2    C1 1024   2.577   2.907  15.822  0.5756 -1.0689  0.4481
   66MPD2    C2 1025   2.591   2.766  15.821  0.9423 -0.9358 -0.2099
   66MPD2    C3 1026   2.625   2.707  15.944 -0.4100  0.3005  0.0022
   66MPD2    C4 1027   2.638   2.787  16.055 -0.6100  0.3470  0.3357
   66MPD2    C5 1028   2.622   2.926  16.053 -0.9246  0.0977 -0.8115
   66MPD2     H 1029   2.584   2.722  15.722  2.4410 -2.0776  0.2089
   66MPD2    H1 1030   2.665   2.741  16.149 -0.1440 -3.8691 -1.8456
   66MPD2    H2 1031   2.593   3.092  15.934 -0.2820  0.0889  0.2720
   66MPD2    H3 1032   2.636   2.989  16.140  0.9067 -0.5373 -0.6652
   66MPD2     N 1033   2.665   2.573  15.953  0.2149  0.3777  0.6384
   66MPD2    H5 1034   2.700   2.544  16.043  3.5962 -0.0433 -0.8152
   66MPD2    N1 1035   2.558   2.962  15.692 -0.0335 -0.3276  0.2042
   66MPD2    H7 1036   2.551   2.900  15.612 -0.7232  0.0203 -0.0008
   67TMC2    C1 1037   2.976   1.914  14.423 -0.1973  0.1871  0.1577
   67TMC2    C2 1038   3.047   1.805  14.473 -0.2495  0.8643  0.4327
   67TMC2    C3 1039   3.096   1.822  14.600 -0.5377  0.6837  0.0163
   67TMC2    C4 1040   2.966   2.033  14.492 -0.0605 -0.2902 -0.3744
   67TMC2    C5 1041   3.024   2.044  14.617  0.2300 -1.1514 -0.5560
   67TMC2    C6 1042   3.087   1.939  14.671 -0.0889 -0.0850  0.2757
   67TMC2     C 1043   2.891   1.872  14.311  0.9231 -0.2039 -1.1442
   67TMC2     O 1044   2.901   1.755  14.280  0.0229 -0.6575 -0.0061
   67TMC2     H 1045   3.077   1.723  14.408  2.4706  1.2133  1.2201
   67TMC2    H1 1046   2.934   2.122  14.440  0.2953 -0.8179 -1.5015
   67TMC2    H2 1047   3.138   1.943  14.767  0.0664  0.9489  0.1517
   67TMC2    C7 1048   3.012   2.167  14.689  0.3495  0.3924 -1.1298
   67TMC2    C8 1049   3.178   1.717  14.659 -0.0604 -0.4604 -0.2618
   67TMC2    O1 1050   2.983   2.273  14.632  0.4281  0.3994 -0.4297
   67TMC2    O2 1051   3.260   1.725  14.748 -0.1560  0.1113  0.1303
   67TMC2    O5 1052   3.108   1.601  14.640 -0.7711 -0.8879 -0.0498
   67TMC2    H5 1053   3.033   1.600  14.577 -0.6216 -0.2598 -0.2335
   68MPD2     C 1054   2.762   1.843  14.041  0.6539 -0.7531  0.8866
   68MPD2    C1 1055   2.767   1.963  14.111 -0.7635 -0.2763  0.7456
   68MPD2    C2 1056   2.717   2.078  14.046 -1.0153  0.1619  0.0914
   68MPD2    C3 1057   2.648   2.068  13.927 -0.1620 -0.2225  0.0650
   68MPD2    C4 1058   2.620   1.950  13.875  0.1921 -0.1853 -0.3901
   68MPD2    C5 1059   2.677   1.833  13.931 -0.2713 -0.6467 -0.0515
   68MPD2     H 1060   2.717   2.173  14.099 -0.4386  0.3833 -0.3085
   68MPD2    H1 1061   2.572   1.954  13.778 -0.1175 -0.7989 -0.2608
   68MPD2    H2 1062   2.804   1.753  14.084  2.2366 -1.2716 -1.7378
   68MPD2    H3 1063   2.646   1.741  13.881  0.1174  0.5215 -2.4211
   68MPD2     N 1064   2.589   2.174  13.854 -0.2166 -0.1689  0.8936
   68MPD2    H5 1065   2.539   2.155  13.768 -0.6672  0.2095  1.0734
   68MPD2    N1 1066   2.829   1.976  14.238  0.0795  0.2845  0.0731
   68MPD2    H7 1067   2.821   2.069  14.277 -2.0322 -0.4123  1.2873
   69TMC2    C1 1068   0.076   2.940  12.638 -0.4488 -0.8593 -0.1877
   69TMC2    C2 1069   4.698   2.999  12.606  0.1227  0.6736 -0.0767
   69TMC2    C3 1070   4.687   3.044  12.478 -0.1445 -0.2783 -0.0551
   69TMC2    C4 1071   0.181   2.926  12.550  0.2942  0.3734 -0.0341
   69TMC2    C5 1072   0.159   2.979  12.428 -0.5945 -0.5688  0.1634
   69TMC2    C6 1073   0.050   3.049  12.384  0.1418 -0.8268 -0.2551
   69TMC2     C 1074   0.104   2.876  12.766 -0.4336  0.7868  0.4092
   69TMC2     O 1075   0.185   2.786  12.752  0.0256  0.2665 -0.3630
   69TMC2     H 1076   4.613   2.993  12.672  1.7815 -0.1328  1.9805
   69TMC2    H1 1077   0.278   2.889  12.580  0.4138 -1.5130 -2.8529
   69TMC2    H2 1078   0.032   3.085  12.284 -0.3612  2.0177  0.8607
   69TMC2    C7 1079   0.270   2.986  12.333 -0.0663  0.0833 -0.7525
   69TMC2    C8 1080   4.567   3.121  12.450 -0.7143 -0.7342 -0.6253
   69TMC2    O1 1081   0.242   2.993  12.214 -0.6457 -0.1797  0.4622
   69TMC2    O2 1082   4.458   3.101  12.506 -0.0488  0.2071 -0.0759
   69TMC2    O5 1083   4.613   3.241  12.418  0.0478  0.0412  0.0087
   69TMC2    H5 1084   4.711   3.253  12.411  0.5215 -2.2364  2.7402
   70MPD2     C 1085   4.662   2.879  13.075 -0.6530 -0.8451 -0.6241
   70MPD2    C1 1086   4.733   2.825  12.978 -0.1293 -0.0014  0.2044
   70MPD2    C2 1087   0.049   2.698  12.991  0.1996  0.9117 -0.3664
   70MPD2    C3 1088   0.022   2.630  13.108  0.3159 -0.6914  0.0464
   70MPD2    C4 1089   4.671   2.677  13.203  0.5681 -0.8276 -0.0058
   70MPD2    C5 1090   4.624   2.808  13.183 -0.3367  0.2870 -0.0420
   70MPD2     H 1091   0.114   2.648  12.920 -0.9877 -0.6088 -0.3840
   70MPD2    H1 1092   4.637   2.632  13.296 -0.6031 -0.9325 -0.4740
   70MPD2    H2 1093   4.626   2.982  13.072  0.7932 -0.3565 -0.9491
   70MPD2    H3 1094   4.572   2.857  13.264  3.8879  3.0030  0.9843
   70MPD2     N 1095   0.085   2.506  13.143 -0.3324  0.3153  0.3249
   70MPD2    H5 1096   0.056   2.469  13.233  0.7481 -1.8043 -0.1991
   70MPD2    N1 1097   0.009   2.901  12.861  0.0325  0.0078 -0.8512
   70MPD2    H7 1098   4.695   2.986  12.852  1.5260  0.7565 -2.6545
   71TMC2    C1 1099   1.462   4.132   1.877 -0.2194  0.2005 -0.1100
   71TMC2    C2 1100   1.496   4.225   1.970 -0.6014  0.0603 -0.6775
   71TMC2    C3 1101   1.402   4.299   2.032 -0.5371 -0.1626  0.5141
   71TMC2    C4 1102   1.337   4.099   1.834 -0.0304 -0.2597  0.2552
   71TMC2    C5 1103   1.239   4.169   1.902  0.4758 -0.1255 -0.6471
   71TMC2    C6 1104   1.271   4.268   1.995  0.2006  0.1914  0.3435
   71TMC2     C 1105   1.565   4.038   1.835  0.0363  0.2407  0.3955
   71TMC2     O 1106   1.684   4.078   1.824 -0.0158  0.5844 -0.0587
   71TMC2     H 1107   1.601   4.241   1.995 -0.3289  0.9521 -2.3654
   71TMC2    H1 1108   1.320   4.033   1.750 -0.7371  2.2706 -1.5916
   71TMC2    H2 1109   1.188   4.331   2.024 -2.1675 -2.8862  0.1795
   71TMC2    C7 1110   1.105   4.161   1.847 -0.0790  0.2859  0.6427
   71TMC2    C8 1111   1.440   4.434   2.054 -0.1299  0.3230  0.1577
   71TMC2    O1 1112   1.013   4.216   1.906 -0.0207  0.0271 -0.3425
   71TMC2    O2 1113   1.526   4.482   1.983 -0.1309 -0.3321  0.4678
   71TMC2    O5 1114   1.347   4.502   2.128 -0.5402 -0.0540  0.7391
   71TMC2    H5 1115   1.289   4.441   2.179 -0.5225  1.3245  2.4145
   72MPD2     C 1116   1.753   3.609   1.665 -0.7912 -0.2772  0.2952
   72MPD2    C1 1117   1.757   3.734   1.604  0.1935  0.1705  0.4428
   72MPD2    C2 1118   1.682   3.840   1.661 -0.3674 -0.0856  0.0435
   72MPD2    C3 1119   1.584   3.810   1.754  0.7882 -0.5939  0.2466
   72MPD2    C4 1120   1.564   3.680   1.784 -0.1819  0.0671 -0.3765
   72MPD2    C5 1121   1.655   3.581   1.752  0.4663  0.2105  0.0224
   72MPD2     H 1122   1.688   3.942   1.622  0.2085  0.1935  0.8598
   72MPD2    H1 1123   1.492   3.644   1.856  0.5528 -0.5149  0.0735
   72MPD2    H2 1124   1.821   3.526   1.652 -0.9594 -1.1191  4.5772
   72MPD2    H3 1125   1.639   3.480   1.789 -1.6915  0.3517 -0.5490
   72MPD2     N 1126   1.509   3.911   1.819  0.2440  0.7473 -0.0255
   72MPD2    H5 1127   1.422   3.889   1.866  1.5094 -1.3872  1.3281
   72MPD2    N1 1128   1.853   3.763   1.508  0.7884  0.4059 -0.6158
   72MPD2    H7 1129   1.863   3.858   1.473 -1.6411  0.0405 -2.2928
   73TMC2    C1 1130   2.043   0.502  13.985 -0.3444  0.3755 -0.2741
   73TMC2    C2 1131   1.950   0.432  14.044  0.5294  0.3255 -0.3255
   73TMC2    C3 1132   1.979   0.324  14.123 -0.0871 -0.5030 -0.4449
   73TMC2    C4 1133   2.162   0.441  13.965  0.0756 -0.0942  0.1563
   73TMC2    C5 1134   2.200   0.337  14.040 -0.0030  0.0512  0.3064
   73TMC2    C6 1135   2.106   0.270  14.120 -0.4906  0.2525 -0.4318
   73TMC2     C 1136   2.055   0.642  14.016 -0.3448 -0.0293  0.9489
   73TMC2     O 1137   2.171   0.674  14.042  0.4952 -0.2657 -0.2569
   73TMC2     H 1138   1.852   0.473  14.066  0.9602  1.3980 -0.4189
   73TMC2    H1 1139   2.238   0.495  13.910  0.2785 -0.4713  0.0692
   73TMC2    H2 1140   2.135   0.185  14.180 -0.0990  0.9351  0.3406
   73TMC2    C7 1141   2.342   0.342  14.087  0.1280 -0.1529 -0.0122
   73TMC2    C8 1142   1.874   0.242  14.178 -0.1450  0.0637  1.1052
   73TMC2    O1 1143   2.387   0.235  14.133 -0.4212  0.5568 -0.4134
   73TMC2    O2 1144   1.831   0.151  14.112 -0.3573  0.0188  0.0155
   73TMC2    O5 1145   1.803   0.340  14.235 -0.4090 -0.0378 -0.1222
   73TMC2    H5 1146   1.869   0.408  14.262  0.1746 -1.1885  1.3424
   74MPD2     C 1147   1.935   1.142  14.049 -0.5623  0.4148 -0.2103
   74MPD2    C1 1148   2.032   1.071  14.105 -0.8978  0.2332 -0.2113
   74MPD2    C2 1149   2.042   0.932  14.090 -1.0822  0.9899 -0.8849
   74MPD2    C3 1150   1.945   0.864  14.025  0.7463 -1.0843 -0.3278
   74MPD2    C4 1151   1.837   0.932  13.973 -0.9500  0.7055  0.0715
   74MPD2    C5 1152   1.840   1.063  13.989 -0.0465 -0.4251  0.1640
   74MPD2     H 1153   2.128   0.876  14.127  0.3224  4.2203  0.6911
   74MPD2    H1 1154   1.756   0.876  13.928 -0.3793 -0.0888  0.0161
   74MPD2    H2 1155   1.915   1.247  14.068 -0.2895  0.2202  1.1544
   74MPD2    H3 1156   1.749   1.111  13.954 -0.8071  0.3810  3.2537
   74MPD2     N 1157   1.946   0.724  13.998 -0.0257 -0.0806 -0.0826
   74MPD2    H5 1158   1.862   0.679  13.963 -0.6468  1.2477 -0.2918
   74MPD2    N1 1159   2.126   1.144  14.176  0.3574  0.3707 -0.3010
   74MPD2    H7 1160   2.122   1.245  14.164  2.4825  0.7287  2.0719
   75TMC2    C1 1161   2.522   2.402  13.805 -0.5733  0.0805  0.0095
   75TMC2    C2 1162   2.559   2.533  13.804  0.0922 -0.2376  0.1445
   75TMC2    C3 1163   2.516   2.604  13.695  0.2909 -0.2745 -0.6714
   75TMC2    C4 1164   2.431   2.356  13.717 -0.1546  0.6455 -0.2434
   75TMC2    C5 1165   2.390   2.431  13.610  0.4029 -0.2711 -0.4015
   75TMC2    C6 1166   2.430   2.559  13.601  0.0685 -0.5718  0.4766
   75TMC2     C 1167   2.600   2.306  13.891 -0.5978  0.0312 -0.1560
   75TMC2     O 1168   2.666   2.358  13.982 -0.4065  0.6771 -0.4399
   75TMC2     H 1169   2.618   2.573  13.885 -0.2862  1.7909 -0.5950
   75TMC2    H1 1170   2.380   2.261  13.731  1.0154  0.1059  0.3408
   75TMC2    H2 1171   2.396   2.632  13.529 -1.7942  0.5544  2.5209
   75TMC2    C7 1172   2.289   2.371  13.513 -0.6751 -0.4925 -0.7191
   75TMC2    C8 1173   2.490   2.741  13.729 -0.3395 -0.0142 -0.0521
   75TMC2    O1 1174   2.275   2.248  13.527  0.2721  0.3779 -0.0341
   75TMC2    O2 1175   2.374   2.785  13.736 -0.5992 -0.7295 -0.1484
   75TMC2    O5 1176   2.599   2.775  13.799  0.8033 -0.1446 -0.0290
   75TMC2    H5 1177   2.680   2.737  13.758  0.8955 -0.4316  0.4134
   76TMC2    C1 1178   1.384   2.561  12.216 -0.1335 -0.3609 -0.1450
   76TMC2    C2 1179   1.418   2.439  12.251 -0.0765  0.3623  0.0323
   76TMC2    C3 1180   1.502   2.424  12.357 -0.1550 -0.5149  0.2591
   76TMC2    C4 1181   1.423   2.675  12.280 -0.2973 -0.3482  0.1523
   76TMC2    C5 1182   1.497   2.659  12.400 -0.9451 -0.6858 -0.4624
   76TMC2    C6 1183   1.537   2.529  12.439  0.3577  0.0826  0.2032
   76TMC2     C 1184   1.289   2.580  12.106  0.0560 -0.4403  0.0384
   76TMC2     O 1185   1.249   2.695  12.092  0.2920 -0.1779  0.1584
   76TMC2     H 1186   1.401   2.347  12.195  0.5260 -1.2365  2.4780
   76TMC2    H1 1187   1.398   2.776  12.248  0.0330 -1.1281 -2.5733
   76TMC2    H2 1188   1.613   2.513  12.515 -0.0282 -0.9010  0.3739
   76TMC2    C7 1189   1.575   2.770  12.450  0.3211  0.0541  0.1002
   76TMC2    C8 1190   1.516   2.295  12.428  0.4309 -0.2474  0.1689
   76TMC2    O1 1191   1.583   2.873  12.387  0.3661  0.0844  0.0819
   76TMC2    O2 1192   1.564   2.297  12.540  0.3065 -0.1199 -0.0825
   76TMC2    O5 1193   1.422   2.207  12.397 -0.2648  0.0554 -0.4368
   76TMC2    H5 1194   1.362   2.238  12.325 -1.4997  0.0686  0.6109
   77MPD2     C 1195   0.988   2.442  11.716 -0.2725  0.1208  0.0935
   77MPD2    C1 1196   0.999   2.566  11.780 -0.3919  0.4110 -0.1422
   77MPD2    C2 1197   1.094   2.577  11.878 -0.4152  0.4438  0.1786
   77MPD2    C3 1198   1.168   2.466  11.922  0.1583  0.1470  0.0626
   77MPD2    C4 1199   1.146   2.347  11.855 -0.0017  0.4794 -0.2295
   77MPD2    C5 1200   1.060   2.339  11.755  0.4467 -0.3369 -0.1768
   77MPD2     H 1201   1.091   2.675  11.926 -2.3103  1.0218 -1.0810
   77MPD2    H1 1202   1.196   2.255  11.884  1.2725  1.1752 -0.2354
   77MPD2    H2 1203   0.914   2.418  11.641 -0.2824 -0.8385  0.4148
   77MPD2    H3 1204   1.054   2.247  11.698 -2.4058 -0.7459  0.8182
   77MPD2     N 1205   1.252   2.469  12.031 -0.1076  0.5629  0.2253
   77MPD2    H5 1206   1.298   2.382  12.052  0.2633  0.7706  0.2801
   77MPD2    N1 1207   0.912   2.678  11.765 -0.0261 -0.0398  0.1230
   77MPD2    H7 1208   0.932   2.761  11.819 -2.9408 -0.5029  1.8887
   78TMC2    C1 1209   3.071   4.568   1.696 -0.6714  0.4286  0.1337
   78TMC2    C2 1210   2.939   4.576   1.664  0.1269  0.0849  0.3637
   78TMC2    C3 1211   2.886   4.461   1.609 -0.3073  0.3502 -0.7655
   78TMC2    C4 1212   3.162   4.470   1.656 -0.0174  0.2560 -0.3023
   78TMC2    C5 1213   3.099   4.370   1.592 -0.0802  0.3357 -0.4378
   78TMC2    C6 1214   2.965   4.358   1.571  0.6159 -0.4106  0.3680
   78TMC2     C 1215   3.111   4.674   1.793  0.0810 -0.0647 -0.3258
   78TMC2     O 1216   3.026   0.004   1.841  0.2042  0.3381 -0.2688
   78TMC2     H 1217   2.872   4.659   1.681 -0.2423  0.0894 -1.1317
   78TMC2    H1 1218   3.267   4.459   1.680 -0.0142  0.3168 -0.2895
   78TMC2    H2 1219   2.923   4.271   1.523 -0.9975 -0.9756  2.7821
   78TMC2    C7 1220   3.183   4.278   1.514  0.2407  0.6274  0.2640
   78TMC2    C8 1221   2.770   4.479   1.535  0.2912 -0.2112  0.2620
   78TMC2    O1 1222   3.299   4.266   1.558  0.3932 -0.0458 -0.0956
   78TMC2    O2 1223   2.747   4.437   1.418 -0.0311 -0.3558  0.4897
   78TMC2    O5 1224   2.669   4.512   1.614 -0.0061  0.2790  0.2581
   78TMC2    H5 1225   2.703   4.532   1.703  0.5834 -0.9319  0.3106
   79MPD1     C 1226   3.428   0.286   1.931  0.3776 -0.2454 -0.5011
   79MPD1    C1 1227   3.310   0.248   1.986  0.2434 -0.2811  0.5127
   79MPD1    C2 1228   3.250   0.137   1.940 -0.3560  0.4921  0.1791
   79MPD1    C3 1229   3.303   0.063   1.837 -0.2740  0.1155 -0.1969
   79MPD1    C4 1230   3.423   0.104   1.788  0.6496 -0.1027  0.0537
   79MPD1    C5 1231   3.487   0.215   1.840  0.5119 -0.4114  0.7779
   79MPD1     H 1232   3.163   0.102   1.994  1.5775 -2.9800  1.0198
   79MPD1    H1 1233   3.470   0.049   1.708  0.8431 -1.7841  1.3136
   79MPD1    H2 1234   3.482   0.372   1.967 -1.4053  0.4840  0.4397
   79MPD1    H3 1235   3.583   0.245   1.800  0.5401  1.1738  2.0708
   79MPD1     N 1236   3.246   4.693   1.780  0.1480 -0.0087 -0.5021
   79MPD1    H5 1237   3.290   4.643   1.703  1.2769  1.4018 -0.7757
   79MPD1    N1 1238   3.260   0.296   2.107  0.2671  0.3779  0.4946
   79MPD1    H6 1239   3.280   0.389   2.143  0.0618  0.8898 -0.7226
   79MPD1    H7 1240   3.160   0.278   2.108  0.4344 -0.6850 -2.1994
   80TMC2    C1 1241   4.327   1.877  11.831 -0.4323 -0.5653 -0.1414
   80TMC2    C2 1242   4.285   1.872  11.701  0.2546 -0.2040  0.1224
   80TMC2    C3 1243   4.181   1.795  11.664 -0.5449 -0.2190  0.7427
   80TMC2    C4 1244   4.283   1.784  11.920  0.0211 -0.3290 -0.0997
   80TMC2    C5 1245   4.168   1.714  11.884  0.3479  0.2472  0.1586
   80TMC2    C6 1246   4.118   1.712  11.752  0.4690  0.3494 -0.2501
   80TMC2     C 1247   4.453   1.943  11.855  0.2115  0.0646 -0.1166
   80TMC2     O 1248   4.533   1.950  11.764 -0.4747  0.5420 -0.2289
   80TMC2     H 1249   4.328   1.937  11.625 -1.1693  0.8777  0.2454
   80TMC2    H1 1250   4.331   1.790  12.018  0.4110 -0.5425 -0.2801
   80TMC2    H2 1251   4.037   1.645  11.725  0.7358  1.1410 -3.0262
   80TMC2    C7 1252   4.107   1.627  11.977  0.4246 -0.2198 -0.2490
   80TMC2    C8 1253   4.108   1.843  11.544  0.2995  0.0461  0.1141
   80TMC2    O1 1254   4.013   1.558  11.938  0.7488  0.1033  0.6901
   80TMC2    O2 1255   4.172   1.895  11.455  0.1700  0.2823  0.4089
   80TMC2    O5 1256   3.998   1.901  11.599 -0.1528 -0.2880 -0.2956
   80TMC2    H5 1257   3.971   1.842  11.672  0.7560  0.3314  0.5268
   81MPD2     C 1258   4.676   2.073  12.008 -0.1411 -0.1691  0.1841
   81MPD2    C1 1259   4.543   2.077  12.042 -0.2383 -0.2769  0.8057
   81MPD2    C2 1260   4.495   2.136  12.160 -0.0782  0.1342  0.0691
   81MPD2    C3 1261   4.582   2.215  12.234 -0.3307  0.5930  0.1042
   81MPD2    C4 1262   4.713   2.214  12.199 -1.0903 -0.4456  0.6767
   81MPD2    C5 1263   0.023   2.147  12.090  0.0178  0.3103  0.4267
   81MPD2     H 1264   4.388   2.139  12.180 -0.1870 -2.3553 -0.0969
   81MPD2    H1 1265   0.041   2.280  12.252  0.1855 -1.8242  0.7866
   81MPD2    H2 1266   4.710   2.004  11.932 -0.6949 -0.2779  0.0328
   81MPD2    H3 1267   0.127   2.148  12.061  0.4080  1.2605  1.8744
   81MPD2     N 1268   4.532   2.313  12.321 -0.0118 -0.2215  0.0251
   81MPD2    H5 1269   4.599   2.340  12.393 -0.8208 -2.5675  1.6175
   81MPD2    N1 1270   4.448   1.999  11.976 -0.6767 -0.0635  0.1561
   81MPD2    H7 1271   4.361   1.996  12.028 -0.0271  1.0741  1.2960
   82TMC2    C1 1272   3.301   0.998  11.196  0.4112  0.6078  0.3637
   82TMC2    C2 1273   3.355   1.004  11.315 -0.3966  0.3224  1.2907
   82TMC2    C3 1274   3.398   0.890  11.379 -0.4612 -0.0249 -0.2241
   82TMC2    C4 1275   3.271   0.876  11.135 -0.1197  0.5641 -0.4184
   82TMC2    C5 1276   3.304   0.765  11.203  0.0625 -0.2131 -0.4302
   82TMC2    C6 1277   3.373   0.770  11.322 -0.3896  0.6440  0.1193
   82TMC2     C 1278   3.211   1.105  11.152  0.6512  0.1067 -0.2896
   82TMC2     O 1279   3.190   1.119  11.033  0.8700  0.8205 -0.3209
   82TMC2     H 1280   3.397   1.100  11.342 -0.1169  0.6035 -0.1425
   82TMC2    H1 1281   3.238   0.866  11.032 -1.6162 -1.8166  0.2934
   82TMC2    H2 1282   3.404   0.685  11.381 -1.0531 -1.0714 -2.0004
   82TMC2    C7 1283   3.213   0.643  11.193 -0.3611 -0.3685 -0.3868
   82TMC2    C8 1284   3.514   0.912  11.460 -0.0721 -0.1142  0.8490
   82TMC2    O1 1285   3.236   0.559  11.278 -0.3366  0.2817  0.5465
   82TMC2    O2 1286   3.596   0.996  11.428 -0.6930 -0.1532 -0.3031
   82TMC2    O5 1287   3.533   0.801  11.532 -0.4995  0.0058 -0.1037
   82TMC2    H5 1288   3.444   0.769  11.556 -0.5451 -1.1446 -1.7775
   83MPD2     C 1289   2.794   1.367  11.327  0.6952  1.5294 -0.4847
   83MPD2    C1 1290   2.824   1.318  11.202  0.6822  0.6111 -0.5156
   83MPD2    C2 1291   2.945   1.258  11.177 -0.4016  0.5944 -0.5465
   83MPD2    C3 1292   3.041   1.246  11.277 -0.5360  0.7268 -0.3560
   83MPD2    C4 1293   3.007   1.288  11.395  0.4138 -0.4105 -0.4240
   83MPD2    C5 1294   2.896   1.357  11.423  0.3401  0.4627  0.3996
   83MPD2     H 1295   2.960   1.217  11.077  2.7187 -0.5310  0.3820
   83MPD2    H1 1296   3.080   1.293  11.475 -1.9842 -0.0166  1.7248
   83MPD2    H2 1297   2.699   1.413  11.355 -0.3092 -0.1569 -1.1029
   83MPD2    H3 1298   2.875   1.391  11.524  0.1479 -0.2060  0.5842
   83MPD2     N 1299   3.159   1.168  11.261 -0.4403  0.7931 -0.2514
   83MPD2    H5 1300   3.203   1.145  11.349 -1.2947  4.2230  1.0875
   83MPD2    N1 1301   2.724   1.318  11.098 -0.4104  0.4184 -0.1759
   83MPD2    H7 1302   2.636   1.353  11.135 -1.2196  0.5994 -2.3097
   84TMC2    C1 1303   4.324   1.248  10.833  0.3163 -0.1750 -0.2974
   84TMC2    C2 1304   4.375   1.343  10.748  0.2004 -0.1672  0.1742
   84TMC2    C3 1305   4.434   1.304  10.630 -0.1059  0.4222 -0.7955
   84TMC2    C4 1306   4.325   1.117  10.796 -0.6344 -0.3345 -0.6483
   84TMC2    C5 1307   4.380   1.079  10.675  0.1222 -0.7163 -0.1466
   84TMC2    C6 1308   4.452   1.171  10.598 -0.4062  0.0175 -0.2718
   84TMC2     C 1309   4.253   1.273  10.958  0.3256 -0.4669  0.3714
   84TMC2     O 1310   4.173   1.194  11.007  0.0436 -0.6192 -0.4248
   84TMC2     H 1311   4.379   1.445  10.782 -0.1663  0.6085 -2.1104
   84TMC2    H1 1312   4.278   1.059  10.874 -0.9435  0.4879 -0.2282
   84TMC2    H2 1313   4.517   1.146  10.515 -0.3454 -0.4291 -0.0941
   84TMC2    C7 1314   4.409   0.937  10.656  0.8396  0.1310 -0.2081
   84TMC2    C8 1315   4.502   1.399  10.551 -0.4842  0.0712 -1.0654
   84TMC2    O1 1316   4.506   0.919  10.583 -0.3431  0.1928 -0.0596
   84TMC2    O2 1317   4.587   1.377  10.468  0.0765  0.3232  0.2404
   84TMC2    O5 1318   4.438   1.519  10.557 -0.0004  0.1077 -0.4244
   84TMC2    H5 1319   4.345   1.504  10.585  0.1939 -0.7242 -0.2223
   85TMC2    C1 1320   0.440   3.815  16.051  0.0785 -0.8565  0.3491
   85TMC2    C2 1321   0.312   3.849  16.026 -0.4423  0.3992 -0.4147
   85TMC2    C3 1322   0.293   3.947  15.934  0.5194 -0.1524 -0.3333
   85TMC2    C4 1323   0.542   3.867  15.977  0.0790 -0.4415  0.2529
   85TMC2    C5 1324   0.518   3.954  15.874  0.3034 -0.2677 -0.4456
   85TMC2    C6 1325   0.395   3.996  15.852  0.8002  0.7167  0.3843
   85TMC2     C 1326   0.471   3.700  16.130 -0.1437  0.2446  0.6308
   85TMC2     O 1327   0.578   3.699  16.190  0.5268  0.1900 -0.1320
   85TMC2     H 1328   0.222   3.821  16.080 -0.0612 -0.5066 -0.2487
   85TMC2    H1 1329   0.639   3.823  15.995  0.4780 -0.8231 -2.7323
   85TMC2    H2 1330   0.370   4.051  15.761 -0.8347 -2.7089 -1.2536
   85TMC2    C7 1331   0.611   3.959  15.765  0.0707 -0.0478  0.5812
   85TMC2    C8 1332   0.167   4.017  15.942 -0.4557 -0.1539  0.4370
   85TMC2    O1 1333   0.680   3.855  15.749 -0.2742  0.0533 -0.2681
   85TMC2    O2 1334   0.076   3.966  16.009 -0.0676 -0.0281 -0.6682
   85TMC2    O5 1335   0.203   4.145  15.936  0.3263 -0.0156  0.4782
   85TMC2    H5 1336   0.287   4.175  15.895  1.0159  0.5752  2.2999
   86MPD2     C 1337   0.287   3.313  16.408  0.6423 -0.1119  0.7852
   86MPD2    C1 1338   0.248   3.299  16.274 -0.9239  0.7792  0.5826
   86MPD2    C2 1339   0.284   3.393  16.181 -0.0111  0.3409 -0.0269
   86MPD2    C3 1340   0.362   3.496  16.209 -0.5267 -0.3728  0.4405
   86MPD2    C4 1341   0.403   3.507  16.341  0.6690 -0.2557  0.8089
   86MPD2    C5 1342   0.366   3.419  16.436  0.3395  0.6029 -0.3378
   86MPD2     H 1343   0.233   3.387  16.086 -1.6817  1.4555  0.8012
   86MPD2    H1 1344   0.472   3.584  16.374  1.1388  0.3779 -1.6344
   86MPD2    H2 1345   0.269   3.242  16.489  0.8281 -2.5159 -1.2714
   86MPD2    H3 1346   0.408   3.420  16.536  2.0965  0.1430 -1.0858
   86MPD2     N 1347   0.379   3.597  16.117 -0.3188 -0.5546  0.1430
   86MPD2    H5 1348   0.318   3.591  16.035 -1.4610  0.2494  0.9291
   86MPD2    N1 1349   0.171   3.184  16.237  0.8362  0.5337  0.6265
   86MPD2    H7 1350   0.149   3.170  16.139  1.8786  0.7030  0.3657
   87TMC2    C1 1351   2.928   1.774   1.324  0.1140  0.1200 -0.6386
   87TMC2    C2 1352   2.932   1.760   1.463 -0.4015  0.6613 -0.2737
   87TMC2    C3 1353   2.972   1.866   1.537  0.5319  0.5714  0.2243
   87TMC2    C4 1354   2.956   1.890   1.254  0.0972 -0.1498 -0.3171
   87TMC2    C5 1355   3.003   1.993   1.333 -0.2745  0.1507  0.4290
   87TMC2    C6 1356   3.014   1.985   1.470 -0.3012  0.3782 -0.1476
   87TMC2     C 1357   2.924   1.653   1.243  0.0188  0.1483  0.2802
   87TMC2     O 1358   2.959   1.557   1.304  0.1455  0.1311 -0.3803
   87TMC2     H 1359   2.912   1.670   1.519 -1.5103  1.6888  0.9498
   87TMC2    H1 1360   2.945   1.906   1.148  0.8083  0.2117 -0.3301
   87TMC2    H2 1361   3.050   2.068   1.530  0.3809  0.1317 -0.2143
   87TMC2    C7 1362   3.014   2.118   1.271  0.3099  0.1334  0.8880
   87TMC2    C8 1363   3.011   1.827   1.669 -0.6324  0.4197  0.2168
   87TMC2    O1 1364   2.939   2.151   1.179 -0.5197  0.5153 -0.4366
   87TMC2    O2 1365   3.076   1.727   1.683 -0.4392  0.0910  0.3435
   87TMC2    O5 1366   3.041   1.947   1.732 -0.7927 -0.0008 -0.4782
   87TMC2    H5 1367   2.967   2.007   1.708  0.2743  0.6484 -2.1179
   88MPD2     C 1368   3.232   2.381   1.388  0.0710 -0.1745  0.3858
   88MPD2    C1 1369   3.122   2.330   1.322 -0.5162 -0.3277 -0.0956
   88MPD2    C2 1370   3.027   2.409   1.261 -0.1955  0.5768 -0.1674
   88MPD2    C3 1371   3.038   2.543   1.272  0.5138 -0.1595  0.1590
   88MPD2    C4 1372   3.153   2.592   1.324  0.5935 -0.5318  0.0024
   88MPD2    C5 1373   3.249   2.512   1.375 -0.2487  0.5999 -0.3502
   88MPD2     H 1374   2.937   2.362   1.225  1.3381 -2.0252 -0.6059
   88MPD2    H1 1375   3.178   2.697   1.313 -1.4437 -0.1831 -1.2411
   88MPD2    H2 1376   3.293   2.311   1.444  0.8555 -1.5133 -2.1081
   88MPD2    H3 1377   3.344   2.551   1.413  0.8571 -0.6285 -1.8586
   88MPD2     N 1378   2.943   2.638   1.227  0.1338  0.5936 -0.8626
   88MPD2    H5 1379   2.961   2.738   1.226  2.1472  0.2733  1.0668
   88MPD2    N1 1380   3.112   2.196   1.325 -0.1622  0.0202 -0.4329
   88MPD2    H7 1381   3.177   2.163   1.396  0.8708  1.6845 -0.6033
   89TMC2    C1 1382   3.305   0.747   1.216 -0.2683 -0.5431 -0.0202
   89TMC2    C2 1383   3.422   0.816   1.201 -0.4367 -0.1607 -0.1455
   89TMC2    C3 1384   3.423   0.912   1.093 -0.2354 -1.0715  0.2834
   89TMC2    C4 1385   3.205   0.745   1.122  0.0437  0.0778  0.6777
   89TMC2    C5 1386   3.234   0.813   1.006  0.1893 -0.4736  0.3539
   89TMC2    C6 1387   3.334   0.903   0.993  0.7152 -0.1519 -0.0554
   89TMC2     C 1388   3.277   0.724   1.361 -0.0292 -0.4959  0.3368
   89TMC2     O 1389   3.362   0.757   1.441  0.1853 -0.4816  0.0639
   89TMC2     H 1390   3.494   0.824   1.282  0.1842 -1.8279 -0.5377
   89TMC2    H1 1391   3.118   0.682   1.118  0.1096  0.1335 -1.5545
   89TMC2    H2 1392   3.340   0.969   0.908  0.1060 -0.9674 -0.7319
   89TMC2    C7 1393   3.158   0.786   0.887 -0.1050  0.4082 -0.0165
   89TMC2    C8 1394   3.536   0.994   1.068  0.3307  0.5585  0.5412
   89TMC2    O1 1395   3.055   0.717   0.897 -0.6533  0.1516 -0.6433
   89TMC2    O2 1396   3.614   0.984   0.974 -0.5090  0.5539 -0.5625
   89TMC2    O5 1397   3.457   1.105   1.093  0.1668 -0.2568  0.1570
   89TMC2    H5 1398   3.394   1.079   1.164  1.3283  0.9827  1.6590
   90MPD2     C 1399   3.019   0.541   1.762 -0.1211  0.1456 -0.7660
   90MPD2    C1 1400   2.930   0.549   1.657 -0.1320 -0.2495  1.1062
   90MPD2    C2 1401   2.974   0.597   1.532 -0.1082 -0.1480 -0.0181
   90MPD2    C3 1402   3.109   0.624   1.511  0.3945  0.1736  0.3367
   90MPD2    C4 1403   3.196   0.594   1.613 -0.4161  0.6687  0.1231
   90MPD2    C5 1404   3.158   0.549   1.739 -0.2840 -0.0754  0.7018
   90MPD2     H 1405   2.911   0.596   1.444  1.9565 -1.1062 -1.4799
   90MPD2    H1 1406   3.301   0.619   1.606 -0.1604 -1.2755 -2.9980
   90MPD2    H2 1407   2.982   0.514   1.860  2.3391  1.3052  0.4718
   90MPD2    H3 1408   3.233   0.530   1.815  1.3595  0.5629 -0.7637
   90MPD2     N 1409   3.152   0.675   1.387  0.0056  0.5229  0.3620
   90MPD2    H5 1410   3.081   0.666   1.314  1.4954  0.6934 -1.1162
   90MPD2    N1 1411   2.784   0.529   1.665  0.0090 -0.2484  0.3183
   90MPD2    H7 1412   2.735   0.559   1.582 -0.3961  0.7475  0.9124
   91TMC2    C1 1413   4.696   4.587  16.159  0.4056  0.0083 -0.4257
   91TMC2    C2 1414   4.739   4.584  16.289 -0.2670 -0.0144 -0.5125
   91TMC2    C3 1415   4.650   4.544  16.384  0.7906 -0.8416 -0.6937
   91TMC2    C4 1416   4.564   4.553  16.128 -0.4505 -0.2587 -0.0526
   91TMC2    C5 1417   4.483   4.502  16.227 -0.4336 -0.1393 -0.3544
   91TMC2    C6 1418   4.524   4.503  16.360 -0.0274 -0.1189 -0.2162
   91TMC2     C 1419   0.026   4.670  16.068 -0.5950 -0.4608 -0.1870
   91TMC2     O 1420   4.706   4.700  15.966 -0.3651 -0.1899  0.0893
   91TMC2     H 1421   0.103   4.603  16.315 -0.0320  0.1761 -1.6034
   91TMC2    H1 1422   4.528   4.539  16.026  0.7781  0.2583 -0.5524
   91TMC2    H2 1423   4.460   4.477  16.444  1.6460 -1.5847  0.6033
   91TMC2    C7 1424   4.361   4.442  16.194  0.3502  0.0586 -0.2001
   91TMC2    C8 1425   4.708   4.555  16.524  0.3735  0.1656 -0.1745
   91TMC2    O1 1426   4.335   4.335  16.250 -0.1042 -0.1196 -0.3277
   91TMC2    O2 1427   0.045   4.640  16.564 -0.7558  0.6237  0.3634
   91TMC2    O5 1428   4.716   4.427  16.555  0.1316  0.2991  0.3494
   91TMC2    H5 1429   4.675   4.360  16.497  0.0969 -0.0861  0.8142
   92MPD2     C 1430   0.215   0.103  15.904  0.4340  0.8385 -0.0007
   92MPD2    C1 1431   0.243   0.047  16.031 -0.1610 -0.1639 -0.7771
   92MPD2    C2 1432   0.364   0.079  16.087 -0.2572  0.2621 -0.0661
   92MPD2    C3 1433   0.464   0.154  16.020  0.4084  0.1461  0.5373
   92MPD2    C4 1434   0.437   0.203  15.894  0.3798 -0.0715  0.0440
   92MPD2    C5 1435   0.310   0.177  15.845  1.0192  0.6245 -0.3800
   92MPD2     H 1436   0.386   0.050  16.189 -3.6720 -1.4977  0.1552
   92MPD2    H1 1437   0.519   0.253  15.844  0.1391 -0.8097 -1.0756
   92MPD2    H2 1438   0.129   0.080  15.842 -0.1271  1.6782  0.4662
   92MPD2    H3 1439   0.294   0.215  15.744 -0.3452  0.0549 -0.3631
   92MPD2     N 1440   0.593   0.170  16.083 -0.4361  0.0052  0.6766
   92MPD2    H5 1441   0.612   0.140  16.178  1.7287 -0.1222  0.2043
   92MPD2    N1 1442   0.156   4.713  16.111  1.0334  0.6859  0.0326
   92MPD2    H7 1443   0.193   4.698  16.204 -1.1072 -2.2998  0.3862
   93TMC2    C1 1444   1.781   4.523  14.367  0.8805 -0.2851 -0.2379
   93TMC2    C2 1445   1.799   4.620  14.467 -0.1813  0.3967 -0.4458
   93TMC2    C3 1446   1.919   4.677  14.467  0.8000 -0.3436  0.3619
   93TMC2    C4 1447   1.880   4.492  14.281 -0.0038 -0.6347 -0.4329
   93TMC2    C5 1448   1.997   4.560  14.281  0.5414  0.5231 -0.3368
   93TMC2    C6 1449   2.015   4.651  14.376  0.1739  0.4479  0.0336
   93TMC2     C 1450   1.645   4.463  14.367  0.4668 -0.0453  0.1440
   93TMC2     O 1451   1.579   4.482  14.469 -0.5711  0.2756 -0.9290
   93TMC2     H 1452   1.719   4.654  14.532 -0.5846  1.1448 -1.3349
   93TMC2    H1 1453   1.867   4.406  14.217 -0.7689  0.0696 -1.2297
   93TMC2    H2 1454   2.107   4.709  14.382 -0.1539  0.7524  2.2344
   93TMC2    C7 1455   2.105   4.530  14.186 -0.0904  0.3014 -0.1717
   93TMC2    C8 1456   1.951   0.047  14.558  0.6024 -0.0266  0.2137
   93TMC2    O1 1457   2.209   4.591  14.208 -0.3281  0.0043 -0.4724
   93TMC2    O2 1458   2.011   0.143  14.518  0.5921  0.0473 -0.5890
   93TMC2    O5 1459   1.885   0.035  14.674 -0.0584  0.6313 -0.2090
   93TMC2    H5 1460   1.848   4.685  14.689 -1.5924  1.5187  1.3049
   94MPD2     C 1461   1.363   4.383  14.310 -0.1562 -0.4079 -1.1498
   94MPD2    C1 1462   1.460   4.394  14.216  0.0321  0.5542  0.0926
   94MPD2    C2 1463   1.423   4.357  14.089 -0.5321 -0.4848 -0.1519
   94MPD2    C3 1464   1.296   4.311  14.060  0.0977 -0.6491  0.3444
   94MPD2    C4 1465   1.209   4.287  14.162  0.6893  0.4227 -0.2519
   94MPD2    C5 1466   1.246   4.315  14.290 -0.3355 -0.5659  0.4533
   94MPD2     H 1467   1.506   4.370  14.020  0.4234  1.0080  1.2967
   94MPD2    H1 1468   1.121   4.226  14.150 -0.6005  2.1416  0.3909
   94MPD2    H2 1469   1.379   4.420  14.411 -0.8294 -0.3323 -1.0722
   94MPD2    H3 1470   1.177   4.277  14.364  1.6231 -1.0123  2.0356
   94MPD2     N 1471   1.257   4.261  13.934  0.0990 -0.6321 -0.6698
   94MPD2    H5 1472   1.172   4.206  13.934 -1.0474  1.1446 -0.9335
   94MPD2    N1 1473   1.597   4.432  14.245  0.0129 -0.1389 -0.0706
   94MPD2    H7 1474   1.665   4.439  14.170  1.0875  1.0911  1.0068
   95TMC2    C1 1475   2.052   1.969  16.553 -0.0984  0.1445  0.0308
   95TMC2    C2 1476   1.983   1.854  16.595  0.2327  0.4061 -0.3962
   95TMC2    C3 1477   1.875   1.877  16.680 -0.6224  0.1414  0.6627
   95TMC2    C4 1478   2.036   2.087  16.618  0.3700 -0.4796  0.1811
   95TMC2    C5 1479   1.944   2.097  16.717 -0.3556 -0.4782 -0.5741
   95TMC2    C6 1480   1.857   1.997  16.744 -0.3938 -0.1297 -0.6406
   95TMC2     C 1481   2.146   1.972  16.442  1.0072 -0.7059 -0.1161
   95TMC2     O 1482   2.231   2.058  16.449  0.9350  0.0660  0.1494
   95TMC2     H 1483   1.995   1.757  16.548  1.4753  0.9373 -1.1823
   95TMC2    H1 1484   2.098   2.169  16.586  0.5300 -0.2775  1.0011
   95TMC2    H2 1485   1.789   2.002  16.828 -0.4429  0.8650 -0.7438
   95TMC2    C7 1486   1.920   2.216  16.791 -0.4420 -0.6812  0.5338
   95TMC2    C8 1487   1.796   1.762  16.721  0.2113  0.7145  0.0596
   95TMC2    O1 1488   1.815   2.237  16.855  0.1032 -0.1629  0.1469
   95TMC2    O2 1489   1.817   1.658  16.658 -0.3614 -0.2647  0.2972
   95TMC2    O5 1490   1.726   1.775  16.838 -0.2943 -0.0475  0.1248
   95TMC2    H5 1491   1.717   1.860  16.886  0.6703  1.2503 -2.0220
   96MPD2     C 1492   2.393   1.771  16.053 -0.1924 -0.5882 -0.5298
   96MPD2    C1 1493   2.398   1.894  16.108 -0.3932  0.0318  0.0174
   96MPD2    C2 1494   2.319   1.926  16.216  0.3146 -0.5847 -0.6302
   96MPD2    C3 1495   2.226   1.838  16.256  0.6939  0.5872  0.2620
   96MPD2    C4 1496   2.225   1.710  16.211  0.3869 -0.6229 -0.0816
   96MPD2    C5 1497   2.310   1.675  16.104  0.1514  0.6614  0.0439
   96MPD2     H 1498   2.328   2.024  16.261 -1.6276 -0.2166 -1.0356
   96MPD2    H1 1499   2.158   1.634  16.250 -0.3293  0.0812  0.0630
   96MPD2    H2 1500   2.464   1.738  15.978  0.0257 -0.2735 -0.4640
   96MPD2    H3 1501   2.309   1.574  16.064  1.3674  0.7905 -0.3377
   96MPD2     N 1502   2.137   1.858  16.365  0.8978 -0.8513 -0.0284
   96MPD2    H5 1503   2.063   1.792  16.386 -0.1409  0.6720  1.1182
   96MPD2    N1 1504   2.501   1.980  16.060 -0.2918 -0.6097 -1.1175
   96MPD2    H7 1505   2.518   1.970  15.961 -0.0420  0.1696 -1.1516
   97TMC2    C1 1506   4.423   4.327   0.327 -0.7529 -0.2176  0.0618
   97TMC2    C2 1507   4.294   4.315   0.277  0.1882 -0.2752 -0.0401
   97TMC2    C3 1508   4.245   4.416   0.201 -0.2775 -0.6287 -0.3536
   97TMC2    C4 1509   4.506   4.427   0.286 -0.1022  0.6636 -0.2427
   97TMC2    C5 1510   4.449   4.527   0.204 -0.2143  0.1225 -0.1856
   97TMC2    C6 1511   4.321   4.528   0.163 -0.6981 -0.3847  0.9238
   97TMC2     C 1512   4.452   4.264   0.452 -0.2998  0.0126 -0.1796
   97TMC2     O 1513   4.360   4.255   0.529 -0.4386  0.8944 -0.4239
   97TMC2     H 1514   4.220   4.248   0.321  1.1021 -2.7803 -2.3617
   97TMC2    H1 1515   4.607   4.438   0.323 -1.2502 -1.7268  3.6462
   97TMC2    H2 1516   4.274   4.618   0.126 -0.2379 -1.0323 -1.1993
   97TMC2    C7 1517   4.539   4.638   0.154 -0.3458  0.6121  0.5865
   97TMC2    C8 1518   4.100   4.422   0.170  0.8571  0.4647 -0.8673
   97TMC2    O1 1519   4.636   4.670   0.221  0.0309 -0.1836 -0.1959
   97TMC2    O2 1520   4.024   4.351   0.239  0.0709 -0.3655  0.4116
   97TMC2    O5 1521   4.066   4.530   0.097  0.1704  0.8853  0.4098
   97TMC2    H5 1522   4.134   4.557   0.031  0.7293 -0.2455  0.5240
   98MPD2     C 1523   0.052   4.130   0.813 -0.5461  0.3202 -0.7465
   98MPD2    C1 1524   4.653   4.143   0.824  0.1372  0.2491  0.1889
   98MPD2    C2 1525   4.581   4.172   0.709  0.3831 -0.4409 -0.2627
   98MPD2    C3 1526   4.647   4.201   0.592  0.1054 -0.1071  0.0079
   98MPD2    C4 1527   0.048   4.200   0.590  0.0044  0.1655 -1.0171
   98MPD2    C5 1528   0.117   4.161   0.696  0.1874  0.4865  0.3823
   98MPD2     H 1529   4.473   4.181   0.710  0.1194 -3.8383  1.3642
   98MPD2    H1 1530   0.101   4.229   0.501  1.0017 -2.4910 -1.3003
   98MPD2    H2 1531   0.115   4.098   0.895 -2.4273  3.3829  1.9279
   98MPD2    H3 1532   0.224   4.154   0.681  0.4251  3.1568  0.8212
   98MPD2     N 1533   4.585   4.238   0.475  0.3756 -0.2317 -0.8541
   98MPD2    H5 1534   4.651   4.250   0.399  0.2824 -0.3756 -0.9567
   98MPD2    N1 1535   4.590   4.127   0.946  0.1842  0.2294  0.1841
   98MPD2    H7 1536   4.648   4.099   1.025 -0.7660 -0.1276  0.7599
   99TMC2    C1 1537   2.616   1.095   1.941  0.8313  0.9154  0.4892
   99TMC2    C2 1538   2.647   1.152   2.062 -0.0263  0.2694 -0.1935
   99TMC2    C3 1539   2.556   1.237   2.122  0.3950  0.3090 -0.7558
   99TMC2    C4 1540   2.492   1.109   1.882 -0.6862  0.0638 -0.2242
   99TMC2    C5 1541   2.404   1.193   1.943  0.3353  0.0537 -0.0220
   99TMC2    C6 1542   2.433   1.254   2.064 -0.2169 -0.3816 -0.4587
   99TMC2     C 1543   2.725   1.054   1.861 -1.0056  0.4781 -0.8823
   99TMC2     O 1544   2.836   1.087   1.900 -0.6505 -0.0680 -0.3803
   99TMC2     H 1545   2.746   1.148   2.107 -0.0255 -0.3340 -0.2514
   99TMC2    H1 1546   2.474   1.070   1.783 -0.8033 -0.1324 -0.1262
   99TMC2    H2 1547   2.360   1.321   2.110 -1.7137 -1.9523 -0.5493
   99TMC2    C7 1548   2.269   1.220   1.886  0.0054 -0.4352 -0.8718
   99TMC2    C8 1549   2.596   1.320   2.234  0.1076  0.6088  0.4879
   99TMC2    O1 1550   2.192   1.293   1.947 -0.4569 -0.7813 -0.0396
   99TMC2    O2 1551   2.635   1.267   2.334  0.1821 -0.2276 -0.1154
   99TMC2    O5 1552   2.640   1.430   2.178 -0.1333 -0.7607 -0.1631
   99TMC2    H5 1553   2.613   1.431   2.083 -1.4148  1.6630  0.2238
  100MPD2     C 1554   2.900   0.981   1.626  0.4210  0.6121  0.1065
  100MPD2    C1 1555   2.765   0.952   1.637  1.1216  0.2318  0.3463
  100MPD2    C2 1556   2.704   0.887   1.527  0.0687 -0.0958  0.2399
  100MPD2    C3 1557   2.780   0.871   1.409 -0.1074 -0.0974  0.0649
  100MPD2    C4 1558   2.905   0.917   1.399 -0.0109 -0.9679 -1.6272
  100MPD2    C5 1559   2.964   0.968   1.507  0.5412  0.0552  0.0279
  100MPD2     H 1560   2.605   0.842   1.533 -0.2648  0.4974 -0.7281
  100MPD2    H1 1561   2.974   0.899   1.318  1.4905  2.1164 -1.0353
  100MPD2    H2 1562   2.956   1.020   1.710  0.4719 -0.5112  0.5983
  100MPD2    H3 1563   3.068   0.997   1.512  1.0730 -1.8631 -0.1174
  100MPD2     N 1564   2.715   0.805   1.299 -0.3968  0.0571  0.2749
  100MPD2    H5 1565   2.615   0.792   1.306 -0.3808 -1.0170 -1.3079
  100MPD2    N1 1566   2.690   0.980   1.750  0.0324 -0.5081 -0.0366
  100MPD2    H7 1567   2.593   0.953   1.747 -0.2073  0.4948 -1.0978
  101TMC2    C1 1568   4.304   2.183  13.458  0.4676 -0.0466 -0.6834
  101TMC2    C2 1569   4.420   2.191  13.536  0.8066  0.4600  0.4068
  101TMC2    C3 1570   4.478   2.314  13.536  0.0038  0.0170  0.2052
  101TMC2    C4 1571   4.252   2.279  13.380 -0.8080 -0.3568 -0.4157
  101TMC2    C5 1572   4.317   2.397  13.379 -1.0606 -1.0141  0.6492
  101TMC2    C6 1573   4.430   2.420  13.461 -0.0195 -0.2100  0.2648
  101TMC2     C 1574   4.235   2.054  13.470 -0.3761  0.3902  0.0458
  101TMC2     O 1575   4.233   1.998  13.575  0.2890  0.3647 -0.4562
  101TMC2     H 1576   4.445   2.117  13.611 -1.7757 -0.3672  0.4428
  101TMC2    H1 1577   4.164   2.263  13.319 -0.6108 -1.2866 -0.4639
  101TMC2    H2 1578   4.483   2.514  13.451 -1.5184  0.5415 -0.6529
  101TMC2    C7 1579   4.288   2.490  13.274 -0.4259  0.6476 -0.5681
  101TMC2    C8 1580   4.574   2.347  13.642  0.7235 -0.0732 -0.0239
  101TMC2    O1 1581   4.380   2.544  13.208  0.4129 -0.3909 -0.0253
  101TMC2    O2 1582   4.548   2.426  13.730  0.1855 -0.4544  0.3024
  101TMC2    O5 1583   4.642   2.234  13.651 -0.0739 -0.0623  0.0811
  101TMC2    H5 1584   4.654   2.196  13.561 -1.6623  1.2227 -0.6708
  102MPD2     C 1585   4.061   1.858  13.201  0.7176 -0.4694 -0.4056
  102MPD2    C1 1586   4.074   1.912  13.333 -0.0562  0.0126 -0.6149
  102MPD2    C2 1587   3.992   1.860  13.434 -0.8345  0.6444 -0.1388
  102MPD2    C3 1588   3.898   1.769  13.406 -0.5650 -0.5482  0.2127
  102MPD2    C4 1589   3.879   1.722  13.276  0.0262  0.0204  0.0914
  102MPD2    C5 1590   3.963   1.762  13.176  0.2936 -0.3625  0.2957
  102MPD2     H 1591   4.003   1.892  13.537 -2.0158 -0.2125  0.2541
  102MPD2    H1 1592   3.807   1.653  13.233 -1.7516  0.8454  1.7937
  102MPD2    H2 1593   4.123   1.879  13.115  0.9178  0.5967  0.0072
  102MPD2    H3 1594   3.954   1.721  13.076  0.2938 -1.2586  0.6622
  102MPD2     N 1595   3.816   1.728  13.514  0.1436  0.1958 -0.0656
  102MPD2    H5 1596   3.827   1.786  13.597 -1.1483 -2.6604  2.1037
  102MPD2    N1 1597   4.169   2.013  13.350  0.4074  0.0112 -0.2934
  102MPD2    H7 1598   4.198   2.052  13.261 -0.6062  0.4136 -0.4563
  103TMC2    C1 1599   1.798   2.696  13.186  0.2272  0.3690 -0.3312
  103TMC2    C2 1600   1.791   2.814  13.262 -0.0585 -1.0859  0.7128
  103TMC2    C3 1601   1.840   2.811  13.387 -0.2266 -0.2035 -0.1476
  103TMC2    C4 1602   1.799   2.581  13.243  0.0723  0.7293  0.2138
  103TMC2    C5 1603   1.838   2.585  13.375  0.5904  0.2400 -0.3372
  103TMC2    C6 1604   1.871   2.695  13.447  0.2456  0.0257  0.3537
  103TMC2     C 1605   1.796   2.699  13.044  0.3092 -0.4242  0.0695
  103TMC2     O 1606   1.715   2.616  12.997  0.5034  0.1925 -0.3279
  103TMC2     H 1607   1.783   2.911  13.213 -2.0185 -2.3470 -1.4546
  103TMC2    H1 1608   1.794   2.489  13.185 -3.4803  0.3716  1.1028
  103TMC2    H2 1609   1.896   2.695  13.552  0.1694  1.7001  0.3688
  103TMC2    C7 1610   1.823   2.465  13.457 -0.3453 -0.3459  0.2756
  103TMC2    C8 1611   1.920   2.928  13.428 -0.1895 -0.4403  0.3926
  103TMC2    O1 1612   1.854   2.473  13.577  0.2649 -0.2576  0.5291
  103TMC2    O2 1613   1.902   3.038  13.374 -0.4431 -0.2871  0.3847
  103TMC2    O5 1614   2.042   2.881  13.440  0.6016  0.0561 -0.1261
  103TMC2    H5 1615   2.053   2.801  13.496  0.0554  0.3706  0.4251
  104MPD2     C 1616   1.929   2.933  12.782  0.6050 -0.9613 -0.1780
  104MPD2    C1 1617   1.835   2.851  12.851 -0.3330 -0.1294 -0.0998
  104MPD2    C2 1618   1.726   2.803  12.782 -0.3501  0.4987 -0.9235
  104MPD2    C3 1619   1.712   2.826  12.647 -0.0879 -0.0771  0.0528
  104MPD2    C4 1620   1.794   2.913  12.581  0.1696 -0.5405  0.1970
  104MPD2    C5 1621   1.900   2.959  12.648  0.8683 -0.0383  0.1181
  104MPD2     H 1622   1.646   2.753  12.834 -0.3110  1.5830  0.1866
  104MPD2    H1 1623   1.785   2.944  12.477  0.3598  1.0932  0.6715
  104MPD2    H2 1624   2.012   2.974  12.837 -0.7806 -0.1024  1.2874
  104MPD2    H3 1625   1.967   3.023  12.590 -0.6477  1.3404 -0.1046
  104MPD2     N 1626   1.610   2.754  12.582 -0.2188  0.3296 -0.4580
  104MPD2    H5 1627   1.564   2.683  12.639 -1.1298  0.5343 -0.9405
  104MPD2    N1 1628   1.856   2.813  12.987  0.0082  0.1503 -0.2807
  104MPD2    H7 1629   1.941   2.837  13.037 -0.3840 -0.4312  0.6902
  105TMC2    C1 1630   2.451   1.397   0.324  0.9980  0.6232 -0.8237
  105TMC2    C2 1631   2.324   1.378   0.378 -0.0938 -0.3788 -0.0704
  105TMC2    C3 1632   2.304   1.407   0.506  0.3345  0.0277 -0.8854
  105TMC2    C4 1633   2.556   1.429   0.401 -0.5858  0.5927  0.2859
  105TMC2    C5 1634   2.533   1.462   0.530  0.7207  0.5900  0.3249
  105TMC2    C6 1635   2.408   1.450   0.585 -0.6834  0.4790 -0.1949
  105TMC2     C 1636   2.476   1.345   0.191  0.0241  0.4087  0.0807
  105TMC2     O 1637   2.409   1.252   0.161  0.0568  0.2005 -0.1218
  105TMC2     H 1638   2.248   1.371   0.301 -1.3809 -0.2704  1.1922
  105TMC2    H1 1639   2.656   1.447   0.364  0.0061  0.2553  1.7289
  105TMC2    H2 1640   2.397   1.447   0.692 -2.4135  2.1958 -0.3083
  105TMC2    C7 1641   2.641   1.428   0.614 -0.7384  0.0274  0.5271
  105TMC2    C8 1642   2.178   1.412   0.555  0.3222  0.0437  0.2225
  105TMC2    O1 1643   2.734   1.374   0.564 -0.0956 -0.1066 -0.2201
  105TMC2    O2 1644   2.146   1.473   0.656  0.2907 -0.0062  0.4703
  105TMC2    O5 1645   2.098   1.327   0.488  0.3179 -0.1659  0.6099
  105TMC2    H5 1646   2.144   1.254   0.440 -0.1813  1.0788 -1.7943
  106MPD2     C 1647   2.848   1.247  17.590 -0.3835  0.0637  0.0512
  106MPD2    C1 1648   2.859   1.381  17.633 -1.0465 -0.8336 -0.8583
  106MPD2    C2 1649   2.768   1.426  17.726 -0.2718 -0.1204  0.3798
  106MPD2    C3 1650   2.662   1.350   0.016  0.2015  0.7524  0.9267
  106MPD2    C4 1651   2.651   1.224  17.732  0.6253 -0.1495  0.4067
  106MPD2    C5 1652   2.745   1.179  17.644  1.5323 -0.5061 -0.0194
  106MPD2     H 1653   2.774   1.525   0.015 -1.1665  0.6204 -1.1362
  106MPD2    H1 1654   2.569   1.159   0.004 -1.1416  2.3115  1.0210
  106MPD2    H2 1655   2.904   1.210  17.505 -1.6263  0.3602 -0.8975
  106MPD2    H3 1656   2.723   1.080  17.606 -1.1086 -0.7144  2.0219
  106MPD2     N 1657   2.583   1.406   0.129  0.1005  0.0100 -0.4182
  106MPD2    H5 1658   2.616   1.493   0.168  1.3716 -1.4629  1.7428
  106MPD2    N1 1659   2.966   1.464  17.584  0.0343  0.2560 -0.8765
  106MPD2    H7 1660   2.966   1.558  17.623  2.2887 -0.1701  0.1520
  107TMC2    C1 1661   3.565   1.501  11.585  0.2026 -0.3684 -0.3598
  107TMC2    C2 1662   3.490   1.458  11.476 -0.0761 -0.1891  0.3843
  107TMC2    C3 1663   3.553   1.441  11.356 -0.4731 -0.7112  0.0605
  107TMC2    C4 1664   3.708   1.500  11.584 -0.7702  0.9564  0.2417
  107TMC2    C5 1665   3.761   1.470  11.469 -0.0325 -0.0586  0.5763
  107TMC2    C6 1666   3.687   1.444  11.357  0.5125  0.4417  0.2111
  107TMC2     C 1667   3.511   1.468  11.712  0.5829  0.4076  0.1143
  107TMC2     O 1668   3.404   1.409  11.706  0.1100 -0.4898  0.3075
  107TMC2     H 1669   3.382   1.449  11.485 -0.3890  1.5973 -1.5201
  107TMC2    H1 1670   3.766   1.528  11.672 -1.0909  0.5453  0.5867
  107TMC2    H2 1671   3.735   1.415  11.264  1.0371  3.7165 -0.5411
  107TMC2    C7 1672   3.903   1.492  11.457 -0.2408  0.6879  1.0963
  107TMC2    C8 1673   3.487   1.363  11.258  0.8858 -0.3929  0.2664
  107TMC2    O1 1674   3.949   1.541  11.558  0.2101  0.2267 -0.1236
  107TMC2    O2 1675   3.541   1.267  11.200  0.1682  0.4106  0.1235
  107TMC2    O5 1676   3.394   1.447  11.207 -0.3046  0.3710  0.0502
  107TMC2    H5 1677   3.380   1.521  11.269  1.6298 -1.5454  2.7480
  108MPD2     C 1678   3.538   1.676  12.011  0.0993  0.4000 -0.1261
  108MPD2    C1 1679   3.503   1.563  11.938 -0.6173  0.1123  0.1958
  108MPD2    C2 1680   3.417   1.469  11.997  0.5375  0.0014  0.2348
  108MPD2    C3 1681   3.380   1.474  12.128  0.0888 -0.1440  0.1291
  108MPD2    C4 1682   3.435   1.578  12.200 -0.6878  0.6490 -0.1301
  108MPD2    C5 1683   3.511   1.677  12.142  0.2066 -0.4974  0.2088
  108MPD2     H 1684   3.404   1.377  11.940 -0.7964  1.1792 -1.3737
  108MPD2    H1 1685   3.422   1.583  12.308 -0.2828 -2.7632  0.0730
  108MPD2    H2 1686   3.594   1.762  11.976  0.3495  0.3794  0.2255
  108MPD2    H3 1687   3.550   1.744  12.218 -0.5861 -0.0510  0.2166
  108MPD2     N 1688   3.301   1.378  12.196  0.6152 -0.8859  0.0158
  108MPD2    H5 1689   3.302   1.404  12.294 -0.4517  0.7782 -0.4178
  108MPD2    N1 1690   3.554   1.557  11.807  0.0877 -0.0741  0.5964
  108MPD2    H7 1691   3.612   1.636  11.783 -1.2846 -0.0445 -2.5405
  109TMC2    C1 1692   4.425   3.448   2.036  0.5714 -0.2293 -0.0874
  109TMC2    C2 1693   4.527   3.482   2.121 -0.1611  0.2557 -0.2192
  109TMC2    C3 1694   4.646   3.504   2.063 -0.3729  0.2029  0.3975
  109TMC2    C4 1695   4.440   3.419   1.907 -0.1557  0.0467  1.7376
  109TMC2    C5 1696   4.561   3.436   1.853  0.4580  0.6254 -0.1379
  109TMC2    C6 1697   4.664   3.478   1.931 -0.0023 -0.7486 -0.3505
  109TMC2     C 1698   4.297   3.504   2.064 -0.1710 -0.9857 -0.3592
  109TMC2     O 1699   4.251   3.484   2.173 -0.6778 -0.3305 -0.2669
  109TMC2     H 1700   4.516   3.486   2.229 -0.0097  1.1661 -0.2424
  109TMC2    H1 1701   4.357   3.383   1.847 -0.0852  0.4294  1.4096
  109TMC2    H2 1702   0.023   3.499   1.892 -0.9721  0.4647 -2.1638
  109TMC2    C7 1703   4.568   3.472   1.713 -0.4474 -0.0150  0.3925
  109TMC2    C8 1704   0.017   3.541   2.148 -0.8813  0.2395  0.0082
  109TMC2    O1 1705   4.459   3.483   1.661  0.2474 -0.6976  0.0626
  109TMC2    O2 1706   4.735   3.591   2.256  0.4298 -0.0668  0.1447
  109TMC2    O5 1707   0.088   3.426   2.133 -0.0517  0.2708 -0.4210
  109TMC2    H5 1708   0.068   3.378   2.050  1.6517 -0.2917 -0.5148
  110MPD2     C 1709   3.873   3.784   1.928  0.2576 -0.5795  0.4301
  110MPD2    C1 1710   3.937   3.745   1.811 -0.5059  0.3369 -0.4683
  110MPD2    C2 1711   4.064   3.688   1.826 -0.4520 -0.4608 -0.9769
  110MPD2    C3 1712   4.119   3.648   1.946  0.9769 -0.6179  0.0598
  110MPD2    C4 1713   4.036   3.660   2.056 -0.0410 -0.4834 -0.1061
  110MPD2    C5 1714   3.922   3.738   2.045  0.5806 -0.2612  0.7781
  110MPD2     H 1715   4.118   3.655   1.738 -0.5585 -3.6190  0.1102
  110MPD2    H1 1716   4.064   3.626   2.155  2.4573  0.0438 -0.6309
  110MPD2    H2 1717   3.777   3.834   1.925 -0.0151 -1.0664  0.8725
  110MPD2    H3 1718   3.876   3.770   2.138 -0.0754 -1.8533  1.0083
  110MPD2     N 1719   4.241   3.575   1.958  0.1692 -0.4905  0.8491
  110MPD2    H5 1720   4.291   3.567   1.870  0.8960 -3.1580  1.5004
  110MPD2    N1 1721   3.883   3.775   1.686  0.1885  0.4276 -0.0183
  110MPD2    H7 1722   3.785   3.801   1.676  0.4540  0.4132 -2.5600
  111TMC2    C1 1723   3.379   3.278  11.961 -0.4386  0.1077 -0.1972
  111TMC2    C2 1724   3.294   3.315  12.066 -0.2156  0.4606  0.0235
  111TMC2    C3 1725   3.325   3.267  12.191 -0.9225 -0.0192  0.1254
  111TMC2    C4 1726   3.476   3.183  11.990 -0.1014  0.1385  0.1947
  111TMC2    C5 1727   3.502   3.149  12.122 -0.1241  0.1649 -0.3804
  111TMC2    C6 1728   3.425   3.184  12.227 -0.1646 -0.1855  0.9310
  111TMC2     C 1729   3.324   3.265  11.829  0.1710  0.1675  0.3718
  111TMC2     O 1730   3.395   3.208  11.749  0.5856  0.2333 -0.2636
  111TMC2     H 1731   3.233   3.405  12.062  0.0258  0.6965  1.4016
  111TMC2    H1 1732   3.529   3.138  11.908 -0.2115  1.5511 -0.6498
  111TMC2    H2 1733   3.464   3.191  12.328 -1.0022  1.6099  1.1341
  111TMC2    C7 1734   3.643   3.132  12.159 -0.0032 -0.2140 -0.0318
  111TMC2    C8 1735   3.244   3.324  12.301 -0.7370  0.1644 -0.0491
  111TMC2    O1 1736   3.670   3.132  12.280  0.1974 -0.4331 -0.1960
  111TMC2    O2 1737   3.164   3.415  12.297  0.6108  0.0928 -0.0526
  111TMC2    O5 1738   3.224   3.211  12.378  0.5728 -0.2141 -0.9860
  111TMC2    H5 1739   3.265   3.124  12.356 -1.0959 -0.8423 -1.5974
  112MPD2     C 1740   2.919   3.280  11.502  0.0498 -0.1398 -0.0947
  112MPD2    C1 1741   3.043   3.222  11.497 -0.0456 -0.5593 -0.0339
  112MPD2    C2 1742   3.133   3.227  11.608 -0.0134 -0.4784  0.0951
  112MPD2    C3 1743   3.098   3.294  11.725  0.1206 -0.2894 -0.4523
  112MPD2    C4 1744   2.975   3.357  11.727 -0.4424  0.2639 -0.3928
  112MPD2    C5 1745   2.885   3.344  11.618  0.0145 -0.7686  0.8117
  112MPD2     H 1746   3.231   3.181  11.601  0.4402  0.2502  1.6732
  112MPD2    H1 1747   2.939   3.401  11.819 -1.2582 -1.9903  0.3742
  112MPD2    H2 1748   2.839   3.266  11.430  1.2028  1.5174 -1.6791
  112MPD2    H3 1749   2.788   3.390  11.634  1.5133  2.3491  0.8791
  112MPD2     N 1750   3.193   3.308  11.827 -0.0703 -0.5376 -0.4710
  112MPD2    H5 1751   3.163   3.357  11.911 -1.4359 -0.3544 -1.0592
  112MPD2    N1 1752   3.086   3.144  11.388  0.0607  0.3633  0.6433
  112MPD2    H7 1753   3.184   3.120  11.394  0.5746  2.1017 -0.7766
  113TMC2    C1 1754   2.079   0.924   0.647  0.3020  0.2142  1.1058
  113TMC2    C2 1755   1.981   1.019   0.620 -0.3497 -0.3816  0.1759
  113TMC2    C3 1756   1.872   0.981   0.551 -0.0607  0.0324  0.0639
  113TMC2    C4 1757   2.069   0.794   0.612 -0.3363  0.3520 -0.3078
  113TMC2    C5 1758   1.948   0.753   0.564 -0.0372 -0.0179  0.3512
  113TMC2    C6 1759   1.853   0.849   0.525 -0.5095  0.4848 -0.0379
  113TMC2     C 1760   2.205   0.976   0.695  0.0710 -0.0688 -0.7058
  113TMC2     O 1761   2.206   1.074   0.771  0.4418 -0.1376  0.4086
  113TMC2     H 1762   1.993   1.123   0.647 -0.0406 -0.6256  0.9834
  113TMC2    H1 1763   2.136   0.719   0.652  0.3458 -0.3743 -2.8088
  113TMC2    H2 1764   1.773   0.812   0.462  1.0777 -0.3410 -1.5710
  113TMC2    C7 1765   1.907   0.614   0.592 -0.6651  0.4873  0.3705
  113TMC2    C8 1766   1.785   1.081   0.496 -0.2274 -0.1929  0.1309
  113TMC2    O1 1767   1.995   0.528   0.600  0.4151  0.3787  0.0294
  113TMC2    O2 1768   1.820   1.197   0.478  0.3937  0.0566  0.4229
  113TMC2    O5 1769   1.655   1.041   0.504 -0.3502  0.3666 -0.2914
  113TMC2    H5 1770   1.655   0.949   0.539 -2.6401  0.6622  0.4799
  114MPD2     C 1771   2.721   0.948   0.714  0.1810  0.1020  0.2638
  114MPD2    C1 1772   2.633   1.013   0.796 -0.0342 -0.3525  0.5516
  114MPD2    C2 1773   2.505   1.017   0.772  0.3231  0.4459 -0.3575
  114MPD2    C3 1774   2.453   0.945   0.664 -0.5294 -0.6908  0.3093
  114MPD2    C4 1775   2.541   0.875   0.586  0.1728  0.0124 -0.0058
  114MPD2    C5 1776   2.672   0.881   0.603  0.0587  0.2764  0.2414
  114MPD2     H 1777   2.439   1.057   0.848  1.3417  0.1914  0.6498
  114MPD2    H1 1778   2.509   0.828   0.493 -0.8648 -0.7189  0.7116
  114MPD2    H2 1779   2.828   0.935   0.731  0.3326  0.0835 -0.7120
  114MPD2    H3 1780   2.742   0.833   0.535  1.2820  2.0298  0.2787
  114MPD2     N 1781   2.315   0.919   0.636 -0.4714 -0.0450 -0.7094
  114MPD2    H5 1782   2.296   0.847   0.567 -2.0545  1.0620 -1.4321
  114MPD2    N1 1783   2.685   1.073   0.919  0.1689 -0.7530 -0.5172
  114MPD2    H7 1784   2.618   1.132   0.968  2.3987  2.6797 -1.5713
  115TMC2    C1 1785   3.036   3.465  17.711 -0.2276  0.2399  0.7845
  115TMC2    C2 1786   3.132   3.450  17.621 -0.4006 -0.2945 -0.0924
  115TMC2    C3 1787   3.185   3.561  17.558 -0.4187  0.4696  0.1944
  115TMC2    C4 1788   2.986   3.596  17.725 -0.5500  0.6722  0.2631
  115TMC2    C5 1789   3.043   3.706  17.669  0.6772 -0.1036  0.6794
  115TMC2    C6 1790   3.146   3.693  17.581  0.2659 -0.0487 -0.0432
  115TMC2     C 1791   2.940   3.357  17.698 -0.2606  0.2126  0.4638
  115TMC2     O 1792   2.983   3.249  17.667 -0.0835  0.0378 -0.0215
  115TMC2     H 1793   3.177   3.353  17.610  1.1986  0.3839  0.5108
  115TMC2    H1 1794   2.916   3.618   0.050  1.2037  2.6394  1.2474
  115TMC2    H2 1795   3.199   3.776  17.536  2.2141  0.0528  2.4801
  115TMC2    C7 1796   2.966   3.827  17.666  0.9449  0.0245  0.0106
  115TMC2    C8 1797   3.298   3.524  17.474  0.0941  0.8166  0.5933
  115TMC2    O1 1798   2.860   3.829  17.720 -0.5069  0.8660 -0.1190
  115TMC2    O2 1799   3.363   3.425  17.486  0.3840 -1.0713  0.2789
  115TMC2    O5 1800   3.348   3.643  17.422 -0.7860 -0.1102  0.6253
  115TMC2    H5 1801   3.279   3.693  17.374  1.0048  1.6543 -0.1252
  116MPD2     C 1802   2.473   3.264  17.499  0.5560 -0.4747  0.0671
  116MPD2    C1 1803   2.587   3.193  17.493 -0.5714  0.4697  0.3498
  116MPD2    C2 1804   2.697   3.232  17.564  0.9422  0.2450  0.8156
  116MPD2    C3 1805   2.696   3.343  17.636 -0.2953 -0.0408  0.6672
  116MPD2    C4 1806   2.583   3.416  17.643  0.2522  0.1944 -0.6591
  116MPD2    C5 1807   2.466   3.379  17.571 -0.1463 -0.7052  0.3001
  116MPD2     H 1808   2.790   3.175  17.558  1.1547  0.7214 -0.4526
  116MPD2    H1 1809   2.594   3.508  17.698 -2.1356 -0.4501  0.9306
  116MPD2    H2 1810   2.379   3.234  17.453  1.0377  1.3701 -2.1117
  116MPD2    H3 1811   2.373   3.434  17.565 -0.0033 -0.2236  2.7363
  116MPD2     N 1812   2.810   3.406  17.692 -0.2770  0.4091  0.2082
  116MPD2    H5 1813   2.794   3.497  17.735  0.5822  1.3575 -1.4503
  116MPD2    N1 1814   2.590   3.076  17.408 -0.8552 -0.6431 -0.2621
  116MPD2    H7 1815   2.503   3.053  17.361 -0.8378 -0.1281 -0.5467
  117TMC2    C1 1816   1.356   0.176  14.148  0.5821 -0.1909  0.7891
  117TMC2    C2 1817   1.420   0.099  14.244 -0.5309  0.2019 -0.5571
  117TMC2    C3 1818   1.506   0.170  14.325 -0.1829  0.5256 -0.3143
  117TMC2    C4 1819   1.381   0.314  14.133 -0.1980  0.0387 -0.2850
  117TMC2    C5 1820   1.472   0.373  14.217 -0.4927 -0.6159 -0.4733
  117TMC2    C6 1821   1.528   0.306  14.320 -0.1594 -0.3580  0.0408
  117TMC2     C 1822   1.241   0.122  14.082 -0.0107  0.6595  0.7463
  117TMC2     O 1823   1.241   0.011  14.027  0.3918 -0.4026  0.1573
  117TMC2     H 1824   1.402   4.733  14.256 -0.8294  0.0872 -1.9860
  117TMC2    H1 1825   1.324   0.369  14.059 -1.2726 -0.7583 -0.0604
  117TMC2    H2 1826   1.599   0.356  14.386  0.3329 -0.4844 -0.3905
  117TMC2    C7 1827   1.497   0.522  14.217  0.2276  0.1682  0.7000
  117TMC2    C8 1828   1.524   0.106  14.454  0.0475  0.8741  0.4084
  117TMC2    O1 1829   1.530   0.575  14.323 -0.8071 -0.2620  0.7088
  117TMC2    O2 1830   1.453   0.012  14.489  0.3745 -0.7389 -0.1351
  117TMC2    O5 1831   1.583   0.196  14.531  0.3720  0.0264  0.0770
  117TMC2    H5 1832   1.599   0.166  14.623 -0.1333 -0.0422  0.1462
  118MPD2     C 1833   1.428   0.788  13.966 -0.4703 -0.4027  0.5828
  118MPD2    C1 1834   1.476   0.733  14.080  0.4440  0.2172  0.3436
  118MPD2    C2 1835   1.548   0.819  14.171 -0.4287 -0.0585 -0.4848
  118MPD2    C3 1836   1.552   0.962  14.148 -0.1280  0.1853 -0.1530
  118MPD2    C4 1837   1.489   1.010  14.035 -0.1241 -0.6993  0.3478
  118MPD2    C5 1838   1.432   0.929  13.943  0.0738 -0.0093  0.2769
  118MPD2     H 1839   1.599   0.778  14.258  3.9950  1.1969 -2.4794
  118MPD2    H1 1840   1.484   1.116  14.013  0.7541 -0.4543  1.3572
  118MPD2    H2 1841   1.375   0.725  13.896 -0.0673 -1.1764  0.9823
  118MPD2    H3 1842   1.382   0.973  13.858  0.6878  0.8054  0.3415
  118MPD2     N 1843   1.619   1.056  14.227  0.5179 -0.3310  0.0124
  118MPD2    H5 1844   1.618   1.151  14.190  2.4177 -0.0541  0.6654
  118MPD2    N1 1845   1.455   0.592  14.104  0.1128  0.1444  0.6375
  118MPD2    H7 1846   1.413   0.541  14.026 -1.2630  1.5668  0.4396
  119TMC2    C1 1847   4.233   1.426  13.570 -0.0303  0.6225  0.1324
  119TMC2    C2 1848   4.243   1.452  13.439  0.5718 -0.1139 -0.3061
  119TMC2    C3 1849   4.129   1.440  13.357 -0.3214 -0.5227 -0.1971
  119TMC2    C4 1850   4.110   1.390  13.623  0.2022 -0.0564 -0.5376
  119TMC2    C5 1851   4.005   1.366  13.543  0.7823 -0.1112  0.1510
  119TMC2    C6 1852   4.012   1.395  13.414 -0.3275  0.4788  0.0792
  119TMC2     C 1853   4.345   1.409  13.657 -0.2050 -0.4840 -0.1006
  119TMC2     O 1854   4.327   1.407  13.779 -0.6781  0.0709  0.1093
  119TMC2     H 1855   4.337   1.493  13.403  0.5980 -1.6998 -2.0585
  119TMC2    H1 1856   4.118   1.350  13.723  0.7324  1.4919  0.0340
  119TMC2    H2 1857   3.919   1.388  13.358 -0.0234  0.0438 -0.3683
  119TMC2    C7 1858   3.875   1.336  13.605 -1.2915 -0.1256 -0.2848
  119TMC2    C8 1859   4.128   1.457  13.218  0.2745  0.3324  0.4266
  119TMC2    O1 1860   3.794   1.286  13.527 -0.1130  0.1291  0.1988
  119TMC2    O2 1861   4.054   1.384  13.154  0.2036 -0.1214 -0.1303
  119TMC2    O5 1862   4.234   1.537  13.175 -0.3808  0.8415  0.0865
  119TMC2    H5 1863   4.271   1.588  13.251  0.3451  0.3181  0.0802
  120MPD2     C 1864   4.727   1.073  13.734  0.3710 -0.2091 -0.4289
  120MPD2    C1 1865   4.622   1.106  13.810  0.4087 -0.0975 -0.1530
  120MPD2    C2 1866   4.534   1.208  13.764  0.2066 -0.1954  0.7934
  120MPD2    C3 1867   4.551   1.267  13.640  0.6455 -0.3049 -0.0326
  120MPD2    C4 1868   4.656   1.224  13.561  0.0224 -0.0486  0.1400
  120MPD2    C5 1869   0.002   1.123  13.604 -0.3905 -0.8414  0.8220
  120MPD2     H 1870   4.450   1.245  13.822  1.5942  3.2984  0.5887
  120MPD2    H1 1871   4.670   1.260  13.460  1.5847  2.2867  1.1895
  120MPD2    H2 1872   0.048   0.989  13.764  2.0896  1.6774  1.3828
  120MPD2    H3 1873   0.078   1.085  13.537 -0.2414 -0.1250  0.5860
  120MPD2     N 1874   4.445   1.347  13.585  0.0731  0.3108 -0.5036
  120MPD2    H5 1875   4.447   1.339  13.484  0.5773 -1.4997 -0.3509
  120MPD2    N1 1876   4.615   1.036  13.939 -0.4796 -0.1283  0.2314
  120MPD2    H7 1877   4.698   0.983  13.965 -0.3351 -1.2153 -2.4944
  121TMC2    C1 1878   1.050   3.574  14.355  0.7403 -0.1218  0.1576
  121TMC2    C2 1879   1.039   3.703  14.305  0.7713  0.2563  0.1560
  121TMC2    C3 1880   0.917   3.768  14.314 -0.1001 -0.6057  0.4381
  121TMC2    C4 1881   0.942   3.518  14.419  0.0031  0.4943 -0.3870
  121TMC2    C5 1882   0.826   3.586  14.406 -0.0432 -0.2828 -0.2252
  121TMC2    C6 1883   0.800   3.711  14.352 -0.0380 -0.2339 -0.6178
  121TMC2     C 1884   1.101   3.483  14.259  1.1900 -1.2590 -0.0354
  121TMC2     O 1885   1.118   3.369  14.295 -0.0148 -0.0039 -0.2487
  121TMC2     H 1886   1.117   3.764  14.260 -0.3503  2.6102  1.3761
  121TMC2    H1 1887   0.950   3.415  14.450  0.6085  0.8965  0.7756
  121TMC2    H2 1888   0.709   3.767  14.368 -0.6655 -0.9594 -1.5954
  121TMC2    C7 1889   0.706   3.510  14.439 -0.1354  0.1078  0.1891
  121TMC2    C8 1890   0.907   3.892  14.244 -0.3367  1.2467 -0.2079
  121TMC2    O1 1891   0.721   3.421  14.523  0.6435 -0.0534  0.8527
  121TMC2    O2 1892   1.002   3.973  14.255 -0.3986 -0.0998 -0.4399
  121TMC2    O5 1893   0.867   3.853  14.125 -0.6973  0.6257 -0.0317
  121TMC2    H5 1894   0.791   3.791  14.119 -0.5715  0.3779  0.9501
  122MPD2     C 1895   1.176   3.329  13.999  0.7676  1.5607 -0.5498
  122MPD2    C1 1896   1.143   3.459  14.008 -0.8470 -0.1707 -0.1725
  122MPD2    C2 1897   1.120   3.533  13.891  0.2993 -0.2230 -0.8664
  122MPD2    C3 1898   1.129   3.478  13.766 -0.1589  0.2876 -0.0027
  122MPD2    C4 1899   1.164   3.349  13.756 -0.0682 -1.0442  0.9638
  122MPD2    C5 1900   1.174   3.275  13.871 -0.2510  0.1931 -0.2406
  122MPD2     H 1901   1.084   3.635  13.892  0.2469 -0.2430 -0.6302
  122MPD2    H1 1902   1.150   3.298  13.661 -2.6191 -1.1658  1.3955
  122MPD2    H2 1903   1.200   3.271  14.088 -0.3582  0.6408 -0.8356
  122MPD2    H3 1904   1.181   3.167  13.865 -1.2905  0.2085 -1.8363
  122MPD2     N 1905   1.110   3.547  13.644 -0.1406  0.1185  0.0124
  122MPD2    H5 1906   1.120   3.496  13.557 -0.5755 -0.2029  0.1533
  122MPD2    N1 1907   1.115   3.531  14.131  0.1711 -0.1282  0.1316
  122MPD2    H7 1908   1.100   3.631  14.122 -1.8024 -0.5389 -1.2528
  123TMC2    C1 1909   4.237   1.037  10.284 -0.3733  0.6958 -0.1740
  123TMC2    C2 1910   4.334   0.947  10.314  0.4125 -0.1375  0.0719
  123TMC2    C3 1911   4.303   0.817  10.306  0.4115 -0.1671  0.6830
  123TMC2    C4 1912   4.105   1.005  10.261 -0.2340  0.4829 -0.8173
  123TMC2    C5 1913   4.081   0.870  10.271  0.1371 -0.6163 -0.2209
  123TMC2    C6 1914   4.176   0.773  10.298  0.2786  0.0796 -0.4296
  123TMC2     C 1915   4.282   1.178  10.269 -0.1095 -0.1127 -0.0505
  123TMC2     O 1916   4.394   1.212  10.312  0.6914 -0.1589  0.0695
  123TMC2     H 1917   4.431   0.978  10.350  0.6952 -0.5413 -0.3327
  123TMC2    H1 1918   4.026   1.075  10.236  0.2376  1.6756  0.9609
  123TMC2    H2 1919   4.148   0.669  10.288  2.6894 -0.6515  0.6097
  123TMC2    C7 1920   3.951   0.812  10.227  0.3031  0.8016  0.1252
  123TMC2    C8 1921   4.405   0.717  10.318 -0.0496 -0.2469 -0.3664
  123TMC2    O1 1922   3.893   0.867  10.137  1.1243  0.3047  0.5186
  123TMC2    O2 1923   4.371   0.599  10.327 -1.2387 -0.0723  0.3390
  123TMC2    O5 1924   4.516   0.749  10.248 -0.2862  0.0783  0.3875
  123TMC2    H5 1925   4.521   0.842  10.217 -1.4778 -0.1941 -0.5922
  124MPD2     C 1926   4.158   1.679  10.175  0.1986 -0.3477  0.5055
  124MPD2    C1 1927   4.069   1.592  10.113 -0.1291 -0.1054  0.2060
  124MPD2    C2 1928   4.079   1.454  10.124  0.2437 -0.1900 -0.2314
  124MPD2    C3 1929   4.188   1.397  10.189  0.5147  0.2036 -0.3106
  124MPD2    C4 1930   4.279   1.484  10.252 -0.3116 -0.2679  0.6314
  124MPD2    C5 1931   4.271   1.620  10.238  0.4349 -0.0658  0.1042
  124MPD2     H 1932   4.007   1.384  10.084  1.2898 -1.4827  0.1434
  124MPD2    H1 1933   4.376   1.449  10.284  0.0507 -0.6589 -0.9221
  124MPD2    H2 1934   4.134   1.785  10.180 -0.2716 -0.2504 -3.7770
  124MPD2    H3 1935   4.339   1.692  10.282 -0.6379 -1.2190  3.6136
  124MPD2     N 1936   4.188   1.256  10.199 -0.3533  0.6449 -0.2701
  124MPD2    H5 1937   4.111   1.210  10.152  0.0870  0.8998 -1.2404
  124MPD2    N1 1938   3.947   1.653  10.065 -0.3432  0.2694  0.2607
  124MPD2    H7 1939   3.960   1.754  10.060 -0.2126  0.3520  2.3351
  125TMC2    C1 1940   0.052   4.714   9.871  0.5240  0.6199 -0.3007
  125TMC2    C2 1941   0.107   0.099   9.855 -0.2535  1.0130  0.2311
  125TMC2    C3 1942   0.171   0.133   9.738  0.3952 -0.1261 -0.4213
  125TMC2    C4 1943   0.058   4.628   9.764 -0.2767  0.4155 -0.1848
  125TMC2    C5 1944   0.122   4.668   9.647 -0.7416 -0.2438 -0.4391
  125TMC2    C6 1945   0.172   0.052   9.631 -0.2492  0.7925  0.3673
  125TMC2     C 1946   4.670   4.703   9.957 -0.1088  0.3635  1.0079
  125TMC2     O 1947   4.631   4.594   9.994  0.2425 -0.3185 -0.1456
  125TMC2     H 1948   0.121   0.150   9.950  1.8531  2.3042 -0.7705
  125TMC2    H1 1949   0.010   4.532   9.776 -1.2060  0.8102 -0.7968
  125TMC2    H2 1950   0.219   0.078   9.536 -0.8308  0.8270  0.0859
  125TMC2    C7 1951   0.127   4.565   9.542  0.3158 -0.4000 -1.0308
  125TMC2    C8 1952   0.275   0.241   9.738 -0.5053  0.2154 -0.0652
  125TMC2    O1 1953   0.128   4.592   9.423  0.4231 -0.5034 -0.3146
  125TMC2    O2 1954   0.377   0.246   9.668 -0.4379  0.3536  0.3621
  125TMC2    O5 1955   0.234   0.338   9.822  0.0537  0.1426  0.5319
  125TMC2    H5 1956   0.154   0.308   9.870  0.2844 -0.3187  0.6302
  126MPD1     C 1957   4.294   0.133  10.247 -0.0859  0.3480  0.2316
  126MPD1    C1 1958   4.331   0.236  10.167  0.0058 -0.1019  0.3464
  126MPD1    C2 1959   4.440   0.216  10.087  0.2409  0.1830 -0.4317
  126MPD1    C3 1960   4.512   0.099  10.091 -0.1946  0.0133 -0.2145
  126MPD1    C4 1961   4.481   0.000  10.178 -0.2345  0.0447 -0.6278
  126MPD1    C5 1962   4.363   0.008  10.249 -0.0185  0.3096 -0.3395
  126MPD1     H 1963   4.454   0.296  10.016 -2.0267 -0.6510 -1.8012
  126MPD1    H1 1964   4.543   4.653  10.198 -1.3454 -0.7754 -0.7793
  126MPD1    H2 1965   4.203   0.150  10.304 -0.8822 -0.5648 -0.7684
  126MPD1    H3 1966   4.339   4.671  10.322  2.5953 -1.0811 -0.9404
  126MPD1     N 1967   4.622   0.089  10.001 -0.1463 -0.0548 -0.0998
  126MPD1    H5 1968   4.658   0.165   9.945  2.7147 -3.4539 -2.8612
  126MPD1    N1 1969   4.250   0.349  10.163  0.3525 -0.3085 -0.1697
  126MPD1    H6 1970   4.298   0.430  10.124 -1.5240  0.5797 -0.6035
  126MPD1    H7 1971   4.206   0.369  10.252  1.4489 -0.1406  0.3340
  127TMC2    C1 1972   1.251   2.330   9.701  0.1648  1.0181  0.6157
  127TMC2    C2 1973   1.334   2.249   9.776 -0.2048 -0.3334  0.2153
  127TMC2    C3 1974   1.310   2.113   9.762 -0.3918  0.6658 -0.0579
  127TMC2    C4 1975   1.137   2.276   9.631  0.5733  0.4127  0.2540
  127TMC2    C5 1976   1.118   2.139   9.640 -0.0273 -0.0050  0.2123
  127TMC2    C6 1977   1.204   2.056   9.699 -0.0601 -0.2085 -0.3400
  127TMC2     C 1978   1.283   2.468   9.697  0.4634 -0.4539 -0.4328
  127TMC2     O 1979   1.351   2.514   9.788  0.2392 -0.4411  0.6949
  127TMC2     H 1980   1.414   2.287   9.838  0.9868 -0.1046 -1.4682
  127TMC2    H1 1981   1.072   2.340   9.574 -0.8960 -0.0670  1.3971
  127TMC2    H2 1982   1.198   1.948   9.693  0.6399 -0.1679 -1.9348
  127TMC2    C7 1983   1.015   2.088   9.547  0.0989 -0.1744 -0.1294
  127TMC2    C8 1984   1.396   2.028   9.843  0.0322 -0.5987 -0.5189
  127TMC2    O1 1985   0.976   2.167   9.456 -0.4168  0.1707  0.2148
  127TMC2    O2 1986   1.375   1.908   9.860  0.0088 -0.8850 -1.1147
  127TMC2    O5 1987   1.517   2.083   9.846 -0.4067  0.0431  0.4813
  127TMC2    H5 1988   1.527   2.172   9.807  0.6091 -0.5350 -0.5867
  128MPD2     C 1989   1.113   2.694   9.457 -0.1492 -0.0925 -0.4065
  128MPD2    C1 1990   1.197   2.665   9.563  0.8445  0.1656  0.1843
  128MPD2    C2 1991   1.256   2.769   9.630  0.1594  0.0469  0.8228
  128MPD2    C3 1992   1.227   2.904   9.585 -0.1421  0.5791 -0.0624
  128MPD2    C4 1993   1.145   2.921   9.477 -0.2385 -0.1711 -0.0379
  128MPD2    C5 1994   1.083   2.821   9.416 -0.4958 -0.7518 -0.2810
  128MPD2     H 1995   1.323   2.745   9.712  0.6474  0.0771  0.4305
  128MPD2    H1 1996   1.113   3.020   9.445 -0.3945  0.2636  1.4660
  128MPD2    H2 1997   1.072   2.606   9.410 -0.0376 -0.7233  0.6638
  128MPD2    H3 1998   1.014   2.834   9.334  0.8216 -1.2066 -1.4639
  128MPD2     N 1999   1.277   3.021   9.653  0.6037 -0.0839  0.7169
  128MPD2    H5 2000   1.352   3.007   9.719 -0.5326 -0.3004  1.9715
  128MPD2    N1 2001   1.209   2.529   9.602  0.1409  0.6476 -0.9482
  128MPD2    H7 2002   1.170   2.459   9.540 -0.0984 -0.2031  0.1546
  129TMC2    C1 2003   0.612   2.563   0.878  0.0734  0.5197 -0.2009
  129TMC2    C2 2004   0.669   2.440   0.862  0.1120  0.0602 -0.2054
  129TMC2    C3 2005   0.664   2.358   0.971  0.1058  0.6149 -0.3455
  129TMC2    C4 2006   0.535   2.595   0.984 -1.2141  0.4405  0.1695
  129TMC2    C5 2007   0.520   2.507   1.083  0.0389 -0.8642 -0.0420
  129TMC2    C6 2008   0.594   2.388   1.089 -0.3132  0.1916  0.1671
  129TMC2     C 2009   0.659   2.664   0.786  0.4421  0.2508  0.1049
  129TMC2     O 2010   0.699   2.613   0.684 -0.2552  0.0135  0.3920
  129TMC2     H 2011   0.736   2.415   0.781 -0.3003  0.4562 -0.6726
  129TMC2    H1 2012   0.478   2.687   0.991 -0.0141  1.1858  0.1005
  129TMC2    H2 2013   0.566   2.318   1.166 -0.8612  0.7799  0.5095
  129TMC2    C7 2014   0.400   2.514   1.161  0.0398  0.3833 -0.1132
  129TMC2    C8 2015   0.709   2.222   0.953  0.4687 -0.3010  0.0776
  129TMC2    O1 2016   0.307   2.572   1.106  0.2036  0.1912  0.8336
  129TMC2    O2 2017   0.707   2.173   0.843  0.3222 -0.0953 -0.6044
  129TMC2    O5 2018   0.798   2.208   1.052 -0.4035  0.4642  0.6304
  129TMC2    H5 2019   0.778   2.276   1.120 -0.4770 -0.4440  1.5150
  130MPD2     C 2020   0.683   2.892   0.609  0.5423  0.3478  0.2854
  130MPD2    C1 2021   0.645   2.905   0.742 -0.1694 -0.7269 -0.4752
  130MPD2    C2 2022   0.637   3.032   0.799  0.6200  0.5970 -0.3536
  130MPD2    C3 2023   0.642   3.142   0.722 -0.1713 -0.1698  0.6312
  130MPD2    C4 2024   0.688   3.125   0.590 -0.4448 -0.3594 -0.6279
  130MPD2    C5 2025   0.699   3.004   0.531  0.5778 -0.3795 -0.4120
  130MPD2     H 2026   0.602   3.047   0.901 -0.1574  0.6298 -0.6223
  130MPD2    H1 2027   0.709   3.209   0.526  2.2456 -0.1407  0.5673
  130MPD2    H2 2028   0.700   2.801   0.552  0.5270  1.2682 -1.1809
  130MPD2    H3 2029   0.741   3.005   0.431  1.2673 -0.5122 -0.1215
  130MPD2     N 2030   0.613   3.268   0.773 -0.0989 -0.2081  0.4351
  130MPD2    H5 2031   0.580   3.289   0.867  2.6961 -1.3854  1.6690
  130MPD2    N1 2032   0.635   2.791   0.826 -0.1993  0.1102  0.1654
  130MPD2    H7 2033   0.602   2.805   0.921  3.1478 -1.7486  1.5850
  131TMC2    C1 2034   4.085   2.350  10.563 -0.0154 -0.0657  0.0042
  131TMC2    C2 2035   4.086   2.481  10.613  0.3264  0.8079  0.4667
  131TMC2    C3 2036   4.199   2.557  10.601 -0.2550 -0.1041  0.1763
  131TMC2    C4 2037   4.202   2.293  10.511 -0.8169 -0.2496 -0.6491
  131TMC2    C5 2038   4.308   2.373  10.490 -0.1823  0.8420 -0.2385
  131TMC2    C6 2039   4.309   2.508  10.524 -0.0251 -0.4776  0.3774
  131TMC2     C 2040   3.963   2.288  10.518  0.0072  0.4690 -0.3244
  131TMC2     O 2041   3.982   2.163  10.507 -0.1220 -0.5245  0.2430
  131TMC2     H 2042   3.999   2.514  10.670 -1.0497 -2.0086 -0.0440
  131TMC2    H1 2043   4.210   2.190  10.478  1.6505 -0.2311 -0.0608
  131TMC2    H2 2044   4.396   2.569  10.539  1.5267 -2.3751 -0.8434
  131TMC2    C7 2045   4.427   2.312  10.441 -0.1515  0.3041  0.0148
  131TMC2    C8 2046   4.176   2.698  10.596  0.0565 -0.4167  0.0993
  131TMC2    O1 2047   4.428   2.192  10.443  0.4127 -0.0835  0.0922
  131TMC2    O2 2048   4.103   2.761  10.675 -0.6302  0.3455  0.6612
  131TMC2    O5 2049   4.213   2.747  10.476 -0.3776  0.1011  0.2502
  131TMC2    H5 2050   4.267   2.685  10.422  1.5216  0.6662  1.4960
  132MPD2     C 2051   3.743   2.455  10.270 -0.7276  0.1163 -0.3889
  132MPD2    C1 2052   3.791   2.345  10.340  0.5330  0.1154 -1.0117
  132MPD2    C2 2053   3.770   2.218  10.297  0.4447 -0.1391  0.3529
  132MPD2    C3 2054   3.691   2.191  10.183 -0.0716  0.2544 -0.5323
  132MPD2    C4 2055   3.648   2.302  10.112  0.4132 -0.6715 -0.5405
  132MPD2    C5 2056   3.668   2.432  10.158  0.1771 -0.1381  0.4463
  132MPD2     H 2057   3.819   2.132  10.341 -0.2301 -0.8118 -0.2130
  132MPD2    H1 2058   3.593   2.282  10.021 -1.7685 -0.6594  0.7627
  132MPD2    H2 2059   3.777   2.557  10.285 -2.9451  0.5860  1.5359
  132MPD2    H3 2060   3.640   2.518  10.098  2.1628 -0.4049 -0.8467
  132MPD2     N 2061   3.673   2.058  10.138  0.2013  0.3766 -0.0822
  132MPD2    H5 2062   3.722   1.986  10.190  2.8893  2.1847 -0.0874
  132MPD2    N1 2063   3.884   2.373  10.444  0.7004  0.6341 -0.3905
  132MPD2    H7 2064   3.894   2.473  10.464  2.0232  0.6700 -1.1950
  133TMC2    C1 2065   3.325   3.139   9.747  0.3642 -0.2643 -0.5443
  133TMC2    C2 2066   3.302   3.265   9.697  0.2448  0.0245  0.3847
  133TMC2    C3 2067   3.337   3.375   9.775 -0.0955 -0.4355 -0.3731
  133TMC2    C4 2068   3.408   3.115   9.854 -0.2845 -0.2150  0.0384
  133TMC2    C5 2069   3.446   3.231   9.924 -0.8856  0.1091  0.2866
  133TMC2    C6 2070   3.407   3.359   9.891 -0.7323 -0.2112 -0.0562
  133TMC2     C 2071   3.280   3.021   9.673 -0.0159  0.0232 -0.0247
  133TMC2     O 2072   3.334   2.913   9.688 -0.0453  0.0025 -0.7916
  133TMC2     H 2073   3.253   3.281   9.602 -0.5810  0.2401  0.8437
  133TMC2    H1 2074   3.440   3.014   9.877  1.2557  1.2037  4.1040
  133TMC2    H2 2075   3.443   3.449   9.939 -0.1045  0.3175 -1.5246
  133TMC2    C7 2076   3.531   3.201  10.039 -0.6728  0.2091  0.0290
  133TMC2    C8 2077   3.310   3.507   9.726 -0.1328 -0.3378 -0.4911
  133TMC2    O1 2078   3.564   3.088  10.057 -0.4694  0.3022 -0.0020
  133TMC2    O2 2079   3.309   3.545   9.609 -0.7070 -1.1230  0.9183
  133TMC2    O5 2080   3.300   3.587   9.839 -0.4523  0.6729  0.0650
  133TMC2    H5 2081   3.287   3.539   9.923  0.4517  0.7430  0.2512
  134MPD2     C 2082   2.997   2.989   9.442  0.1177 -0.7646  0.3441
  134MPD2    C1 2083   3.096   2.942   9.526  0.8409 -0.0760 -0.0905
  134MPD2    C2 2084   3.122   2.808   9.531  0.9604 -0.0145 -0.1414
  134MPD2    C3 2085   3.047   2.718   9.458  0.1275 -0.0035  0.4127
  134MPD2    C4 2086   2.949   2.771   9.374  0.0675 -0.7638 -0.1773
  134MPD2    C5 2087   2.921   2.906   9.374  0.6396 -0.0379 -1.0070
  134MPD2     H 2088   3.193   2.765   9.600  0.6492 -1.1852 -0.5472
  134MPD2    H1 2089   2.886   2.705   9.316 -1.6651  0.8808 -0.1783
  134MPD2    H2 2090   2.976   3.094   9.429  0.3162 -0.5468  1.7070
  134MPD2    H3 2091   2.840   2.955   9.321 -1.6796 -0.3391  2.2524
  134MPD2     N 2092   3.064   2.582   9.467  0.1247 -0.4783  0.6554
  134MPD2    H5 2093   3.002   2.520   9.416  0.4133 -0.2252 -0.0080
  134MPD2    N1 2094   3.167   3.037   9.596  0.6572  0.2926 -0.4301
  134MPD2    H7 2095   3.127   3.130   9.595  2.4801  1.0963  0.2425
  135TMC2    C1 2096   0.837   4.117   9.994 -0.2091  0.5416 -0.1164
  135TMC2    C2 2097   0.955   4.177  10.013 -0.0840 -0.7420  0.0533
  135TMC2    C3 2098   0.983   4.237  10.133 -0.2847  0.1019 -0.5553
  135TMC2    C4 2099   0.755   4.094  10.101  0.5949  0.1458  0.1706
  135TMC2    C5 2100   0.789   4.153  10.220  0.5110 -0.0514 -0.0993
  135TMC2    C6 2101   0.899   4.225  10.234  0.5039 -0.1122 -0.7403
  135TMC2     C 2102   0.834   4.006   9.899  0.1322  0.3960  0.4776
  135TMC2     O 2103   0.940   3.947   9.887 -0.5011  0.0485  0.2859
  135TMC2     H 2104   1.025   4.194   9.931  2.3305 -0.2928  2.1920
  135TMC2    H1 2105   0.664   4.037  10.087  0.8305 -0.1056 -0.3289
  135TMC2    H2 2106   0.916   4.279  10.326 -0.0301 -0.7400 -0.2682
  135TMC2    C7 2107   0.719   4.121  10.342  0.1146  0.0858  0.4238
  135TMC2    C8 2108   1.105   4.307  10.157  0.1274  0.0684 -0.3815
  135TMC2    O1 2109   0.781   4.156  10.437 -0.8297  0.3132 -0.1574
  135TMC2    O2 2110   1.110   4.417  10.212  0.0204  0.2510  0.4284
  135TMC2    O5 2111   1.198   4.213  10.154  0.0130  0.5165 -0.1393
  135TMC2    H5 2112   1.174   4.132  10.105  1.8956 -0.4441  0.5398
  136MPD2     C 2113   0.590   3.921   9.633 -0.6430 -0.3013  0.3452
  136MPD2    C1 2114   0.706   3.910   9.708  0.2210 -0.9412 -0.4516
  136MPD2    C2 2115   0.791   3.808   9.676  0.8481  0.1469  0.2117
  136MPD2    C3 2116   0.776   3.735   9.559  0.4658  0.9739 -0.5062
  136MPD2    C4 2117   0.664   3.756   9.480 -0.5527 -0.4683 -0.1082
  136MPD2    C5 2118   0.568   3.837   9.530 -0.4596 -0.4238  0.0709
  136MPD2     H 2119   0.874   3.785   9.743  1.2103  0.9850  0.0527
  136MPD2    H1 2120   0.655   3.706   9.385  2.2664  2.7393 -2.0703
  136MPD2    H2 2121   0.525   4.008   9.640  0.7620  0.7743  0.0373
  136MPD2    H3 2122   0.477   3.851   9.472 -0.6856  1.4338  0.8752
  136MPD2     N 2123   0.878   3.645   9.506 -0.3493  0.6962 -0.1853
  136MPD2    H5 2124   0.868   3.615   9.409 -0.6401  1.2490 -0.3249
  136MPD2    N1 2125   0.721   3.999   9.817  0.0433  0.3415 -0.0594
  136MPD2    H7 2126   0.645   4.065   9.833 -1.0744 -0.8797 -0.3075
  137TMC2    C1 2127   1.082   2.626  10.458 -0.0109 -0.4479 -0.1845
  137TMC2    C2 2128   1.192   2.621  10.533  0.2953 -0.0473  0.3490
  137TMC2    C3 2129   1.294   2.707  10.502 -0.8105 -0.7011  0.0539
  137TMC2    C4 2130   1.068   2.726  10.370 -0.1822 -0.3089  0.7358
  137TMC2    C5 2131   1.161   2.823  10.354 -0.1425 -0.7254  0.0472
  137TMC2    C6 2132   1.276   2.814  10.419  0.4329 -0.1946 -0.5507
  137TMC2     C 2133   0.962   2.580  10.521  0.5626 -0.7375 -0.3859
  137TMC2     O 2134   0.863   2.573  10.446 -0.1146  0.2143 -0.1717
  137TMC2     H 2135   1.214   2.538  10.598 -1.3122  1.1591  2.4156
  137TMC2    H1 2136   0.984   2.708  10.304 -0.2700 -1.3109  1.1147
  137TMC2    H2 2137   1.358   2.885  10.408 -1.4152  1.9739 -0.2359
  137TMC2    C7 2138   1.144   2.923  10.255 -0.3809 -0.5559 -0.4236
  137TMC2    C8 2139   1.424   2.697  10.561  0.5664 -0.2042 -0.1252
  137TMC2    O1 2140   1.242   2.975  10.204  0.2646  0.1340  0.0763
  137TMC2    O2 2141   1.528   2.718  10.505 -0.1276 -0.4576 -0.2572
  137TMC2    O5 2142   1.404   2.653  10.694 -0.2752  0.3287  0.0384
  137TMC2    H5 2143   1.318   2.679  10.732  0.2859  0.6841  1.0378
  138MPD2     C 2144   0.889   2.547  10.880  0.6618  0.8756 -0.2235
  138MPD2    C1 2145   0.859   2.540  10.744  0.7686  0.1484  0.1699
  138MPD2    C2 2146   0.730   2.511  10.706  0.3504 -0.5854  0.1405
  138MPD2    C3 2147   0.626   2.491  10.797  0.2158 -0.3894  0.0653
  138MPD2    C4 2148   0.651   2.512  10.932  0.0009  0.8499 -0.1367
  138MPD2    C5 2149   0.779   2.533  10.968  0.1529 -0.4738 -0.0059
  138MPD2     H 2150   0.704   2.513  10.601 -2.4630 -1.4456  0.8143
  138MPD2    H1 2151   0.574   2.511  11.008 -1.1195 -1.2699 -1.2727
  138MPD2    H2 2152   0.990   2.561  10.916  1.0559 -0.7857 -0.6728
  138MPD2    H3 2153   0.799   2.547  11.073 -1.3717  0.5131  0.1463
  138MPD2     N 2154   0.500   2.492  10.737 -0.3398  0.0210  0.0368
  138MPD2    H5 2155   0.500   2.498  10.636 -2.0948 -0.2859  0.0108
  138MPD2    N1 2156   0.966   2.581  10.659  0.2154 -0.0509  0.8368
  138MPD2    H7 2157   1.048   2.613  10.709 -0.8749  1.8681  1.3863
  139TMC2    C1 2158   0.701   0.862  13.472 -0.1695  0.7194 -0.1588
  139TMC2    C2 2159   0.626   0.894  13.358  0.5007  0.2101 -0.4364
  139TMC2    C3 2160   0.538   1.000  13.379  0.0243  0.1540  0.3469
  139TMC2    C4 2161   0.702   0.942  13.586 -0.7729  0.0028  1.1512
  139TMC2    C5 2162   0.609   1.048  13.600  0.9537  0.0194 -0.2947
  139TMC2    C6 2163   0.524   1.076  13.496 -0.1627 -0.0445 -0.2266
  139TMC2     C 2164   0.802   0.759  13.464  0.1243 -0.4705  0.0418
  139TMC2     O 2165   0.870   0.742  13.362  0.1178  0.6422  0.1807
  139TMC2     H 2166   0.610   0.818  13.282  2.9129  2.0379 -2.7664
  139TMC2    H1 2167   0.780   0.926  13.660 -1.3323  1.6871  2.0929
  139TMC2    H2 2168   0.441   1.145  13.511  0.5522  1.1179 -1.5389
  139TMC2    C7 2169   0.590   1.129  13.718  0.0302  0.3874  1.2137
  139TMC2    C8 2170   0.428   1.023  13.293  0.3475 -0.0946  0.5307
  139TMC2    O1 2171   0.480   1.180  13.725 -0.1326  0.2728  0.2549
  139TMC2    O2 2172   0.323   1.076  13.338 -0.3510 -0.4809  0.3499
  139TMC2    O5 2173   0.441   0.943  13.188 -0.1417  0.1154 -0.0545
  139TMC2    H5 2174   0.534   0.924  13.163 -0.4059 -1.2237 -0.0288
  140MPD2     C 2175   0.833   0.460  13.677  0.5440  0.5151 -0.3052
  140MPD2    C1 2176   0.874   0.563  13.593  0.9454 -0.5774 -0.4046
  140MPD2    C2 2177   1.002   0.554  13.536  0.1422 -0.4019 -0.1702
  140MPD2    C3 2178   1.085   0.448  13.562  0.2898  0.3668  0.4709
  140MPD2    C4 2179   1.041   0.342  13.649 -0.1072  0.4995  0.7217
  140MPD2    C5 2180   0.914   0.348  13.700  0.3478  1.6446  0.0817
  140MPD2     H 2181   1.036   0.634  13.472  1.1105 -0.4378  0.2933
  140MPD2    H1 2182   1.107   0.258  13.660  1.9656  2.0048 -0.2235
  140MPD2    H2 2183   0.746   0.468  13.742  1.8239 -0.6739  1.5692
  140MPD2    H3 2184   0.878   0.267  13.762  0.8195  0.5216 -1.1270
  140MPD2     N 2185   1.204   0.439  13.489  0.3720  0.3200  0.4258
  140MPD2    H5 2186   1.207   0.504  13.411 -2.0007  0.7004  0.6570
  140MPD2    N1 2187   0.788   0.673  13.572  0.7965  0.5167  0.3077
  140MPD2    H7 2188   0.705   0.681  13.630 -0.1137  1.1841 -1.0782
  141TMC2    C1 2189   2.384   1.813  14.789  0.2499 -0.2649  0.6518
  141TMC2    C2 2190   2.396   1.684  14.833 -0.0347 -0.0768  0.2124
  141TMC2    C3 2191   2.466   1.673  14.944  0.2564 -0.4331  0.0153
  141TMC2    C4 2192   2.448   1.921  14.842 -0.0351  0.0064 -0.6320
  141TMC2    C5 2193   2.521   1.900  14.950 -0.1493  0.3389 -0.2363
  141TMC2    C6 2194   2.535   1.774  15.002  0.2455  0.5529 -0.3759
  141TMC2     C 2195   2.303   1.840  14.671 -0.2454  0.2389  0.1831
  141TMC2     O 2196   2.293   1.749  14.584  0.3836  0.4847  0.3394
  141TMC2     H 2197   2.332   1.606  14.794 -2.2849  0.9716  1.7874
  141TMC2    H1 2198   2.453   2.015  14.789 -0.5685  1.9074  2.6951
  141TMC2    H2 2199   2.593   1.759  15.092 -1.5527 -2.8964  0.2217
  141TMC2    C7 2200   2.599   2.007  15.011 -0.2967  0.2207  0.4678
  141TMC2    C8 2201   2.474   1.547  15.009 -0.3483 -0.9000  0.0934
  141TMC2    O1 2202   2.679   1.971  15.097 -0.5943  0.5876 -0.0639
  141TMC2    O2 2203   2.559   1.527  15.094  0.2192 -0.2184  0.5244
  141TMC2    O5 2204   2.357   1.482  14.996  0.6000  0.3228 -0.3798
  141TMC2    H5 2205   2.289   1.525  14.940 -1.1283 -0.1168  1.3694
  142TMC2    C1 2206   3.172   0.546   9.835 -0.1566 -0.3628 -0.7660
  142TMC2    C2 2207   3.174   0.604   9.711  0.2782 -0.1354 -0.1997
  142TMC2    C3 2208   3.265   0.695   9.690  0.5300  0.6321 -0.8631
  142TMC2    C4 2209   3.265   0.577   9.931  0.0265  0.2082 -0.0280
  142TMC2    C5 2210   3.356   0.672   9.904 -0.5403 -0.1723  0.4286
  142TMC2    C6 2211   3.361   0.728   9.780 -0.6834  0.0043 -0.3418
  142TMC2     C 2212   3.077   0.443   9.856  0.9545  0.2143 -0.3449
  142TMC2     O 2213   3.101   0.352   9.934  0.2170 -0.5354 -0.1454
  142TMC2     H 2214   3.102   0.574   9.635  1.0127 -0.2001 -0.8652
  142TMC2    H1 2215   3.253   0.529  10.027  0.6273 -1.4283 -0.7599
  142TMC2    H2 2216   3.439   0.796   9.746  0.2777 -0.6406  0.5624
  142TMC2    C7 2217   3.486   0.672   9.971  0.0780  0.2315 -0.1759
  142TMC2    C8 2218   3.263   0.761   9.559 -0.5569  0.3772 -0.4358
  142TMC2    O1 2219   3.570   0.751   9.938 -0.2589 -0.0805 -0.0007
  142TMC2    O2 2220   3.216   0.712   9.458 -0.1801 -0.1744  0.3662
  142TMC2    O5 2221   3.295   0.891   9.586 -0.1318 -0.3540 -0.0628
  142TMC2    H5 2222   3.313   0.905   9.681 -2.4587  1.1102  0.1800
  143MPD2     C 2223   2.597   0.257   9.803  0.2321  0.1420  1.0302
  143MPD2    C1 2224   2.709   0.197   9.864 -0.6268  0.7525  0.2776
  143MPD2    C2 2225   2.830   0.269   9.856  0.0588  0.6784  0.9940
  143MPD2    C3 2226   2.839   0.393   9.798 -0.2517  0.2133 -0.0802
  143MPD2    C4 2227   2.724   0.447   9.740  0.7929  0.3890 -0.3001
  143MPD2    C5 2228   2.604   0.377   9.745 -0.4790 -0.0279 -0.4349
  143MPD2     H 2229   2.917   0.218   9.894  0.5129 -1.3233 -2.7341
  143MPD2    H1 2230   2.737   0.544   9.692  1.1558  0.9000  0.8214
  143MPD2    H2 2231   2.499   0.210   9.802  0.5795 -0.5348 -1.2578
  143MPD2    H3 2232   2.508   0.422   9.722 -0.3941 -0.1341 -0.9993
  143MPD2     N 2233   2.959   0.469   9.788 -0.7289 -0.3748  0.4298
  143MPD2    H5 2234   2.958   0.559   9.740  2.3663 -0.3095  0.5245
  143MPD2    N1 2235   2.692   0.076   9.930 -0.3135 -0.6246 -0.3262
  143MPD2    H7 2236   2.600   0.034   9.924 -0.1704 -1.3016  2.0427
  144TMC2    C1 2237   2.220   4.410   0.748  0.2723 -0.1966  0.0744
  144TMC2    C2 2238   2.312   4.310   0.717 -0.0563  0.4395 -0.0641
  144TMC2    C3 2239   2.439   4.331   0.762 -0.7510  0.3917  0.6286
  144TMC2    C4 2240   2.247   4.517   0.826 -0.7745 -0.3812  0.0923
  144TMC2    C5 2241   2.382   4.538   0.857 -0.3533  0.0911  0.1773
  144TMC2    C6 2242   2.474   4.445   0.824  0.6251 -0.9978 -0.1895
  144TMC2     C 2243   2.092   4.428   0.670 -0.7778 -0.5749  0.4988
  144TMC2     O 2244   2.055   4.335   0.596  0.3024 -0.5381  0.0019
  144TMC2     H 2245   2.290   4.223   0.657  1.3552 -0.6524  0.9873
  144TMC2    H1 2246   2.169   4.584   0.861 -0.1548  0.8129 -0.7864
  144TMC2    H2 2247   2.577   4.447   0.859  0.3526  1.1357  0.5420
  144TMC2    C7 2248   2.436   4.660   0.906 -0.0622 -0.3360  0.1817
  144TMC2    C8 2249   2.548   4.237   0.736  0.3819  0.6844 -0.4699
  144TMC2    O1 2250   2.553   4.644   0.947 -0.2768 -0.4707  0.2234
  144TMC2    O2 2251   2.655   4.228   0.798 -0.1471 -0.6437 -0.0966
  144TMC2    O5 2252   2.527   4.205   0.599  0.2542  0.9575  0.2458
  144TMC2    H5 2253   2.440   4.234   0.562 -0.4642  0.1429  1.2957
  145MPD2     C 2254   1.733   4.720   0.443  0.2083  0.3321  0.0995
  145MPD2    C1 2255   1.781   4.592   0.410 -0.2408  0.3573  0.4324
  145MPD2    C2 2256   1.875   4.529   0.496  0.5249  0.3687 -0.0454
  145MPD2    C3 2257   1.913   4.587   0.613  0.4024  0.0784 -0.4443
  145MPD2    C4 2258   1.869   4.714   0.635 -0.4783  0.2022  0.5525
  145MPD2    C5 2259   1.774   0.039   0.560 -0.5400 -0.2742 -0.2045
  145MPD2     H 2260   1.899   4.428   0.464  0.6439  0.3453  0.1169
  145MPD2    H1 2261   1.885   0.023   0.731 -1.8895  2.1951 -0.2164
  145MPD2    H2 2262   1.663   0.037   0.382 -1.4780 -1.8669  0.0157
  145MPD2    H3 2263   1.752   0.138   0.597  2.2648 -0.3810  1.7755
  145MPD2     N 2264   2.014   4.534   0.701  0.1633  0.6612 -1.0522
  145MPD2    H5 2265   2.035   4.602   0.774  0.7144  1.2081 -1.7182
  145MPD2    N1 2266   1.732   4.518   0.296  0.4899 -0.2883  0.3216
  145MPD2    H7 2267   1.774   4.426   0.289  1.8060  0.4117 -0.8803
  146TMC2    C1 2268   3.753   3.920  12.327  0.5646 -0.8450 -0.2942
  146TMC2    C2 2269   3.783   4.034  12.262  0.7675 -0.0260 -0.1836
  146TMC2    C3 2270   3.847   4.029  12.136 -0.8488 -0.2226  0.1950
  146TMC2    C4 2271   3.790   3.800  12.286 -0.6997 -0.4085 -0.1852
  146TMC2    C5 2272   3.850   3.794  12.163  0.9094 -0.0091  0.4133
  146TMC2    C6 2273   3.889   3.907  12.094 -0.6521 -0.4608  0.1540
  146TMC2     C 2274   3.684   3.936  12.447  0.2389  0.0849 -0.8823
  146TMC2     O 2275   3.617   4.042  12.450  0.3727 -0.1947 -0.3189
  146TMC2     H 2276   3.759   4.133  12.299  2.6501 -0.1227  1.2651
  146TMC2    H1 2277   3.773   3.704  12.333 -0.1009 -1.0431 -1.2487
  146TMC2    H2 2278   3.942   3.900  12.000 -3.1559 -1.1508 -1.1935
  146TMC2    C7 2279   3.937   3.680  12.139  0.1220 -0.1733  1.2714
  146TMC2    C8 2280   3.907   4.153  12.083 -0.6045 -0.2857  0.3123
  146TMC2    O1 2281   3.981   3.664  12.022 -0.0291 -0.3751  0.2497
  146TMC2    O2 2282   3.882   4.255  12.140 -0.2729  0.1022  0.6490
  146TMC2    O5 2283   3.962   4.130  11.957  0.2781 -0.1364  0.0954
  146TMC2    H5 2284   3.970   4.040  11.918 -2.2084  0.3272 -1.4587
  147MPD2     C 2285   4.265   3.306  12.291  0.2634 -0.1682 -0.2472
  147MPD2    C1 2286   4.186   3.339  12.396  0.6677 -0.6795  0.0113
  147MPD2    C2 2287   4.079   3.422  12.368  0.3002  0.1078  0.8322
  147MPD2    C3 2288   4.065   3.497  12.249 -0.2850  0.6795  0.4757
  147MPD2    C4 2289   4.149   3.455  12.144 -0.7465  0.4453 -0.0007
  147MPD2    C5 2290   4.247   3.367  12.172 -0.3976  0.6631 -0.1737
  147MPD2     H 2291   4.016   3.450  12.452 -1.5699  2.8668 -1.4888
  147MPD2    H1 2292   4.121   3.489  12.044  0.8067 -0.7377 -0.8405
  147MPD2    H2 2293   4.345   3.233  12.301 -0.6310 -0.9869  0.9233
  147MPD2    H3 2294   4.308   3.339  12.087  0.2617  0.5367  0.3359
  147MPD2     N 2295   3.964   3.599  12.246  0.3037 -0.3061  0.2331
  147MPD2    H5 2296   3.932   3.621  12.340 -2.6970  0.9982 -1.0918
  147MPD2    N1 2297   4.204   3.270  12.519  0.0872  0.1973 -0.1602
  147MPD2    H7 2298   4.288   3.213  12.528  0.7631  1.0525 -1.0905
  148TMC2    C1 2299   3.222   2.251  10.857 -0.7459 -0.1865  0.2708
  148TMC2    C2 2300   3.275   2.365  10.921  0.3486 -0.3639  0.0477
  148TMC2    C3 2301   3.375   2.347  11.006 -1.0852 -0.0463 -0.6301
  148TMC2    C4 2302   3.265   2.121  10.884  0.7627 -0.4297  0.0185
  148TMC2    C5 2303   3.367   2.112  10.974  0.3461 -0.4934 -0.7272
  148TMC2    C6 2304   3.414   2.221  11.041  0.0154 -0.5691  0.5461
  148TMC2     C 2305   3.147   2.278  10.734  0.2988  0.7754 -0.2224
  148TMC2     O 2306   3.103   2.393  10.718  0.4026 -1.0614  0.0630
  148TMC2     H 2307   3.228   2.461  10.906  1.9896  0.5970  1.1103
  148TMC2    H1 2308   3.221   2.031  10.843 -0.7726 -0.4309  1.6751
  148TMC2    H2 2309   3.480   2.211  11.127 -0.4332  0.5477  1.0108
  148TMC2    C7 2310   3.431   1.981  10.981 -0.2494 -0.2097  0.3414
  148TMC2    C8 2311   3.394   2.451  11.100 -0.3277 -0.3867 -0.2073
  148TMC2    O1 2312   3.422   1.908  10.884  0.5189  0.1077 -0.2542
  148TMC2    O2 2313   3.309   2.535  11.133 -0.2387  0.1017  0.0197
  148TMC2    O5 2314   3.514   2.438  11.160  0.4819 -0.0602 -0.4259
  148TMC2    H5 2315   3.562   2.372  11.106  1.2558 -0.3883  0.6855
  149MPD2     C 2316   2.957   2.267  10.502 -0.1034  1.1746 -0.4473
  149MPD2    C1 2317   3.031   2.164  10.544 -0.2877  0.6849  0.1774
  149MPD2    C2 2318   3.014   2.036  10.496 -0.7669  0.2634  0.0308
  149MPD2    C3 2319   2.942   2.017  10.379  0.0715 -0.8883  0.3889
  149MPD2    C4 2320   2.867   2.126  10.326  0.4788 -0.4898 -0.3728
  149MPD2    C5 2321   2.873   2.246  10.392 -0.3388 -0.1988 -0.2191
  149MPD2     H 2322   3.058   1.959  10.557  0.7456 -0.7977 -2.4011
  149MPD2    H1 2323   2.800   2.117  10.242  2.3882 -4.4374 -1.4571
  149MPD2    H2 2324   2.974   2.369  10.532 -1.1598  1.6098 -1.3352
  149MPD2    H3 2325   2.821   2.327  10.342  1.7238  1.8237  0.9376
  149MPD2     N 2326   2.932   1.891  10.319  0.0385  0.3858  0.0994
  149MPD2    H5 2327   2.885   1.883  10.230 -1.4280  2.6139  0.6785
  149MPD2    N1 2328   3.121   2.169  10.656 -0.4054 -0.2718 -0.3983
  149MPD2    H7 2329   3.172   2.083  10.673  0.4596  0.6376  1.5766
  150TMC2    C1 2330   0.724   1.611  12.326  0.0612 -0.0489 -0.3134
  150TMC2    C2 2331   0.726   1.750  12.323 -0.0973 -0.2370  0.3230
  150TMC2    C3 2332   0.848   1.809  12.301  0.2777 -0.1328  0.2205
  150TMC2    C4 2333   0.837   1.537  12.336 -0.5581 -0.2853 -0.5471
  150TMC2    C5 2334   0.955   1.604  12.327 -0.7612  0.1087 -0.5822
  150TMC2    C6 2335   0.964   1.738  12.300  0.0317 -0.7415  0.0328
  150TMC2     C 2336   0.601   1.549  12.370  0.0011  0.1121  0.8688
  150TMC2     O 2337   0.618   1.451  12.451  0.4813  0.1139  0.6559
  150TMC2     H 2338   0.635   1.801  12.349  0.8182  0.5848  1.9475
  150TMC2    H1 2339   0.824   1.430  12.339 -0.4439 -0.2119  2.5334
  150TMC2    H2 2340   1.060   1.785  12.318 -0.4231  0.3117 -0.2393
  150TMC2    C7 2341   1.077   1.548  12.390 -0.3257  0.2806  0.2253
  150TMC2    C8 2342   0.863   1.949  12.345  0.3276 -0.6177 -0.3557
  150TMC2    O1 2343   1.185   1.598  12.359 -1.0435 -0.0158 -0.2346
  150TMC2    O2 2344   0.767   1.999  12.399 -0.3660  0.2376  0.4711
  150TMC2    O5 2345   0.932   2.003  12.245  0.6622 -0.4755  0.4356
  150TMC2    H5 2346   0.961   1.934  12.181  1.3976  3.8273 -3.8859
  151MPD2     C 2347   0.095   1.434  12.387 -1.0455  0.3704  0.0828
  151MPD2    C1 2348   0.120   1.513  12.272 -0.6543 -0.7055  0.2560
  151MPD2    C2 2349   0.245   1.561  12.246 -0.5865  0.5172  0.1928
  151MPD2    C3 2350   0.352   1.539  12.335  0.6694 -0.1938  0.4666
  151MPD2    C4 2351   0.325   1.455  12.447 -0.8706  0.6999 -0.0750
  151MPD2    C5 2352   0.193   1.416  12.474  0.1537  0.1845 -0.3861
  151MPD2     H 2353   0.275   1.614  12.156 -0.4410 -0.3978 -0.2986
  151MPD2    H1 2354   0.400   1.430  12.521  0.2504 -0.7271 -1.6667
  151MPD2    H2 2355   4.736   1.394  12.405 -0.8262 -0.8623 -1.4670
  151MPD2    H3 2356   0.177   1.355  12.562  1.2518  2.5246  1.4219
  151MPD2     N 2357   0.483   1.592  12.308  0.0227  0.6536  0.9467
  151MPD2    H5 2358   0.490   1.664  12.238 -1.6239 -0.9471 -0.8659
  151MPD2    N1 2359   0.016   1.523  12.169  0.2659  0.4365  0.6380
  151MPD2    H7 2360   4.669   1.474  12.190  1.1633 -0.2082  2.8379
  152TMC2    C1 2361   0.680   1.464  12.802  0.2202  0.4173  0.2268
  152TMC2    C2 2362   0.752   1.370  12.880 -0.6872 -0.0540  0.1155
  152TMC2    C3 2363   0.886   1.392  12.898 -0.8001  0.0163  0.0199
  152TMC2    C4 2364   0.740   1.577  12.754  0.4378 -0.0267  0.3836
  152TMC2    C5 2365   0.872   1.601  12.780  0.1522 -0.1306  0.2635
  152TMC2    C6 2366   0.942   1.503  12.847  0.5126 -0.2559 -0.6338
  152TMC2     C 2367   0.529   1.455  12.789  0.0691 -0.4800 -0.2741
  152TMC2     O 2368   0.462   1.552  12.752 -0.8142 -0.0991 -0.5829
  152TMC2     H 2369   0.705   1.282  12.922 -0.1393  0.6741  2.2206
  152TMC2    H1 2370   0.688   1.655  12.699 -2.3743 -1.2888  1.2483
  152TMC2    H2 2371   1.050   1.514  12.844  0.4584  1.1120  2.5197
  152TMC2    C7 2372   0.943   1.701  12.705 -0.1928 -0.0724  0.4794
  152TMC2    C8 2373   0.957   1.278  12.967 -0.3464 -0.0910  0.9042
  152TMC2    O1 2374   0.898   1.743  12.600 -0.5976  0.3348 -0.0545
  152TMC2    O2 2375   0.916   1.164  12.965 -0.6496  0.3115 -0.1182
  152TMC2    O5 2376   1.041   1.323  13.057 -0.3197 -0.7015  0.7925
  152TMC2    H5 2377   1.088   1.407  13.037 -1.4801  0.3357  2.4321
  153MPD2     C 2378   0.360   1.137  12.770  0.0330  0.4979 -0.5760
  153MPD2    C1 2379   0.366   1.270  12.792 -0.3102 -0.4680 -0.9811
  153MPD2    C2 2380   0.252   1.339  12.810  0.1452  0.3843  0.0280
  153MPD2    C3 2381   0.122   1.283  12.798  0.0872  0.3160  0.1620
  153MPD2    C4 2382   0.116   1.146  12.783 -0.0655  0.0200  0.1592
  153MPD2    C5 2383   0.236   1.080  12.775 -0.3519  0.5424 -0.1306
  153MPD2     H 2384   0.270   1.444  12.829  2.4180 -0.3060  1.6398
  153MPD2    H1 2385   0.028   1.083  12.786 -0.2001  0.1543 -1.1487
  153MPD2    H2 2386   0.442   1.072  12.739 -0.5249 -1.3643  1.8459
  153MPD2    H3 2387   0.231   0.973  12.762  1.5459  0.3481  0.7247
  153MPD2     N 2388   0.010   1.363  12.806 -0.6808  0.5072  0.5654
  153MPD2    H5 2389   0.019   1.459  12.836 -0.0058  0.5824  0.1204
  153MPD2    N1 2390   0.497   1.323  12.787  0.2025 -0.0885 -0.3279
  153MPD2    H7 2391   0.574   1.257  12.780  0.1932 -0.2467  1.1402
  154TMC2    C1 2392   2.581   1.604  17.531 -0.0329 -0.5147  0.1303
  154TMC2    C2 2393   2.670   1.697  17.467 -0.0911  0.6133  0.7798
  154TMC2    C3 2394   2.711   1.674  17.344  0.9560 -0.4923 -0.4954
  154TMC2    C4 2395   2.562   1.486  17.474 -0.2461  0.2972 -0.0448
  154TMC2    C5 2396   2.608   1.471  17.344 -0.4700 -0.4234  0.5286
  154TMC2    C6 2397   2.688   1.558  17.277  0.9079  0.8954 -0.4982
  154TMC2     C 2398   2.505   1.644  17.649  0.2742  0.3022 -0.8088
  154TMC2     O 2399   2.558   1.733  17.714 -0.3527  0.0839  0.0375
  154TMC2     H 2400   2.704   1.780  17.528 -0.2052  1.2337 -0.0050
  154TMC2    H1 2401   2.508   1.399  17.510  0.0364 -0.2706 -0.9952
  154TMC2    H2 2402   2.721   1.534  17.176  0.2464  0.0754 -0.5193
  154TMC2    C7 2403   2.635   1.330  17.321  1.0871 -0.0708  0.3724
  154TMC2    C8 2404   2.826   1.752  17.296 -0.2363  0.4450  0.3880
  154TMC2    O1 2405   2.547   1.255  17.354 -0.1787 -0.5572  0.9485
  154TMC2    O2 2406   2.914   1.697  17.229 -0.2558 -0.1045  0.1175
  154TMC2    O5 2407   2.806   1.879  17.314 -0.3709  0.0746 -0.0840
  154TMC2    H5 2408   2.714   1.908  17.334 -0.4633 -1.5082  1.7819
  155MPD2     C 2409   2.165   1.536   0.010  0.1123  0.4804  0.3479
  155MPD2    C1 2410   2.289   1.598   0.017  0.3999  0.6170 -0.2063
  155MPD2    C2 2411   2.325   1.663   0.136  0.3178  0.3731 -0.0080
  155MPD2    C3 2412   2.225   1.685   0.237 -0.6262 -0.1659  0.2493
  155MPD2    C4 2413   2.100   1.630   0.219  0.2068 -0.1893  0.2545
  155MPD2    C5 2414   2.071   1.553   0.103 -0.1407 -0.2098 -0.6129
  155MPD2     H 2415   2.423   1.705   0.157 -0.4501  2.1605  0.0340
  155MPD2    H1 2416   2.025   1.624   0.297  0.4271 -0.5622  0.4387
  155MPD2    H2 2417   2.128   1.486  17.677 -1.1338  1.1894  0.4660
  155MPD2    H3 2418   1.977   1.502   0.088 -0.4138  0.3478 -0.7824
  155MPD2     N 2419   2.254   1.757   0.357 -0.1496  0.4891  0.3077
  155MPD2    H5 2420   2.353   1.773   0.371  0.4103 -3.0202  0.2129
  155MPD2    N1 2421   2.385   1.578  17.665 -0.2698 -0.2138  0.0365
  155MPD2    H7 2422   2.360   1.508  17.596  0.7602 -1.8181  1.2900
  156TMC2    C1 2423   0.262   3.946  11.805 -0.1890 -0.4277  0.3425
  156TMC2    C2 2424   0.152   3.917  11.886 -0.0927  0.6826  0.6605
  156TMC2    C3 2425   0.067   4.024  11.904 -0.0338 -0.7553  0.0126
  156TMC2    C4 2426   0.273   4.059  11.736 -0.0173  0.3358 -0.1589
  156TMC2    C5 2427   0.168   4.152  11.743 -0.3262 -0.3380 -0.2118
  156TMC2    C6 2428   0.064   4.134  11.823  0.3709 -0.2434 -0.1578
  156TMC2     C 2429   0.378   3.869  11.824  0.3976 -0.5890  0.1597
  156TMC2     O 2430   0.484   3.925  11.815  0.2484  0.0952 -0.0449
  156TMC2     H 2431   0.140   3.829  11.949  1.7645 -1.4448 -1.9326
  156TMC2    H1 2432   0.354   4.068  11.665  0.1740  1.2373  0.1811
  156TMC2    H2 2433   4.734   4.215  11.844 -0.3607 -0.7544 -0.6409
  156TMC2    C7 2434   0.201   4.281  11.692  0.2087 -0.5850 -0.9797
  156TMC2    C8 2435   4.676   3.984  11.957  0.1543 -0.2896  0.2931
  156TMC2    O1 2436   0.317   4.302  11.670 -0.0240  0.1695 -0.4041
  156TMC2    O2 2437   4.665   3.911  12.055  0.3556 -0.1891  0.0417
  156TMC2    O5 2438   4.593   3.969  11.852 -0.0227  0.0207 -0.0848
  156TMC2    H5 2439   4.623   3.997  11.763  0.3240 -1.1268 -0.3312
  157MPD2     C 2440   0.420   3.512  11.900  0.3952  0.1934 -0.1520
  157MPD2    C1 2441   0.462   3.640  11.877 -0.0217  0.2606 -0.4051
  157MPD2    C2 2442   0.594   3.667  11.872 -1.2987 -0.3632  0.1998
  157MPD2    C3 2443   0.688   3.563  11.894 -0.1120 -0.2127  0.2801
  157MPD2    C4 2444   0.642   3.431  11.903 -0.5563  0.4811  0.1733
  157MPD2    C5 2445   0.512   3.404  11.905  0.0224  0.7747  0.1739
  157MPD2     H 2446   0.627   3.768  11.854  0.4408 -0.6963  1.4855
  157MPD2    H1 2447   0.710   3.347  11.908 -0.6474  0.4251  0.5127
  157MPD2    H2 2448   0.315   3.484  11.897  0.3330  0.3104  0.9735
  157MPD2    H3 2449   0.477   3.303  11.927  1.8659  0.1493  0.2603
  157MPD2     N 2450   0.827   3.602  11.890 -0.1229  0.3169 -0.2174
  157MPD2    H5 2451   0.843   3.702  11.887 -0.4409  0.3635 -0.3776
  157MPD2    N1 2452   0.360   3.739  11.858 -0.0785 -0.7386  0.0479
  157MPD2    H7 2453   0.267   3.711  11.888  0.1953 -0.7605  0.8864
  158TMC2    C1 2454   0.992   2.276  13.309  0.2952 -0.3641 -0.0536
  158TMC2    C2 2455   1.020   2.296  13.175 -0.0132 -0.1342 -0.2291
  158TMC2    C3 2456   0.931   2.354  13.082  0.0623 -0.5843  0.0837
  158TMC2    C4 2457   0.863   2.300  13.353 -0.6649  0.1319  0.2547
  158TMC2    C5 2458   0.774   2.351  13.261 -0.1822  0.0357 -0.5246
  158TMC2    C6 2459   0.803   2.376  13.125  0.1808  0.6734  0.7387
  158TMC2     C 2460   1.100   2.271  13.401 -0.0127  0.5777 -0.2451
  158TMC2     O 2461   1.195   2.197  13.377 -0.4398  0.5480  0.3004
  158TMC2     H 2462   1.123   2.283  13.144 -0.3939 -0.4652 -1.3202
  158TMC2    H1 2463   0.835   2.271  13.453 -0.1142  0.2579  0.4475
  158TMC2    H2 2464   0.728   2.405  13.053  0.4452  0.8110  0.5191
  158TMC2    C7 2465   0.635   2.365  13.303  0.0723 -0.2677  0.1296
  158TMC2    C8 2466   0.989   2.415  12.958 -0.3987  0.1184 -0.8446
  158TMC2    O1 2467   0.576   2.465  13.263  0.1417 -0.0882 -0.2622
  158TMC2    O2 2468   1.110   2.408  12.949 -0.0350  1.1823 -0.0960
  158TMC2    O5 2469   0.930   2.532  12.952 -0.3180 -1.0590 -0.0654
  158TMC2    H5 2470   0.833   2.528  12.941 -0.4987  0.0752  1.1088
  159MPD2     C 2471   1.275   2.450  13.838 -0.3230 -0.3014  0.0438
  159MPD2    C1 2472   1.142   2.485  13.830 -0.0736 -0.3081  0.0340
  159MPD2    C2 2473   1.077   2.453  13.716  0.1290  0.4083 -0.1639
  159MPD2    C3 2474   1.139   2.375  13.618 -0.0821  1.0339 -0.4824
  159MPD2    C4 2475   1.271   2.334  13.630 -0.0416  0.3774  0.7145
  159MPD2    C5 2476   1.337   2.370  13.745  0.3177  0.4462 -0.3095
  159MPD2     H 2477   0.977   2.489  13.692  0.1519  0.0906 -0.7296
  159MPD2    H1 2478   1.328   2.282  13.554 -1.8242 -2.1767  1.1243
  159MPD2    H2 2479   1.328   2.473  13.929 -0.0272 -2.4588  0.4365
  159MPD2    H3 2480   1.439   2.335  13.751  1.4334  3.9947  1.1950
  159MPD2     N 2481   1.056   2.340  13.507  1.2463  0.5868  0.4426
  159MPD2    H5 2482   0.963   2.382  13.508  1.8523  1.9875 -2.6904
  159MPD2    N1 2483   1.080   2.563  13.932 -0.1279 -0.0790  0.2565
  159MPD2    H7 2484   1.132   2.567  14.019 -0.7049 -0.0921  0.5978
  160TMC2    C1 2485   0.916   0.827   1.696 -0.2177  0.1194  0.6252
  160TMC2    C2 2486   0.918   0.736   1.799  0.3572  0.2267 -0.2325
  160TMC2    C3 2487   0.999   0.634   1.794 -0.3365  0.2557  0.2501
  160TMC2    C4 2488   0.991   0.811   1.583 -0.3443  0.6129 -0.0818
  160TMC2    C5 2489   1.085   0.710   1.586  0.6938  0.5493  0.4458
  160TMC2    C6 2490   1.083   0.620   1.690 -0.5670 -0.0124 -0.6415
  160TMC2     C 2491   0.838   0.951   1.710  0.3839 -0.4136 -0.3044
  160TMC2     O 2492   0.842   1.013   1.815 -0.1139 -0.1251 -0.1072
  160TMC2     H 2493   0.842   0.755   1.875 -0.3942  0.5602 -1.0729
  160TMC2    H1 2494   1.007   0.894   1.515  1.6312  0.6162  0.3807
  160TMC2    H2 2495   1.145   0.531   1.688  1.9317  1.7521 -2.0119
  160TMC2    C7 2496   1.195   0.698   1.491 -0.6349 -0.1284  0.1802
  160TMC2    C8 2497   0.953   0.522   1.864  0.1741  0.0169  0.2672
  160TMC2    O1 2498   1.294   0.643   1.526 -0.0856 -0.4034 -0.2161
  160TMC2    O2 2499   0.839   0.520   1.910  0.0183 -0.4545 -0.2348
  160TMC2    O5 2500   1.062   0.477   1.938 -0.1861 -0.2055 -0.7460
  160TMC2    H5 2501   1.140   0.477   1.878 -0.7171  3.3816 -1.4396
  161MPD2     C 2502   0.636   1.162   1.681 -0.2214 -0.0900 -0.5510
  161MPD2    C1 2503   0.681   1.082   1.580 -0.0380  0.3906 -0.3718
  161MPD2    C2 2504   0.634   1.106   1.451  0.0091 -0.8807  0.1082
  161MPD2    C3 2505   0.570   1.231   1.428  0.4836 -0.4871  0.7895
  161MPD2    C4 2506   0.541   1.320   1.529  0.2019 -0.2697 -0.3650
  161MPD2    C5 2507   0.574   1.280   1.660 -0.2166  0.3447 -0.4979
  161MPD2     H 2508   0.642   1.029   1.374 -1.1019  0.3806 -1.2787
  161MPD2    H1 2509   0.488   1.413   1.508  1.5456  0.4922 -0.3427
  161MPD2    H2 2510   0.639   1.124   1.783  0.6409  0.2084 -0.4682
  161MPD2    H3 2511   0.550   1.343   1.745  0.1273  2.2981 -1.8454
  161MPD2     N 2512   0.512   1.266   1.304 -0.1479 -0.2786 -0.6913
  161MPD2    H5 2513   0.476   1.361   1.300 -0.3296 -0.4007 -1.7766
  161MPD2    N1 2514   0.768   0.973   1.595 -0.3089  0.7486  0.1020
  161MPD2    H7 2515   0.773   0.908   1.518  0.4722  2.0892 -0.9927
  162TMC2    C1 2516   3.704   3.184   0.893 -0.1144  0.6785 -0.1164
  162TMC2    C2 2517   3.645   3.304   0.942  0.8345 -0.2974  0.2769
  162TMC2    C3 2518   3.724   3.392   1.011 -0.3259 -0.6905 -0.2625
  162TMC2    C4 2519   3.843   3.162   0.903  0.2155 -0.0279  0.0972
  162TMC2    C5 2520   3.913   3.256   0.970  0.8923  0.0119 -0.8237
  162TMC2    C6 2521   3.856   3.371   1.025  0.1955  0.0835  0.6377
  162TMC2     C 2522   3.628   3.087   0.821 -0.3358  0.3368 -0.0717
  162TMC2     O 2523   3.702   3.002   0.779  0.1556  0.3656 -0.0985
  162TMC2     H 2524   3.539   3.324   0.935  0.8167 -0.1387  0.9668
  162TMC2    H1 2525   3.892   3.073   0.866 -0.4369  0.2958 -1.5284
  162TMC2    H2 2526   3.915   3.446   1.076 -0.4896 -0.4596  2.2094
  162TMC2    C7 2527   4.061   3.248   0.970  0.0906  0.6769 -0.3538
  162TMC2    C8 2528   3.675   3.523   1.055 -0.2505 -0.1181  0.4287
  162TMC2    O1 2529   4.122   3.337   0.913 -0.5410 -0.1065 -0.2951
  162TMC2    O2 2530   3.608   3.587   0.974  0.0217  0.1812 -0.1816
  162TMC2    O5 2531   3.720   3.559   1.177 -0.4641  0.0933  0.0524
  162TMC2    H5 2532   3.774   3.487   1.215  0.5063  0.9265  0.2485
  163MPD2     C 2533   3.281   2.987   0.448 -0.0829 -0.3349  0.0330
  163MPD2    C1 2534   3.384   2.914   0.492 -0.5801  0.2262  0.0783
  163MPD2    C2 2535   3.468   2.965   0.589 -0.8986  0.1879  0.2528
  163MPD2    C3 2536   3.433   3.082   0.659 -0.4393  0.3232 -0.0081
  163MPD2    C4 2537   3.325   3.153   0.613 -0.4335  0.3319  0.7015
  163MPD2    C5 2538   3.249   3.103   0.513 -0.3113  0.5404  0.0557
  163MPD2     H 2539   3.558   2.910   0.612 -2.3273 -1.6959  1.3314
  163MPD2    H1 2540   3.292   3.242   0.667 -0.6958  3.0142 -3.8561
  163MPD2    H2 2541   3.213   2.955   0.370  0.2204 -1.0087  0.0415
  163MPD2    H3 2542   3.159   3.158   0.488  0.7784  2.9338  1.4080
  163MPD2     N 2543   3.505   3.132   0.770 -0.3464 -0.2843  0.8065
  163MPD2    H5 2544   3.470   3.213   0.820  0.3074  0.4126  0.1376
  163MPD2    N1 2545   3.411   2.788   0.426  0.3050 -0.4785  0.0085
  163MPD2    H7 2546   3.361   2.771   0.338  0.6192  4.4142 -1.1158
  164TMC2    C1 2547   3.980   2.111  11.239 -0.2435 -0.1992  0.0768
  164TMC2    C2 2548   4.076   2.134  11.328  0.0672  0.3780  0.3366
  164TMC2    C3 2549   4.054   2.221  11.429 -0.1513 -0.0997  0.2289
  164TMC2    C4 2550   3.857   2.169  11.243 -0.4106  0.4914  0.6878
  164TMC2    C5 2551   3.832   2.237  11.359  0.0428  1.1856 -0.2598
  164TMC2    C6 2552   3.929   2.268  11.448  0.0636  0.1033 -0.3150
  164TMC2     C 2553   4.007   2.032  11.122  0.6142 -0.4172  0.1875
  164TMC2     O 2554   3.923   2.037  11.028 -0.0393 -0.0877 -0.4956
  164TMC2     H 2555   4.178   2.097  11.322  0.2519  0.9993 -0.4558
  164TMC2    H1 2556   3.775   2.142  11.178 -0.8665  1.6965  0.7554
  164TMC2    H2 2557   3.903   2.314  11.543 -0.4490 -1.9103  0.5297
  164TMC2    C7 2558   3.694   2.248  11.406  0.2546  0.4341  0.0865
  164TMC2    C8 2559   4.137   2.222  11.549 -0.2632  0.3686  1.1440
  164TMC2    O1 2560   3.619   2.164  11.350 -0.3804  0.3580 -0.1879
  164TMC2    O2 2561   4.092   2.257  11.658 -0.1732  0.1898 -0.0269
  164TMC2    O5 2562   4.266   2.243  11.507 -0.1584  0.8205 -0.2616
  164TMC2    H5 2563   4.283   2.226  11.412  2.0596 -2.5873  0.7689
  165TMC2    C1 2564   0.022   0.028   1.079 -0.0438  0.1827  0.0248
  165TMC2    C2 2565   4.712   0.049   0.953  0.3067  0.5632  0.4821
  165TMC2    C3 2566   0.043   0.137   0.875  0.5921 -0.2995  0.2192
  165TMC2    C4 2567   0.130   0.095   1.122  0.6563 -0.2685  0.1521
  165TMC2    C5 2568   0.176   0.204   1.047 -0.4436 -0.0814  0.1451
  165TMC2    C6 2569   0.147   0.215   0.914  0.2747 -0.2854 -0.4851
  165TMC2     C 2570   4.726   4.636   1.144 -0.2532 -0.0311  0.7855
  165TMC2     O 2571   0.070   4.584   1.215 -0.1590 -0.4747 -0.9449
  165TMC2     H 2572   4.648   4.707   0.923  0.6270  0.3448  0.3883
  165TMC2    H1 2573   0.171   0.081   1.221 -3.3730 -0.3252  1.8281
  165TMC2    H2 2574   0.187   0.285   0.841 -0.9041  2.0602  1.1242
  165TMC2    C7 2575   0.292   0.279   1.083  0.2107  0.1027  0.1401
  165TMC2    C8 2576   4.727   0.175   0.748 -0.1528 -0.0319 -0.0885
  165TMC2    O1 2577   0.387   0.213   1.120  0.2458 -0.1276 -1.5235
  165TMC2    O2 2578   0.048   0.220   0.651 -1.1293  0.3206  0.4045
  165TMC2    O5 2579   4.604   0.144   0.755  0.2633 -0.4360  0.3469
  165TMC2    H5 2580   4.577   0.118   0.845  1.6255 -0.8271  0.6433
  166MPD2     C 2581   4.363   4.401   1.413  0.0433  0.3961  0.4197
  166MPD2    C1 2582   4.490   4.359   1.388 -0.3470  0.0874  1.2264
  166MPD2    C2 2583   4.576   4.431   1.299  1.2633  0.0478  1.3059
  166MPD2    C3 2584   4.525   4.540   1.232 -0.1610 -0.3777 -0.3207
  166MPD2    C4 2585   4.396   4.580   1.251  0.5005 -0.2145  0.8122
  166MPD2    C5 2586   4.326   4.515   1.349  0.7479  0.3070  0.1576
  166MPD2     H 2587   4.681   4.405   1.294  1.1701  0.1824 -1.6108
  166MPD2    H1 2588   4.353   4.667   1.202 -0.0844 -0.5362  0.7522
  166MPD2    H2 2589   4.301   4.353   1.488 -0.4177  1.1713  0.5347
  166MPD2    H3 2590   4.222   4.545   1.364  0.2740 -1.8709  1.2441
  166MPD2     N 2591   4.592   4.620   1.137 -0.5449  0.2846 -0.0203
  166MPD2    H5 2592   4.538   4.686   1.080 -1.3261 -0.8100 -0.5513
  166MPD2    N1 2593   4.549   4.249   1.458  0.4456  0.3039 -0.1672
  166MPD2    H7 2594   4.650   4.242   1.461  0.4834  0.9017  0.0407
  167TMC2    C1 2595   3.535   2.155  13.167  0.1191 -0.0602  0.9266
  167TMC2    C2 2596   3.479   2.180  13.288  1.2190 -0.1618 -0.4590
  167TMC2    C3 2597   3.448   2.076  13.366  0.1495 -0.9785  0.0137
  167TMC2    C4 2598   3.539   2.030  13.114  0.0311 -0.1395 -0.0258
  167TMC2    C5 2599   3.496   1.924  13.198 -0.0610  0.0892  0.4270
  167TMC2    C6 2600   3.452   1.948  13.324  0.4108 -0.4225 -0.8285
  167TMC2     C 2601   3.568   2.268  13.094 -0.3686  1.0116 -0.0730
  167TMC2     O 2602   3.559   2.378  13.144  0.3209  0.2925 -0.2987
  167TMC2     H 2603   3.474   2.280  13.329 -0.5102  0.0477 -1.2150
  167TMC2    H1 2604   3.599   2.008  13.026  0.1390  0.5114 -0.1153
  167TMC2    H2 2605   3.426   1.864  13.387  0.7705 -0.9686 -1.4035
  167TMC2    C7 2606   3.507   1.786  13.154  0.0763  0.8666  0.5353
  167TMC2    C8 2607   3.405   2.103  13.505 -0.5693  0.2281  0.3166
  167TMC2    O1 2608   3.475   1.692  13.226  0.2506 -0.4787  0.6651
  167TMC2    O2 2609   3.308   2.052  13.565  0.5997  0.1687 -0.2637
  167TMC2    O5 2610   3.497   2.179  13.565  0.0784 -0.6935  0.7073
  167TMC2    H5 2611   3.579   2.201  13.516  0.0400 -0.3375  0.8095
  168MPD2     C 2612   3.609   2.461  12.875 -0.5106  0.4070 -0.9292
  168MPD2    C1 2613   3.623   2.322  12.862 -0.6187  0.1907  0.2903
  168MPD2    C2 2614   3.641   2.264  12.742  0.2048  0.2714 -0.0347
  168MPD2    C3 2615   3.648   2.348  12.633 -0.0670 -0.3442  0.3011
  168MPD2    C4 2616   3.639   2.479  12.649  0.3370  0.0410 -0.4638
  168MPD2    C5 2617   3.614   2.541  12.767  0.3429  0.5582  0.1266
  168MPD2     H 2618   3.656   2.157  12.733 -2.9564 -0.1867  0.2163
  168MPD2    H1 2619   3.632   2.541  12.560 -1.2154  0.3316 -0.1407
  168MPD2    H2 2620   3.609   2.501  12.975  0.7172  0.6894 -1.0386
  168MPD2    H3 2621   3.603   2.648  12.777 -1.4531  0.3523  0.3357
  168MPD2     N 2622   3.662   2.301  12.505 -0.6562  0.0920  1.1980
  168MPD2    H5 2623   3.659   2.368  12.428  0.7225 -0.2174  0.8696
  168MPD2    N1 2624   3.601   2.232  12.965  0.2987 -0.1876  0.2809
  168MPD2    H7 2625   3.592   2.136  12.933 -1.3053 -0.0786  0.4287
  169MPD1     C 2626   0.664   1.791   8.686  0.0176  0.3236  0.1083
  169MPD1    C1 2627   0.671   1.658   8.716 -0.3195 -1.0108 -0.3072
  169MPD1    C2 2628   0.750   1.623   8.826 -0.3079  0.2055  0.2348
  169MPD1    C3 2629   0.823   1.723   8.897  0.4822 -0.0632  0.4190
  169MPD1    C4 2630   0.827   1.855   8.857 -0.1572 -0.5381  0.7970
  169MPD1    C5 2631   0.744   1.890   8.750  0.1782 -0.4512  0.3900
  169MPD1     H 2632   0.744   1.521   8.860  0.6075  0.5531  1.4472
  169MPD1    H1 2633   0.874   1.929   8.921  1.6688 -0.0834 -1.0852
  169MPD1    H2 2634   0.591   1.824   8.613 -1.9867 -2.4229  0.8821
  169MPD1    H3 2635   0.725   1.995   8.730  0.3917 -0.2245  1.3774
  169MPD1     N 2636   0.877   1.677   9.016 -0.2645  0.3463 -0.2277
  169MPD1    H5 2637   0.863   1.578   9.038  0.6922  0.3465  0.4190
  169MPD1    N1 2638   0.580   1.561   8.663 -0.0270 -0.1857 -0.5073
  169MPD1    H6 2639   0.617   1.467   8.657 -0.6857 -0.5365  1.0915
  169MPD1    H7 2640   0.546   1.589   8.571  1.4569  1.0452 -0.6884
  170MPD1     C 2641   0.084   0.275  13.154  0.5164  0.3136  0.0927
  170MPD1    C1 2642   4.725   0.360  13.197  0.3433  0.2445 -0.1559
  170MPD1    C2 2643   4.626   0.313  13.270  0.5399  0.0625 -0.7168
  170MPD1    C3 2644   4.607   0.179  13.298 -0.0962 -0.0570 -0.2773
  170MPD1    C4 2645   4.700   0.088  13.244  0.2129 -0.4829  0.1004
  170MPD1    C5 2646   0.067   0.140  13.180  0.2094 -0.0413  0.6281
  170MPD1     H 2647   4.558   0.381  13.320  0.7562 -0.5673  0.4323
  170MPD1    H1 2648   4.699   4.723  13.271  0.0453 -0.8089 -1.1765
  170MPD1    H2 2649   0.169   0.310  13.097  1.3897 -0.6160  0.8250
  170MPD1    H3 2650   0.136   0.059  13.158 -0.0512 -0.2495  0.5715
  170MPD1     N 2651   4.510   0.141  13.395  0.7667 -0.2632  0.7865
  170MPD1    H5 2652   4.462   0.222  13.431 -1.5702 -1.0741 -0.5434
  170MPD1    N1 2653   4.736   0.500  13.189  0.2695  0.2480  0.4177
  170MPD1    H6 2654   4.653   0.559  13.198  1.5075  2.0348  0.2280
  170MPD1    H7 2655   0.056   0.539  13.117 -0.2333 -1.6709 -1.0210
  171MPD1     C 2656   2.777   1.038  15.509  0.7604  0.3716  0.4684
  171MPD1    C1 2657   2.757   0.909  15.479  0.0088 -0.1143 -0.1299
  171MPD1    C2 2658   2.829   0.817  15.545 -0.2562 -0.2977  0.2977
  171MPD1    C3 2659   2.927   0.847  15.638  0.1760 -0.0467 -0.2650
  171MPD1    C4 2660   2.950   0.978  15.666 -0.3732  0.5014 -0.2582
  171MPD1    C5 2661   2.876   1.068  15.596 -0.1344 -0.2486  0.0593
  171MPD1     H 2662   2.806   0.716  15.511  1.7309 -0.5692 -0.2413
  171MPD1    H1 2663   3.030   0.996  15.736  0.7966 -0.5846 -1.3034
  171MPD1    H2 2664   2.720   1.118  15.464 -0.2363  0.3254  1.6681
  171MPD1    H3 2665   2.894   1.174  15.615 -1.4261  0.3216 -1.9388
  171MPD1     N 2666   3.008   0.756  15.708  0.0652  0.2981 -0.5595
  171MPD1    H5 2667   3.081   0.798  15.765  0.4388  1.0577 -1.6078
  171MPD1    N1 2668   2.630   0.878  15.424 -0.0194 -1.0538  0.2779
  171MPD1    H6 2669   2.593   0.953  15.368 -1.9618 -0.1785  2.7505
  171MPD1    H7 2670   2.624   0.786  15.381  0.0988 -0.0941 -1.7440
  172MPD1     C 2671   2.507   4.308  17.258  0.1783 -0.2325  1.0344
  172MPD1    C1 2672   2.474   4.429  17.302 -0.8865 -0.2288 -0.1168
  172MPD1    C2 2673   2.396   4.439  17.413 -0.2017 -0.4697 -0.4729
  172MPD1    C3 2674   2.338   4.330  17.468  0.2331  0.0683 -0.4213
  172MPD1    C4 2675   2.367   4.207  17.418  0.5252 -0.5279  0.0569
  172MPD1    C5 2676   2.450   4.199  17.308  0.2855  0.4709  0.2769
  172MPD1     H 2677   2.388   4.538  17.456  2.6347 -0.5547  0.2599
  172MPD1    H1 2678   2.319   4.114  17.445 -1.3609  0.6016  0.5722
  172MPD1    H2 2679   2.572   4.276  17.177 -1.1888  0.1427 -0.1926
  172MPD1    H3 2680   2.474   4.104  17.263  1.5955 -0.3803  2.8032
  172MPD1     N 2681   2.267   4.338  17.591 -0.2314 -0.0646 -0.1373
  172MPD1    H5 2682   2.212   4.256  17.617 -1.0140  0.4892 -0.0487
  172MPD1    N1 2683   2.535   4.546  17.249  0.0921  0.0855 -0.5953
  172MPD1    H6 2684   2.542   4.539  17.147 -1.1552  1.5545 -0.7739
  172MPD1    H7 2685   2.471   4.624  17.259 -1.6363 -1.4795  0.6175
  173MPD1     C 2686   2.867   0.408  14.012  0.4850  0.2775 -0.2414
  173MPD1    C1 2687   2.772   0.307  14.008  0.3747 -0.4165  0.0541
  173MPD1    C2 2688   2.802   0.195  14.083 -0.1580 -0.1371 -0.0076
  173MPD1    C3 2689   2.918   0.186  14.162  0.8845 -0.1779  0.1935
  173MPD1    C4 2690   3.001   0.296  14.169 -0.4239  0.1132 -0.5169
  173MPD1    C5 2691   2.969   0.406  14.100  1.0347 -0.0405  0.2477
  173MPD1     H 2692   2.733   0.111  14.084 -2.1932  1.5373  0.7684
  173MPD1    H1 2693   3.091   0.300  14.230  0.1872  0.7599 -1.4592
  173MPD1    H2 2694   2.846   0.507  13.970 -1.3253  0.3021  0.7417
  173MPD1    H3 2695   3.034   0.491  14.108  2.3230 -1.0299  0.2796
  173MPD1     N 2696   2.935   0.068  14.237 -0.1046 -0.0308  0.7691
  173MPD1    H5 2697   2.855   0.008  14.253 -0.9205  0.4178 -1.6139
  173MPD1    N1 2698   2.665   0.307  13.915 -0.2106  0.1153 -0.4185
  173MPD1    H6 2699   2.585   0.248  13.936  1.6577 -1.7871  1.3724
  173MPD1    H7 2700   2.640   0.402  13.887  0.0147  0.0558 -0.8127
  174MPD1     C 2701   2.923   3.814  14.204 -0.0170  0.0522 -0.0732
  174MPD1    C1 2702   2.828   3.908  14.205  0.0020 -0.4021  0.1016
  174MPD1    C2 2703   2.850   4.038  14.246  0.4746  0.3920 -0.5327
  174MPD1    C3 2704   2.971   4.068  14.314  0.4173 -0.1240 -0.4469
  174MPD1    C4 2705   3.070   3.971  14.311  0.3746 -0.4507 -0.8044
  174MPD1    C5 2706   3.042   3.845  14.267  0.2610 -0.1116 -0.3749
  174MPD1     H 2707   2.760   4.097  14.242  0.9021  1.1968  1.6627
  174MPD1    H1 2708   3.164   3.996  14.359  0.1740  1.1951 -1.2921
  174MPD1    H2 2709   2.899   3.715  14.169  3.5233 -0.9819  0.3829
  174MPD1    H3 2710   3.124   3.774  14.273  0.9723  0.8061  0.7927
  174MPD1     N 2711   3.004   4.196  14.367 -0.1433 -0.3304 -0.0973
  174MPD1    H5 2712   3.095   4.194  14.413 -0.2751 -2.7250  0.0633
  174MPD1    N1 2713   2.700   3.881  14.143 -0.0745 -0.1659 -0.4224
  174MPD1    H6 2714   2.628   3.943  14.179  0.1161 -1.7885  2.7970
  174MPD1    H7 2715   2.668   3.789  14.173  0.1417 -0.3711 -0.8214
  175MPD1     C 2716   2.298   0.657  15.488 -0.0155  0.1649  0.4398
  175MPD1    C1 2717   2.163   0.650  15.484 -0.2235  0.1273  0.3619
  175MPD1    C2 2718   2.091   0.632  15.601  0.1077 -0.3318 -0.2053
  175MPD1    C3 2719   2.153   0.620  15.720  0.6415  0.6751  0.0747
  175MPD1    C4 2720   2.288   0.610  15.721  0.1624  0.5348 -0.5773
  175MPD1    C5 2721   2.364   0.635  15.611  0.5807 -0.0779 -0.0744
  175MPD1     H 2722   1.983   0.636  15.595  0.0357  0.4826  1.5172
  175MPD1    H1 2723   2.343   0.594  15.814 -0.1539  2.0106 -0.1263
  175MPD1    H2 2724   2.358   0.670  15.399  0.7255 -0.2018  0.8887
  175MPD1    H3 2725   2.472   0.633  15.623  0.6328 -0.9125 -0.6411
  175MPD1     N 2726   2.086   0.609  15.846  0.2957 -0.2317 -0.5741
  175MPD1    H5 2727   2.144   0.619  15.928  0.6606 -2.0684 -0.6097
  175MPD1    N1 2728   2.097   0.696  15.365 -0.0553 -0.1341 -0.2758
  175MPD1    H6 2729   2.137   0.653  15.283 -0.1202 -1.0652  0.1821
  175MPD1    H7 2730   1.998   0.675  15.377 -0.2360  0.4410 -0.8012
  176MPD1     C 2731   3.397   2.639  17.700 -0.3174 -0.1400  0.6475
  176MPD1    C1 2732   3.329   2.726   0.031 -0.0696  0.0836 -0.2322
  176MPD1    C2 2733   3.361   2.860   0.015 -0.8705  0.5137 -0.5160
  176MPD1    C3 2734   3.439   2.913  17.668  0.0684  0.4765 -0.2258
  176MPD1    C4 2735   3.486   2.823  17.566  0.2552 -0.6169  0.3861
  176MPD1    C5 2736   3.462   2.691  17.592 -0.2000  0.0381  0.1491
  176MPD1     H 2737   3.319   2.927   0.089  0.1505  0.1298  0.4056
  176MPD1    H1 2738   3.537   2.857  17.477 -0.3118  1.5199  0.8891
  176MPD1    H2 2739   3.387   2.531  17.704  0.6287 -0.1788  1.9183
  176MPD1    H3 2740   3.493   2.616  17.520 -1.4093  0.0779 -0.4098
  176MPD1     N 2741   3.470   3.048  17.643  0.1197 -0.3979 -0.2259
  176MPD1    H5 2742   3.534   3.079  17.570  0.6948  2.4108  1.4910
  176MPD1    N1 2743   3.276   2.682   0.149 -0.0026 -0.0100  0.2800
  176MPD1    H6 2744   3.243   2.585   0.149 -0.9794  0.3180  0.7662
  176MPD1    H7 2745   3.192   2.733   0.175 -1.2454 -2.9060  2.0498
  177MPD1     C 2746   2.041   2.999   9.998  0.2902 -1.1583 -0.0334
  177MPD1    C1 2747   1.933   2.914   9.983 -0.6224  0.6358  0.0789
  177MPD1    C2 2748   1.813   2.964   9.944  0.6769 -0.3838  0.5811
  177MPD1    C3 2749   1.796   3.099   9.913  0.1771  0.2784  0.4451
  177MPD1    C4 2750   1.902   3.186   9.936 -1.1330 -0.2152 -1.2161
  177MPD1    C5 2751   2.025   3.131   9.976 -0.1180  0.1522 -0.6095
  177MPD1     H 2752   1.730   2.896   9.930  0.2536  0.4845 -1.0875
  177MPD1    H1 2753   1.903   3.293   9.917  2.3982 -0.2955 -1.6242
  177MPD1    H2 2754   2.141   2.966  10.023  0.7124  1.0215  1.1617
  177MPD1    H3 2755   2.110   3.198   9.980  1.3355 -1.6889 -0.8516
  177MPD1     N 2756   1.665   3.148   9.885 -0.1230  0.4011  0.4858
  177MPD1    H5 2757   1.589   3.081   9.873  0.7374 -0.3945 -0.4685
  177MPD1    N1 2758   1.968   2.776   9.987  0.1413  0.2148  0.0765
  177MPD1    H6 2759   2.051   2.756  10.042  0.8614  2.5266 -0.1876
  177MPD1    H7 2760   1.893   2.713  10.016  1.2850 -0.3599  1.7827
  178MPD1     C 2761   4.101   3.360  17.701 -0.5149 -0.1840  0.0066
  178MPD1    C1 2762   4.112   3.489  17.653 -0.1496 -0.1401  0.2997
  178MPD1    C2 2763   4.203   3.509  17.552  0.3810  1.3717 -0.1721
  178MPD1    C3 2764   4.269   3.405  17.491 -0.2656 -0.2288 -0.3078
  178MPD1    C4 2765   4.254   3.278  17.537  0.4157 -0.2473 -0.1959
  178MPD1    C5 2766   4.177   3.258  17.652  0.4648 -0.2007 -0.0430
  178MPD1     H 2767   4.216   3.611  17.518  1.7009  1.7133  1.3461
  178MPD1    H1 2768   4.297   3.192  17.488  0.4112  1.0335 -2.4393
  178MPD1    H2 2769   4.049   3.340   0.039  1.0779 -1.3060  0.6590
  178MPD1    H3 2770   4.164   3.156  17.688 -0.8805  0.3165  0.9000
  178MPD1     N 2771   4.367   3.420  17.391  0.3739  1.2596 -0.4436
  178MPD1    H5 2772   4.419   3.335  17.375 -3.5396 -1.1911 -0.0017
  178MPD1    N1 2773   4.020   3.585  17.696 -0.3400 -0.5688 -0.5779
  178MPD1    H6 2774   3.984   3.571   0.034  1.8427 -0.1052  0.3442
  178MPD1    H7 2775   4.050   3.682  17.689  0.7459 -0.9933 -1.8368
  179MPD1     C 2776   4.043   2.132  15.425  0.7538 -0.1527  0.1120
  179MPD1    C1 2777   3.918   2.082  15.378  0.5176  0.1142 -0.3865
  179MPD1    C2 2778   3.869   1.967  15.439 -0.4767 -0.4669  0.7836
  179MPD1    C3 2779   3.947   1.895  15.532 -0.1992 -0.0069 -0.2763
  179MPD1    C4 2780   4.063   1.947  15.585 -0.0592 -0.4479 -0.1730
  179MPD1    C5 2781   4.111   2.061  15.519  0.7060  0.2941 -0.7288
  179MPD1     H 2782   3.764   1.945  15.427 -0.0379 -1.9236 -0.4714
  179MPD1    H1 2783   4.130   1.906  15.660 -0.6219 -1.3939 -0.1843
  179MPD1    H2 2784   4.087   2.220  15.379  2.0597 -1.3953 -1.0182
  179MPD1    H3 2785   4.202   2.105  15.558  0.8045  0.7185 -1.4468
  179MPD1     N 2786   3.888   1.787  15.612 -0.3849  0.3546 -0.0315
  179MPD1    H5 2787   3.946   1.753  15.689 -1.1123  0.0443  0.3805
  179MPD1    N1 2788   3.843   2.167  15.296 -0.3758  0.3332  0.3597
  179MPD1    H6 2789   3.896   2.230  15.237  1.9080 -1.3420  0.6214
  179MPD1    H7 2790   3.766   2.123  15.246  0.1520 -1.2712  0.9504
  180MPD1     C 2791   4.172   3.566  15.019 -0.1192  0.2459  0.2198
  180MPD1    C1 2792   4.215   3.609  14.895 -0.1824  0.1317 -0.4323
  180MPD1    C2 2793   4.117   3.605  14.794  0.6806  0.3335 -0.3084
  180MPD1    C3 2794   3.993   3.545  14.804  0.3303  0.6829 -0.9485
  180MPD1    C4 2795   3.968   3.489  14.925  0.2786  0.2151  0.2870
  180MPD1    C5 2796   4.052   3.497  15.030 -0.4917  0.3441 -0.4557
  180MPD1     H 2797   4.149   3.650  14.701 -1.2059 -0.1763 -1.2187
  180MPD1    H1 2798   3.876   3.434  14.942  0.8548 -0.2784  1.8412
  180MPD1    H2 2799   4.234   3.579  15.107 -0.5588  0.0012  0.5658
  180MPD1    H3 2800   4.015   3.466  15.127  0.3898  1.2578  0.1755
  180MPD1     N 2801   3.919   3.508  14.686 -0.1175 -0.2733 -0.2268
  180MPD1    H5 2802   3.962   3.533  14.597 -0.3825 -0.9028 -0.5282
  180MPD1    N1 2803   4.329   3.682  14.872  0.4113  0.1448 -0.8634
  180MPD1    H6 2804   4.403   3.654  14.937  0.9491 -1.0190 -1.9791
  180MPD1    H7 2805   4.374   3.684  14.781  1.1555 -0.2414 -0.5109
  181MPD1     C 2806   1.572   0.628   9.399 -1.0102 -0.3159  0.2622
  181MPD1    C1 2807   1.648   0.722   9.463 -0.1150  0.5677  0.5836
  181MPD1    C2 2808   1.654   0.704   9.598  0.1026 -0.3043 -0.1625
  181MPD1    C3 2809   1.617   0.585   9.670  0.0612 -0.6328 -0.4436
  181MPD1    C4 2810   1.543   0.493   9.603  0.7760 -0.1774 -0.0313
  181MPD1    C5 2811   1.528   0.520   9.470  0.6467  0.1912  0.3004
  181MPD1     H 2812   1.698   0.785   9.655 -2.4807  1.7789 -1.1820
  181MPD1    H1 2813   1.524   0.394   9.645 -1.1741  1.3670  2.7171
  181MPD1    H2 2814   1.550   0.630   9.293  3.5148 -0.6639 -0.7152
  181MPD1    H3 2815   1.470   0.452   9.408  0.0999  1.3304 -0.4340
  181MPD1     N 2816   1.642   0.574   9.810  0.1693 -0.7381 -0.7725
  181MPD1    H5 2817   1.606   0.488   9.853 -1.6065  1.3980  2.0263
  181MPD1    N1 2818   1.690   0.836   9.393  0.2592 -0.1505  0.0594
  181MPD1    H6 2819   1.614   0.871   9.335  0.1571  0.4682  0.5640
  181MPD1    H7 2820   1.730   0.909   9.452 -0.3496  0.4762 -0.2988
  182MPD1     C 2821   1.278   4.457   1.686 -0.3006 -0.1993 -0.2511
  182MPD1    C1 2822   1.398   4.400   1.644 -0.8630  0.1552 -0.9042
  182MPD1    C2 2823   1.401   4.314   1.531  0.7244 -0.0018  0.0788
  182MPD1    C3 2824   1.282   4.265   1.482  0.5693  0.2586 -0.4247
  182MPD1    C4 2825   1.165   4.328   1.524 -0.5949  0.0134 -0.8314
  182MPD1    C5 2826   1.164   4.422   1.622  0.6285  0.1183  0.3611
  182MPD1     H 2827   1.499   4.287   1.493  0.4561  1.4925 -1.6398
  182MPD1    H1 2828   1.070   4.299   1.481 -1.0148  0.1603 -0.0013
  182MPD1    H2 2829   1.278   4.539   1.758 -0.0437 -2.4816  2.3599
  182MPD1    H3 2830   1.071   4.476   1.640  0.2861 -0.2813 -0.1876
  182MPD1     N 2831   1.261   4.194   1.363  0.5628 -0.4048  0.1070
  182MPD1    H5 2832   1.169   4.182   1.321 -0.2036 -0.2772  1.7357
  182MPD1    N1 2833   1.519   4.444   1.697 -0.2056  0.5240  0.4286
  182MPD1    H6 2834   1.513   4.470   1.796  1.1932 -0.1783  0.7010
  182MPD1    H7 2835   1.605   4.390   1.692  0.6398  1.8705  0.4631
  183MPD1     C 2836   1.603   4.392   8.838 -0.0211  0.6601  0.3103
  183MPD1    C1 2837   1.586   4.511   8.899 -0.6389  0.1326 -0.3434
  183MPD1    C2 2838   1.599   4.524   9.035  0.3071  0.1721  0.0292
  183MPD1    C3 2839   1.592   4.416   9.118 -0.1335 -0.3811  0.0542
  183MPD1    C4 2840   1.607   4.287   9.058 -0.3179 -0.5424 -0.3475
  183MPD1    C5 2841   1.621   4.286   8.916  0.1831  0.1775 -1.3803
  183MPD1     H 2842   1.600   4.621   9.085 -1.2194  1.2481 -2.0173
  183MPD1    H1 2843   1.612   4.196   9.117 -1.2254 -0.3107  0.0773
  183MPD1    H2 2844   1.600   4.373   8.731  1.6567 -0.0477  0.3944
  183MPD1    H3 2845   1.633   4.185   8.879  0.8647 -0.5352  0.7373
  183MPD1     N 2846   1.574   4.444   9.257  0.5902 -0.4345 -0.1830
  183MPD1    H5 2847   1.571   4.540   9.290 -2.0008 -0.3725 -0.6274
  183MPD1    N1 2848   1.570   4.623   8.821 -0.4429 -0.5535 -0.7027
  183MPD1    H6 2849   1.511   4.691   8.868 -0.4703 -0.4890 -0.8287
  183MPD1    H7 2850   1.523   4.610   8.731  0.0444  2.9800 -1.4813
  184MPD1     C 2851   0.359   2.126  10.720  0.1105  0.0252  0.2548
  184MPD1    C1 2852   0.491   2.149  10.746  0.4772  0.7407 -0.2800
  184MPD1    C2 2853   0.572   2.181  10.639  0.5154 -0.0917 -0.1697
  184MPD1    C3 2854   0.522   2.229  10.522  0.3807  0.1882 -1.2027
  184MPD1    C4 2855   0.386   2.227  10.503 -0.2312  0.2225 -0.5750
  184MPD1    C5 2856   0.308   2.174  10.602  0.2336  0.1592 -0.1416
  184MPD1     H 2857   0.679   2.186  10.658 -0.0003  1.2840  2.3748
  184MPD1    H1 2858   0.335   2.265  10.415  1.6057 -0.5893 -1.9728
  184MPD1    H2 2859   0.292   2.089  10.797  1.2285  0.9692  1.7047
  184MPD1    H3 2860   0.200   2.171  10.591  0.2462 -3.5036  0.9077
  184MPD1     N 2861   0.603   2.263  10.408  0.0740  0.4662  0.2486
  184MPD1    H5 2862   0.559   2.263  10.316  1.1894 -0.7344 -0.2926
  184MPD1    N1 2863   0.529   2.099  10.868  0.1574 -0.8204 -0.0587
  184MPD1    H6 2864   0.619   2.126  10.906 -1.6169  2.0310  2.1273
  184MPD1    H7 2865   0.464   2.135  10.938  2.8461  1.4764  1.2207
  185MPD1     C 2866   0.694   2.867   9.639 -0.5786 -0.1333 -0.4725
  185MPD1    C1 2867   0.600   2.775   9.670 -0.4903 -0.0277  0.4503
  185MPD1    C2 2868   0.646   2.667   9.750  0.0254  0.3351  0.1107
  185MPD1    C3 2869   0.772   2.657   9.801 -0.8467 -0.1546  0.5965
  185MPD1    C4 2870   0.859   2.754   9.764 -0.0647 -0.0114  0.6821
  185MPD1    C5 2871   0.821   2.859   9.675  0.2338  0.0495  0.1815
  185MPD1     H 2872   0.575   2.589   9.775 -1.2475  1.6244  0.5417
  185MPD1    H1 2873   0.956   2.748   9.813  0.4141  2.6221  0.0510
  185MPD1    H2 2874   0.663   2.958   9.589 -2.2580 -0.0288  0.7512
  185MPD1    H3 2875   0.888   2.941   9.652 -1.7513  1.1730 -1.5525
  185MPD1     N 2876   0.812   2.569   9.906  0.0770 -0.7214 -0.3028
  185MPD1    H5 2877   0.909   2.581   9.934  0.4076 -0.6305 -1.5075
  185MPD1    N1 2878   0.474   2.763   9.604  0.3056  0.3310  0.1986
  185MPD1    H6 2879   0.402   2.715   9.657  1.4538 -1.1994  0.3490
  185MPD1    H7 2880   0.452   2.858   9.572 -1.0024 -0.2549 -0.6185
  186MPD1     C 2881   0.087   1.461  16.209 -0.3627  0.4896  0.2667
  186MPD1    C1 2882   0.169   1.548  16.142  0.2138 -0.5074  0.2182
  186MPD1    C2 2883   0.175   1.679  16.189 -0.3439  0.4150  0.6148
  186MPD1    C3 2884   0.107   1.715  16.303  0.1092  0.8625  0.1517
  186MPD1    C4 2885   0.041   1.620  16.379  0.1659  0.0432 -0.5236
  186MPD1    C5 2886   0.026   1.494  16.329 -0.6415  0.0307  0.0130
  186MPD1     H 2887   0.246   1.747  16.142 -1.3831 -0.8808 -2.8398
  186MPD1    H1 2888   4.739   1.657  16.472 -1.5405  0.3772 -1.4150
  186MPD1    H2 2889   0.063   1.366  16.162  0.3356  0.9716 -1.0736
  186MPD1    H3 2890   4.708   1.423  16.388  1.7789 -1.5999  0.4253
  186MPD1     N 2891   0.107   1.845  16.363 -1.1374  0.5647 -0.1375
  186MPD1    H5 2892   0.079   1.852  16.460  1.8691  1.3798  0.6471
  186MPD1    N1 2893   0.209   1.510  16.013 -0.0738  0.5889 -0.5299
  186MPD1    H6 2894   0.307   1.534  15.999  1.3178 -3.2531  2.7181
  186MPD1    H7 2895   0.210   1.409  16.005  0.1292  0.6206 -0.8864
  187MPD1     C 2896   3.973   4.019   0.096  0.7881  0.1432  0.1579
  187MPD1    C1 2897   3.902   3.902   0.080  0.5487  0.3669  0.3486
  187MPD1    C2 2898   3.834   3.878  17.717 -0.4077  0.0422 -0.6741
  187MPD1    C3 2899   3.864   3.955  17.606  0.5444 -0.8082 -0.0965
  187MPD1    C4 2900   3.948   4.057  17.621 -0.0504 -0.9217 -0.2160
  187MPD1    C5 2901   4.003   4.092  17.745  0.5119 -0.0623  0.6142
  187MPD1     H 2902   3.754   3.806  17.718 -0.9055  0.6063  1.5908
  187MPD1    H1 2903   3.967   4.129  17.542 -0.5394 -0.6596 -0.0966
  187MPD1    H2 2904   4.023   4.057   0.185 -1.2530 -1.9136  2.2005
  187MPD1    H3 2905   4.073   4.173  17.755  0.0619  0.5879 -1.6728
  187MPD1     N 2906   3.803   3.948  17.477 -0.2009 -1.0123  0.6217
  187MPD1    H5 2907   3.831   4.024  17.416  0.3362 -0.8580  1.0593
  187MPD1    N1 2908   3.894   3.810   0.184  0.1220 -0.0295  0.2433
  187MPD1    H6 2909   3.986   3.785   0.221  0.3982  1.5372  0.6337
  187MPD1    H7 2910   3.848   3.726   0.151 -1.1321 -0.0584  2.0620
  188MPD1     C 2911   3.652   3.802  10.654  0.7147 -0.0115  0.0776
  188MPD1    C1 2912   3.590   3.796  10.534 -0.0728  0.2543  0.3158
  188MPD1    C2 2913   3.503   3.690  10.509  0.6818  0.0545  0.3820
  188MPD1    C3 2914   3.469   3.598  10.601  0.9490  0.6164  0.4041
  188MPD1    C4 2915   3.512   3.618  10.726  0.7146 -0.3351 -0.1143
  188MPD1    C5 2916   3.609   3.717  10.753  0.0165  0.1079  0.0596
  188MPD1     H 2917   3.470   3.674  10.407  0.6122  0.8675  0.2826
  188MPD1    H1 2918   3.505   3.548  10.809 -0.6927 -0.6740 -0.5232
  188MPD1    H2 2919   3.729   3.877  10.668 -0.2694  0.1355  4.5938
  188MPD1    H3 2920   3.664   3.714  10.846  2.5321 -1.4769 -1.4669
  188MPD1     N 2921   3.416   3.473  10.569 -0.2189 -0.3194 -0.1403
  188MPD1    H5 2922   3.404   3.403  10.642  1.2245 -1.8646 -1.3656
  188MPD1    N1 2923   3.641   3.874  10.427 -0.2862 -0.6193 -0.3126
  188MPD1    H6 2924   3.692   3.959  10.452  0.3259 -1.0284 -0.1831
  188MPD1    H7 2925   3.582   3.890  10.346 -0.5381  0.7125  0.1299
  189MPD1     C 2926   0.853   0.083   0.530 -0.0974  0.0873 -0.3474
  189MPD1    C1 2927   0.726   0.029   0.529  0.0272  0.0768 -0.4368
  189MPD1    C2 2928   0.624   0.111   0.487 -0.1161  0.2298 -0.0082
  189MPD1    C3 2929   0.648   0.228   0.413 -0.1477 -0.0942 -0.0222
  189MPD1    C4 2930   0.779   0.267   0.399 -0.3096 -0.0623  0.4969
  189MPD1    C5 2931   0.881   0.196   0.462  0.1502 -0.9848  0.1482
  189MPD1     H 2932   0.529   0.061   0.475  0.2745 -1.2080  2.8976
  189MPD1    H1 2933   0.805   0.346   0.330  1.6825 -0.0158  1.2851
  189MPD1    H2 2934   0.935   0.038   0.584 -0.5166  0.4089  0.5574
  189MPD1    H3 2935   0.982   0.217   0.431 -0.1583 -0.4420 -0.4996
  189MPD1     N 2936   0.543   0.294   0.345 -0.8797  0.1531  0.4203
  189MPD1    H5 2937   0.451   0.257   0.370 -0.2907 -1.0975  0.7532
  189MPD1    N1 2938   0.703   4.657   0.605 -0.3537 -0.4451  0.3690
  189MPD1    H6 2939   0.622   4.610   0.567 -0.2863 -0.3579  0.1190
  189MPD1    H7 2940   0.784   4.595   0.597 -0.9140 -1.0907 -0.2716
  190MPD1     C 2941   3.904   2.833  15.209 -0.6429  0.6088 -0.0143
  190MPD1    C1 2942   4.019   2.829  15.138  0.3110 -0.3217  0.0634
  190MPD1    C2 2943   4.133   2.879  15.206 -0.2646  0.1870  0.2964
  190MPD1    C3 2944   4.137   2.902  15.342 -0.6903 -0.9604  0.5859
  190MPD1    C4 2945   4.019   2.893  15.414 -0.3122 -0.5603  0.0532
  190MPD1    C5 2946   3.906   2.863  15.342  0.3427 -0.5888  0.4491
  190MPD1     H 2947   4.223   2.900  15.150 -0.2701 -0.4024  0.0579
  190MPD1    H1 2948   4.008   2.935  15.513 -1.0168 -1.8407  0.5165
  190MPD1    H2 2949   3.813   2.798  15.162 -0.6049 -0.4770  0.7117
  190MPD1    H3 2950   3.809   2.881  15.387  0.1675 -0.1173 -0.1165
  190MPD1     N 2951   4.259   2.941  15.398  0.4340 -0.4075  0.0587
  190MPD1    H5 2952   4.341   2.949  15.339 -0.1585  0.1514 -0.6983
  190MPD1    N1 2953   4.018   2.808  15.004  0.1410  0.3469  0.0384
  190MPD1    H6 2954   4.107   2.769  14.974  1.2995  2.1670  1.0746
  190MPD1    H7 2955   3.943   2.750  14.968  1.6916 -0.4455 -1.8954
  191MPD1     C 2956   3.985   4.449  13.108 -0.0223  0.2782  0.0751
  191MPD1    C1 2957   3.977   4.547  13.014  0.0888 -0.0825 -0.0797
  191MPD1    C2 2958   3.845   4.587  12.980 -0.3281 -0.5392  0.2493
  191MPD1    C3 2959   3.731   4.532  13.033 -0.3700  0.3658  0.4624
  191MPD1    C4 2960   3.746   4.430  13.118  0.0779 -0.5870 -0.2280
  191MPD1    C5 2961   3.871   4.389  13.160 -0.1500 -0.2203  0.2575
  191MPD1     H 2962   3.815   4.668  12.914  0.7524 -0.1040  0.2829
  191MPD1    H1 2963   3.662   4.377  13.161  0.1635 -0.6122 -0.0887
  191MPD1    H2 2964   4.080   4.401  13.128 -1.0886 -1.9041 -0.0847
  191MPD1    H3 2965   3.875   4.311  13.235  0.1156 -1.4158 -0.9968
  191MPD1     N 2966   3.606   4.582  12.993 -0.3645  0.4769  0.3155
  191MPD1    H5 2967   3.614   4.646  12.914 -0.4499 -0.4654 -0.4582
  191MPD1    N1 2968   4.093   4.603  12.960  0.0563  0.1172 -0.4775
  191MPD1    H6 2969   4.176   4.608  13.020 -1.6674 -1.8956  2.0931
  191MPD1    H7 2970   4.080   4.703  12.952  0.5388  0.2520  0.3284
  192MPD1     C 2971   2.483   4.684  13.017  0.6348  0.3486 -0.6719
  192MPD1    C1 2972   2.560   4.607  13.093 -0.2705 -0.5728 -0.7106
  192MPD1    C2 2973   2.699   4.608  13.076 -0.0847  0.8026  0.0505
  192MPD1    C3 2974   2.752   4.677  12.970  0.5040  0.8112 -0.1805
  192MPD1    C4 2975   2.670   0.017  12.896  0.1734 -0.0159 -0.2364
  192MPD1    C5 2976   2.539   0.018  12.914  0.6178 -0.0602 -0.0635
  192MPD1     H 2977   2.763   4.555  13.146 -0.8156  0.2801  0.3111
  192MPD1    H1 2978   2.712   0.083  12.821  0.4179  1.0853  0.8680
  192MPD1    H2 2979   2.375   4.680  13.024  0.7027 -0.7206 -0.2017
  192MPD1    H3 2980   2.474   0.071  12.845 -1.0701 -2.3509 -0.2342
  192MPD1     N 2981   2.889   4.681  12.935  0.6790  0.4383  0.0472
  192MPD1    H5 2982   2.918   4.733  12.853  3.4663 -0.9852  0.1246
  192MPD1    N1 2983   2.504   4.563  13.211 -0.2257  0.0968 -0.1357
  192MPD1    H6 2984   2.407   4.538  13.196 -0.4515 -0.1692  1.6969
  192MPD1    H7 2985   2.552   4.481  13.249 -1.3583 -0.2174  0.6275
  193MPD1     C 2986   2.951   0.202  16.244  0.0784 -1.2302  0.5355
  193MPD1    C1 2987   2.883   0.315  16.288 -0.3224  0.8361  0.0990
  193MPD1    C2 2988   2.952   0.422  16.341  0.4906  0.0896  0.6437
  193MPD1    C3 2989   3.090   0.410  16.365  0.4996 -0.0701 -0.2384
  193MPD1    C4 2990   3.152   0.289  16.333 -0.3381  0.4001 -0.4058
  193MPD1    C5 2991   3.083   0.187  16.274  0.2662  0.2527 -0.5171
  193MPD1     H 2992   2.897   0.515  16.348 -1.1223 -0.5798 -3.1808
  193MPD1    H1 2993   3.259   0.281  16.344 -0.3994  0.4393  0.2167
  193MPD1    H2 2994   2.903   0.121  16.191  1.6944 -1.6187 -0.3406
  193MPD1    H3 2995   3.147   0.107  16.239 -1.8688 -1.0109 -1.5882
  193MPD1     N 2996   3.174   0.509  16.412 -0.2882  0.2211  0.0239
  193MPD1    H5 2997   3.272   0.488  16.424 -0.0530 -0.5646 -3.2303
  193MPD1    N1 2998   2.750   0.330  16.241  0.3031 -0.5648  0.5328
  193MPD1    H6 2999   2.705   0.239  16.246 -0.6444 -0.1532 -0.4126
  193MPD1    H7 3000   2.693   0.393  16.295 -0.9889  0.7869 -2.3930
  194MPD1     C 3001   0.590   3.028  17.126  0.2819 -0.5546 -0.3197
  194MPD1    C1 3002   0.710   3.012  17.055 -0.5811  0.4928  0.2276
  194MPD1    C2 3003   0.778   2.896  17.061 -0.1085  0.1342 -0.1198
  194MPD1    C3 3004   0.738   2.800  17.160  0.1145 -0.0417  0.2155
  194MPD1    C4 3005   0.623   2.817  17.229  0.2958  0.0842 -0.0801
  194MPD1    C5 3006   0.546   2.928  17.205  0.3514  0.4542  0.1992
  194MPD1     H 3007   0.867   2.881  17.001 -0.6099 -1.6647 -0.4375
  194MPD1    H1 3008   0.588   2.749  17.306  0.2118 -1.6731 -1.6604
  194MPD1    H2 3009   0.530   3.118  17.123  1.8884  0.5747  2.0470
  194MPD1    H3 3010   0.450   2.932  17.255  0.6333  1.5232  0.6478
  194MPD1     N 3011   0.803   2.678  17.193 -0.1780  0.1329 -0.0429
  194MPD1    H5 3012   0.776   2.620  17.273  1.6155 -0.9638 -0.2421
  194MPD1    N1 3013   0.772   3.120  16.994 -0.6258 -0.1274  0.0058
  194MPD1    H6 3014   0.838   3.099  16.919 -1.0304  0.0783 -0.4136
  194MPD1    H7 3015   0.706   3.181  16.945 -0.5879 -0.7624 -0.8348
  195MPD1     C 3016   2.695   0.109   0.480 -0.6990 -0.4788  0.1537
  195MPD1    C1 3017   2.721   0.045   0.596 -0.1459  0.1968  0.3396
  195MPD1    C2 3018   2.783   4.663   0.597 -0.4457  0.1118  0.2983
  195MPD1    C3 3019   2.820   4.605   0.473 -0.8851  0.2236 -0.1122
  195MPD1    C4 3020   2.795   4.673   0.358  0.3183 -0.3616  0.1069
  195MPD1    C5 3021   2.737   0.056   0.361  0.6371  0.0366 -0.2002
  195MPD1     H 3022   2.794   4.615   0.693 -0.1508 -0.8425 -0.2075
  195MPD1    H1 3023   2.823   4.629   0.263 -1.9726  1.2941 -1.3448
  195MPD1    H2 3024   2.649   0.207   0.482  0.5713  0.1431 -1.0349
  195MPD1    H3 3025   2.727   0.102   0.263 -2.6459  1.0229  0.6217
  195MPD1     N 3026   2.878   4.479   0.459 -0.1567 -0.0635  0.1155
  195MPD1    H5 3027   2.877   4.446   0.363  1.7183 -0.6723  0.2957
  195MPD1    N1 3028   2.674   0.097   0.716 -0.0911  0.4187 -0.0715
  195MPD1    H6 3029   2.650   0.022   0.781  0.2634 -0.1404 -0.5766
  195MPD1    H7 3030   2.595   0.156   0.693  0.3091  1.1010  0.3175
  196MPD1     C 3031   2.170   3.135   0.747  0.1197 -0.1316 -0.4699
  196MPD1    C1 3032   2.180   3.265   0.699 -0.4304  0.4679  0.8168
  196MPD1    C2 3033   2.151   3.364   0.788 -0.2636 -0.4888 -0.0241
  196MPD1    C3 3034   2.096   3.344   0.913 -0.4164 -0.4156  0.1040
  196MPD1    C4 3035   2.065   3.220   0.946 -0.2999  0.4012 -0.3740
  196MPD1    C5 3036   2.116   3.119   0.871  0.0325 -0.4203  0.0442
  196MPD1     H 3037   2.179   3.465   0.763 -0.7256  0.4644  3.3299
  196MPD1    H1 3038   2.035   3.197   1.048 -0.3066 -2.4696 -1.0196
  196MPD1    H2 3039   2.189   3.046   0.689  3.7180  0.0964  0.3581
  196MPD1    H3 3040   2.098   3.015   0.899 -2.1222 -0.8165 -2.8266
  196MPD1     N 3041   2.086   3.441   1.020 -0.4598  0.1515 -0.6079
  196MPD1    H5 3042   2.048   3.418   1.111 -1.4695  0.7820 -0.8700
  196MPD1    N1 3043   2.252   3.283   0.579  0.3929 -0.3048 -0.4617
  196MPD1    H6 3044   2.243   3.210   0.510  0.3808  0.1632 -0.9528
  196MPD1    H7 3045   2.221   3.369   0.533  0.4879 -0.8582 -1.5478
  197MPD1     C 3046   1.963   1.151   0.079 -0.6020 -0.4546  0.0213
  197MPD1    C1 3047   1.870   1.238   0.042 -1.1429 -0.9601 -0.2893
  197MPD1    C2 3048   1.862   1.290  17.672 -0.2997  0.6144  0.2999
  197MPD1    C3 3049   1.950   1.252  17.570  0.5942 -0.3286 -0.3761
  197MPD1    C4 3050   2.037   1.146  17.603 -0.3748  0.2112  0.4031
  197MPD1    C5 3051   2.050   1.106  17.733  0.1955  0.3453  0.1806
  197MPD1     H 3052   1.794   1.368  17.640  0.4290  0.5936 -1.2857
  197MPD1    H1 3053   2.101   1.102  17.527  0.3464 -0.0523  1.1700
  197MPD1    H2 3054   1.958   1.105   0.177  1.4154  2.3673  1.4562
  197MPD1    H3 3055   2.124   1.028  17.751 -1.4431 -1.9803 -3.0076
  197MPD1     N 3056   1.936   1.291  17.432 -0.1202 -0.4261 -0.5336
  197MPD1    H5 3057   1.979   1.227  17.366  1.9143  0.8209 -0.4026
  197MPD1    N1 3058   1.770   1.280   0.137 -0.5050 -0.1396 -0.1028
  197MPD1    H6 3059   1.784   1.279   0.238  1.6935 -1.0589 -0.4121
  197MPD1    H7 3060   1.717   1.363   0.109  1.0339  0.4483 -1.2575
  198MPD1     C 3061   3.668   4.152  14.832 -0.0029  0.6457 -0.4611
  198MPD1    C1 3062   3.713   4.276  14.819 -1.0856  0.0439 -0.1320
  198MPD1    C2 3063   3.786   4.345  14.921  0.4584 -0.9812 -0.3289
  198MPD1    C3 3064   3.789   4.283  15.044 -0.2899  0.1280  0.5255
  198MPD1    C4 3065   3.736   4.156  15.061 -0.0882  0.0548 -0.0193
  198MPD1    C5 3066   3.680   4.091  14.957 -0.6201  0.7670 -0.3694
  198MPD1     H 3067   3.808   4.451  14.913 -2.1093 -0.3449  0.9939
  198MPD1    H1 3068   3.727   4.105  15.156 -0.0045 -0.7114 -0.4269
  198MPD1    H2 3069   3.618   4.100  14.751  1.0710  1.5444 -1.6908
  198MPD1    H3 3070   3.639   3.992  14.973  2.1160 -0.6122 -1.9501
  198MPD1     N 3071   3.835   4.366  15.156 -0.7026  0.1095 -0.3994
  198MPD1    H5 3072   3.869   4.459  15.134 -1.1314  0.9546  2.4624
  198MPD1    N1 3073   3.702   4.333  14.685 -0.0071  0.4987 -0.0367
  198MPD1    H6 3074   3.620   4.302  14.634 -0.6368  0.8755  0.7505
  198MPD1    H7 3075   3.697   4.434  14.698  1.7794  0.6574 -0.5226
  199MPD1     C 3076   0.757   1.167  10.718 -0.0382  0.0857  0.2567
  199MPD1    C1 3077   0.751   1.028  10.722  0.0640  0.2882 -0.3072
  199MPD1    C2 3078   0.790   0.955  10.614 -0.8029  0.4587  0.6257
  199MPD1    C3 3079   0.822   1.018  10.496  0.4587 -0.4453 -0.2328
  199MPD1    C4 3080   0.827   1.159  10.490  0.6281  0.3568  0.6788
  199MPD1    C5 3081   0.794   1.230  10.605  0.6031 -0.0499  0.0323
  199MPD1     H 3082   0.791   0.847  10.606  2.5035  0.5211  0.1492
  199MPD1    H1 3083   0.855   1.206  10.396 -0.8610 -1.1939 -0.5201
  199MPD1    H2 3084   0.708   1.222  10.797  0.6023  0.2223  0.5521
  199MPD1    H3 3085   0.790   1.338  10.603  1.6881  0.0214  1.4318
  199MPD1     N 3086   0.845   0.951  10.372 -0.0370 -0.0247  0.7561
  199MPD1    H5 3087   0.838   1.008  10.288 -0.3333  1.2777  1.6633
  199MPD1    N1 3088   0.720   0.970  10.851  0.2711  0.4440 -0.2984
  199MPD1    H6 3089   0.674   0.880  10.842 -0.0448  0.2552  3.4468
  199MPD1    H7 3090   0.678   1.035  10.916 -0.4990 -0.2515 -0.1030
  200MPD1     C 3091   4.667   0.734  15.124  0.1146  0.1483  0.2100
  200MPD1    C1 3092   4.667   0.721  14.986  0.7810 -0.2636  1.0354
  200MPD1    C2 3093   0.050   0.737  14.917  0.1518 -0.5990  0.4817
  200MPD1    C3 3094   0.170   0.752  14.984  0.0401  0.1521 -0.0260
  200MPD1    C4 3095   0.166   0.748  15.124  0.1310 -0.2831  0.1901
  200MPD1    C5 3096   0.041   0.737  15.187  0.4965  0.2582 -0.2048
  200MPD1     H 3097   0.053   0.736  14.809 -1.3756  0.1768  0.4355
  200MPD1    H1 3098   0.256   0.738  15.184 -0.3101 -2.0871  0.5526
  200MPD1    H2 3099   4.577   0.738  15.184 -0.7214  3.1017 -1.2428
  200MPD1    H3 3100   0.031   0.738  15.295 -2.0066  1.8621 -0.4345
  200MPD1     N 3101   0.288   0.750  14.915 -0.1047 -0.1001  0.2709
  200MPD1    H5 3102   0.283   0.728  14.816 -1.4769 -0.9445  0.5307
  200MPD1    N1 3103   4.547   0.734  14.910 -0.4275  0.3908 -0.3079
  200MPD1    H6 3104   4.543   0.700  14.814  0.4200  0.5180 -0.3866
  200MPD1    H7 3105   4.459   0.706  14.951 -1.1306  2.6979 -0.2193
  201MPD1     C 3106   3.134   2.991  14.088  0.6342 -0.7378  0.9190
  201MPD1    C1 3107   3.063   3.022  13.974  0.0357  0.1241  0.2475
  201MPD1    C2 3108   3.062   3.156  13.937  0.1184 -0.3394  0.2362
  201MPD1    C3 3109   3.147   3.249  13.992 -0.5217  0.3154 -0.0035
  201MPD1    C4 3110   3.216   3.214  14.105  0.4629  0.4612  0.7206
  201MPD1    C5 3111   3.217   3.085  14.151  0.2100 -0.4050  0.5236
  201MPD1     H 3112   2.994   3.190  13.860  0.0132 -2.2082 -0.5122
  201MPD1    H1 3113   3.271   3.289  14.159  0.0592  0.7722  0.7037
  201MPD1    H2 3114   3.133   2.888  14.121  1.3485 -0.3820  2.0695
  201MPD1    H3 3115   3.278   3.061  14.237 -0.7194 -1.9211  0.7545
  201MPD1     N 3116   3.147   3.371  13.931 -0.5713 -0.0244  0.4100
  201MPD1    H5 3117   3.079   3.382  13.857  2.3661  0.3319 -2.2425
  201MPD1    N1 3118   2.975   2.925  13.915  0.1016  0.6028  0.7117
  201MPD1    H6 3119   3.005   2.830  13.939 -0.6568  0.4052  0.8597
  201MPD1    H7 3120   2.948   2.927  13.817 -1.1078 -0.9559  1.0011
  202MPD1     C 3121   2.165   3.305   9.226  1.0478  0.3870  0.0262
  202MPD1    C1 3122   2.086   3.402   9.289  1.0193 -0.0484  0.6460
  202MPD1    C2 3123   2.151   3.500   9.368 -0.2407 -0.2299 -0.1384
  202MPD1    C3 3124   2.280   3.480   9.411 -0.2175 -0.3826  0.9103
  202MPD1    C4 3125   2.353   3.379   9.359 -0.3802 -0.5355 -0.3498
  202MPD1    C5 3126   2.299   3.302   9.259 -0.0274 -0.5663  0.2669
  202MPD1     H 3127   2.096   3.578   9.419  2.5552  1.3885  0.4402
  202MPD1    H1 3128   2.459   3.370   9.381 -0.4322 -0.1719  0.0382
  202MPD1    H2 3129   2.123   3.231   9.159 -0.0367  0.4049  0.6780
  202MPD1    H3 3130   2.354   3.217   9.222 -0.8387  0.0219 -2.2842
  202MPD1     N 3131   2.345   3.564   9.505  0.4005  0.7661  0.5353
  202MPD1    H5 3132   2.440   3.540   9.527 -0.2645 -0.1036  2.4185
  202MPD1    N1 3133   1.963   3.430   9.232 -0.4513 -0.2443 -0.3066
  202MPD1    H6 3134   1.906   3.350   9.205  3.0915 -3.5363  1.8910
  202MPD1    H7 3135   1.905   3.483   9.297  0.5531  0.4018  0.0612
  203MPD1     C 3136   0.958   0.086  12.136 -0.1269  0.4523  1.0378
  203MPD1    C1 3137   0.938   4.714  12.063 -0.0030  0.2662 -0.5392
  203MPD1    C2 3138   0.957   4.590  12.122 -0.6944  0.1469  0.0175
  203MPD1    C3 3139   0.992   4.568  12.257  0.0430  0.4557 -0.0182
  203MPD1    C4 3140   1.005   4.680  12.329  0.2300 -0.6771 -0.6514
  203MPD1    C5 3141   0.990   0.066  12.271 -0.1984  0.7013 -0.3397
  203MPD1     H 3142   0.946   4.505  12.056 -0.6687 -0.4891  0.8187
  203MPD1    H1 3143   1.037   4.684  12.432 -1.1080 -0.8088 -0.2358
  203MPD1    H2 3144   0.957   0.189  12.104  0.5778  0.4316  0.9408
  203MPD1    H3 3145   0.986   0.155  12.333  0.0896  1.6257 -1.6504
  203MPD1     N 3146   1.023   4.435  12.305 -0.7470 -0.3090 -0.3828
  203MPD1    H5 3147   1.023   4.359  12.238  1.8144  0.3371 -1.1270
  203MPD1    N1 3148   0.934   4.733  11.921  0.6170  0.3825  0.1066
  203MPD1    H6 3149   0.884   0.077  11.893  0.2058 -0.8307 -2.7706
  203MPD1    H7 3150   0.896   4.653  11.871  0.2190  0.0321  0.9647
  204MPD1     C 3151   0.697   1.663   0.053  0.2377 -0.6148 -0.1196
  204MPD1    C1 3152   0.757   1.664  17.682 -0.0324  0.7044  0.9291
  204MPD1    C2 3153   0.840   1.565  17.642 -0.6194  0.3831 -0.0825
  204MPD1    C3 3154   0.852   1.448  17.714  0.2009 -0.6353  0.5531
  204MPD1    C4 3155   0.783   1.438   0.076 -0.2355 -0.0525  0.0180
  204MPD1    C5 3156   0.713   1.549   0.126 -0.2251  0.6201 -0.1704
  204MPD1     H 3157   0.893   1.563  17.547  0.3595  0.0554  0.4724
  204MPD1    H1 3158   0.787   1.345   0.132 -0.6882  0.8594  1.5870
  204MPD1    H2 3159   0.649   1.742   0.110  0.3364 -0.0378 -0.8400
  204MPD1    H3 3160   0.673   1.552   0.226  1.0156  1.2566  0.3094
  204MPD1     N 3161   0.935   1.349  17.655  0.5990 -0.0837  0.2918
  204MPD1    H5 3162   0.978   1.367  17.565 -0.0854 -1.8989 -0.3910
  204MPD1    N1 3163   0.744   1.779  17.605 -0.3530  0.9506  0.1841
  204MPD1    H6 3164   0.662   1.836  17.627 -2.2767 -0.1935 -3.9194
  204MPD1    H7 3165   0.733   1.766  17.505  1.3807 -0.4778  0.1927
  205MPD1     C 3166   1.224   0.049  16.809  0.1377 -0.4559 -0.7684
  205MPD1    C1 3167   1.252   4.675  16.878 -0.1293 -0.1170 -0.0938
  205MPD1    C2 3168   1.227   4.679  17.012  0.2611  0.0091  0.2901
  205MPD1    C3 3169   1.183   0.056  17.079 -0.5222 -0.0993 -0.1133
  205MPD1    C4 3170   1.148   0.163  17.003  0.2474 -0.9047  0.3526
  205MPD1    C5 3171   1.172   0.154  16.870 -0.6315 -0.0886 -0.0028
  205MPD1     H 3172   1.251   4.592  17.072  1.6871  0.1881 -0.0035
  205MPD1    H1 3173   1.117   0.254  17.053  1.9875 -0.3211  0.3764
  205MPD1    H2 3174   1.256   0.057  16.706  1.8351 -0.1189 -0.2280
  205MPD1    H3 3175   1.181   0.242  16.808  0.7468  0.3712  0.8564
  205MPD1     N 3176   1.183   0.060  17.220 -0.0898 -0.4941 -0.1056
  205MPD1    H5 3177   1.164   0.144  17.274 -0.0730 -0.2878 -0.4201
  205MPD1    N1 3178   1.310   4.559  16.814 -0.3819  0.1602  0.5099
  205MPD1    H6 3179   1.331   4.479  16.874 -2.7859  0.5086  1.7952
  205MPD1    H7 3180   1.384   4.588  16.751 -1.2899  1.7457  0.1863
  206MPD1     C 3181   1.232   2.575  16.568 -0.5895  0.0008 -0.2780
  206MPD1    C1 3182   1.369   2.556  16.544 -0.3460 -0.5304 -0.4810
  206MPD1    C2 3183   1.411   2.546  16.416  0.5025 -0.1713 -0.7893
  206MPD1    C3 3184   1.325   2.549  16.309 -0.3243  0.0999 -0.6179
  206MPD1    C4 3185   1.193   2.570  16.331 -0.4400  0.8245  0.1000
  206MPD1    C5 3186   1.147   2.568  16.458 -0.6107 -0.4939 -0.3870
  206MPD1     H 3187   1.517   2.543  16.393  0.2265 -1.3465 -1.9204
  206MPD1    H1 3188   1.115   2.581  16.256  1.8910  2.8309 -2.0453
  206MPD1    H2 3189   1.184   2.597  16.662  1.2307  2.8010  0.0001
  206MPD1    H3 3190   1.039   2.575  16.464 -0.4030  1.2899  1.2940
  206MPD1     N 3191   1.367   2.550  16.173 -0.2506  0.2490  0.3595
  206MPD1    H5 3192   1.290   2.562  16.108  1.0681  1.1252 -1.0204
  206MPD1    N1 3193   1.464   2.575  16.647 -0.6001 -0.4051 -0.1892
  206MPD1    H6 3194   1.550   2.537  16.610 -0.2083 -0.2785  0.5891
  206MPD1    H7 3195   1.439   2.523  16.732  0.2068 -0.6970 -0.1302
  207MPD1     C 3196   1.952   4.565  10.400 -0.0430 -0.4155 -0.0329
  207MPD1    C1 3197   2.035   4.453  10.418  0.3340  0.2097  0.5774
  207MPD1    C2 3198   2.169   4.457  10.377  0.4103 -0.4173  0.5949
  207MPD1    C3 3199   2.224   4.565  10.308 -0.5099  1.0144  0.6161
  207MPD1    C4 3200   2.139   4.672  10.288  0.1510  0.1231  0.5309
  207MPD1    C5 3201   2.010   4.673  10.340 -0.2110 -0.2086  0.4421
  207MPD1     H 3202   2.224   4.365  10.397  1.1179  0.3565  2.2473
  207MPD1    H1 3203   2.171   0.016  10.227  1.0943 -1.3255 -0.9812
  207MPD1    H2 3204   1.845   4.566  10.416  0.1175 -3.6874  1.3731
  207MPD1    H3 3205   1.945   0.020  10.333  2.8768  2.1416  0.9074
  207MPD1     N 3206   2.357   4.575  10.253  0.3567 -0.6058  0.4526
  207MPD1    H5 3207   2.386   4.667  10.221  1.4586 -1.0477  0.1804
  207MPD1    N1 3208   1.981   4.344  10.487  0.3142  0.4606  0.7322
  207MPD1    H6 3209   2.044   4.264  10.482  0.5540  0.5030  2.8336
  207MPD1    H7 3210   1.894   4.317  10.442  0.3003 -0.4777  1.3300
  208MPD1     C 3211   2.496   3.984   0.055  0.4104 -0.4832  0.2582
  208MPD1    C1 3212   2.463   3.945   0.187 -0.4442 -0.2305  0.1376
  208MPD1    C2 3213   2.324   3.954   0.213  0.4719  0.1084 -0.2816
  208MPD1    C3 3214   2.229   3.973   0.112  0.3766 -0.2027  0.0693
  208MPD1    C4 3215   2.273   3.982  17.735  0.4796  0.0819  0.1755
  208MPD1    C5 3216   2.408   4.002  17.708 -0.4288  0.0577 -0.0953
  208MPD1     H 3217   2.297   3.942   0.318  1.3311  1.9124  0.1473
  208MPD1    H1 3218   2.202   3.992  17.654  0.9638  3.3216  0.1558
  208MPD1    H2 3219   2.600   3.997   0.029  0.3998  0.8073  0.8577
  208MPD1    H3 3220   2.447   4.033  17.612  1.1596  0.9838  0.8497
  208MPD1     N 3221   2.092   3.960   0.141 -0.1165  0.4451 -0.3323
  208MPD1    H5 3222   2.066   3.939   0.237  0.4183 -0.1209 -0.3105
  208MPD1    N1 3223   2.552   3.943   0.291  0.4504  0.8278 -0.3303
  208MPD1    H6 3224   2.525   3.876   0.363  2.1852 -1.3556 -1.7453
  208MPD1    H7 3225   2.643   3.904   0.270 -0.3518 -0.6303 -1.0859
  209MPD1     C 3226   3.403   3.951  11.302 -0.3626 -0.2893  0.8476
  209MPD1    C1 3227   3.358   3.882  11.194  0.2676 -0.2288  0.6046
  209MPD1    C2 3228   3.393   3.930  11.072 -0.0483  0.5078  0.5376
  209MPD1    C3 3229   3.478   4.044  11.065 -0.2847 -0.2629 -0.0637
  209MPD1    C4 3230   3.531   4.106  11.179 -0.0655  0.7218  0.0557
  209MPD1    C5 3231   3.480   4.068  11.298  0.5348 -0.2558 -0.1565
  209MPD1     H 3232   3.343   3.900  10.980  3.0187  2.2076 -1.7023
  209MPD1    H1 3233   3.590   4.197  11.180  0.4470  0.3957 -0.9385
  209MPD1    H2 3234   3.350   3.938  11.395 -2.1675 -0.8357 -0.2554
  209MPD1    H3 3235   3.510   4.121  11.387 -0.8375  0.8739 -0.3556
  209MPD1     N 3236   3.501   4.095  10.935 -0.5398  0.0576 -0.2260
  209MPD1    H5 3237   3.447   4.064  10.855 -0.5515  0.4192 -0.3614
  209MPD1    N1 3238   3.248   3.790  11.208  0.4981  0.4116  0.1332
  209MPD1    H6 3239   3.252   3.733  11.292 -0.6890  0.9129  0.5393
  209MPD1    H7 3240   3.233   3.735  11.123  1.2082 -0.4736  0.5932
  210MPD1     C 3241   4.106   0.117  10.628 -0.3895  0.2901 -0.2259
  210MPD1    C1 3242   3.998   0.132  10.537 -0.3708  0.3909  0.3452
  210MPD1    C2 3243   3.894   0.039  10.543  0.2528 -0.2307 -0.2769
  210MPD1    C3 3244   3.906   4.669  10.632 -0.1205  0.7678  0.2491
  210MPD1    C4 3245   4.020   4.659  10.709 -0.3685  0.2314 -0.5178
  210MPD1    C5 3246   4.116   0.014  10.712 -0.5952 -0.5353  0.7746
  210MPD1     H 3247   3.811   0.052  10.475  0.9142 -0.7353 -1.1800
  210MPD1    H1 3248   4.043   4.574  10.771 -1.9367 -0.1124 -0.4290
  210MPD1    H2 3249   4.186   0.188  10.647  1.2113 -1.1138 -1.6667
  210MPD1    H3 3250   4.187   0.004  10.793 -2.1538  2.9044  2.5252
  210MPD1     N 3251   3.814   4.564  10.644 -0.0319  0.0786  0.0814
  210MPD1    H5 3252   3.813   4.521  10.736  0.5717 -0.2952 -0.0853
  210MPD1    N1 3253   3.982   0.253  10.469  0.3904 -0.1483  0.0930
  210MPD1    H6 3254   3.945   0.233  10.377  0.8485  1.8349 -0.5228
  210MPD1    H7 3255   4.078   0.282  10.451  0.9145 -0.7110  1.9778
  211MPD1     C 3256   1.363   4.400  15.780  0.0906  0.0950  0.5283
  211MPD1    C1 3257   1.255   4.449  15.711  0.2121  0.2302 -0.3444
  211MPD1    C2 3258   1.162   4.530  15.774 -0.2714  0.8023 -0.7645
  211MPD1    C3 3259   1.173   4.554  15.907  0.0354  0.2554  0.7375
  211MPD1    C4 3260   1.279   4.500  15.978 -0.0507  0.7409 -0.0053
  211MPD1    C5 3261   1.376   4.431  15.911 -0.1909  0.2873 -0.4343
  211MPD1     H 3262   1.074   4.564  15.720  1.5253  0.6998 -3.7989
  211MPD1    H1 3263   1.314   4.528  16.077 -0.3151  1.0440  0.0047
  211MPD1    H2 3264   1.425   4.334  15.721  0.5598  2.5738 -1.7334
  211MPD1    H3 3265   1.457   4.393  15.972 -0.4841 -0.6663 -0.6444
  211MPD1     N 3266   1.087   4.647  15.970  0.0196  0.6139  0.1250
  211MPD1    H5 3267   1.033   4.706  15.907 -2.6290 -0.9485  0.9449
  211MPD1    N1 3268   1.232   4.409  15.577 -0.0612 -0.4319 -0.2166
  211MPD1    H6 3269   1.317   4.379  15.528  0.4984  2.0348 -0.7460
  211MPD1    H7 3270   1.184   4.481  15.524 -0.1225 -0.0184  0.3977
  212MPD1     C 3271   0.863   3.082  16.308  0.1239 -0.4317  0.5554
  212MPD1    C1 3272   0.751   3.137  16.363  0.6653  0.5132 -0.1582
  212MPD1    C2 3273   0.684   3.077  16.469 -0.0653  0.1367  0.6475
  212MPD1    C3 3274   0.747   2.974  16.539 -0.2426  0.2961 -0.5519
  212MPD1    C4 3275   0.865   2.922  16.488 -0.2563  0.1330  0.4085
  212MPD1    C5 3276   0.918   2.971  16.370  0.1704  0.3859  0.3998
  212MPD1     H 3277   0.589   3.117  16.503 -0.1488  0.5958 -0.1219
  212MPD1    H1 3278   0.905   2.833  16.536 -0.4737 -0.7770 -1.1101
  212MPD1    H2 3279   0.913   3.118  16.219  0.3787 -0.1448  0.8139
  212MPD1    H3 3280   1.004   2.925  16.322 -0.0235 -1.2171  1.5731
  212MPD1     N 3281   0.692   2.912  16.656  0.2631 -0.0066 -0.2367
  212MPD1    H5 3282   0.732   2.821  16.677 -0.6353 -0.4115 -0.2824
  212MPD1    N1 3283   0.689   3.244  16.300  0.2145  0.4192  0.0289
  212MPD1    H6 3284   0.763   3.303  16.262 -0.2686  1.9164  1.3717
  212MPD1    H7 3285   0.650   3.290  16.383  0.4134  0.2423  0.2209
  213MPD1     C 3286   4.067   3.646  16.087 -0.7324 -0.3712  0.4773
  213MPD1    C1 3287   4.045   3.514  16.061 -0.3250  0.8584  0.3277
  213MPD1    C2 3288   3.932   3.499  15.989 -0.7979 -0.4183 -0.1293
  213MPD1    C3 3289   3.847   3.604  15.949  0.1050  0.7414 -0.3316
  213MPD1    C4 3290   3.883   3.727  15.986  0.2769 -0.7018  0.2038
  213MPD1    C5 3291   4.000   3.753  16.052 -0.2899 -0.7023 -0.3694
  213MPD1     H 3292   3.904   3.400  15.956  1.7918 -0.3236 -2.5845
  213MPD1    H1 3293   3.828   3.820  15.972 -0.6888 -1.3560 -0.3671
  213MPD1    H2 3294   4.164   3.665  16.132 -1.9715  0.7771  2.6225
  213MPD1    H3 3295   4.034   3.853  16.079 -1.1548 -0.6150  0.3985
  213MPD1     N 3296   3.736   3.576  15.869 -0.7087  0.4830 -0.2329
  213MPD1    H5 3297   3.717   3.477  15.858  1.9348 -0.1985  1.2039
  213MPD1    N1 3298   4.154   3.432  16.046 -0.5094 -0.7638 -0.0165
  213MPD1    H6 3299   4.128   3.336  16.024 -1.9012 -0.8873  2.1779
  213MPD1    H7 3300   4.218   3.433  16.125 -0.1287  0.0710 -0.3315
  214MPD1     C 3301   3.242   2.804  15.634  0.4585  0.2900 -0.7690
  214MPD1    C1 3302   3.316   2.851  15.742  0.6107  0.1968  0.1932
  214MPD1    C2 3303   3.350   2.985  15.747  0.7214  0.5003 -0.7551
  214MPD1    C3 3304   3.332   3.070  15.635  0.3757  0.0432 -0.1210
  214MPD1    C4 3305   3.259   3.020  15.530 -0.2496  1.4269  0.5382
  214MPD1    C5 3306   3.209   2.889  15.533  0.6037  0.3214 -0.1700
  214MPD1     H 3307   3.390   3.021  15.841  0.9275  1.1058 -1.0789
  214MPD1    H1 3308   3.227   3.084  15.449 -0.0828  0.4133 -0.3215
  214MPD1    H2 3309   3.199   2.704  15.631  0.5522  0.1947  1.6396
  214MPD1    H3 3310   3.150   2.847  15.452 -0.4750  0.6773  0.4473
  214MPD1     N 3311   3.370   3.204  15.622 -0.0011 -0.6620  1.0351
  214MPD1    H5 3312   3.322   3.248  15.544 -1.6701 -2.3848  1.1039
  214MPD1    N1 3313   3.341   2.758  15.844 -0.3038 -0.1920 -0.7981
  214MPD1    H6 3314   3.339   2.662  15.810 -2.6865 -0.6030  0.4954
  214MPD1    H7 3315   3.433   2.763  15.887 -0.4829 -0.7262 -0.3545
  215MPD1     C 3316   2.983   4.089  10.851  0.4915  0.4344  0.4881
  215MPD1    C1 3317   3.066   4.064  10.955 -1.2469  0.0444  0.1019
  215MPD1    C2 3318   3.155   4.160  10.989  0.1149  0.6106  0.2172
  215MPD1    C3 3319   3.171   4.270  10.906  0.2630 -0.3950  0.1127
  215MPD1    C4 3320   3.101   4.276  10.787  0.2007  0.5103  0.3320
  215MPD1    C5 3321   2.996   4.195  10.762  0.5052 -0.0823  0.1863
  215MPD1     H 3322   3.198   4.162  11.088  0.8620  0.0395 -0.0994
  215MPD1    H1 3323   3.122   4.359  10.722  1.6763  0.4148  0.6792
  215MPD1    H2 3324   2.908   4.016  10.825  0.3610  0.8153 -0.2007
  215MPD1    H3 3325   2.951   4.197  10.664 -0.2879  1.9312  0.6025
  215MPD1     N 3326   3.253   4.373  10.955  0.4803 -0.3284  0.3311
  215MPD1    H5 3327   3.272   4.365  11.055  0.6746  0.6753  0.3730
  215MPD1    N1 3328   3.030   3.970  11.052  0.0279  0.0676 -0.1354
  215MPD1    H6 3329   3.114   3.938  11.100 -0.9143 -0.6149  1.0505
  215MPD1    H7 3330   2.998   3.884  11.008  3.0712  0.4936 -3.2039
  216MPD1     C 3331   4.550   3.055   0.002  0.5492 -0.0728  0.5119
  216MPD1    C1 3332   4.641   3.002   0.094  0.2494 -0.4016 -0.3192
  216MPD1    C2 3333   4.703   2.881   0.061 -0.5223 -0.0607 -0.0586
  216MPD1    C3 3334   4.680   2.821  17.695 -0.4596  0.0539 -0.8200
  216MPD1    C4 3335   4.600   2.876  17.598 -0.2959  0.0521  0.3213
  216MPD1    C5 3336   4.531   2.990  17.641  0.2673 -0.1066 -0.1776
  216MPD1     H 3337   0.025   2.829   0.134 -1.7916  0.8387  1.6481
  216MPD1    H1 3338   4.595   2.831  17.499  1.3538  0.6366 -0.0230
  216MPD1    H2 3339   4.492   3.144   0.021  2.8779  1.3357  0.9177
  216MPD1    H3 3340   4.470   3.039  17.566 -2.0334 -0.4920  1.4614
  216MPD1     N 3341   4.737   2.698  17.671  0.4542 -0.0658 -0.9756
  216MPD1    H5 3342   0.046   2.655  17.749  0.9364  2.4048  0.1045
  216MPD1    N1 3343   4.651   3.061   0.227  0.7036  0.3429 -0.4094
  216MPD1    H6 3344   4.727   3.025   0.283 -0.1165  0.6540  0.8975
  216MPD1    H7 3345   4.640   3.162   0.226  0.3595  0.3213  0.9185
  217MPD1     C 3346   0.715   3.098   8.883  0.3067 -0.0649  0.7392
  217MPD1    C1 3347   0.839   3.053   8.903 -0.2694 -0.2283  0.9023
  217MPD1    C2 3348   0.919   3.132   8.982 -0.1846  0.6080 -0.3093
  217MPD1    C3 3349   0.867   3.231   9.061  0.3049  0.2291  0.7031
  217MPD1    C4 3350   0.733   3.260   9.048  0.4921 -0.2227  0.3919
  217MPD1    C5 3351   0.655   3.192   8.955  0.3447  0.1843 -0.1379
  217MPD1     H 3352   1.024   3.105   8.983 -0.4647 -0.4841  0.5643
  217MPD1    H1 3353   0.688   3.330   9.118 -1.7303  0.4479 -1.7304
  217MPD1    H2 3354   0.656   3.037   8.816  0.0662  0.6961  0.2495
  217MPD1    H3 3355   0.551   3.221   8.945 -0.0411 -0.5889  1.6871
  217MPD1     N 3356   0.931   3.310   9.157 -0.2382 -0.6405 -0.2410
  217MPD1    H5 3357   0.882   3.389   9.199 -1.8482 -1.8092  0.0746
  217MPD1    N1 3358   0.895   2.957   8.821  0.2752 -0.2091 -0.3752
  217MPD1    H6 3359   0.986   2.928   8.854 -1.5146 -1.7655  3.1331
  217MPD1    H7 3360   0.829   2.883   8.797 -0.3472  0.1031  0.3569
  218MPD1     C 3361   2.327   0.090  12.470  0.3709 -0.1740  0.4552
  218MPD1    C1 3362   2.383   0.129  12.347 -0.2862 -0.2531 -0.5234
  218MPD1    C2 3363   2.520   0.115  12.337  0.0328 -0.0238 -0.2272
  218MPD1    C3 3364   2.597   0.088  12.442  0.5151  0.0587 -0.0658
  218MPD1    C4 3365   2.545   0.053  12.569  0.2870 -0.5116  0.9967
  218MPD1    C5 3366   2.406   0.048  12.573  0.2764  0.2042  0.2507
  218MPD1     H 3367   2.559   0.132  12.238 -1.8410  3.1915 -0.4102
  218MPD1    H1 3368   2.607   0.013  12.648  0.1090  0.7177  1.7653
  218MPD1    H2 3369   2.221   0.092  12.492  0.2327  1.1747 -0.3941
  218MPD1    H3 3370   2.358   0.019  12.665  2.9349  1.6324  2.0631
  218MPD1     N 3371   2.734   0.076  12.414  0.1173  0.2101  0.1904
  218MPD1    H5 3372   2.758   0.095  12.317 -1.2845  2.3577  0.2684
  218MPD1    N1 3373   2.311   0.145  12.230 -0.0807  0.0242  0.1464
  218MPD1    H6 3374   2.221   0.185  12.256 -0.9867 -1.1984 -1.1337
  218MPD1    H7 3375   2.361   0.201  12.161  1.0438  0.3271  1.2040
  219MPD1     C 3376   3.592   0.436  12.063 -0.1414 -0.0133  0.1512
  219MPD1    C1 3377   3.482   0.488  12.120 -0.4153  0.1959  0.4732
  219MPD1    C2 3378   3.393   0.397  12.164 -0.1267 -0.1404  0.9029
  219MPD1    C3 3379   3.422   0.260  12.166 -0.3219  0.6587  0.6457
  219MPD1    C4 3380   3.536   0.213  12.114 -0.3804 -0.3621 -0.7137
  219MPD1    C5 3381   3.626   0.308  12.061  0.3766  0.8703 -0.5373
  219MPD1     H 3382   3.300   0.432  12.207 -1.1761 -0.1815 -1.3072
  219MPD1    H1 3383   3.554   0.106  12.115  1.9083  0.0058 -1.7196
  219MPD1    H2 3384   3.653   0.498  11.998  1.7047 -0.7814  1.1690
  219MPD1    H3 3385   3.710   0.285  11.996  2.3736  2.1782  1.5663
  219MPD1     N 3386   3.332   0.161  12.213 -0.7485 -0.2549 -0.1867
  219MPD1    H5 3387   3.356   0.066  12.190 -2.0066 -1.1457  2.0895
  219MPD1    N1 3388   3.453   0.620  12.108  0.2916 -0.1874  0.0751
  219MPD1    H6 3389   3.540   0.668  12.086 -0.5530  0.5624 -1.6327
  219MPD1    H7 3390   3.416   0.657  12.195 -1.0685  1.3948 -1.1868
  220MPD1     C 3391   2.471   0.904   9.932  0.4771 -0.1636  0.0563
  220MPD1    C1 3392   2.421   0.771   9.971  0.2371 -0.0137  0.2060
  220MPD1    C2 3393   2.512   0.674  10.009  0.4420 -0.5192 -0.0037
  220MPD1    C3 3394   2.649   0.705  10.012 -0.4485 -0.0736 -0.9958
  220MPD1    C4 3395   2.691   0.813   9.955  0.0648 -0.2509 -0.2704
  220MPD1    C5 3396   2.608   0.913   9.916  0.0511  1.4009 -0.5721
  220MPD1     H 3397   2.471   0.582  10.049 -0.7593 -0.7598 -1.8106
  220MPD1    H1 3398   2.797   0.834   9.952  0.2230 -1.2773 -1.7275
  220MPD1    H2 3399   2.412   0.978   9.879 -0.2770  0.7291  2.1320
  220MPD1    H3 3400   2.656   1.006   9.885  1.2918  0.5519 -1.1769
  220MPD1     N 3401   2.737   0.610  10.056 -0.4522  0.7331 -0.1589
  220MPD1    H5 3402   2.695   0.524  10.090 -0.1880  0.6848  0.0436
  220MPD1    N1 3403   2.289   0.741   9.944  0.4023 -0.6782  0.1464
  220MPD1    H6 3404   2.232   0.825   9.935  1.9663  0.4321  0.4956
  220MPD1    H7 3405   2.248   0.675  10.009 -1.7826  0.5496  0.0080
  221MPD1     C 3406   0.065   3.813  16.476  0.3747  0.5181  0.3771
  221MPD1    C1 3407   0.123   3.768  16.598  0.2247 -0.2185 -0.2858
  221MPD1    C2 3408   0.263   3.776  16.607  0.2364  0.0974  0.1645
  221MPD1    C3 3409   0.343   3.825  16.506  0.0697 -0.8511  0.0966
  221MPD1    C4 3410   0.281   3.863  16.387 -0.3038 -0.7707  0.4013
  221MPD1    C5 3411   0.144   3.859  16.374  0.5436 -0.1209  0.6100
  221MPD1     H 3412   0.306   3.741  16.700  1.3534  1.7803  0.2578
  221MPD1    H1 3413   0.341   3.916  16.313  0.5411 -0.6039  1.2089
  221MPD1    H2 3414   4.698   3.822  16.457  0.3578 -1.3023 -0.3365
  221MPD1    H3 3415   0.101   3.898  16.283 -1.3575 -1.2041  1.0472
  221MPD1     N 3416   0.481   3.826  16.503  0.1557 -0.4413  0.1001
  221MPD1    H5 3417   0.528   3.873  16.427 -0.3109  0.1586  0.1822
  221MPD1    N1 3418   0.050   3.703  16.695  0.4579  0.0512  0.7804
  221MPD1    H6 3419   0.068   3.738  16.789 -3.2027 -0.0208  1.5140
  221MPD1    H7 3420   4.689   3.710  16.679  0.5153 -0.8825  0.0062
  222MPD1     C 3421   0.345   3.265   0.467 -0.2518  0.4609 -0.1694
  222MPD1    C1 3422   0.225   3.201   0.486  0.2665  0.2509 -0.0133
  222MPD1    C2 3423   0.115   3.278   0.434 -0.4760 -0.6319 -0.5995
  222MPD1    C3 3424   0.127   3.409   0.382 -0.6154  0.2046  0.1500
  222MPD1    C4 3425   0.253   3.468   0.374 -0.1797 -0.8607  0.4913
  222MPD1    C5 3426   0.358   3.395   0.423  0.2717  0.4514  0.0333
  222MPD1     H 3427   0.015   3.236   0.445 -0.4206 -0.4964  0.4263
  222MPD1    H1 3428   0.271   3.571   0.348 -1.7691 -0.2953  1.6348
  222MPD1    H2 3429   0.435   3.209   0.487 -1.3425 -1.4363 -0.5869
  222MPD1    H3 3430   0.453   3.444   0.407 -0.1830  1.1844 -0.4414
  222MPD1     N 3431   0.013   3.478   0.347  0.1561  0.3022  0.8885
  222MPD1    H5 3432   0.031   3.576   0.328  0.3960  0.1319  0.2306
  222MPD1    N1 3433   0.213   3.065   0.511 -0.2242 -0.0076 -1.1530
  222MPD1    H6 3434   0.272   3.042   0.590 -1.2265  2.2190  0.2410
  222MPD1    H7 3435   0.118   3.035   0.531  0.0745 -0.6644 -0.7526
  223MPD1     C 3436   3.815   3.336   0.576 -0.0201  0.1312  0.7620
  223MPD1    C1 3437   3.881   3.245   0.499  0.3856  0.1461  0.5093
  223MPD1    C2 3438   3.986   3.297   0.416  0.0587 -0.3010 -0.0276
  223MPD1    C3 3439   4.023   3.428   0.417  0.5625 -0.4919 -0.6656
  223MPD1    C4 3440   3.953   3.515   0.496 -0.0580 -0.2164  0.4207
  223MPD1    C5 3441   3.853   3.463   0.573  0.1749 -0.2138 -0.3908
  223MPD1     H 3442   4.040   3.227   0.352 -0.0833 -1.1977  0.8410
  223MPD1    H1 3443   3.981   3.620   0.497 -1.2934  0.1039  1.8949
  223MPD1    H2 3444   3.727   3.314   0.636 -1.5005 -1.1269 -1.8748
  223MPD1    H3 3445   3.784   3.528   0.627 -0.8725 -1.2201 -0.5112
  223MPD1     N 3446   4.137   3.464   0.344  0.5899  0.2432 -0.4938
  223MPD1    H5 3447   4.182   3.391   0.290 -0.7707 -0.0217 -1.2627
  223MPD1    N1 3448   3.839   3.115   0.485 -0.4725  0.0155 -0.3053
  223MPD1    H6 3449   3.812   3.080   0.576  1.2161  0.0316  0.2062
  223MPD1    H7 3450   3.926   3.066   0.464 -0.7310 -0.2264 -0.8047
  224MPD1     C 3451   0.952   4.398   9.635  0.3070 -0.3017  0.0893
  224MPD1    C1 3452   1.032   4.290   9.608 -0.7700  0.4447 -0.2087
  224MPD1    C2 3453   1.145   4.285   9.686  0.4922 -0.2655  0.0792
  224MPD1    C3 3454   1.173   4.374   9.790  0.7454 -0.7317 -0.1638
  224MPD1    C4 3455   1.091   4.480   9.808  0.0122  0.3277 -0.2126
  224MPD1    C5 3456   0.983   4.495   9.725 -0.0526 -0.6320 -0.1557
  224MPD1     H 3457   1.221   4.212   9.661 -0.1015 -1.1662  0.9049
  224MPD1    H1 3458   1.112   4.548   9.890 -0.3271  0.5975 -0.3494
  224MPD1    H2 3459   0.869   4.417   9.568  1.6745  1.4037 -1.1022
  224MPD1    H3 3460   0.916   4.579   9.741  0.7363 -0.6063  2.9147
  224MPD1     N 3461   1.283   4.350   9.876  0.0472  0.3338  0.2096
  224MPD1    H5 3462   1.297   4.422   9.946 -0.2337 -0.2274  0.8406
  224MPD1    N1 3463   1.008   4.226   9.486 -0.2521  0.4948 -0.3661
  224MPD1    H6 3464   0.908   4.220   9.471 -0.3291 -0.9007  0.7584
  224MPD1    H7 3465   1.045   4.132   9.476 -1.5852  0.0526 -1.1224
  225MPD1     C 3466   2.931   0.346  12.821 -0.5005 -0.0001 -0.0088
  225MPD1    C1 3467   2.906   0.367  12.689  0.1631  0.7069 -0.3634
  225MPD1    C2 3468   2.779   0.388  12.642 -0.1165 -0.3197  0.1578
  225MPD1    C3 3469   2.675   0.385  12.727  0.1682  0.5114 -0.5126
  225MPD1    C4 3470   2.697   0.370  12.863 -0.2003  0.1968  0.0037
  225MPD1    C5 3471   2.825   0.343  12.911 -0.5988  0.7883 -0.2072
  225MPD1     H 3472   2.759   0.425  12.542  0.0342 -1.0869 -0.1515
  225MPD1    H1 3473   2.619   0.383  12.937 -0.3385  2.4875 -0.5721
  225MPD1    H2 3474   3.034   0.343  12.855 -0.5805 -1.2369  0.0952
  225MPD1    H3 3475   2.841   0.334  13.017 -1.7278 -1.2071 -0.2235
  225MPD1     N 3476   2.544   0.407  12.694 -0.5295 -0.1277  0.0449
  225MPD1    H5 3477   2.481   0.393  12.772  0.4465 -2.1326  0.4873
  225MPD1    N1 3478   3.020   0.383  12.607 -0.0025  0.2685 -0.2663
  225MPD1    H6 3479   3.099   0.322  12.625 -0.2010 -0.0194 -0.3666
  225MPD1    H7 3480   2.987   0.363  12.513  0.2507 -2.0567  0.1476
  226MPD1     C 3481   1.230   0.627  10.383  0.0517 -0.2871 -0.0685
  226MPD1    C1 3482   1.269   0.521  10.304  0.0121 -0.0913 -0.2824
  226MPD1    C2 3483   1.288   0.537  10.169 -1.0114 -0.6270  0.1571
  226MPD1    C3 3484   1.294   0.667  10.116 -0.7616 -0.2232 -0.2467
  226MPD1    C4 3485   1.239   0.772  10.193 -0.6124 -0.3558  0.1894
  226MPD1    C5 3486   1.206   0.754  10.328  0.2237  0.7590  0.0815
  226MPD1     H 3487   1.315   0.448  10.113  1.2919  1.9704 -2.8418
  226MPD1    H1 3488   1.212   0.864  10.143  1.2585  0.3596  0.4874
  226MPD1    H2 3489   1.207   0.609  10.488  1.0995 -1.7962 -0.0964
  226MPD1    H3 3490   1.164   0.832  10.390 -2.3654 -0.8348  0.2966
  226MPD1     N 3491   1.320   0.685   9.979 -0.2948 -0.0736  0.0719
  226MPD1    H5 3492   1.322   0.606   9.916 -1.3142 -0.8870  1.0679
  226MPD1    N1 3493   1.295   0.402  10.369 -0.3604 -0.3357  0.2265
  226MPD1    H6 3494   1.273   0.314  10.323 -0.1946 -0.8540  1.1496
  226MPD1    H7 3495   1.272   0.402  10.468 -3.1796 -0.2725 -0.4320
  227MPD1     C 3496   1.228   1.357   9.091 -0.2341  0.3789 -0.3887
  227MPD1    C1 3497   1.183   1.230   9.065  0.1017 -0.3459 -0.2906
  227MPD1    C2 3498   1.170   1.136   9.170 -0.0135 -0.0625  0.4863
  227MPD1    C3 3499   1.245   1.154   9.281 -0.0083  0.4310 -0.0950
  227MPD1    C4 3500   1.310   1.272   9.306  0.2401 -0.8741 -0.4055
  227MPD1    C5 3501   1.293   1.373   9.215  0.4119  1.1631  0.0280
  227MPD1     H 3502   1.118   1.043   9.152  1.2953 -0.9747  1.4052
  227MPD1    H1 3503   1.366   1.296   9.395  0.8712  2.2126 -1.6301
  227MPD1    H2 3504   1.236   1.427   9.008  3.1079  1.4348  0.8073
  227MPD1    H3 3505   1.339   1.468   9.239  0.9761  0.6680  0.8886
  227MPD1     N 3506   1.242   1.048   9.375 -0.4282  0.0712 -0.2314
  227MPD1    H5 3507   1.195   0.964   9.341 -1.3434  0.2561  0.6039
  227MPD1    N1 3508   1.107   1.203   8.949 -0.2430  0.0715  0.6183
  227MPD1    H6 3509   1.107   1.102   8.939  0.9098 -0.0802  2.1037
  227MPD1    H7 3510   1.137   1.251   8.865 -1.4957 -1.5639 -0.7586
  228MPD1     C 3511   0.308   3.338  12.718  0.0312  0.1370  0.5698
  228MPD1    C1 3512   0.219   3.418  12.659  0.2514 -0.0161 -0.3204
  228MPD1    C2 3513   0.082   3.411  12.683  0.1134  0.0076 -0.0120
  228MPD1    C3 3514   0.029   3.315  12.772 -0.2454  0.2518 -0.2374
  228MPD1    C4 3515   0.120   3.236  12.839  0.1119  0.5552  1.0894
  228MPD1    C5 3516   0.256   3.251  12.812 -0.2067  0.1732 -0.2481
  228MPD1     H 3517   0.014   3.475  12.628 -1.3058 -1.9656 -0.6046
  228MPD1    H1 3518   0.081   3.165  12.911 -0.2856 -0.7966 -0.4723
  228MPD1    H2 3519   0.415   3.333  12.700  0.0622  1.3256  0.3870
  228MPD1    H3 3520   0.315   3.181  12.869  0.6375  1.0605 -0.0299
  228MPD1     N 3521   4.624   3.307  12.778  0.3689 -0.2212  0.0999
  228MPD1    H5 3522   4.568   3.372  12.724 -1.1461 -2.8636 -1.4708
  228MPD1    N1 3523   0.261   3.506  12.557 -0.1755  0.1409  0.3167
  228MPD1    H6 3524   0.362   3.514  12.557 -0.0137 -2.0234  1.8760
  228MPD1    H7 3525   0.219   3.598  12.575 -1.9234 -0.4663 -0.7362
  229MPD1     C 3526   3.857   2.602  14.539  0.0568 -0.0448 -0.2236
  229MPD1    C1 3527   3.924   2.509  14.464 -0.4338  0.2151  1.1824
  229MPD1    C2 3528   4.019   2.432  14.522  0.1202  0.2710 -0.4379
  229MPD1    C3 3529   4.051   2.439  14.659  0.2634 -0.2514  1.1888
  229MPD1    C4 3530   3.990   2.546  14.731 -0.0852  0.3925 -0.2900
  229MPD1    C5 3531   3.886   2.624  14.670 -0.0280  0.0005  0.3698
  229MPD1     H 3532   4.076   2.367  14.456  0.8341 -0.4068  0.8611
  229MPD1    H1 3533   4.021   2.567  14.833 -2.6297 -2.3508  1.0544
  229MPD1    H2 3534   3.790   2.671  14.489 -0.8857 -0.5627  0.3169
  229MPD1    H3 3535   3.834   2.703  14.723  0.3348 -0.3812  1.2956
  229MPD1     N 3536   4.141   2.355  14.720  0.0120 -0.4592  0.3184
  229MPD1    H5 3537   4.169   2.381  14.814 -0.3444  0.3893  0.1912
  229MPD1    N1 3538   3.910   2.512  14.323 -0.1356 -0.5653  0.2708
  229MPD1    H6 3539   3.818   2.540  14.289 -0.4122 -1.1833  0.5255
  229MPD1    H7 3540   3.944   2.433  14.269 -1.2275  0.1162 -1.3954
  230MPD1     C 3541   4.504   2.131  15.597  0.3236  0.1864  0.1419
  230MPD1    C1 3542   4.534   2.014  15.541 -0.2368 -0.3333 -0.0725
  230MPD1    C2 3543   4.493   1.982  15.412 -0.3386 -0.0713 -0.4597
  230MPD1    C3 3544   4.440   2.084  15.335  0.0099 -0.2805  0.1453
  230MPD1    C4 3545   4.430   2.211  15.391 -0.5496 -0.4508  0.1387
  230MPD1    C5 3546   4.460   2.233  15.521  0.0175 -0.3889 -0.2359
  230MPD1     H 3547   4.505   1.879  15.381  0.0249 -0.6241  1.5008
  230MPD1    H1 3548   4.392   2.299  15.340 -0.4019 -0.8516 -0.6703
  230MPD1    H2 3549   4.534   2.150  15.699 -0.1885 -1.1009  0.5363
  230MPD1    H3 3550   4.438   2.327  15.570 -0.5405  0.0098 -1.2668
  230MPD1     N 3551   4.416   2.062  15.202 -0.2255 -0.1920  0.3130
  230MPD1    H5 3552   4.457   1.979  15.160 -1.5954 -0.0048 -1.3870
  230MPD1    N1 3553   4.583   1.906  15.624 -0.1099 -0.3409 -0.9126
  230MPD1    H6 3554   4.632   1.838  15.567  3.1340  1.2748 -0.0687
  230MPD1    H7 3555   4.644   1.938  15.699 -0.6006  0.1656 -0.7290
  231MPD1     C 3556   2.340   3.736  15.865 -0.2571 -0.2455 -0.4244
  231MPD1    C1 3557   2.330   3.697  15.733  0.2340 -0.0372  0.3101
  231MPD1    C2 3558   2.426   3.731  15.642  0.4665  0.0147 -0.3996
  231MPD1    C3 3559   2.527   3.821  15.679 -0.0108 -0.2831  0.3881
  231MPD1    C4 3560   2.521   3.875  15.808 -0.6119  0.7073 -0.3263
  231MPD1    C5 3561   2.428   3.832  15.899  0.4068  0.5698 -0.4075
  231MPD1     H 3562   2.432   3.677  15.548 -2.7071 -0.9163 -0.0661
  231MPD1    H1 3563   2.597   3.945  15.840  1.1134 -0.3814 -2.0262
  231MPD1    H2 3564   2.272   3.700  15.942  1.5516 -3.7033 -0.4362
  231MPD1    H3 3565   2.436   3.853  16.005 -1.5289 -2.4946  0.3403
  231MPD1     N 3566   2.629   3.853  15.584 -0.0725 -0.4735  0.0254
  231MPD1    H5 3567   2.619   3.815  15.490  1.0805  2.3564 -1.2325
  231MPD1    N1 3568   2.232   3.599  15.704 -0.7796 -0.1674  0.1709
  231MPD1    H6 3569   2.207   3.589  15.605  0.8749  0.2757 -0.2869
  231MPD1    H7 3570   2.145   3.618  15.754 -0.4728  1.7536 -0.0420
  232MPD1     C 3571   0.285   1.428   0.032 -0.1835 -0.6474 -0.2318
  232MPD1    C1 3572   0.255   1.304  17.745  0.2050 -0.1760  1.5033
  232MPD1    C2 3573   0.119   1.281  17.718 -0.4631 -0.2195 -0.0510
  232MPD1    C3 3574   0.023   1.377  17.735  0.4188 -0.3945 -0.7893
  232MPD1    C4 3575   0.058   1.496   0.031  0.2335 -0.2621 -0.5706
  232MPD1    C5 3576   0.188   1.522   0.064  0.4384 -0.5655  0.0337
  232MPD1     H 3577   0.085   1.189  17.673 -0.7210 -0.1659  0.0363
  232MPD1    H1 3578   4.732   1.575   0.066  1.2273 -0.5184  1.9241
  232MPD1    H2 3579   0.390   1.451   0.046 -0.4579  0.7534 -0.4685
  232MPD1    H3 3580   0.213   1.621   0.101  0.2738 -0.1703 -0.9178
  232MPD1     N 3581   4.630   1.358  17.701 -0.2194  0.2034 -0.2619
  232MPD1    H5 3582   4.597   1.269  17.664  0.6387 -0.0198 -0.4847
  232MPD1    N1 3583   0.353   1.213  17.711  0.4293 -0.2757  0.1633
  232MPD1    H6 3584   0.413   1.202   0.037 -0.7363 -1.7604  0.8280
  232MPD1    H7 3585   0.317   1.120  17.687  0.6028 -0.5330  0.8793
  233MPD1     C 3586   0.850   4.708  17.370 -0.5904 -0.0354 -0.1742
  233MPD1    C1 3587   0.846   0.033  17.491 -1.5020 -0.4291 -0.3886
  233MPD1    C2 3588   0.837   4.706  17.612  0.2411 -0.4332 -0.3535
  233MPD1    C3 3589   0.825   4.566  17.610  0.1955 -0.1624  0.8285
  233MPD1    C4 3590   0.841   4.501  17.491 -0.0913 -0.0098 -0.5128
  233MPD1    C5 3591   0.855   4.573  17.370  0.0861 -0.5623 -0.1312
  233MPD1     H 3592   0.820   0.029  17.699 -1.9059 -0.7506 -0.5447
  233MPD1    H1 3593   0.846   4.393  17.477 -2.7377 -0.1402 -0.4602
  233MPD1    H2 3594   0.846   0.021  17.275  2.8896 -0.4686 -0.5538
  233MPD1    H3 3595   0.868   4.519  17.277  0.3281 -0.0202 -0.4107
  233MPD1     N 3596   0.809   4.484  17.729  0.2834 -0.2636  0.3882
  233MPD1    H5 3597   0.824   4.385  17.715  1.3398  0.1244 -1.2107
  233MPD1    N1 3598   0.818   0.175  17.480  0.5763 -0.1904  0.2875
  233MPD1    H6 3599   0.856   0.228  17.559 -1.4831  1.7774 -0.0629
  233MPD1    H7 3600   0.864   0.207  17.395  0.5630  1.9854  1.1024
  234MPD1     C 3601   2.857   3.043   9.775 -0.3372 -0.4271  0.5091
  234MPD1    C1 3602   2.846   3.157   9.839  0.2714 -0.0078  0.7453
  234MPD1    C2 3603   2.727   3.221   9.831  0.2233 -0.9425 -0.9851
  234MPD1    C3 3604   2.622   3.168   9.764  0.6803 -0.2263 -0.3818
  234MPD1    C4 3605   2.634   3.048   9.699  0.0130  0.1990  0.2510
  234MPD1    C5 3606   2.755   2.988   9.705  0.4389 -0.0604 -0.1921
  234MPD1     H 3607   2.721   3.316   9.882  1.3069 -2.1872  1.4619
  234MPD1    H1 3608   2.554   3.003   9.641  1.6940 -4.0991  1.2001
  234MPD1    H2 3609   2.948   2.985   9.778 -0.8358 -1.1184  2.1922
  234MPD1    H3 3610   2.767   2.886   9.671  1.4923  0.4681 -1.3855
  234MPD1     N 3611   2.505   3.246   9.760 -0.1042 -0.6737  0.3512
  234MPD1    H5 3612   2.512   3.328   9.819 -1.7637 -1.4349  1.6030
  234MPD1    N1 3613   2.958   3.222   9.891  0.3793 -0.1556  0.9355
  234MPD1    H6 3614   2.928   3.278   9.970 -1.5445  0.3323 -0.1517
  234MPD1    H7 3615   3.037   3.169   9.928  0.3397 -0.9859 -0.1693
  235MPD1     C 3616   2.890   1.597   9.725 -0.4142  0.1150 -1.3568
  235MPD1    C1 3617   2.929   1.734   9.714  0.3282  0.1174 -0.1426
  235MPD1    C2 3618   3.066   1.760   9.730 -0.4388  0.3428 -0.3222
  235MPD1    C3 3619   3.152   1.674   9.788  0.5197  0.0539 -0.1575
  235MPD1    C4 3620   3.108   1.546   9.815 -0.2790 -0.1808  0.5727
  235MPD1    C5 3621   2.980   1.504   9.782 -0.7904 -0.4267 -0.5470
  235MPD1     H 3622   3.113   1.855   9.706  1.6015 -0.1138  1.8590
  235MPD1    H1 3623   3.179   1.473   9.851 -0.1872 -0.6540 -0.5443
  235MPD1    H2 3624   2.788   1.566   9.705 -0.8525  1.1870 -0.7494
  235MPD1    H3 3625   2.958   1.398   9.797  0.9545 -0.6197  0.6296
  235MPD1     N 3626   3.292   1.708   9.810 -0.5429 -0.7524 -0.0185
  235MPD1    H5 3627   3.319   1.805   9.794 -0.4299 -0.7341  0.2842
  235MPD1    N1 3628   2.851   1.825   9.643 -0.0690  0.0536 -0.3725
  235MPD1    H6 3629   2.754   1.795   9.647  0.6066 -1.8268  1.4370
  235MPD1    H7 3630   2.869   1.922   9.671  0.6872 -0.1741 -0.0646
  236MPD1     C 3631   2.397   1.920   9.743  0.1402  0.1757 -0.3743
  236MPD1    C1 3632   2.362   1.793   9.786 -0.0808  0.3239  0.0762
  236MPD1    C2 3633   2.453   1.734   9.874 -0.5972  0.4426  0.0134
  236MPD1    C3 3634   2.571   1.787   9.910  0.7847 -0.9322  0.0151
  236MPD1    C4 3635   2.604   1.917   9.869  0.4151  0.1808  1.4055
  236MPD1    C5 3636   2.507   1.982   9.793 -0.7630  0.6359 -0.4836
  236MPD1     H 3637   2.435   1.632   9.905  1.3521  1.0825  3.1624
  236MPD1    H1 3638   2.701   1.956   9.897  0.1434  0.0328  2.5667
  236MPD1    H2 3639   2.333   1.964   9.667  1.9241  1.6491 -1.0322
  236MPD1    H3 3640   2.543   2.074   9.749  0.0655  1.0435  1.0430
  236MPD1     N 3641   2.667   1.723   9.988 -0.1084 -0.0052 -0.5148
  236MPD1    H5 3642   2.743   1.784  10.016 -0.7547  1.3216 -1.6259
  236MPD1    N1 3643   2.230   1.742   9.767 -0.3102 -0.8005 -0.4258
  236MPD1    H6 3644   2.192   1.770   9.677 -2.2768 -0.3467  0.5399
  236MPD1    H7 3645   2.238   1.641   9.773  1.9881 -0.5629  0.5099
  237MPD1     C 3646   2.663   4.717  15.683 -0.5539  0.0779 -0.2929
  237MPD1    C1 3647   2.544   4.726  15.750 -0.8394 -0.1107  0.2616
  237MPD1    C2 3648   2.428   4.730  15.673  0.0593  0.8824  0.3718
  237MPD1    C3 3649   2.429   4.714  15.541 -0.2647  0.5670 -0.0154
  237MPD1    C4 3650   2.552   4.682  15.476  0.5120 -0.2173 -0.2867
  237MPD1    C5 3651   2.669   4.681  15.547  0.0772 -0.7093 -0.0231
  237MPD1     H 3652   2.333   0.008  15.723  0.3784  1.2055  0.8741
  237MPD1    H1 3653   2.561   4.649  15.373 -0.9852  1.6564 -1.0056
  237MPD1    H2 3654   2.761   4.719  15.730 -2.6719 -1.4456  4.1805
  237MPD1    H3 3655   2.767   4.653  15.513 -0.1390 -2.9705  1.1999
  237MPD1     N 3656   2.314   4.723  15.457 -0.2007  0.3847  0.2357
  237MPD1    H5 3657   2.330   4.702  15.359 -0.5637  0.8835  0.0707
  237MPD1    N1 3658   2.550   0.040  15.882 -0.2975 -0.0812 -0.2994
  237MPD1    H6 3659   2.640   0.015  15.922  0.6770  0.5896 -2.0615
  237MPD1    H7 3660   2.476   0.010  15.945 -0.8432  0.0766 -0.8671
  238MPD1     C 3661   0.002   4.132  15.244  0.2739  0.2392 -0.4755
  238MPD1    C1 3662   4.698   4.225  15.156 -0.4219 -0.5614  0.4803
  238MPD1    C2 3663   4.574   4.204  15.091 -0.6307 -0.1737 -0.5214
  238MPD1    C3 3664   4.522   4.077  15.092 -0.0060  0.0591  1.1518
  238MPD1    C4 3665   4.582   3.978  15.170 -0.1943  0.0814  0.1746
  238MPD1    C5 3666   4.691   4.007  15.253  0.1795 -0.1472 -0.1963
  238MPD1     H 3667   4.523   4.289  15.047 -2.9322  0.5966  3.5814
  238MPD1    H1 3668   4.534   3.880  15.172  3.8262 -1.8737  0.8541
  238MPD1    H2 3669   0.075   4.164  15.318 -1.4010 -2.6524  2.4069
  238MPD1    H3 3670   4.729   3.942  15.330  1.5106  0.1983 -0.5608
  238MPD1     N 3671   4.416   4.045  15.009  0.2109 -0.2460 -0.5096
  238MPD1    H5 3672   4.378   3.954  15.032 -1.0395  0.0162 -1.5626
  238MPD1    N1 3673   0.007   4.356  15.159  0.1064 -0.4535 -0.0384
  238MPD1    H6 3674   4.729   4.391  15.065  0.0676  0.6561  0.3801
  238MPD1    H7 3675   0.106   4.354  15.182  0.3961  0.0535 -1.2360
  239MPD1     C 3676   4.672   4.676  15.027 -0.2946  0.0101  0.6832
  239MPD1    C1 3677   4.738   0.006  14.933  0.1606 -0.5709  0.7038
  239MPD1    C2 3678   4.663   0.064  14.828 -0.2921 -0.1340 -0.0396
  239MPD1    C3 3679   4.520   0.050  14.826  0.0867 -0.3736 -0.3658
  239MPD1    C4 3680   4.457   0.007  14.941  0.4951  0.2142  0.0301
  239MPD1    C5 3681   4.534   4.688  15.040 -0.6834 -0.0626 -0.5584
  239MPD1     H 3682   4.713   0.101  14.739  0.4476 -0.9088  0.0585
  239MPD1    H1 3683   4.350   0.000  14.953  0.3214  0.9014 -1.1744
  239MPD1    H2 3684   4.732   4.628  15.104 -0.2448  1.0339  1.2793
  239MPD1    H3 3685   4.485   4.637  15.122  1.2543  1.4315  1.5300
  239MPD1     N 3686   4.464   0.104  14.711  0.4502  0.0135  0.5813
  239MPD1    H5 3687   4.517   0.128  14.628  1.7530 -0.5573  1.2415
  239MPD1    N1 3688   0.141   0.001  14.924  0.1735  0.5446 -0.0483
  239MPD1    H6 3689   0.173   0.089  14.884 -0.2718  1.0221  0.6247
  239MPD1    H7 3690   0.188   4.719  15.011  0.2403 -0.3774 -0.3149
  240MPD1     C 3691   3.753   4.439  13.475  0.6490 -0.8485  0.3178
  240MPD1    C1 3692   3.835   4.509  13.564 -0.6069 -1.1114  0.1464
  240MPD1    C2 3693   3.839   4.468  13.696  0.6314  0.5379 -0.6601
  240MPD1    C3 3694   3.761   4.360  13.742 -0.0852  0.5093  0.0220
  240MPD1    C4 3695   3.684   4.294  13.650  0.3780 -0.1924  0.7900
  240MPD1    C5 3696   3.681   4.330  13.517  0.6724  0.0792 -0.1409
  240MPD1     H 3697   3.912   4.523  13.756 -0.7394  3.8640 -2.0586
  240MPD1    H1 3698   3.615   4.214  13.677  1.3736 -0.6516  2.0068
  240MPD1    H2 3699   3.727   4.473  13.376 -0.0544 -2.4573 -0.0516
  240MPD1    H3 3700   3.615   4.281  13.446  1.6802 -2.6800  0.8298
  240MPD1     N 3701   3.769   4.339  13.886 -0.4265 -0.0263  0.1637
  240MPD1    H5 3702   3.836   4.399  13.933 -0.6413  1.4197 -1.3852
  240MPD1    N1 3703   3.916   4.613  13.513 -0.7382 -0.3852  0.8757
  240MPD1    H6 3704   3.925   4.684  13.585 -0.6843 -0.6058  1.0838
  240MPD1    H7 3705   3.863   4.664  13.443 -2.4299 -1.5571  1.3197
  241MPD1     C 3706   4.269   4.510  14.742  0.8320  0.7252 -0.5330
  241MPD1    C1 3707   4.304   4.492  14.608 -0.7354 -0.1215 -0.2740
  241MPD1    C2 3708   4.209   4.450  14.512  0.3780  0.1157  0.0165
  241MPD1    C3 3709   4.075   4.433  14.558  0.3101  0.7135 -0.6709
  241MPD1    C4 3710   4.041   4.456  14.688 -0.5069 -0.5869 -0.5700
  241MPD1    C5 3711   4.140   4.475  14.775 -0.2909 -0.6028  0.1555
  241MPD1     H 3712   4.233   4.409  14.415  2.2239  0.5096  0.3015
  241MPD1    H1 3713   3.939   4.434  14.718 -0.0428 -1.3164  0.5047
  241MPD1    H2 3714   4.342   4.527  14.820 -2.2311 -1.2893  2.7852
  241MPD1    H3 3715   4.113   4.476  14.880  2.1219  1.9342  0.7592
  241MPD1     N 3716   3.974   4.391  14.473  0.5728  0.0181  0.4856
  241MPD1    H5 3717   3.886   4.383  14.523 -0.5124  0.1213 -1.4234
  241MPD1    N1 3718   4.437   4.483  14.567 -0.4770 -0.3233 -0.1077
  241MPD1    H6 3719   4.451   4.473  14.467 -0.7258 -2.0746  0.0399
  241MPD1    H7 3720   4.502   4.552  14.605 -0.1853 -0.4658 -0.3542
  242MPD1     C 3721   3.686   1.919  15.964  0.0759  0.0771  0.4682
  242MPD1    C1 3722   3.820   1.961  15.985 -0.2210 -0.4711  0.0119
  242MPD1    C2 3723   3.840   2.075  15.918  0.1590 -0.2108 -0.3098
  242MPD1    C3 3724   3.767   2.120  15.811  0.5879 -0.3133 -0.3163
  242MPD1    C4 3725   3.654   2.055  15.776  0.1796  0.1281  0.0607
  242MPD1    C5 3726   3.611   1.960  15.857  0.8341  0.2991  0.5322
  242MPD1     H 3727   3.928   2.128  15.953 -1.6447  2.6463 -0.0406
  242MPD1    H1 3728   3.597   2.095  15.693 -2.1479 -0.7795  1.2282
  242MPD1    H2 3729   3.638   1.838  16.018 -1.1834 -0.3055 -1.2197
  242MPD1    H3 3730   3.519   1.907  15.832  1.6639 -0.0739 -1.7629
  242MPD1     N 3731   3.802   2.232  15.735 -0.2682  0.3418  0.3291
  242MPD1    H5 3732   3.755   2.240  15.645 -1.3740 -2.3605  0.6903
  242MPD1    N1 3733   3.896   1.924  16.097  0.2967 -0.3825  0.2434
  242MPD1    H6 3734   3.890   1.824  16.117  0.0493 -0.5594 -0.7297
  242MPD1    H7 3735   3.995   1.947  16.100  0.2270  0.1440 -2.1169
  243MPD1     C 3736   0.975   1.831  17.041  0.0597  0.1150 -0.4867
  243MPD1    C1 3737   0.954   1.739  16.936 -0.0281  0.4681  0.6615
  243MPD1    C2 3738   0.903   1.613  16.973  0.1776  0.3813 -0.5043
  243MPD1    C3 3739   0.903   1.572  17.106 -0.5364  0.0070  0.3899
  243MPD1    C4 3740   0.918   1.662  17.205 -0.7716  0.3335  0.6977
  243MPD1    C5 3741   0.950   1.790  17.165 -0.1965 -0.2410 -0.3349
  243MPD1     H 3742   0.880   1.549  16.888  0.2820 -1.6383  0.9718
  243MPD1    H1 3743   0.896   1.642  17.310 -1.2185  1.1815  0.7649
  243MPD1    H2 3744   1.014   1.932  17.030  1.1407 -0.2544 -0.1069
  243MPD1    H3 3745   0.934   1.865  17.242  1.2076  1.2137 -1.4849
  243MPD1     N 3746   0.873   1.438  17.122 -0.1031  0.3153  0.2148
  243MPD1    H5 3747   0.848   1.392  17.035 -0.0253 -1.2195  1.0060
  243MPD1    N1 3748   0.971   1.788  16.799  0.0832  0.0973 -0.7598
  243MPD1    H6 3749   1.032   1.869  16.799  0.5925 -0.2790 -0.3349
  243MPD1    H7 3750   1.027   1.717  16.751 -1.2739 -0.5033 -1.4374
  244MPD1     C 3751   0.862   0.575   0.044 -0.3072  0.3210  0.3994
  244MPD1    C1 3752   0.917   0.532  17.683  0.4513 -0.7671 -0.0440
  244MPD1    C2 3753   0.900   0.616  17.571  0.2772 -0.7089  0.1229
  244MPD1    C3 3754   0.843   0.740  17.583  0.1314  0.0135  1.1156
  244MPD1    C4 3755   0.793   0.783  17.703  0.1686  0.2509  0.5306
  244MPD1    C5 3756   0.800   0.701   0.058 -0.3111  0.3158  0.2271
  244MPD1     H 3757   0.923   0.570  17.475  2.0807 -1.6084  1.0085
  244MPD1    H1 3758   0.742   0.877  17.720 -2.2421 -1.2173  1.4509
  244MPD1    H2 3759   0.872   0.511   0.131  0.6611 -1.6492 -1.1585
  244MPD1    H3 3760   0.744   0.728   0.147  0.4398 -0.2796  0.8817
  244MPD1     N 3761   0.840   0.821  17.465  0.3725 -0.1119  0.1297
  244MPD1    H5 3762   0.890   0.784  17.384  1.3733 -0.5263  0.9433
  244MPD1    N1 3763   0.956   0.393  17.675  0.0586 -0.0576  0.3844
  244MPD1    H6 3764   0.988   0.371   0.013  3.5745  0.0155 -0.8066
  244MPD1    H7 3765   1.028   0.365  17.609 -1.0895 -2.2921  0.0896
  245MPD1     C 3766   2.513   1.624  13.241  0.7117 -0.2892  0.6212
  245MPD1    C1 3767   2.460   1.740  13.283 -0.4123  0.0505  0.7481
  245MPD1    C2 3768   2.534   1.812  13.378  0.4170 -0.7238  0.1912
  245MPD1    C3 3769   2.661   1.774  13.413  0.4040  0.3207  0.0729
  245MPD1    C4 3770   2.709   1.664  13.351  0.1442  0.5299  0.3864
  245MPD1    C5 3771   2.640   1.588  13.263 -0.3944 -0.3146  0.4910
  245MPD1     H 3772   2.476   1.884  13.434 -1.0454 -0.5142 -1.5938
  245MPD1    H1 3773   2.806   1.621  13.373  0.7905  2.0900  0.5510
  245MPD1    H2 3774   2.456   1.567  13.167  0.7665  1.7327 -0.9728
  245MPD1    H3 3775   2.677   1.488  13.245  0.9813  0.7203 -2.4701
  245MPD1     N 3776   2.726   1.856  13.518  0.7422 -0.1544 -0.2225
  245MPD1    H5 3777   2.674   1.939  13.547 -0.1658 -1.0118  0.6414
  245MPD1    N1 3778   2.329   1.769  13.254 -0.3556 -0.0026 -0.2091
  245MPD1    H6 3779   2.302   1.762  13.156 -0.3726 -2.3425 -0.0325
  245MPD1    H7 3780   2.305   1.858  13.298  1.2684  0.4036 -0.1497
  246MPD1     C 3781   3.813   3.361  10.435 -0.9850  0.3126 -0.5983
  246MPD1    C1 3782   3.767   3.474  10.371 -0.1925  0.4833 -0.0483
  246MPD1    C2 3783   3.672   3.451  10.275 -0.2424  0.1525 -0.2158
  246MPD1    C3 3784   3.632   3.320  10.236  0.7578  0.1194 -0.2758
  246MPD1    C4 3785   3.674   3.209  10.305  1.0512  0.3446  0.2124
  246MPD1    C5 3786   3.760   3.239  10.402 -0.1099  0.3118  0.4044
  246MPD1     H 3787   3.631   3.534  10.219 -1.5576 -1.1917 -1.2696
  246MPD1    H1 3788   3.659   3.104  10.282  1.4542  0.2536  0.3530
  246MPD1    H2 3789   3.890   3.365  10.511 -1.5210 -1.2912  0.0153
  246MPD1    H3 3790   3.810   3.152  10.444  1.4837  0.6018 -0.8980
  246MPD1     N 3791   3.558   3.312  10.118 -0.4459 -0.6874  0.3783
  246MPD1    H5 3792   3.532   3.404  10.084 -1.8328 -0.5036  1.9033
  246MPD1    N1 3793   3.835   3.594  10.379  0.3936  0.0740  0.4360
  246MPD1    H6 3794   3.774   3.669  10.347  0.5655 -0.4961 -1.2242
  246MPD1    H7 3795   3.873   3.615  10.471 -0.3170 -4.6303  1.8303
  247MPD1     C 3796   2.127   2.645  17.017  0.3068 -0.1473 -0.5208
  247MPD1    C1 3797   1.996   2.603  17.013 -0.1126 -0.0597  0.0747
  247MPD1    C2 3798   1.964   2.483  16.947 -0.1066  0.5800  0.4849
  247MPD1    C3 3799   2.057   2.417  16.864  0.4807 -0.6852  0.2422
  247MPD1    C4 3800   2.184   2.467  16.862  0.7045 -0.2873 -0.1134
  247MPD1    C5 3801   2.213   2.573  16.941  0.0250 -0.0393  0.1247
  247MPD1     H 3802   1.870   2.433  16.965 -1.7273  2.9468 -1.4305
  247MPD1    H1 3803   2.256   2.416  16.800  0.9720  0.7886 -0.6971
  247MPD1    H2 3804   2.161   2.739  17.058  1.7071 -1.0575  0.4237
  247MPD1    H3 3805   2.318   2.599  16.930  0.5993 -1.6288  1.8809
  247MPD1     N 3806   2.038   2.296  16.792  0.1524 -0.6295  0.0538
  247MPD1    H5 3807   2.120   2.274  16.737 -0.4030  0.6544 -1.3047
  247MPD1    N1 3808   1.900   2.674  17.087  1.1631  0.0170 -0.4288
  247MPD1    H6 3809   1.818   2.683  17.028  0.1673  0.7985  1.0418
  247MPD1    H7 3810   1.926   2.772  17.099  2.6333 -0.4930  0.4964
  248MPD1     C 3811   2.918   0.930  17.199 -0.7037 -0.5940  0.1486
  248MPD1    C1 3812   2.992   1.037  17.173 -0.2559 -0.4083  0.3450
  248MPD1    C2 3813   2.940   1.163  17.193 -0.2405 -0.2243  0.0102
  248MPD1    C3 3814   2.809   1.176  17.240 -0.2055 -0.2089 -0.1659
  248MPD1    C4 3815   2.738   1.060  17.271  0.2615 -0.2416 -0.5261
  248MPD1    C5 3816   2.791   0.936  17.237  0.1335  0.6832  0.1011
  248MPD1     H 3817   3.006   1.248  17.182  0.4707 -0.9966 -1.6900
  248MPD1    H1 3818   2.643   1.062  17.323  0.5737 -1.7487  0.1010
  248MPD1    H2 3819   2.957   0.829  17.186  0.6352 -0.0192 -0.3415
  248MPD1    H3 3820   2.728   0.850  17.257  1.1691 -0.4150 -1.2886
  248MPD1     N 3821   2.758   1.307  17.263 -0.4967  0.5454 -0.0558
  248MPD1    H5 3822   2.815   1.390  17.255  3.0399 -1.6059  2.9625
  248MPD1    N1 3823   3.123   1.024  17.143  0.3826 -0.6168  0.4334
  248MPD1    H6 3824   3.141   0.935  17.097 -1.3758  0.3621 -2.1371
  248MPD1    H7 3825   3.164   1.093  17.080  2.9790 -1.5234  1.1365
  249MPD1     C 3826   0.262   0.815  10.035 -0.0206 -0.7055 -0.1795
  249MPD1    C1 3827   0.177   0.839  10.141 -0.8438  0.2801  0.5006
  249MPD1    C2 3828   0.120   0.740  10.220 -0.4839 -0.0880  0.4263
  249MPD1    C3 3829   0.139   0.607  10.174  0.2163 -0.1087  0.5404
  249MPD1    C4 3830   0.215   0.587  10.061  0.0265 -0.5831 -0.2736
  249MPD1    C5 3831   0.271   0.687   9.989  0.3621  0.4730 -0.2399
  249MPD1     H 3832   0.061   0.765  10.307 -0.4294  1.0655  0.1283
  249MPD1    H1 3833   0.238   0.489  10.021  0.3331  0.7069 -3.2885
  249MPD1    H2 3834   0.308   0.891   9.973 -2.2787 -0.8834 -2.0703
  249MPD1    H3 3835   0.330   0.656   9.904 -0.4986 -0.2191 -0.5822
  249MPD1     N 3836   0.088   0.500  10.255  0.5889 -0.3597  0.5885
  249MPD1    H5 3837   0.060   0.515  10.351 -3.8680 -0.8401 -0.6419
  249MPD1    N1 3838   0.162   0.973  10.186 -0.2061 -0.4074 -0.1750
  249MPD1    H6 3839   0.159   0.987  10.287  1.6229 -2.3564  0.1601
  249MPD1    H7 3840   0.205   1.043  10.127  2.3397 -1.7735  0.0554
  250MPD2     C 3841   0.931   4.534  13.153 -0.0433 -0.3029 -0.3889
  250MPD2    C1 3842   0.870   4.629  13.074  0.6401 -0.1374 -0.2752
  250MPD2    C2 3843   0.829   4.589  12.950 -0.6025 -0.0130 -0.1432
  250MPD2    C3 3844   0.844   4.462  12.906 -0.7006  0.0055 -0.7542
  250MPD2    C4 3845   0.901   4.367  12.986  0.2303 -0.0578  0.2246
  250MPD2    C5 3846   0.950   4.414  13.105  0.3268  0.1344  0.0667
  250MPD2     H 3847   0.801   4.662  12.876  2.9388  1.5552  0.0797
  250MPD2    H1 3848   0.911   4.263  12.958  1.6403  0.4488 -1.1785
  250MPD2    H2 3849   0.984   4.561  13.243  2.5551  0.7653 -2.2098
  250MPD2    H3 3850   0.991   4.339  13.173  0.1419  0.5215  0.6050
  250MPD2     N 3851   0.805   4.418  12.774  0.4312  0.2732  0.0325
  250MPD2    H5 3852   0.828   4.324  12.743 -0.7575 -0.8396  2.6007
  250MPD2    N1 3853   0.867   0.020  13.127 -0.5168  0.2939 -0.3502
  250MPD2    H7 3854   0.917   0.040  13.213  1.2757 -1.9135 -0.8844
  251TMC3    C1 3855   0.807   0.256  13.124  0.2879  0.2672 -0.0182
  251TMC3    C2 3856   0.709   0.341  13.079 -0.7216  0.0372 -0.6007
  251TMC3    C3 3857   0.727   0.476  13.094  0.1762 -0.2235  0.0489
  251TMC3    C4 3858   0.928   0.301  13.158 -0.1112 -0.2511  0.1296
  251TMC3    C5 3859   0.948   0.436  13.165  0.0684 -0.5271 -0.4465
  251TMC3    C6 3860   0.841   0.523  13.151 -0.5302 -0.3208  0.4227
  251TMC3     C 3861   0.790   0.116  13.072 -0.0140 -0.6386 -0.3704
  251TMC3     O 3862   0.698   0.104  12.992  0.0948 -0.2902 -0.1001
  251TMC3     H 3863   0.611   0.302  13.054 -0.0555 -1.4008 -0.9549
  251TMC3    H1 3864   1.008   0.233  13.188 -1.3748 -1.1574  1.4184
  251TMC3    H2 3865   0.850   0.631  13.153 -0.4325 -0.3186 -0.2210
  251TMC3    C7 3866   1.082   0.486  13.179  0.4818  0.5203 -0.2024
  251TMC3    C8 3867   0.616   0.565  13.061 -0.8744  0.5001  0.1415
  251TMC3    O1 3868   1.171   0.402  13.166  0.1508  0.5212  0.1602
  251TMC3    O2 3869   0.626   0.688  13.068 -0.0763 -0.0398 -0.1667
  252TMC3    C1 3870   0.999   1.659   9.217 -0.2380  0.6959  0.3634
  252TMC3    C2 3871   1.115   1.699   9.281  0.2707  0.0045  0.6299
  252TMC3    C3 3872   1.148   1.632   9.396  0.2098 -0.7120  0.0345
  252TMC3    C4 3873   0.920   1.563   9.269 -0.9066 -0.3893 -0.0051
  252TMC3    C5 3874   0.959   1.492   9.379  0.0174 -0.6153  0.0230
  252TMC3    C6 3875   1.072   1.528   9.451 -0.8402 -0.2004  0.1224
  252TMC3     C 3876   0.952   1.742   9.106  0.2742  0.9853  0.1287
  252TMC3     O 3877   1.002   1.852   9.095 -0.0864 -0.0176  0.6021
  252TMC3     H 3878   1.165   1.786   9.239  2.6972 -0.1747  3.2063
  252TMC3    H1 3879   0.823   1.539   9.228 -1.6253  0.4236  1.2093
  252TMC3    H2 3880   1.116   1.456   9.519  1.6476  0.5826 -0.6763
  252TMC3    C7 3881   0.933   1.353   9.366  0.0460  0.5853  0.3570
  252TMC3    C8 3882   1.271   1.669   9.466 -0.4848 -0.9526 -0.3015
  252TMC3    O1 3883   0.869   1.320   9.266 -0.2354 -0.4981  0.5303
  252TMC3    O2 3884   1.338   1.759   9.425 -0.6361 -0.7629 -0.1134
  253MPD2     C 3885   2.303   0.346  15.141 -0.2537  0.7964  1.2091
  253MPD2    C1 3886   2.167   0.329  15.123  0.9850 -0.4235 -0.4095
  253MPD2    C2 3887   2.085   0.314  15.232 -0.5509 -0.5846 -0.2502
  253MPD2    C3 3888   2.133   0.321  15.363 -0.6675  0.4045  1.3428
  253MPD2    C4 3889   2.271   0.339  15.379 -0.5504  0.0149  0.1070
  253MPD2    C5 3890   2.353   0.354  15.269 -0.6960  0.3360  0.4068
  253MPD2     H 3891   1.982   0.292  15.205 -1.1369 -0.1153  1.5938
  253MPD2    H1 3892   2.316   0.346  15.477 -0.1453  1.9255 -0.2019
  253MPD2    H2 3893   2.360   0.362  15.050 -1.4396 -0.9937  0.1294
  253MPD2    H3 3894   2.456   0.385  15.283 -0.0089 -2.1792  0.9665
  253MPD2     N 3895   2.058   0.313  15.481  0.3492  0.2242  0.0881
  253MPD2    H5 3896   2.110   0.321  15.568  0.1134  1.1340  0.1438
  253MPD2    N1 3897   2.104   0.320  14.998  0.3502 -0.2886 -0.0775
  253MPD2    H7 3898   2.005   0.298  14.990  0.1293  1.0478 -0.9648
  254TMC3    C1 3899   1.856   0.301  15.604 -0.5486 -0.2298 -0.5858
  254TMC3    C2 3900   1.726   0.340  15.607  0.1167 -0.2848 -0.0377
  254TMC3    C3 3901   1.656   0.336  15.732 -0.0604 -0.1157  0.1834
  254TMC3    C4 3902   1.925   0.257  15.712  0.4272 -0.6465 -0.2279
  254TMC3    C5 3903   1.861   0.266  15.835  0.1459 -0.3008 -0.0277
  254TMC3    C6 3904   1.724   0.293  15.841  0.8984 -0.3113  0.3213
  254TMC3     C 3905   1.923   0.313  15.476 -0.1059 -0.0506 -0.6645
  254TMC3     O 3906   1.849   0.336  15.381 -0.0675 -0.4802  0.4048
  254TMC3     H 3907   1.688   0.390  15.519  1.1027  0.9361  0.2350
  254TMC3    H1 3908   2.017   0.200  15.702 -0.0975 -1.1281 -2.3112
  254TMC3    H2 3909   1.679   0.279  15.938  0.1605 -1.3968 -0.1777
  254TMC3    C7 3910   1.934   0.234  15.957 -0.4926 -0.1331  0.1315
  254TMC3    C8 3911   1.556   0.442  15.745  0.1410 -0.2913  0.3914
  254TMC3    O1 3912   1.870   0.193  16.052 -0.4178  0.7053 -0.5251
  254TMC3    O2 3913   1.499   0.472  15.638  0.2046 -0.1409  0.0733
  255MPD2     C 3914   4.409   3.066  10.757 -0.0094 -0.3508  0.1295
  255MPD2    C1 3915   4.529   3.089  10.694 -0.1515 -0.0867 -0.7215
  255MPD2    C2 3916   4.613   2.987  10.651 -0.3744  0.5184 -0.8249
  255MPD2    C3 3917   4.586   2.859  10.685 -0.0461 -0.9152 -0.0956
  255MPD2    C4 3918   4.459   2.828  10.727  0.7609  0.1346  0.3019
  255MPD2    C5 3919   4.369   2.931  10.761  0.6178 -0.3368  1.0269
  255MPD2     H 3920   4.710   3.001  10.604  0.3453 -1.4548  0.0659
  255MPD2    H1 3921   4.431   2.732  10.769 -1.8557  0.9979  0.5495
  255MPD2    H2 3922   4.329   3.132  10.788  1.9985  2.3378 -0.4123
  255MPD2    H3 3923   4.271   2.899  10.795  1.0222 -0.1189  2.3764
  255MPD2     N 3924   4.691   2.763  10.674 -0.3315 -0.0438 -0.4853
  255MPD2    H5 3925   0.045   2.791  10.646 -0.7120  2.1933  0.5375
  255MPD2    N1 3926   4.558   3.229  10.669  0.3757 -0.3913  0.0552
  255MPD2    H7 3927   4.485   3.299  10.681 -1.6247 -2.3743 -0.4981
  256TMC3    C1 3928   4.678   3.409  10.589  0.4565  0.1046 -0.2112
  256TMC3    C2 3929   0.042   3.486  10.633 -0.0015 -0.1363 -0.4361
  256TMC3    C3 3930   0.102   3.571  10.544  0.0937 -0.3971  0.2664
  256TMC3    C4 3931   4.630   3.423  10.462  0.9411  0.1918  0.1920
  256TMC3    C5 3932   4.694   3.507  10.378 -0.9952 -0.2546 -0.3339
  256TMC3    C6 3933   0.053   3.590  10.416  0.5094 -0.8712  0.0665
  256TMC3     C 3934   4.679   3.273  10.634  0.3027 -0.3886  0.4466
  256TMC3     O 3935   0.050   3.220  10.628  0.1032 -0.0759  0.2136
  256TMC3     H 3936   0.078   3.467  10.733 -1.7104  0.9048  0.3727
  256TMC3    H1 3937   4.571   3.343  10.419 -2.0927  2.6825 -0.3219
  256TMC3    H2 3938   0.088   3.669  10.350  1.4052  0.3084  1.9521
  256TMC3    C7 3939   4.716   3.450  10.248 -0.2071 -0.5267 -0.0120
  256TMC3    C8 3940   0.212   3.649  10.599  0.1364  0.2346  0.6383
  256TMC3    O1 3941   0.091   3.433  10.211  0.6585 -0.4046 -0.0168
  256TMC3    O2 3942   0.234   3.634  10.720 -0.5897 -0.1839 -0.2301
  257MPD2     C 3943   3.732   0.445  13.342  0.2904 -0.0689 -0.7113
  257MPD2    C1 3944   3.849   0.492  13.312  0.4172 -1.5121 -0.5168
  257MPD2    C2 3945   3.958   0.447  13.374  0.5886 -0.1874 -0.4295
  257MPD2    C3 3946   3.948   0.347  13.466  0.7485  0.2278 -0.4364
  257MPD2    C4 3947   3.825   0.315  13.511  0.2154  0.2967  0.1721
  257MPD2    C5 3948   3.717   0.356  13.444 -0.0365 -0.0099  0.0142
  257MPD2     H 3949   4.057   0.485  13.350 -0.0270  1.6550 -0.0641
  257MPD2    H1 3950   3.806   0.242  13.589 -0.0034  0.8173  0.5984
  257MPD2    H2 3951   3.646   0.471  13.281 -0.1776  0.6857  0.2669
  257MPD2    H3 3952   3.625   0.310  13.478  1.1323 -1.2683  1.4219
  257MPD2     N 3953   4.065   0.279  13.511  0.4551 -0.0354 -0.1348
  257MPD2    H5 3954   4.155   0.303  13.470  1.0562 -1.0642  0.5586
  257MPD2    N1 3955   3.847   0.590  13.218  0.2671  0.5943 -0.2922
  257MPD2    H7 3956   3.758   0.607  13.173 -0.2723 -0.2803  0.4582
  258TMC3    C1 3957   4.186   0.104  13.624  0.0856 -0.0427 -0.0681
  258TMC3    C2 3958   4.287   0.114  13.533 -0.3523 -0.2230  0.1885
  258TMC3    C3 3959   4.388   0.023  13.547 -0.1555  0.6127 -0.1626
  258TMC3    C4 3960   4.191   0.011  13.726  0.1014  0.0392 -0.1051
  258TMC3    C5 3961   4.304   4.674  13.743 -0.2119 -0.1211  0.2311
  258TMC3    C6 3962   4.411   4.684  13.663  0.1255  0.6969 -0.4064
  258TMC3     C 3963   4.062   0.173  13.603 -0.2451  0.9562  0.6236
  258TMC3     O 3964   3.965   0.120  13.664  0.2766 -0.1902 -0.4184
  258TMC3     H 3965   4.273   0.176  13.445 -1.6449  1.0045  1.2379
  258TMC3    H1 3966   4.118   0.013  13.806 -0.6367 -1.0476 -0.7447
  258TMC3    H2 3967   4.503   4.627  13.657 -0.1168  0.1915  0.6719
  258TMC3    C7 3968   4.313   4.600  13.867  0.1618  0.3874 -0.3232
  258TMC3    C8 3969   4.493   0.022  13.454  0.1282 -0.3737  0.0124
  258TMC3    O1 3970   4.208   4.570  13.920 -0.2353  0.4965  0.2687
  258TMC3    O2 3971   4.548   4.656  13.434  0.2476 -0.9579  0.8082
  259MPD2     C 3972   3.187   2.481   0.680  0.1155  0.1491 -0.4459
  259MPD2    C1 3973   3.209   2.347   0.692  0.7462  0.5372 -0.3717
  259MPD2    C2 3974   3.233   2.278   0.574  0.8748  0.1690 -1.2381
  259MPD2    C3 3975   3.229   2.327   0.447 -0.2459  0.2010  0.2513
  259MPD2    C4 3976   3.206   2.467   0.441  0.7154  0.0185  0.0209
  259MPD2    C5 3977   3.181   2.538   0.556 -0.2014  0.1477  0.3222
  259MPD2     H 3978   3.262   2.173   0.571  0.4350  0.0439 -1.1590
  259MPD2    H1 3979   3.194   2.514   0.344  0.3964 -2.9712 -1.4241
  259MPD2    H2 3980   3.170   2.542   0.768  1.4232 -0.2980  0.1050
  259MPD2    H3 3981   3.170   2.645   0.550 -0.8964 -0.0287 -1.5047
  259MPD2     N 3982   3.261   2.235   0.342  0.0882 -0.2566  0.0556
  259MPD2    H5 3983   3.254   2.135   0.357  0.1437 -0.2940 -0.1578
  259MPD2    N1 3984   3.228   2.291   0.824  0.2091 -0.2870 -0.0244
  259MPD2    H7 3985   3.241   2.353   0.903  1.3755 -0.6636  0.0814
  260TMC3    C1 3986   3.324   2.168   0.135 -0.4659  0.6502 -0.3002
  260TMC3    C2 3987   3.443   2.192   0.066  0.3641 -0.6635 -0.3060
  260TMC3    C3 3988   3.507   2.083   0.016 -0.3418 -1.0984  0.7682
  260TMC3    C4 3989   3.266   2.043   0.144 -0.0458  0.2855  0.5148
  260TMC3    C5 3990   3.334   1.939   0.072 -1.0219  0.1658 -0.0594
  260TMC3    C6 3991   3.454   1.957   0.014  0.4031  0.5140 -0.0706
  260TMC3     C 3992   3.272   2.276   0.212 -0.0024 -0.2266  0.4804
  260TMC3     O 3993   3.283   2.388   0.163  0.2114 -0.1963 -0.1027
  260TMC3     H 3994   3.482   2.293   0.069  1.4466 -1.0964  0.2346
  260TMC3    H1 3995   3.169   2.043   0.193 -0.8299  0.2266 -1.0577
  260TMC3    H2 3996   3.501   1.884  17.704 -1.8568 -0.7600 -0.2788
  260TMC3    C7 3997   3.291   1.806   0.093 -0.7430 -0.0979 -0.4466
  260TMC3    C8 3998   3.652   2.091  17.747  0.7790  0.4119 -0.0197
  260TMC3    O1 3999   3.359   1.722   0.035  0.0592  0.8136  0.2145
  260TMC3    O2 4000   3.692   2.207  17.740  0.4736 -0.1287  0.3330
  261MPD2     C 4001   0.172   4.566  12.240 -0.3570 -0.5642 -0.5270
  261MPD2    C1 4002   0.286   4.641  12.248  0.5877 -0.0489  0.7821
  261MPD2    C2 4003   0.288   0.042  12.216  0.8919 -0.0205  0.6336
  261MPD2    C3 4004   0.173   0.109  12.195  0.3914 -0.0768 -0.7865
  261MPD2    C4 4005   0.052   0.033  12.201  0.2952 -0.3518 -0.8534
  261MPD2    C5 4006   0.055   4.639  12.221  0.2769 -0.1112 -0.1346
  261MPD2     H 4007   0.382   0.095  12.219 -0.2920  2.0304  1.1156
  261MPD2    H1 4008   4.694   0.080  12.191  0.2431 -0.2520  0.2080
  261MPD2    H2 4009   0.157   4.460  12.254  0.0617 -0.6806 -0.9616
  261MPD2    H3 4010   4.700   4.587  12.234  0.8471 -1.4017 -1.0922
  261MPD2     N 4011   0.175   0.251  12.183 -0.2864 -0.2215 -0.0757
  261MPD2    H5 4012   0.266   0.295  12.173 -0.1229  0.3447  3.7590
  261MPD2    N1 4013   0.407   4.582  12.297  0.6476 -0.0279 -0.9268
  261MPD2    H7 4014   0.479   4.652  12.313  0.1454 -0.0025  1.1993
  262TMC3    C1 4015   0.122   0.471  12.135  0.6611 -1.1240 -0.1458
  262TMC3    C2 4016   0.027   0.562  12.111  0.0388  0.7530  0.5138
  262TMC3    C3 4017   0.060   0.695  12.111 -0.9017 -0.2749 -0.7785
  262TMC3    C4 4018   0.251   0.505  12.161  0.4050  0.4646 -0.2674
  262TMC3    C5 4019   0.280   0.638  12.150  0.5865 -0.3184  0.5340
  262TMC3    C6 4020   0.189   0.734  12.128 -0.7803 -0.1769  0.2295
  262TMC3     C 4021   0.072   0.336  12.172  0.2302 -0.2695  0.2089
  262TMC3     O 4022   4.692   0.317  12.158  0.0169  0.1755  0.2250
  262TMC3     H 4023   4.661   0.538  12.108  0.5563 -1.3407 -0.3921
  262TMC3    H1 4024   0.330   0.435  12.184 -0.1658 -0.2065 -0.3356
  262TMC3    H2 4025   0.216   0.839  12.118 -2.2685  0.0992 -1.0531
  262TMC3    C7 4026   0.416   0.678  12.125 -0.5944 -0.0619 -0.8161
  262TMC3    C8 4027   4.705   0.804  12.100  0.6361  0.4335 -0.2965
  262TMC3    O1 4028   0.509   0.643  12.198 -0.2372  0.3312 -0.4879
  262TMC3    O2 4029   0.009   0.906  12.146 -0.4508  0.1839 -0.4754
  263MPD2     C 4030   1.023   4.064  11.355 -0.3405 -0.1889 -0.5485
  263MPD2    C1 4031   1.156   4.075  11.305  0.1503 -0.4006 -0.0581
  263MPD2    C2 4032   1.182   4.173  11.215 -0.3234  0.6384 -0.8058
  263MPD2    C3 4033   1.085   4.249  11.156 -0.5553 -0.5203  0.7805
  263MPD2    C4 4034   0.953   4.234  11.197  0.1356 -0.2775  0.4825
  263MPD2    C5 4035   0.927   4.140  11.296 -0.2732  0.1167  0.1167
  263MPD2     H 4036   1.287   4.190  11.192 -0.4532  2.4581 -0.0679
  263MPD2    H1 4037   0.872   4.292  11.154  0.7303  0.5898  0.5342
  263MPD2    H2 4038   0.993   4.006  11.441 -1.3776  0.9263 -0.1579
  263MPD2    H3 4039   0.823   4.126  11.322 -0.8120  1.7844 -1.0956
  263MPD2     N 4040   1.135   4.356  11.075 -0.9248  0.3625 -0.0480
  263MPD2    H5 4041   1.235   4.360  11.064 -1.2007  0.9615 -2.3439
  263MPD2    N1 4042   1.253   3.994  11.358 -0.3388 -0.3980  0.4940
  263MPD2    H7 4043   1.223   3.934  11.434  0.0104 -0.4042  0.6286
  264TMC3    C1 4044   1.128   4.574  10.983  0.1520  0.1738  0.3951
  264TMC3    C2 4045   1.082   4.694  11.018  0.5027 -0.5956  0.5658
  264TMC3    C3 4046   1.134   0.059  10.942 -0.4702  0.1565  0.2263
  264TMC3    C4 4047   1.229   4.555  10.896  0.0835  0.3853  0.1778
  264TMC3    C5 4048   1.276   4.661  10.828  0.2306  0.1141 -0.1559
  264TMC3    C6 4049   1.228   0.043  10.843  0.0569  0.4557 -0.8050
  264TMC3     C 4050   1.055   4.456  11.026 -0.0269 -0.2379 -0.0061
  264TMC3     O 4051   0.933   4.468  11.034  0.0841  0.0483  0.0443
  264TMC3     H 4052   0.992   4.711  11.076  0.8165 -1.1491  1.2233
  264TMC3    H1 4053   1.255   4.456  10.858  0.1530  0.1820  0.7572
  264TMC3    H2 4054   1.258   0.122  10.775 -0.7952 -0.0258 -1.7467
  264TMC3    C7 4055   1.418   4.667  10.825 -0.3866  0.3450  0.0734
  264TMC3    C8 4056   1.149   0.191  11.002 -0.3454 -0.0150  0.4719
  264TMC3    O1 4057   1.480   4.568  10.792 -0.2727 -0.3225 -0.3342
  264TMC3    O2 4058   1.212   0.261  10.927 -0.5198 -0.3501  0.3770
  265MPD2     C 4059   3.255   4.665  15.821  0.4022 -0.1121 -0.9624
  265MPD2    C1 4060   3.286   0.031  15.737  0.3695  0.1154 -0.3595
  265MPD2    C2 4061   3.344   4.737  15.613 -0.8654 -0.2200 -0.0811
  265MPD2    C3 4062   3.387   4.608  15.579  0.4078 -0.2024  0.0942
  265MPD2    C4 4063   3.361   4.513  15.670  0.8069  0.1009 -0.1348
  265MPD2    C5 4064   3.285   4.540  15.780 -0.6177 -0.0827  0.5533
  265MPD2     H 4065   3.358   0.079  15.542 -0.9502 -0.1147  0.0256
  265MPD2    H1 4066   3.369   4.410  15.638  0.1273 -0.1624  0.5562
  265MPD2    H2 4067   3.197   4.678  15.912  2.6380  1.6275  0.1972
  265MPD2    H3 4068   3.243   4.466  15.847 -1.6671 -1.1157 -1.2699
  265MPD2     N 4069   3.440   4.560  15.458  0.6922  0.0944 -0.5952
  265MPD2    H5 4070   3.460   4.460  15.465  0.3600  0.0792  0.1051
  265MPD2    N1 4071   3.249   0.170  15.766  0.1800  0.0989 -0.2755
  265MPD2    H7 4072   3.262   0.248  15.702 -3.0873 -1.9900 -3.5251
  266TMC3    C1 4073   3.178   0.357  15.879  0.2011  0.0823  0.5666
  266TMC3    C2 4074   3.206   0.416  15.995  0.0914  0.5628  0.8865
  266TMC3    C3 4075   3.176   0.552  16.006  0.1241  0.3048 -0.3268
  266TMC3    C4 4076   3.122   0.421  15.768  0.4049  0.1562 -0.2618
  266TMC3    C5 4077   3.101   0.555  15.785 -0.0252 -0.9553  0.0222
  266TMC3    C6 4078   3.127   0.620  15.903 -0.4096 -0.5777  0.7093
  266TMC3     C 4079   3.190   0.215  15.882 -0.9527  0.1955 -0.8790
  266TMC3     O 4080   3.173   0.155  15.988  0.0539 -0.0610  0.6730
  266TMC3     H 4081   3.266   0.372  16.074 -1.5966 -0.4013  1.6377
  266TMC3    H1 4082   3.087   0.363  15.683  2.1909 -0.4024 -0.6247
  266TMC3    H2 4083   3.098   0.723  15.921 -2.7538 -1.1729  0.3177
  266TMC3    C7 4084   3.000   0.623  15.699  0.4094 -0.5524 -0.5118
  266TMC3    C8 4085   3.265   0.617  16.097 -0.5782  0.5981  0.4494
  266TMC3    O1 4086   2.934   0.554  15.624 -0.1849 -0.0639 -0.4372
  266TMC3    O2 4087   3.376   0.563  16.117 -0.8872  0.0760 -0.2778
  267MPD2     C 4088   0.398   2.602   0.511 -0.4567  0.0374 -0.0589
  267MPD2    C1 4089   0.444   2.482   0.470 -0.2883 -0.0096 -0.7208
  267MPD2    C2 4090   0.380   2.419   0.360 -0.0511 -0.2588  0.4349
  267MPD2    C3 4091   0.268   2.481   0.306 -0.0235  0.4026  0.4633
  267MPD2    C4 4092   0.240   2.608   0.342 -0.5594 -0.7451  0.3149
  267MPD2    C5 4093   0.298   2.668   0.445  0.8258 -0.1722  0.0485
  267MPD2     H 4094   0.431   2.334   0.315 -0.6911 -0.1748 -0.4578
  267MPD2    H1 4095   0.170   2.669   0.287 -0.3149 -0.6350  0.1269
  267MPD2    H2 4096   0.457   2.658   0.583 -1.1448  1.6106 -0.7231
  267MPD2    H3 4097   0.278   2.773   0.465 -2.5964 -0.7248 -0.4916
  267MPD2     N 4098   0.201   2.439   0.187  0.2067  0.7499  0.6945
  267MPD2    H5 4099   0.128   2.500   0.150 -1.2386 -1.9533 -0.9052
  267MPD2    N1 4100   0.567   2.433   0.520 -0.0919 -0.0467 -0.0135
  267MPD2    H7 4101   0.618   2.489   0.587 -1.9986  0.6223  0.8491
  268TMC3    C1 4102   0.751   2.298   0.525  0.1109 -0.1589 -0.7329
  268TMC3    C2 4103   0.843   2.394   0.492 -0.0925 -0.1882  0.0999
  268TMC3    C3 4104   0.977   2.363   0.509  0.3179  0.0116  0.0806
  268TMC3    C4 4105   0.790   2.169   0.565 -0.3698 -0.0295 -0.0318
  268TMC3    C5 4106   0.922   2.149   0.590  0.2131 -0.0556  0.6625
  268TMC3    C6 4107   1.022   2.245   0.567  0.0667  0.3713 -0.3104
  268TMC3     C 4108   0.619   2.312   0.479 -0.2961  0.6170 -0.4574
  268TMC3     O 4109   0.563   2.205   0.458 -0.0268 -0.4303  0.2977
  268TMC3     H 4110   0.814   2.490   0.451  0.1209  0.1760  0.8021
  268TMC3    H1 4111   0.714   2.098   0.598  2.2865 -3.3561 -1.0502
  268TMC3    H2 4112   1.125   2.228   0.596 -0.3746 -3.8655 -1.3360
  268TMC3    C7 4113   0.973   2.023   0.648  0.4316  0.3688 -0.0932
  268TMC3    C8 4114   1.068   2.433   0.422  0.1590 -0.4049  0.7337
  268TMC3    O1 4115   1.085   1.984   0.611  0.1830 -0.1279 -0.2734
  268TMC3    O2 4116   1.184   2.408   0.446  0.6526 -0.2591  0.0094
  269MPD2     C 4117   1.198   0.781  15.472 -0.1570  0.0226 -0.0725
  269MPD2    C1 4118   1.066   0.827  15.482 -0.5551  0.8396  0.3975
  269MPD2    C2 4119   1.042   0.940  15.412 -0.2739 -0.0874 -0.5844
  269MPD2    C3 4120   1.128   1.003  15.324 -0.3179 -0.0971  0.0030
  269MPD2    C4 4121   1.256   0.950  15.315 -0.2925 -0.5939  0.5018
  269MPD2    C5 4122   1.290   0.843  15.385 -0.5953 -0.6539  0.0170
  269MPD2     H 4123   0.948   0.989  15.433 -2.0352 -3.3419 -0.8544
  269MPD2    H1 4124   1.327   1.012  15.261 -0.6888 -0.1990  0.4333
  269MPD2    H2 4125   1.239   0.694  15.522 -1.5645 -0.5053  0.1667
  269MPD2    H3 4126   1.391   0.804  15.384 -0.1872  0.3640  1.5398
  269MPD2     N 4127   1.077   1.124  15.273  0.1055  0.0619  0.3820
  269MPD2    H5 4128   0.979   1.149  15.283 -0.2480 -2.5089  3.3682
  269MPD2    N1 4129   0.976   0.763  15.563  0.8383  0.1178 -0.3390
  269MPD2    H7 4130   1.018   0.696  15.627  0.8687 -0.5055 -1.0184
  270TMC3    C1 4131   0.783   0.753  15.691 -0.5761 -0.1483 -0.3420
  270TMC3    C2 4132   0.655   0.706  15.674 -0.3790 -0.0806 -0.1811
  270TMC3    C3 4133   0.622   0.600  15.758 -0.5049  0.2342 -0.7190
  270TMC3    C4 4134   0.869   0.709  15.783  0.4583  0.4415 -1.1436
  270TMC3    C5 4135   0.828   0.612  15.869 -0.4400 -0.0595  0.3221
  270TMC3    C6 4136   0.709   0.557  15.853  0.1167 -0.1163  0.4228
  270TMC3     C 4137   0.844   0.797  15.567  0.7271 -0.9178 -0.1527
  270TMC3     O 4138   0.776   0.847  15.475  0.6153 -0.9500 -0.3088
  270TMC3     H 4139   0.582   0.731  15.599  1.9420  0.3939 -2.2803
  270TMC3    H1 4140   0.963   0.758  15.800 -1.0049  2.6894  0.3838
  270TMC3    H2 4141   0.675   0.472  15.911 -1.7444 -0.1440 -0.6931
  270TMC3    C7 4142   0.923   0.557  15.966  0.5756  0.2039  0.2985
  270TMC3    C8 4143   0.554   0.502  15.674  0.1408  0.1078  0.4940
  270TMC3    O1 4144   0.977   0.449  15.939 -0.0240 -0.2434  0.0248
  270TMC3    O2 4145   0.447   0.530  15.627  0.0374 -0.4557  0.0283
  271MPD2     C 4146   0.210   0.372  13.961 -0.0203 -0.3840 -0.4339
  271MPD2    C1 4147   0.158   0.329  14.082  0.2672  0.6909 -0.0624
  271MPD2    C2 4148   0.031   0.369  14.126  0.6897 -0.2255 -0.1723
  271MPD2    C3 4149   4.706   0.463  14.056 -0.2469  0.2507 -0.7627
  271MPD2    C4 4150   0.012   0.501  13.935 -0.6366 -0.5518 -0.7803
  271MPD2    C5 4151   0.134   0.461  13.886 -0.1731  0.2746  0.0656
  271MPD2     H 4152   4.736   0.354  14.228 -1.4015  0.6970 -0.7590
  271MPD2    H1 4153   4.708   0.578  13.873  1.0979  1.9449  1.0864
  271MPD2    H2 4154   0.304   0.342  13.916  0.4049 -1.4246  1.1141
  271MPD2    H3 4155   0.169   0.495  13.789 -2.8938  2.6500 -0.0840
  271MPD2     N 4156   4.583   0.531  14.091  0.1312  0.2580  0.3533
  271MPD2    H5 4157   4.539   0.569  14.008  0.8726  2.0129  0.7722
  271MPD2    N1 4158   0.233   0.241  14.160 -0.2285 -0.1476 -0.0396
  271MPD2    H7 4159   0.191   0.198  14.242  0.0852 -0.7203 -0.1755
  272TMC3    C1 4160   0.421   0.172  14.287  0.5341 -0.3453 -0.7278
  272TMC3    C2 4161   0.553   0.129  14.285 -0.4628  0.4255  0.2030
  272TMC3    C3 4162   0.610   0.098  14.401 -0.1848 -0.5456 -0.3675
  272TMC3    C4 4163   0.356   0.186  14.402 -0.1513 -0.1761  0.6579
  272TMC3    C5 4164   0.418   0.155  14.517  0.9706  0.1100  0.2683
  272TMC3    C6 4165   0.543   0.107  14.522  0.2091  0.3712  0.2600
  272TMC3     C 4166   0.370   0.225  14.158 -0.2787 -0.3342 -0.2355
  272TMC3     O 4167   0.448   0.255  14.071  0.2440  0.5589  0.4724
  272TMC3     H 4168   0.606   0.123  14.191 -1.2608  0.6771 -0.2616
  272TMC3    H1 4169   0.251   0.214  14.412 -0.0818  0.1894  0.3733
  272TMC3    H2 4170   0.597   0.094  14.615 -1.0540 -0.1064  0.9231
  272TMC3    C7 4171   0.342   0.197  14.636 -0.2942  0.1764  0.0618
  272TMC3    C8 4172   0.750   0.031  14.393 -0.5961 -0.6674 -0.3475
  272TMC3    O1 4173   0.222   0.205  14.626  0.0819 -0.3945  0.1804
  272TMC3    O2 4174   0.787   4.727  14.287  0.4200 -0.3889 -0.1056
  273MPD2     C 4175   1.838   3.074  11.948 -0.2763 -0.8217  0.0343
  273MPD2    C1 4176   1.932   3.164  11.909 -0.7395  0.0873 -0.3784
  273MPD2    C2 4177   1.925   3.216  11.784  0.2656 -0.0592  0.9643
  273MPD2    C3 4178   1.829   3.180  11.693 -0.3297  1.2279 -0.0236
  273MPD2    C4 4179   1.729   3.098  11.740  0.3173 -0.2970 -0.5308
  273MPD2    C5 4180   1.726   3.050  11.867  0.2727  0.9668  0.1082
  273MPD2     H 4181   1.987   3.300  11.752 -0.9556  0.2516 -0.6067
  273MPD2    H1 4182   1.662   3.059  11.665 -1.1302 -0.8888  1.0800
  273MPD2    H2 4183   1.848   3.022  12.043  2.7959 -0.4713 -0.0887
  273MPD2    H3 4184   1.660   2.969  11.893  2.0009 -0.4410  0.0981
  273MPD2     N 4185   1.814   3.215  11.559 -0.7401 -0.5084 -0.3463
  273MPD2    H5 4186   1.733   3.174  11.515 -1.0673  0.0355 -0.2425
  273MPD2    N1 4187   2.046   3.192  11.990  0.1768 -0.0792  0.1587
  273MPD2    H7 4188   2.123   3.245  11.951 -0.1958  0.9624  0.8270
  274TMC3    C1 4189   1.893   3.289  11.350 -0.8738  0.3442  0.3805
  274TMC3    C2 4190   1.768   3.290  11.286  0.2847  0.8744  0.3967
  274TMC3    C3 4191   1.764   3.300  11.144 -0.1097 -0.1763 -0.1144
  274TMC3    C4 4192   2.007   3.322  11.279 -0.4328 -0.0415 -0.0827
  274TMC3    C5 4193   1.996   3.357  11.145 -0.2764  0.6449 -0.9182
  274TMC3    C6 4194   1.882   3.331  11.074  0.2165  0.9081 -0.4870
  274TMC3     C 4195   1.909   3.295  11.494 -0.2173  0.4630 -0.0974
  274TMC3     O 4196   2.011   3.348  11.533  0.0954  0.3897 -0.1141
  274TMC3     H 4197   1.679   3.285  11.348 -2.6450 -1.3772 -4.0005
  274TMC3    H1 4198   2.100   3.331  11.333 -0.2203 -0.7504 -0.3424
  274TMC3    H2 4199   1.889   3.343  10.967 -0.2943 -1.1122 -0.7492
  274TMC3    C7 4200   2.101   3.437  11.082  0.0382 -0.2980  0.6710
  274TMC3    C8 4201   1.636   3.293  11.087 -0.0013 -0.0562 -0.0682
  274TMC3    O1 4202   2.125   3.411  10.966 -0.6256 -0.0342  0.2623
  274TMC3    O2 4203   1.546   3.232  11.145  0.2035  0.0097  1.0908
  275MPD2     C 4204   1.724   1.520  15.096 -0.0685 -0.4530  0.3969
  275MPD2    C1 4205   1.799   1.406  15.085  0.7305  0.5274  0.0544
  275MPD2    C2 4206   1.751   1.300  15.017  0.3739 -0.3009 -0.0595
  275MPD2    C3 4207   1.627   1.300  14.951 -0.2872  0.0304  0.8914
  275MPD2    C4 4208   1.553   1.416  14.960 -0.2781  0.4362 -0.0519
  275MPD2    C5 4209   1.605   1.523  15.020  0.7650  0.7635  0.4363
  275MPD2     H 4210   1.810   1.211  14.997  0.7518  0.0731 -0.6144
  275MPD2    H1 4211   1.459   1.434  14.908  0.2258  1.2516 -0.6842
  275MPD2    H2 4212   1.760   1.613  15.138 -0.0428 -1.1848  1.9732
  275MPD2    H3 4213   1.544   1.613  15.021 -0.0459  0.1984  0.9562
  275MPD2     N 4214   1.573   1.195  14.871 -0.0005  0.1956 -0.0675
  275MPD2    H5 4215   1.488   1.219  14.823 -0.3179  1.1761  0.9761
  275MPD2    N1 4216   1.934   1.389  15.131  0.2680  0.3019 -0.5495
  275MPD2    H7 4217   1.969   1.294  15.128 -2.4284 -0.6774 -1.5318
  276TMC3    C1 4218   2.141   1.449  15.240 -0.2147  0.4889 -0.6849
  276TMC3    C2 4219   2.179   1.318  15.226  0.5603 -0.2423  0.4575
  276TMC3    C3 4220   2.309   1.291  15.263 -0.7433  0.3511 -0.1557
  276TMC3    C4 4221   2.220   1.543  15.307 -0.7045  0.3240 -0.1173
  276TMC3    C5 4222   2.343   1.502  15.345  0.1756 -0.4858 -0.0821
  276TMC3    C6 4223   2.390   1.379  15.324 -0.9556  0.6855 -0.3901
  276TMC3     C 4224   2.013   1.497  15.187 -0.1207  0.1555  0.5883
  276TMC3     O 4225   1.995   1.623  15.185  0.2429 -0.6494 -0.1098
  276TMC3     H 4226   2.127   1.235  15.180  0.0224  1.3240 -1.7157
  276TMC3    H1 4227   2.179   1.641  15.327 -0.9487  0.0885  0.5261
  276TMC3    H2 4228   2.493   1.361  15.355 -0.4113  0.7672 -2.1644
  276TMC3    C7 4229   2.415   1.606  15.410  0.7740  0.6827 -0.1765
  276TMC3    C8 4230   2.384   1.166  15.222  0.5556  0.1898  0.2772
  276TMC3    O1 4231   2.352   1.673  15.492 -0.0502 -0.1086 -0.4499
  276TMC3    O2 4232   2.488   1.150  15.282 -0.1650 -0.8770 -0.2776
  277MPD2     C 4233   3.120   0.310  13.197  0.4874  0.1901 -0.4167
  277MPD2    C1 4234   3.060   0.374  13.301 -0.3776  1.2609 -0.1138
  277MPD2    C2 4235   3.008   0.296  13.404  0.7773  0.0938 -0.9311
  277MPD2    C3 4236   3.013   0.158  13.397  0.5935  0.0682  0.4537
  277MPD2    C4 4237   3.080   0.095  13.296 -0.8022  0.0207  0.3726
  277MPD2    C5 4238   3.131   0.174  13.193 -0.0625 -0.1727 -0.7416
  277MPD2     H 4239   2.944   0.331  13.484  0.6436  1.7146 -1.7433
  277MPD2    H1 4240   3.095   4.727  13.303  1.6208  0.3113 -0.0954
  277MPD2    H2 4241   3.175   0.362  13.119 -1.6174  4.0057  0.6328
  277MPD2    H3 4242   3.190   0.127  13.116  0.2538 -1.5880  0.3558
  277MPD2     N 4243   2.949   0.091  13.503 -0.6293 -0.2009  0.0290
  277MPD2    H5 4244   2.911   0.152  13.575  0.0888 -1.8521  1.8441
  277MPD2    N1 4245   3.064   0.516  13.291  0.3336 -0.0808  0.1555
  277MPD2    H7 4246   3.109   0.566  13.215  0.2732  1.5690  1.1976
  278TMC3    C1 4247   2.829   4.663  13.629  0.7188 -0.1043 -0.3840
  278TMC3    C2 4248   2.881   4.705  13.749 -0.1630 -0.2411  0.5491
  278TMC3    C3 4249   2.832   4.647  13.865  0.6501 -0.1554 -0.4597
  278TMC3    C4 4250   2.742   4.558  13.623  0.1692  0.3699 -0.0802
  278TMC3    C5 4251   2.686   4.512  13.742  0.6820  0.2532  0.0848
  278TMC3    C6 4252   2.732   4.558  13.863 -0.9227 -0.2482  0.5930
  278TMC3     C 4253   2.920   4.691  13.516  0.2054  0.2414  0.0197
  278TMC3     O 4254   2.943   4.608  13.428  0.3589  0.2748  0.8128
  278TMC3     H 4255   2.947   0.051  13.747  0.8764 -1.1075 -1.7435
  278TMC3    H1 4256   2.714   4.513  13.529  0.2109  1.9277 -0.8373
  278TMC3    H2 4257   2.685   4.528  13.956 -2.5090 -3.2461 -1.1932
  278TMC3    C7 4258   2.549   4.455  13.724  0.3049 -0.0657  0.0815
  278TMC3    C8 4259   2.944   4.609  13.944 -0.1424  0.2538 -0.8515
  278TMC3    O1 4260   2.532   4.390  13.620  0.6441 -0.6418 -0.6468
  278TMC3    O2 4261   3.048   4.675  13.938  0.2375  0.4209  0.5259
  279MPD2     C 4262   2.684   4.259   0.162 -0.0958 -0.6937 -0.0303
  279MPD2    C1 4263   2.565   4.322   0.197 -0.3309 -0.9346  0.1280
  279MPD2    C2 4264   2.552   4.452   0.155 -0.3093  0.5771 -0.4658
  279MPD2    C3 4265   2.631   4.504   0.057 -0.2880  0.0903 -0.4145
  279MPD2    C4 4266   2.742   4.432   0.016 -0.2433  0.8217 -0.3919
  279MPD2    C5 4267   2.769   4.313   0.065 -0.9955  0.0088  0.2309
  279MPD2     H 4268   2.482   4.520   0.201  0.9175  1.7753 -0.3504
  279MPD2    H1 4269   2.805   4.467  17.691  0.2500 -0.6072 -0.6327
  279MPD2    H2 4270   2.712   4.162   0.200  2.9407 -1.3119 -3.8432
  279MPD2    H3 4271   2.865   4.274   0.036 -0.9117  3.1738 -3.7154
  279MPD2     N 4272   2.609   4.631   0.001 -0.7865  0.6601 -0.3438
  279MPD2    H5 4273   2.661   4.657  17.673 -2.0211  0.2273 -1.2453
  279MPD2    N1 4274   2.481   4.253   0.287  0.0483  0.2169 -0.0671
  279MPD2    H7 4275   2.521   4.172   0.332  0.4141  0.7556  0.5778
  280TMC3    C1 4276   2.270   4.368   0.248 -0.4109 -0.1631 -0.1888
  280TMC3    C2 4277   2.265   4.340   0.115  0.5082 -0.0523 -0.1343
  280TMC3    C3 4278   2.195   4.428   0.040  0.0114 -0.6802 -0.2016
  280TMC3    C4 4279   2.220   4.481   0.307  0.0267  0.3805  0.6969
  280TMC3    C5 4280   2.160   4.573   0.226  0.6106  0.9412  1.2198
  280TMC3    C6 4281   2.148   4.548   0.095  0.7175  0.4615 -0.7490
  280TMC3     C 4282   2.351   4.286   0.331 -0.2727  0.2841  0.2422
  280TMC3     O 4283   2.303   4.247   0.435  0.0274  0.2509  0.4247
  280TMC3     H 4284   2.311   4.256   0.064  1.5081  0.4704 -0.0995
  280TMC3    H1 4285   2.244   4.507   0.410  0.1366 -1.3196  1.1075
  280TMC3    H2 4286   2.104   4.617   0.024  0.4433  1.7496  0.6657
  280TMC3    C7 4287   2.124   4.710   0.278 -0.4609  0.1043  0.4727
  280TMC3    C8 4288   2.259   4.450  17.669 -0.4534 -0.8464 -0.0748
  280TMC3    O1 4289   2.143   4.739   0.393  0.3188 -0.1896  0.0260
  280TMC3    O2 4290   2.295   4.567  17.646  0.0727 -0.1669  0.1230
  281TMC3    C1 4291   1.426   0.352  13.441  0.0283  0.3452  0.3944
  281TMC3    C2 4292   1.474   0.466  13.393 -0.7563  0.4332 -0.4763
  281TMC3    C3 4293   1.563   0.457  13.288 -0.5807 -0.0060 -0.1091
  281TMC3    C4 4294   1.464   0.230  13.393  0.5247 -0.3656 -0.5453
  281TMC3    C5 4295   1.550   0.223  13.287 -0.2254 -0.4537  0.1478
  281TMC3    C6 4296   1.608   0.336  13.240  0.1422  0.3236  0.1887
  281TMC3     C 4297   1.309   0.359  13.530 -0.0263 -0.6606  0.3423
  281TMC3     O 4298   1.335   0.307  13.641  0.1981  0.6536  0.2381
  281TMC3     H 4299   1.457   0.569  13.424  1.7859  0.7312 -0.0480
  281TMC3    H1 4300   1.450   0.142  13.455  0.2894 -0.1248 -0.2605
  281TMC3    H2 4301   1.675   0.330  13.155  1.2110  1.3979  0.9528
  281TMC3    C7 4302   1.618   0.105  13.251 -0.9494 -0.4964  0.4834
  281TMC3    C8 4303   1.630   0.577  13.245  0.1067 -0.0018  0.5510
  281TMC3    O1 4304   1.733   0.113  13.201 -0.1491 -0.1142 -0.1205
  281TMC3    O2 4305   1.751   0.557  13.232  0.3873  0.0274 -0.5023
  282MPD2     C 4306   3.238   2.377  15.096 -0.1694 -0.8796 -0.0763
  282MPD2    C1 4307   3.192   2.255  15.136 -0.1917  0.4634 -0.4117
  282MPD2    C2 4308   3.110   2.187  15.048  0.3467 -0.2975 -0.5527
  282MPD2    C3 4309   3.092   2.230  14.915  0.8842  0.3940 -0.2413
  282MPD2    C4 4310   3.131   2.354  14.879 -0.9736 -0.4840  0.4281
  282MPD2    C5 4311   3.215   2.422  14.971  0.1214 -0.5748  0.0302
  282MPD2     H 4312   3.080   2.087  15.078 -1.2360 -0.4530 -2.6861
  282MPD2    H1 4313   3.127   2.406  14.785 -1.2875  1.1016  1.3238
  282MPD2    H2 4314   3.301   2.424  15.171 -0.8841 -0.6894  0.3987
  282MPD2    H3 4315   3.265   2.514  14.942 -1.5815  0.2100 -0.3793
  282MPD2     N 4316   3.031   2.138  14.825 -0.0519  0.6294 -0.2786
  282MPD2    H5 4317   3.018   2.039  14.847 -0.8281  1.3289  2.4688
  282MPD2    N1 4318   3.214   2.223  15.277 -0.1046 -0.5418  0.5995
  282MPD2    H7 4319   3.253   2.300  15.330 -0.5679  0.0554  0.0837
  283TMC3    C1 4320   3.217   2.111  15.485 -0.0697  0.3101  0.4211
  283TMC3    C2 4321   3.288   2.214  15.540  0.2167 -0.0065 -0.0423
  283TMC3    C3 4322   3.298   2.222  15.679  0.7993 -0.0579 -0.1166
  283TMC3    C4 4323   3.169   2.001  15.554  0.2925 -0.1022  0.1813
  283TMC3    C5 4324   3.176   2.013  15.689 -0.9117 -0.3182 -0.8101
  283TMC3    C6 4325   3.236   2.126  15.757 -0.0108  0.3274 -0.0299
  283TMC3     C 4326   3.181   2.108  15.344  0.3702  0.3236  0.6516
  283TMC3     O 4327   3.128   2.008  15.298 -0.3247 -0.3017 -0.3032
  283TMC3     H 4328   3.332   2.287  15.474  1.8853 -1.1205 -0.1675
  283TMC3    H1 4329   3.117   1.918  15.509  1.7029 -1.2294  0.6394
  283TMC3    H2 4330   3.236   2.136  15.865 -2.3869  0.7494 -0.0745
  283TMC3    C7 4331   3.104   1.926  15.783  0.0933 -0.5356  0.4191
  283TMC3    C8 4332   3.383   2.316  15.742 -0.4406 -0.0860 -0.0015
  283TMC3    O1 4333   3.091   1.967  15.902  1.2307  0.5209 -0.2023
  283TMC3    O2 4334   3.402   2.297  15.863 -0.3263 -0.7687 -0.0370
  284MPD2     C 4335   0.951   1.368  12.053  0.9276  0.1463  0.1167
  284MPD2    C1 4336   1.088   1.365  12.058 -0.2876 -0.0907 -0.2946
  284MPD2    C2 4337   1.149   1.279  12.144 -0.1223  0.7673  0.1093
  284MPD2    C3 4338   1.078   1.191  12.222  0.2321 -0.1462 -0.2261
  284MPD2    C4 4339   0.940   1.186  12.209 -0.3757  0.2630  0.2784
  284MPD2    C5 4340   0.882   1.277  12.127 -0.0186 -0.5068  0.3869
  284MPD2     H 4341   1.258   1.275  12.146 -0.1806 -1.5348 -0.9799
  284MPD2    H1 4342   0.882   1.122  12.274 -1.1368  1.8180  1.1368
  284MPD2    H2 4343   0.901   1.440  11.989  1.6054  0.7823  0.2981
  284MPD2    H3 4344   0.775   1.293  12.121  0.1824  0.4424 -0.6607
  284MPD2     N 4345   1.141   1.095  12.304 -0.3389 -0.0888  0.8324
  284MPD2    H5 4346   1.079   1.033  12.354 -0.4648 -0.2917  0.4290
  284MPD2    N1 4347   1.166   1.435  11.965 -0.2106  0.6134 -0.9272
  284MPD2    H7 4348   1.264   1.407  11.963 -0.6978 -1.2572  1.5276
  285TMC3    C1 4349   1.232   1.587  11.802 -0.5293 -0.3284 -0.3599
  285TMC3    C2 4350   1.301   1.491  11.743  0.4396 -0.6840  0.5363
  285TMC3    C3 4351   1.426   1.519  11.695  0.8866 -0.4757 -0.4099
  285TMC3    C4 4352   1.270   1.722  11.807  0.3267  0.1185 -0.2167
  285TMC3    C5 4353   1.399   1.736  11.771 -0.5857  0.7626  0.1688
  285TMC3    C6 4354   1.474   1.643  11.718 -0.6064  0.5619  0.0431
  285TMC3     C 4355   1.123   1.547  11.897 -0.0026 -0.3410  0.0090
  285TMC3     O 4356   1.045   1.637  11.918  0.1377 -0.1658  0.2488
  285TMC3     H 4357   1.251   1.397  11.722 -1.4334  0.1800  1.2118
  285TMC3    H1 4358   1.214   1.797  11.863  0.5860 -1.0273  1.5981
  285TMC3    H2 4359   1.561   1.675  11.662 -0.6357  1.7236  0.6559
  285TMC3    C7 4360   1.427   1.875  11.750 -0.3362 -0.1600  0.5695
  285TMC3    C8 4361   1.488   1.434  11.592 -0.0469 -0.3651 -0.2124
  285TMC3    O1 4362   1.544   1.900  11.738  0.3501 -0.0801 -0.1441
  285TMC3    O2 4363   1.410   1.362  11.535  0.2157 -0.6384 -0.2085
  286MPD2     C 4364   1.170   0.216   1.545 -0.1217  0.1001 -0.2855
  286MPD2    C1 4365   1.221   0.191   1.418  0.0897  0.1994  0.1807
  286MPD2    C2 4366   1.319   0.102   1.390  0.2539 -0.4564 -0.0173
  286MPD2    C3 4367   1.372   0.028   1.495  0.1377  0.0488  0.6322
  286MPD2    C4 4368   1.324   0.045   1.622  0.0482 -0.3498 -0.2087
  286MPD2    C5 4369   1.229   0.145   1.648  0.0767  0.3902 -0.1018
  286MPD2     H 4370   1.355   0.087   1.289  1.7074 -2.8307  0.8567
  286MPD2    H1 4371   1.374   4.739   1.707  1.6942  0.1117 -0.9262
  286MPD2    H2 4372   1.098   0.292   1.574  1.4781  0.2916  3.2046
  286MPD2    H3 4373   1.200   0.167   1.750 -0.2670  1.8550 -0.5118
  286MPD2     N 4374   1.469   4.664   1.472 -0.2733 -0.0145 -0.2792
  286MPD2    H5 4375   1.499   4.612   1.553 -0.9932 -0.6610 -0.4315
  286MPD2    N1 4376   1.193   0.276   1.306  0.8377  0.5230 -0.0156
  286MPD2    H7 4377   1.223   0.241   1.215 -2.0517  3.0113 -1.9389
  287TMC3    C1 4378   1.640   4.524   1.375 -0.3755 -0.3720  0.4646
  287TMC3    C2 4379   1.674   4.459   1.263  0.8202  0.0808  0.2536
  287TMC3    C3 4380   1.803   4.418   1.249  0.8627  0.2832  0.0472
  287TMC3    C4 4381   1.735   4.566   1.466 -0.3502 -0.1758  0.0805
  287TMC3    C5 4382   1.859   4.519   1.452 -0.1746 -0.7134  0.0635
  287TMC3    C6 4383   1.896   4.452   1.337 -0.1913 -0.9531 -0.1064
  287TMC3     C 4384   1.517   4.611   1.355  0.3602 -0.6304 -0.3544
  287TMC3     O 4385   1.501   4.653   1.241 -0.0806  0.2975 -0.1002
  287TMC3     H 4386   1.600   4.431   1.189 -0.3682 -2.8208  2.5407
  287TMC3    H1 4387   1.712   4.628   1.551 -1.6180 -0.0436 -0.3637
  287TMC3    H2 4388   2.001   4.426   1.331  0.6137  2.7129 -1.8630
  287TMC3    C7 4389   1.952   4.611   1.514 -0.3591  0.0922 -0.0854
  287TMC3    C8 4390   1.832   4.348   1.131 -0.6615  0.8363  0.0262
  287TMC3    O1 4391   1.927   4.727   1.534 -0.1767 -0.1520 -0.5530
  287TMC3    O2 4392   1.743   4.316   1.053  0.6263  0.3109 -0.2493
  288TMC3    C1 4393   2.991   4.437  14.418 -0.4422 -0.4037  0.4846
  288TMC3    C2 4394   3.058   4.431  14.535 -0.5297  0.3803 -0.4623
  288TMC3    C3 4395   3.131   4.539  14.573 -0.0982 -0.3203 -0.4972
  288TMC3    C4 4396   2.978   4.554  14.345  0.1405 -0.2615  0.0786
  288TMC3    C5 4397   3.050   4.659  14.391  0.4427 -0.1077 -0.4974
  288TMC3    C6 4398   3.133   4.653  14.499 -0.1735 -0.7617  0.1670
  288TMC3     C 4399   2.933   4.317  14.352  0.4203  0.4067  0.3806
  288TMC3     O 4400   2.831   4.334  14.288  0.0668  0.1683 -0.4828
  288TMC3     H 4401   3.064   4.339  14.592  1.5554  0.9584  0.2382
  288TMC3    H1 4402   2.950   4.556  14.241  1.6220  1.1131 -0.2992
  288TMC3    H2 4403   3.177   0.005  14.536  2.1338 -2.4051  1.4718
  288TMC3    C7 4404   3.046   0.048  14.320 -0.3063  0.2980 -0.6304
  288TMC3    C8 4405   3.149   4.568  14.717  0.0351  0.0128  0.0753
  288TMC3    O1 4406   3.159   0.104  14.313  0.5130  0.0072  0.1882
  288TMC3    O2 4407   3.218   4.668  14.745 -0.9343  0.5471  0.2238
  289MPD2     C 4408   3.645   3.814  14.643  0.2171  0.1286  0.2052
  289MPD2    C1 4409   3.565   3.904  14.580 -0.4015  0.0877  0.1918
  289MPD2    C2 4410   3.428   3.889  14.583  0.0767  0.5394  0.6104
  289MPD2    C3 4411   3.371   3.787  14.654 -0.0159 -1.2412 -0.4357
  289MPD2    C4 4412   3.453   3.698  14.725  0.1490 -0.2210  0.5266
  289MPD2    C5 4413   3.594   3.708  14.718 -0.4507 -0.0405 -0.1501
  289MPD2     H 4414   3.369   3.961  14.527 -0.8633 -0.7043 -0.0069
  289MPD2    H1 4415   3.415   3.613  14.781 -1.5809  1.2915  1.6339
  289MPD2    H2 4416   3.753   3.817  14.632 -0.0612  0.3856 -2.6267
  289MPD2    H3 4417   3.660   3.633  14.759 -0.2078  1.2783  1.8745
  289MPD2     N 4418   3.231   3.766  14.657 -0.6385  0.5337  0.3841
  289MPD2    H5 4419   3.194   3.674  14.678 -0.5826  0.7501  1.4653
  289MPD2    N1 4420   3.628   4.008  14.506 -0.3754  0.2489  0.0313
  289MPD2    H7 4421   3.728   4.016  14.522 -0.4632 -0.9284  1.2059
  290TMC3    C1 4422   2.989   3.816  14.610 -0.2662 -0.4838 -0.1288
  290TMC3    C2 4423   2.903   3.915  14.578  0.3624  0.2713  0.1139
  290TMC3    C3 4424   2.771   3.879  14.554  0.1253  0.3483 -0.7726
  290TMC3    C4 4425   2.956   3.684  14.607  0.0712  0.5531  0.1016
  290TMC3    C5 4426   2.824   3.654  14.572 -0.4413 -0.3056  0.4318
  290TMC3    C6 4427   2.728   3.748  14.550 -0.2925  0.1372  0.6756
  290TMC3     C 4428   3.128   3.860  14.620 -0.3388  0.1002  0.1779
  290TMC3     O 4429   3.156   3.980  14.610  0.2762 -0.4131  0.2602
  290TMC3     H 4430   2.944   4.015  14.569  1.6089 -0.2374  0.1669
  290TMC3    H1 4431   3.004   3.616  14.676  0.1512 -0.1895 -0.6819
  290TMC3    H2 4432   2.635   3.724  14.500 -0.1066  2.2603 -0.7226
  290TMC3    C7 4433   2.767   3.515  14.560  0.8429  0.3299 -0.8373
  290TMC3    C8 4434   2.679   3.981  14.497  0.1079  0.1212 -0.4838
  290TMC3    O1 4435   2.654   3.499  14.509 -0.0005  0.1528 -0.5643
  290TMC3    O2 4436   2.571   3.943  14.443  0.1037  0.1865  0.1281
  291MPD2     C 4437   2.380   3.724   0.568 -1.0143  0.3093  0.2353
  291MPD2    C1 4438   2.486   3.677   0.494  0.1457  0.5050  0.2802
  291MPD2    C2 4439   2.606   3.748   0.505  0.4262  0.0187  0.7810
  291MPD2    C3 4440   2.611   3.858   0.589  0.0801  0.0456 -0.0838
  291MPD2    C4 4441   2.508   3.896   0.672  0.1785 -0.3718 -0.3109
  291MPD2    C5 4442   2.398   3.820   0.663 -0.5282  0.0260  0.0236
  291MPD2     H 4443   2.694   3.719   0.449  0.5871  0.9728  0.5340
  291MPD2    H1 4444   2.511   3.977   0.744  3.2858 -1.8188  1.1843
  291MPD2    H2 4445   2.282   3.678   0.565 -0.6560 -0.5142  0.7995
  291MPD2    H3 4446   2.311   3.852   0.720  0.3297  0.1266  1.2928
  291MPD2     N 4447   2.723   3.947   0.580 -0.6163 -0.0999  0.1135
  291MPD2    H5 4448   2.703   4.040   0.614  2.6679  0.7864 -0.3587
  291MPD2    N1 4449   2.487   3.569   0.403 -0.0728 -0.3459 -0.2476
  291MPD2    H7 4450   2.578   3.544   0.367 -0.8982 -0.6009 -2.1710
  292TMC3    C1 4451   2.410   3.380   0.289  0.1826  0.2592 -0.1655
  292TMC3    C2 4452   2.520   3.315   0.326 -0.3686  0.2597  0.6561
  292TMC3    C3 4453   2.561   3.207   0.259 -0.3498 -0.6509  0.2055
  292TMC3    C4 4454   2.326   3.336   0.194 -0.4063  0.7473  0.9444
  292TMC3    C5 4455   2.360   3.221   0.136  0.5479  0.4737  0.1270
  292TMC3    C6 4456   2.483   3.162   0.160 -0.1588  0.4672  0.4467
  292TMC3     C 4457   2.373   3.498   0.362  0.0892 -0.3371  0.1843
  292TMC3     O 4458   2.254   3.511   0.391 -0.2356  0.3689  0.4267
  292TMC3     H 4459   2.570   3.352   0.415  0.5330 -0.4037  0.4238
  292TMC3    H1 4460   2.232   3.388   0.175 -0.6353  0.1013  0.3179
  292TMC3    H2 4461   2.507   3.073   0.103  0.7433  1.2560 -0.4227
  292TMC3    C7 4462   2.286   3.176   0.016 -0.0222 -0.3323 -0.1468
  292TMC3    C8 4463   2.670   3.132   0.308 -0.1114  0.9984  0.0366
  292TMC3    O1 4464   2.207   3.254  17.716  0.2565 -0.2091  0.3196
  292TMC3    O2 4465   2.702   3.034   0.241 -0.1398  0.4692 -0.0669
  293MPD2     C 4466   4.344   0.542  12.719  1.0067 -0.5489  0.3225
  293MPD2    C1 4467   4.231   0.535  12.791 -0.3356 -0.2788  0.8268
  293MPD2    C2 4468   4.229   0.586  12.922 -0.2407 -0.2376 -0.0996
  293MPD2    C3 4469   4.344   0.630  12.979 -0.0920 -0.5324  0.1626
  293MPD2    C4 4470   4.462   0.628  12.909 -0.1083  0.3404 -0.3621
  293MPD2    C5 4471   4.460   0.588  12.782 -0.2532  0.7738 -0.7413
  293MPD2     H 4472   4.139   0.586  12.983 -1.6327 -0.3630 -2.1401
  293MPD2    H1 4473   4.551   0.676  12.948 -0.0034 -0.3025  0.2015
  293MPD2    H2 4474   4.342   0.522  12.613 -1.2059  2.2003 -0.1591
  293MPD2    H3 4475   4.554   0.592  12.729 -0.3559  2.7688 -0.7739
  293MPD2     N 4476   4.340   0.668  13.117 -0.3341  0.6664 -0.6660
  293MPD2    H5 4477   4.246   0.666  13.155  0.5035 -0.5372  1.3172
  293MPD2    N1 4478   4.114   0.505  12.717  1.1835 -0.3923  0.3070
  293MPD2    H7 4479   4.120   0.474  12.621 -0.3723  0.2725 -0.0145
  294TMC3    C1 4480   3.898   0.476  12.653 -0.0131  0.0963  0.0228
  294TMC3    C2 4481   3.819   0.370  12.654  0.1358 -0.0752  0.8656
  294TMC3    C3 4482   3.740   0.348  12.544  0.5180  0.6805  0.2850
  294TMC3    C4 4483   3.923   0.548  12.537  0.9807 -0.7283 -0.2481
  294TMC3    C5 4484   3.855   0.512  12.426  0.1236 -0.0034  0.5305
  294TMC3    C6 4485   3.753   0.421  12.430  0.1531  0.3443  0.2155
  294TMC3     C 4486   3.982   0.500  12.765  0.3141  0.2469 -0.6881
  294TMC3     O 4487   3.934   0.499  12.876  0.2577 -0.1667  0.2848
  294TMC3     H 4488   3.825   0.296  12.733  0.8349  0.5855  1.4340
  294TMC3    H1 4489   3.989   0.634  12.541 -0.7881  0.6019  0.5234
  294TMC3    H2 4490   3.667   0.429  12.366  1.5863 -1.7175 -1.9561
  294TMC3    C7 4491   3.856   0.619  12.328  0.4519  0.1308  0.1848
  294TMC3    C8 4492   3.695   0.212  12.529  0.4195  0.0081  0.3500
  294TMC3    O1 4493   3.828   0.726  12.373  0.4261 -0.0131  0.2913
  294TMC3    O2 4494   3.679   0.138  12.627  0.2611  0.0089  0.1330
  295MPD2     C 4495   0.548   4.358   0.698  0.3499 -0.5251 -0.0748
  295MPD2    C1 4496   0.484   4.273   0.613 -0.3125 -0.5638  0.0941
  295MPD2    C2 4497   0.484   4.139   0.649  0.9128  0.4492 -0.3846
  295MPD2    C3 4498   0.553   4.096   0.763  1.0531  0.8004 -0.4798
  295MPD2    C4 4499   0.625   4.184   0.838 -0.7683 -0.1875  0.6440
  295MPD2    C5 4500   0.624   4.317   0.802 -0.5915  0.2347 -0.3997
  295MPD2     H 4501   0.446   4.069   0.576  0.3440  1.2643 -0.8806
  295MPD2    H1 4502   0.667   4.157   0.934 -0.4185 -0.1079  0.5147
  295MPD2    H2 4503   0.531   4.465   0.693 -1.2953 -0.6264  3.3913
  295MPD2    H3 4504   0.673   4.389   0.867 -0.1825 -0.5483  0.1488
  295MPD2     N 4505   0.575   3.960   0.792  0.6201  0.5227 -0.3976
  295MPD2    H5 4506   0.636   3.934   0.869  0.5996  1.9789  0.1184
  295MPD2    N1 4507   0.429   4.311   0.489 -0.8252 -0.3443  0.4812
  295MPD2    H7 4508   0.367   4.248   0.439 -0.4212  0.5100 -1.0934
  296TMC3    C1 4509   0.545   3.730   0.801 -0.0208 -0.3083 -0.3814
  296TMC3    C2 4510   0.560   3.725   0.934 -0.0099  0.1489 -0.4167
  296TMC3    C3 4511   0.590   3.605   0.995 -0.4588  0.1089 -0.4098
  296TMC3    C4 4512   0.565   3.621   0.720 -0.3552  0.2644 -0.2136
  296TMC3    C5 4513   0.600   3.506   0.790 -0.6489 -0.2600  0.4130
  296TMC3    C6 4514   0.623   3.492   0.924 -0.0004 -0.2252 -0.1361
  296TMC3     C 4515   0.513   3.854   0.732  0.3723 -0.9504 -1.1729
  296TMC3     O 4516   0.460   3.853   0.622 -0.0360 -0.4126  0.7052
  296TMC3     H 4517   0.568   3.818   0.989 -1.8396 -0.0392  0.1568
  296TMC3    H1 4518   0.549   3.631   0.613 -0.8902 -0.6588 -0.2205
  296TMC3    H2 4519   0.655   3.400   0.971 -1.7672 -1.1595 -0.7504
  296TMC3    C7 4520   0.622   3.389   0.703  0.1810 -0.0293 -0.1504
  296TMC3    C8 4521   0.603   3.596   1.133 -0.2973  0.4408  0.2275
  296TMC3    O1 4522   0.644   3.396   0.579 -0.3955  0.2816 -0.4067
  296TMC3    O2 4523   0.681   3.510   1.171 -0.6778  0.3181 -0.3705
  297MPD2     C 4524   2.313   0.411  16.453 -0.2706  0.2993  0.7658
  297MPD2    C1 4525   2.308   0.515  16.361 -0.6279  0.5155 -0.7203
  297MPD2    C2 4526   2.415   0.595  16.332 -0.0029  0.0177  0.0073
  297MPD2    C3 4527   2.522   0.583  16.414 -0.0877 -0.3619  0.3022
  297MPD2    C4 4528   2.540   0.485  16.512 -0.9553 -0.4100 -0.0216
  297MPD2    C5 4529   2.428   0.398  16.524  0.3829  0.1341 -0.6065
  297MPD2     H 4530   2.410   0.662  16.247 -0.8434  1.6728  1.3721
  297MPD2    H1 4531   2.633   0.462  16.563 -0.1420 -0.0364 -1.3605
  297MPD2    H2 4532   2.227   0.346  16.470 -1.7730  2.7587  2.5940
  297MPD2    H3 4533   2.431   0.319  16.598  1.3050 -0.1012 -0.8903
  297MPD2     N 4534   2.618   0.683  16.391  0.2414  0.7208 -0.1553
  297MPD2    H5 4535   2.610   0.744  16.311  0.9853  0.6092 -0.3160
  297MPD2    N1 4536   2.193   0.534  16.285 -0.4191 -0.4246 -0.1661
  297MPD2    H7 4537   2.200   0.589  16.199  0.1953 -0.4964 -0.1572
  298TMC3    C1 4538   1.982   0.557  16.232 -0.0555 -0.1024 -0.3394
  298TMC3    C2 4539   2.022   0.557  16.099  0.5996  0.4621 -0.1122
  298TMC3    C3 4540   1.928   0.623  16.023  0.1901 -0.2760  0.3153
  298TMC3    C4 4541   1.872   0.629  16.279 -0.8653  0.3991 -0.2295
  298TMC3    C5 4542   1.798   0.712  16.198 -0.3636  0.1944  0.1314
  298TMC3    C6 4543   1.819   0.702  16.065 -0.5930 -0.4713  0.5158
  298TMC3     C 4544   2.065   0.501  16.323  0.2645  0.3739 -0.1670
  298TMC3     O 4545   2.023   0.446  16.429  0.8146  0.2495 -0.2757
  298TMC3     H 4546   2.091   0.482  16.062 -0.1737  0.1373 -0.8927
  298TMC3    H1 4547   1.854   0.631  16.386  1.5727 -0.2815  0.1797
  298TMC3    H2 4548   1.765   0.752  15.986  2.1717  0.9450 -0.4699
  298TMC3    C7 4549   1.749   0.836  16.258  0.0441  0.3959 -1.0217
  298TMC3    C8 4550   1.947   0.618  15.876 -0.0281 -0.2314  0.3077
  298TMC3    O1 4551   1.770   0.849  16.378  0.3691 -0.1482 -0.4609
  298TMC3    O2 4552   1.852   0.643  15.799 -0.0799  0.2415 -0.2572
  299MPD2     C 4553   2.686   0.150  10.836 -0.5756 -0.1117 -0.3112
  299MPD2    C1 4554   2.765   0.229  10.756 -0.5257  0.2545 -0.2016
  299MPD2    C2 4555   2.706   0.315  10.662  0.2532  0.4733 -0.2529
  299MPD2    C3 4556   2.568   0.305  10.639  0.3510 -0.0172 -0.3475
  299MPD2    C4 4557   2.497   0.225  10.724 -0.2153 -0.3101 -0.2188
  299MPD2    C5 4558   2.553   0.151  10.821 -0.5184  0.0141 -0.0594
  299MPD2     H 4559   2.772   0.373  10.598 -0.9811  3.1770  0.9209
  299MPD2    H1 4560   2.389   0.220  10.713  0.2261 -0.9863 -4.4597
  299MPD2    H2 4561   2.725   0.089  10.916 -1.1407  0.5182  0.4378
  299MPD2    H3 4562   2.498   0.092  10.893  0.2650  0.8279  1.2038
  299MPD2     N 4563   2.490   0.367  10.532 -0.3256  0.2219 -0.1850
  299MPD2    H5 4564   2.393   0.338  10.523  0.0184 -1.2796  1.0617
  299MPD2    N1 4565   2.901   0.222  10.778  0.8040 -0.6816 -0.0655
  299MPD2    H7 4566   2.929   0.158  10.851 -1.0322 -0.4884  0.8063
  300TMC3    C1 4567   2.429   0.525  10.363 -0.4477 -0.7645  0.4102
  300TMC3    C2 4568   2.430   0.656  10.362  0.4223  0.2023 -0.2756
  300TMC3    C3 4569   2.321   0.736  10.345 -0.2470  0.3278  0.1830
  300TMC3    C4 4570   2.313   0.457  10.355  0.0111 -0.2265 -0.5048
  300TMC3    C5 4571   2.202   0.538  10.337  0.5596 -0.3593 -0.6665
  300TMC3    C6 4572   2.202   0.677  10.338 -0.6062 -0.5413 -0.1722
  300TMC3     C 4573   2.536   0.469  10.442 -0.0597  0.2227  0.6234
  300TMC3     O 4574   2.640   0.527  10.459 -0.0675  0.4176 -0.0168
  300TMC3     H 4575   2.525   0.705  10.342 -0.2629  2.0320  0.9295
  300TMC3    H1 4576   2.299   0.350  10.345 -0.5001 -0.4206  2.2892
  300TMC3    H2 4577   2.114   0.741  10.328 -0.5381 -0.5540 -0.8311
  300TMC3    C7 4578   2.077   0.477  10.385  0.3924 -0.8202  0.0994
  300TMC3    C8 4579   2.326   0.852  10.428  0.0265  0.4708 -0.0245
  300TMC3    O1 4580   2.067   0.353  10.368  0.0141 -0.1907  0.0038
  300TMC3    O2 4581   2.437   0.896  10.427 -0.7783 -0.1116  0.1917
  301MPD2     C 4582   0.437   2.012   1.112  0.6957  0.2138 -0.3620
  301MPD2    C1 4583   0.414   1.973   0.981 -0.0246 -0.3779 -0.0298
  301MPD2    C2 4584   0.429   1.842   0.950 -0.2761 -0.1775 -0.2404
  301MPD2    C3 4585   0.429   1.753   1.053  0.1435  0.7851  0.6437
  301MPD2    C4 4586   0.444   1.796   1.184 -0.1518  0.3280  0.0799
  301MPD2    C5 4587   0.452   1.924   1.213  0.3623  0.0289  0.4185
  301MPD2     H 4588   0.427   1.809   0.847 -1.3729  0.1818 -0.3354
  301MPD2    H1 4589   0.463   1.726   1.265 -1.2951 -2.2026 -1.8598
  301MPD2    H2 4590   0.441   2.117   1.140  0.1984  0.5618 -1.5956
  301MPD2    H3 4591   0.471   1.949   1.316 -1.3017 -1.5814  1.1099
  301MPD2     N 4592   0.410   1.613   1.039 -0.3433 -0.3283  0.5314
  301MPD2    H5 4593   0.423   1.545   1.113 -0.3337  0.0267  0.8531
  301MPD2    N1 4594   0.391   2.070   0.873 -0.4673 -0.1171  0.1936
  301MPD2    H7 4595   0.398   2.037   0.778  1.7376 -0.8774  0.6270
  302TMC3    C1 4596   0.390   1.417   0.934  0.3134  0.7729 -0.0266
  302TMC3    C2 4597   0.455   1.362   1.047  0.2896 -0.1430 -0.4949
  302TMC3    C3 4598   0.423   1.231   1.076  0.5530  0.4060 -0.6055
  302TMC3    C4 4599   0.320   1.338   0.842  0.5919 -0.4709 -0.3278
  302TMC3    C5 4600   0.292   1.203   0.886  0.0729 -0.0083  0.1482
  302TMC3    C6 4601   0.347   1.146   0.999  0.6792 -0.3078  0.6360
  302TMC3     C 4602   0.392   1.557   0.921 -0.4469 -0.4791 -0.0071
  302TMC3     O 4603   0.367   1.594   0.807  0.8149 -0.1848  0.5894
  302TMC3     H 4604   0.533   1.416   1.099 -0.1206 -0.1992  0.1735
  302TMC3    H1 4605   0.290   1.388   0.750 -0.6339  0.6388  0.6840
  302TMC3    H2 4606   0.313   1.049   1.032  0.1319 -0.1872  0.4166
  302TMC3    C7 4607   0.180   1.135   0.813 -0.9531 -0.4648  0.5964
  302TMC3    C8 4608   0.478   1.178   1.203 -0.4752  0.1109 -1.0516
  302TMC3    O1 4609   0.168   1.016   0.834 -0.3382  0.6762  0.2223
  302TMC3    O2 4610   0.496   1.059   1.206 -0.0281 -0.3585 -0.0392
  303MPD2     C 4611   0.381   0.061  10.972  0.0839 -0.1057  0.0349
  303MPD2    C1 4612   0.353   4.667  10.965  0.0913  0.5327  0.4337
  303MPD2    C2 4613   0.406   4.588  10.855  0.1696 -0.3648 -0.3080
  303MPD2    C3 4614   0.474   4.659  10.753 -0.7564 -0.6829  0.1622
  303MPD2    C4 4615   0.505   0.053  10.771 -0.8134 -0.2140 -0.0080
  303MPD2    C5 4616   0.453   0.125  10.878  0.0984 -0.7962  0.1579
  303MPD2     H 4617   0.388   4.484  10.832 -1.1775  0.2156 -1.9013
  303MPD2    H1 4618   0.562   0.117  10.704  0.7141 -0.2660  1.2462
  303MPD2    H2 4619   0.362   0.121  11.061 -2.5337 -0.2944 -0.3918
  303MPD2    H3 4620   0.483   0.229  10.878  1.0587 -1.0655 -1.6995
  303MPD2     N 4621   0.524   4.583  10.640  0.0794  0.4857  0.7510
  303MPD2    H5 4622   0.563   4.651  10.575 -1.1615 -0.4432 -0.9795
  303MPD2    N1 4623   0.267   4.601  11.072 -0.2508 -0.9515  0.3718
  303MPD2    H7 4624   0.215   4.666  11.131 -1.3116  0.6201 -2.2448
  304TMC3    C1 4625   0.194   4.431  11.225  0.5601 -0.3612  0.3633
  304TMC3    C2 4626   0.066   4.477  11.209 -0.1328  0.5507  0.1350
  304TMC3    C3 4627   4.709   4.398  11.262  0.4444  0.2840 -0.1937
  304TMC3    C4 4628   0.223   4.310  11.280 -0.4679  0.6745  0.3183
  304TMC3    C5 4629   0.125   4.241  11.343 -0.7853 -0.2157  0.3488
  304TMC3    C6 4630   4.739   4.290  11.344 -0.2952 -0.3229  0.8812
  304TMC3     C 4631   0.272   4.466  11.105 -0.4145 -0.2138  0.3340
  304TMC3     O 4632   0.336   4.379  11.050 -0.1035 -0.4745  0.4664
  304TMC3     H 4633   0.036   4.555  11.139 -3.8044 -0.1568  0.8869
  304TMC3    H1 4634   0.322   4.266  11.282 -0.3273  0.9771 -0.2036
  304TMC3    H2 4635   4.661   4.233  11.394 -0.4259 -3.5732 -3.0497
  304TMC3    C7 4636   0.134   4.099  11.325 -0.0900 -0.5711 -0.2524
  304TMC3    C8 4637   4.597   4.366  11.181 -0.2528  1.0631 -0.0577
  304TMC3    O1 4638   0.232   4.040  11.365  0.0933  0.6668 -0.2106
  304TMC3    O2 4639   4.562   4.248  11.186  0.1164 -0.1528 -0.6211
  305MPD2     C 4640   3.464   2.346  14.095 -0.6272  0.4547  0.3411
  305MPD2    C1 4641   3.540   2.240  14.141  0.3466 -0.4211 -0.7177
  305MPD2    C2 4642   3.532   2.126  14.054  0.1323  0.5958 -0.0739
  305MPD2    C3 4643   3.475   2.138  13.929  0.0758 -0.1315 -1.4218
  305MPD2    C4 4644   3.414   2.253  13.890  0.5475 -0.2596 -0.1218
  305MPD2    C5 4645   3.396   2.349  13.980 -0.3135  0.0663  0.1210
  305MPD2     H 4646   3.586   2.037  14.084 -1.3730 -0.5229 -0.7030
  305MPD2    H1 4647   3.373   2.261  13.790  1.9557 -1.0975 -0.7857
  305MPD2    H2 4648   3.442   2.436  14.151  1.2394  1.3386 -0.3634
  305MPD2    H3 4649   3.346   2.443  13.962 -0.4258  0.2461  1.3647
  305MPD2     N 4650   3.475   2.040  13.837  0.0967 -0.8302 -0.3530
  305MPD2    H5 4651   3.444   2.064  13.744 -0.5603  1.2959  0.4278
  305MPD2    N1 4652   3.605   2.236  14.268 -0.7213  0.7154  1.0459
  305MPD2    H7 4653   3.594   2.322  14.322 -0.0415  1.3545  0.1545
  306TMC3    C1 4654   3.707   2.146  14.472 -0.7273 -0.4400  0.3251
  306TMC3    C2 4655   3.810   2.068  14.515 -0.5917 -1.1341  0.7717
  306TMC3    C3 4656   3.861   2.088  14.641 -0.4069 -0.0845  0.3640
  306TMC3    C4 4657   3.650   2.244  14.555  1.1121 -0.5936  0.5227
  306TMC3    C5 4658   3.713   2.270  14.668 -0.6207  0.1537  0.0073
  306TMC3    C6 4659   3.823   2.203  14.709 -0.0883 -0.2672  0.1438
  306TMC3     C 4660   3.654   2.119  14.334 -0.2610  0.1738  0.2188
  306TMC3     O 4661   3.682   2.006  14.294  0.0820 -0.0865  0.1790
  306TMC3     H 4662   3.849   1.988  14.454  0.0317 -0.2077 -0.0445
  306TMC3    H1 4663   3.578   2.310  14.508  0.8988  0.7135  2.7029
  306TMC3    H2 4664   3.869   2.218  14.806  2.0316 -1.3814 -0.7021
  306TMC3    C7 4665   3.664   2.388  14.736 -0.0681  0.0878  0.5347
  306TMC3    C8 4666   3.923   1.980  14.713  0.1533 -0.3860 -1.1976
  306TMC3    O1 4667   3.546   2.411  14.712  0.0304  0.1422 -0.3167
  306TMC3    O2 4668   3.911   1.873  14.655 -0.5267 -0.3959  0.0755
  307MPD2     C 4669   1.404   0.171   0.627  0.1843  0.4144 -0.2751
  307MPD2    C1 4670   1.347   0.294   0.591 -0.0954 -0.3905 -0.1324
  307MPD2    C2 4671   1.222   0.329   0.636 -0.0545  0.6547 -0.5235
  307MPD2    C3 4672   1.151   0.245   0.717  0.9816  0.7416  0.3428
  307MPD2    C4 4673   1.205   0.120   0.725  0.3008  0.4516  0.6172
  307MPD2    C5 4674   1.333   0.082   0.696 -0.8934 -0.2768  0.6415
  307MPD2     H 4675   1.175   0.423   0.611  1.5308  1.7399  0.6366
  307MPD2    H1 4676   1.152   0.038   0.771 -1.1067  1.4035  0.6768
  307MPD2    H2 4677   1.510   0.156   0.609 -0.0711  1.8999 -3.0818
  307MPD2    H3 4678   1.368   4.721   0.720 -0.1901 -0.1332  0.2150
  307MPD2     N 4679   1.024   0.282   0.752 -0.6776  0.0552  0.4149
  307MPD2    H5 4680   0.968   0.339   0.689  0.4750  0.7278 -0.0076
  307MPD2    N1 4681   1.415   0.388   0.516 -0.1399  0.4239  0.1103
  307MPD2    H7 4682   1.373   0.479   0.497  1.2447  0.9247 -0.5479
  308TMC3    C1 4683   0.610   0.115   0.848  0.2014  0.4069 -0.0270
  308TMC3    C2 4684   0.542   0.209   0.771 -0.2828 -0.4307  0.2374
  308TMC3    C3 4685   0.616   0.319   0.732 -0.2521 -0.4417  0.2411
  308TMC3    C4 4686   0.743   0.116   0.875  0.2461  0.2016 -0.3690
  308TMC3    C5 4687   0.816   0.222   0.830 -0.8249  0.2716 -1.2648
  308TMC3    C6 4688   0.753   0.328   0.768  0.3089  0.1568 -0.1062
  308TMC3     C 4689   0.521   0.006   0.895 -0.1195  0.1608 -0.0304
  308TMC3     O 4690   0.549   4.687   0.998 -0.3218  0.5981  0.2026
  308TMC3     H 4691   0.435   0.198   0.758 -0.2740  0.3937 -0.4672
  308TMC3    H1 4692   0.797   0.033   0.921  1.8886  1.9238  0.8139
  308TMC3    H2 4693   0.809   0.417   0.740 -1.7216  1.0970 -1.2305
  308TMC3    C7 4694   0.958   0.212   0.846  0.2151  0.4229 -0.3450
  308TMC3    C8 4695   0.541   0.432   0.688  0.0254  0.1150 -0.2483
  308TMC3    O1 4696   0.998   0.150   0.937  0.1069 -0.1024 -0.0093
  308TMC3    O2 4697   0.429   0.404   0.654  0.1357  0.1329 -0.0520
  309MPD2     C 4698   0.420   0.954  17.402 -0.1480  0.1981  0.4089
  309MPD2    C1 4699   0.312   0.978  17.317 -0.3255  0.0478 -0.1794
  309MPD2    C2 4700   0.184   0.984  17.371 -0.1952  0.3638  0.2120
  309MPD2    C3 4701   0.160   0.954  17.503 -0.2553  0.3481 -0.6526
  309MPD2    C4 4702   0.271   0.912  17.579  0.6849 -0.7174  0.2691
  309MPD2    C5 4703   0.398   0.914  17.531  0.3383 -0.2621 -0.5381
  309MPD2     H 4704   0.102   0.998  17.302 -0.6935 -1.2459  0.4802
  309MPD2    H1 4705   0.256   0.869  17.677 -1.1879 -2.4830 -0.7749
  309MPD2    H2 4706   0.523   0.951  17.368 -0.3823  1.4346 -0.4220
  309MPD2    H3 4707   0.483   0.906  17.598 -0.5913 -4.6404  0.0941
  309MPD2     N 4708   0.035   0.948  17.571  0.8188 -0.2819  0.3468
  309MPD2    H5 4709   0.045   0.918  17.667  2.0245 -1.0572 -0.0162
  309MPD2    N1 4710   0.327   0.987  17.177 -0.2474 -0.0962 -0.2027
  309MPD2    H7 4711   0.243   1.003  17.123 -0.8879  1.3369  1.2148
  310TMC3    C1 4712   0.431   0.939  16.969 -0.4772 -0.3316  0.6357
  310TMC3    C2 4713   0.344   1.022  16.899  0.4645 -0.8982  0.2064
  310TMC3    C3 4714   0.353   1.012  16.763  0.3692 -0.6083  0.0083
  310TMC3    C4 4715   0.520   0.854  16.902  0.4606  0.6320  1.1570
  310TMC3    C5 4716   0.520   0.851  16.764  0.2663  0.1964 -0.0668
  310TMC3    C6 4717   0.430   0.923  16.692 -0.2543 -0.5703 -0.2918
  310TMC3     C 4718   0.439   0.935  17.114 -0.3481  0.3638  0.1002
  310TMC3     O 4719   0.530   0.870  17.160  0.5079 -0.0764  0.5608
  310TMC3     H 4720   0.286   1.102  16.942  0.3010 -1.1217  0.4055
  310TMC3    H1 4721   0.603   0.813  16.958  0.6646  0.4532  0.7282
  310TMC3    H2 4722   0.432   0.931  16.584  2.6938 -1.4810 -0.3123
  310TMC3    C7 4723   0.580   0.731  16.694 -1.0431  0.1889 -0.2243
  310TMC3    C8 4724   0.245   1.066  16.691  0.4740  0.1921  0.0010
  310TMC3    O1 4725   0.566   0.709  16.573  0.3524 -0.3452 -0.0751
  310TMC3    O2 4726   0.264   1.068  16.569 -0.4557  0.3286  0.0788
  311MPD2     C 4727   2.448   1.598  12.834 -0.2609  0.1649  1.0065
  311MPD2    C1 4728   2.424   1.733  12.840 -0.4584 -0.0074 -0.3571
  311MPD2    C2 4729   2.308   1.788  12.897 -0.0967  0.3410 -0.4395
  311MPD2    C3 4730   2.213   1.702  12.947  0.3433 -0.0125 -0.4439
  311MPD2    C4 4731   2.246   1.566  12.955  0.6504  0.6958 -0.1851
  311MPD2    C5 4732   2.365   1.517  12.901 -0.4698 -0.4132  0.9690
  311MPD2     H 4733   2.299   1.896  12.904  1.0205  0.5625 -2.4958
  311MPD2    H1 4734   2.172   1.502  13.002  2.2079 -1.6969 -1.0201
  311MPD2    H2 4735   2.531   1.550  12.782  0.7695  0.5075  2.3357
  311MPD2    H3 4736   2.397   1.415  12.920 -0.6434 -0.3197  1.7849
  311MPD2     N 4737   2.091   1.759  12.990 -0.9379  0.3868 -0.3727
  311MPD2    H5 4738   2.072   1.856  12.966 -2.9081  0.4623  1.4696
  311MPD2    N1 4739   2.531   1.818  12.799  0.2704 -0.6930  0.0219
  311MPD2    H7 4740   2.513   1.914  12.825  0.5940 -0.5918 -0.1292
  312TMC3    C1 4741   1.874   1.795  13.076 -0.3359 -0.0731 -0.3118
  312TMC3    C2 4742   1.751   1.763  13.021  0.3600 -0.0063 -0.1003
  312TMC3    C3 4743   1.675   1.860  12.972 -0.3451 -0.2444  0.6359
  312TMC3    C4 4744   1.906   1.922  13.102 -0.3605 -0.0612 -0.0632
  312TMC3    C5 4745   1.817   2.021  13.063 -0.5589  0.5304  0.5328
  312TMC3    C6 4746   1.701   1.993  12.994 -0.2065  0.3020 -0.0906
  312TMC3     C 4747   1.980   1.699  13.055 -0.4821 -0.3618 -0.4934
  312TMC3     O 4748   1.967   1.581  13.080 -0.1941  0.3372  0.1227
  312TMC3     H 4749   1.727   1.658  13.014  0.3365 -0.1240  1.7754
  312TMC3    H1 4750   1.999   1.951  13.151 -0.5615  1.8317 -0.8117
  312TMC3    H2 4751   1.619   2.064  12.992  0.3170  0.8926 -0.9793
  312TMC3    C7 4752   1.860   2.161  13.067  0.7836 -0.0792  0.3411
  312TMC3    C8 4753   1.546   1.818  12.921  0.1651 -0.4993 -0.1413
  312TMC3    O1 4754   1.800   2.231  12.984  0.0116  0.1136  0.2549
  312TMC3    O2 4755   1.483   1.728  12.977 -0.1012 -0.0724 -0.4245
  313MPD2     C 4756   0.995   1.382  11.588  1.0549  0.8285  0.2838
  313MPD2    C1 4757   1.064   1.410  11.469 -0.6771  0.0920 -0.3367
  313MPD2    C2 4758   1.097   1.295  11.400  0.0941 -0.4297 -0.7346
  313MPD2    C3 4759   1.065   1.166  11.436  0.8966  0.1597 -0.2266
  313MPD2    C4 4760   1.009   1.154  11.564 -0.0655 -0.2862  0.2051
  313MPD2    C5 4761   0.981   1.261  11.643  0.0976 -0.9200 -0.0292
  313MPD2     H 4762   1.154   1.318  11.310  1.3112  0.6797  0.3279
  313MPD2    H1 4763   0.997   1.059  11.613  2.4648 -0.4121  0.5966
  313MPD2    H2 4764   0.936   1.464  11.628  0.8294  2.0150 -2.4411
  313MPD2    H3 4765   0.937   1.253  11.741 -1.5354 -1.1912 -0.7835
  313MPD2     N 4766   1.098   1.057  11.359 -0.3804  0.2930 -0.4162
  313MPD2    H5 4767   1.154   1.077  11.276  1.9916 -0.2782  1.0439
  313MPD2    N1 4768   1.098   1.533  11.422  0.1730  0.7690  0.3797
  313MPD2    H7 4769   1.133   1.542  11.327  0.3165 -4.6889 -0.0821
  314TMC3    C1 4770   1.114   1.759  11.401 -0.0728 -0.1633  0.5343
  314TMC3    C2 4771   1.253   1.774  11.377 -0.8814 -0.5613 -0.0842
  314TMC3    C3 4772   1.296   1.831  11.262 -0.2115  0.2907 -0.3857
  314TMC3    C4 4773   1.034   1.777  11.294 -0.3941  0.1504  0.1974
  314TMC3    C5 4774   1.079   1.828  11.177  0.1039  0.6284 -0.2225
  314TMC3    C6 4775   1.212   1.861  11.163 -0.2735 -0.0721 -0.6674
  314TMC3     C 4776   1.078   1.647  11.486 -0.5721 -0.3014  0.4738
  314TMC3     O 4777   1.029   1.663  11.597 -0.5590 -0.3333  0.0488
  314TMC3     H 4778   1.323   1.753  11.457  1.2026  0.3527 -1.6822
  314TMC3    H1 4779   0.930   1.751  11.310 -0.2122  0.6613  2.1579
  314TMC3    H2 4780   1.242   1.906  11.069 -0.1206 -2.8387 -1.9157
  314TMC3    C7 4781   1.021   1.764  11.057  0.3452 -0.4552  0.3576
  314TMC3    C8 4782   1.434   1.800  11.217  0.6631  0.5311  0.1730
  314TMC3    O1 4783   0.902   1.739  11.063 -1.3098 -0.3580  0.1764
  314TMC3    O2 4784   1.452   1.798  11.097 -0.0879  0.0116  0.6151
  315MPD2     C 4785   1.514   0.020  17.301  0.0842 -0.0105  0.0499
  315MPD2    C1 4786   1.559   0.040  17.428  0.1349  0.0043  0.1404
  315MPD2    C2 4787   1.605   0.163  17.462  0.8348  0.2408 -0.1639
  315MPD2    C3 4788   1.618   0.262  17.369  1.4383 -0.1310  0.3055
  315MPD2    C4 4789   1.567   0.239  17.237  0.1942 -0.4895  0.2091
  315MPD2    C5 4790   1.522   0.121  17.201  0.3420 -0.0651 -0.6394
  315MPD2     H 4791   1.660   0.183  17.553  0.1562 -2.7464  0.9324
  315MPD2    H1 4792   1.559   0.318  17.163 -1.8021 -0.3749  0.5541
  315MPD2    H2 4793   1.506   4.658  17.264 -0.3840  0.8323 -2.1509
  315MPD2    H3 4794   1.488   0.104  17.099 -0.2219 -0.8183 -0.3330
  315MPD2     N 4795   1.669   0.386  17.414 -0.0466 -0.3179 -0.5271
  315MPD2    H5 4796   1.686   0.410  17.511 -1.1039 -0.4939 -0.3104
  315MPD2    N1 4797   1.563   4.676  17.528 -0.5268 -0.7007  1.0297
  315MPD2    H7 4798   1.611   4.693  17.615 -1.9294 -2.1446  2.0745
  316TMC3    C1 4799   1.771   0.592  17.401  0.1261 -0.1902  0.3048
  316TMC3    C2 4800   1.856   0.556  17.508  0.0100 -0.3909  0.3883
  316TMC3    C3 4801   1.894   0.653  17.596  0.0471 -0.1298  0.2911
  316TMC3    C4 4802   1.741   0.721  17.375 -0.2134 -0.4603  0.5198
  316TMC3    C5 4803   1.787   0.818  17.467 -0.1725 -0.2336  0.3969
  316TMC3    C6 4804   1.858   0.785  17.580  0.5733 -0.2074 -0.7206
  316TMC3     C 4805   1.699   0.494  17.325  0.4181 -0.5721 -0.2364
  316TMC3     O 4806   1.682   0.505  17.202 -0.3108 -0.8985 -0.4081
  316TMC3     H 4807   1.881   0.453  17.530 -3.3313 -1.1477  0.6267
  316TMC3    H1 4808   1.671   0.742  17.295 -1.0143  0.3307  1.4254
  316TMC3    H2 4809   1.882   0.862  17.653 -0.4229 -0.4045 -0.1761
  316TMC3    C7 4810   1.712   0.932  17.494 -0.6636  0.3538  0.3620
  316TMC3    C8 4811   1.926   0.610  17.730 -0.3421 -0.1463  0.5902
  316TMC3    O1 4812   1.694   0.958  17.613  0.1877  0.3440 -0.3908
  316TMC3    O2 4813   1.883   0.682   0.066 -0.0875 -0.3061 -0.4489
  317MPD2     C 4814   3.553   3.905  12.703  0.8234 -0.1381 -0.3402
  317MPD2    C1 4815   3.674   3.850  12.679 -0.3720  0.5691 -0.4948
  317MPD2    C2 4816   3.746   3.791  12.787 -0.3794 -0.0584 -0.6226
  317MPD2    C3 4817   3.686   3.788  12.915  0.2923 -0.3638  0.0314
  317MPD2    C4 4818   3.560   3.845  12.937  0.1785  1.1796 -0.0485
  317MPD2    C5 4819   3.495   3.889  12.827 -0.1573 -0.2956  0.3628
  317MPD2     H 4820   3.840   3.744  12.761  0.6783  2.1772 -0.8515
  317MPD2    H1 4821   3.495   3.831  13.023 -0.0217 -0.9511 -0.5367
  317MPD2    H2 4822   3.479   3.944  12.635  2.8234  2.9447 -0.7365
  317MPD2    H3 4823   3.390   3.904  12.850 -0.8263 -2.1305 -1.5392
  317MPD2     N 4824   3.763   3.721  13.016 -0.0875  0.1607  0.1800
  317MPD2    H5 4825   3.854   3.686  12.988 -0.6682 -1.6090  0.4973
  317MPD2    N1 4826   3.719   3.847  12.546 -0.1578 -0.4121  0.4565
  317MPD2    H7 4827   3.795   3.781  12.538 -0.9200 -1.4421  1.9026
  318TMC3    C1 4828   3.817   3.610  13.206 -0.1396 -0.1198 -0.0402
  318TMC3    C2 4829   3.763   3.510  13.279  0.7877  0.5831  0.0879
  318TMC3    C3 4830   3.838   3.405  13.323 -0.3488 -0.1959 -0.0504
  318TMC3    C4 4831   3.948   3.595  13.158  0.1413 -0.5266 -0.1507
  318TMC3    C5 4832   4.024   3.496  13.211  0.1173  0.2735 -0.3251
  318TMC3    C6 4833   3.971   3.397  13.298 -0.1781 -0.5874  0.0880
  318TMC3     C 4834   3.715   3.687  13.138  0.2643 -0.5585  0.1229
  318TMC3     O 4835   3.605   3.703  13.192  0.0820  0.3229 -0.6164
  318TMC3     H 4836   3.659   3.515  13.309  0.5606  0.6070 -0.7046
  318TMC3    H1 4837   3.989   3.669  13.090 -2.6368 -0.3871 -1.6657
  318TMC3    H2 4838   4.033   3.311  13.322 -0.6896 -1.9271 -3.4327
  318TMC3    C7 4839   4.160   3.488  13.156 -1.0065 -0.4875  0.8292
  318TMC3    C8 4840   3.765   3.284  13.343  0.0776  0.5150 -1.0466
  318TMC3    O1 4841   4.168   3.513  13.040  0.3156 -0.1936  1.2016
  318TMC3    O2 4842   3.813   3.201  13.415  0.2891 -0.2095  0.5390
  319MPD2     C 4843   0.119   0.294  16.210  0.2978 -0.6155 -0.5292
  319MPD2    C1 4844   0.088   0.229  16.323  1.0570 -0.2439  0.2852
  319MPD2    C2 4845   4.697   0.194  16.350 -1.1799 -0.1260 -0.3710
  319MPD2    C3 4846   4.590   0.228  16.263 -0.8807  0.7027  0.1559
  319MPD2    C4 4847   4.623   0.298  16.153  0.6348  0.3403 -0.0810
  319MPD2    C5 4848   0.013   0.328  16.130 -0.1512 -0.4630 -0.9070
  319MPD2     H 4849   4.661   0.157  16.446 -1.2577  0.8704 -0.0166
  319MPD2    H1 4850   4.545   0.316  16.080  1.2788  2.5327 -0.2233
  319MPD2    H2 4851   0.217   0.317  16.171  0.9552 -2.0386  0.2853
  319MPD2    H3 4852   0.025   0.387  16.041 -0.0736  0.4569 -0.2880
  319MPD2     N 4853   4.451   0.193  16.283 -0.2793 -0.0878  0.0716
  319MPD2    H5 4854   4.382   0.237  16.223  1.2979  0.1550 -1.5733
  319MPD2    N1 4855   0.182   0.191  16.426  0.3197  0.1575 -0.3661
  319MPD2    H7 4856   0.152   0.135  16.506 -0.0345  0.1301 -0.5168
  320TMC3    C1 4857   4.266   0.087  16.389  0.3721  0.3685 -0.3503
  320TMC3    C2 4858   4.191   0.106  16.280  0.2831  0.0362  0.0402
  320TMC3    C3 4859   4.071   0.037  16.263  0.1780  0.2112 -0.0603
  320TMC3    C4 4860   4.228   4.725  16.481  0.0950  0.1759  0.0055
  320TMC3    C5 4861   4.113   4.649  16.463  0.5118 -0.2328  0.2018
  320TMC3    C6 4862   4.034   4.680  16.355  0.3830 -0.2859 -0.2968
  320TMC3     C 4863   4.403   0.120  16.391 -0.8566 -0.4276  0.3399
  320TMC3     O 4864   4.458   0.082  16.493 -0.0171 -0.1737 -0.1501
  320TMC3     H 4865   4.217   0.176  16.202 -0.2157  0.0206 -0.1427
  320TMC3    H1 4866   4.295   4.697  16.561 -0.6276 -2.0488 -0.1638
  320TMC3    H2 4867   3.931   4.648  16.349  0.2192  0.0618  0.6277
  320TMC3    C7 4868   4.117   4.510  16.513 -0.7261  0.1663 -1.0901
  320TMC3    C8 4869   3.975   0.113  16.182 -0.6558 -0.3002 -0.4258
  320TMC3    O1 4870   4.199   4.486  16.601 -0.5393  0.6217  0.7190
  320TMC3    O2 4871   4.010   0.224  16.149 -0.4058  0.8731 -0.0435
  321TMC3    C1 4872   0.377   0.195  16.554 -0.3352  0.0052  0.1430
  321TMC3    C2 4873   0.474   0.272  16.618  0.0644  0.4672  1.5290
  321TMC3    C3 4874   0.509   0.252  16.743  0.8361 -0.2365 -0.0485
  321TMC3    C4 4875   0.315   0.090  16.624  0.4052  0.7480 -0.2632
  321TMC3    C5 4876   0.353   0.075  16.755  0.7231 -0.1434  0.3165
  321TMC3    C6 4877   0.456   0.147  16.814 -0.2203  0.2181 -0.8290
  321TMC3     C 4878   0.302   0.256  16.443 -0.4134 -0.2671  0.2681
  321TMC3     O 4879   0.339   0.352  16.375  0.4170  0.3500 -0.2918
  321TMC3     H 4880   0.525   0.335  16.545 -0.9375  1.4770  1.6985
  321TMC3    H1 4881   0.237   0.034  16.574  2.2166 -0.2576 -1.9563
  321TMC3    H2 4882   0.478   0.124  16.918 -0.8505  3.5473  0.0168
  321TMC3    C7 4883   0.243   0.065  16.852 -1.0542 -0.2979 -0.7458
  321TMC3    C8 4884   0.476   0.369  16.810  0.5368 -0.5052  0.0962
  321TMC3    O1 4885   0.258   0.095  16.969 -0.4996 -0.2521  0.2061
  321TMC3    O2 4886   0.494   0.357  16.931  0.1678 -0.0896  0.1456
  322MPD2     C 4887   3.126   1.519  13.813  0.4988  0.1585  0.2632
  322MPD2    C1 4888   3.185   1.466  13.926  0.4972  0.1091 -0.4900
  322MPD2    C2 4889   3.202   1.329  13.933  0.1215 -0.0257 -0.4996
  322MPD2    C3 4890   3.159   1.252  13.831 -0.3447 -0.0378  0.3303
  322MPD2    C4 4891   3.095   1.307  13.721  0.8687 -0.1604 -0.0457
  322MPD2    C5 4892   3.068   1.441  13.717  0.9568 -0.2213  0.4585
  322MPD2     H 4893   3.272   1.284  14.002  0.0554  0.5505 -0.0610
  322MPD2    H1 4894   3.059   1.245  13.640 -1.5027  2.0563 -0.6849
  322MPD2    H2 4895   3.110   1.625  13.798  1.4720  0.1618 -0.7889
  322MPD2    H3 4896   3.025   1.487  13.629 -0.0628 -2.2933 -0.1398
  322MPD2     N 4897   3.197   1.117  13.828 -0.0566  0.0862  0.4804
  322MPD2    H5 4898   3.223   1.074  13.916 -1.8217  0.0435  0.9804
  322MPD2    N1 4899   3.250   1.551  14.013 -0.6311  0.3619  0.1811
  322MPD2    H7 4900   3.229   1.649  13.995  1.7246  0.4522 -2.1305
  323TMC3    C1 4901   3.359   1.622  14.223 -0.2890  0.6822 -0.0545
  323TMC3    C2 4902   3.473   1.664  14.162  0.3441 -0.1732 -0.4095
  323TMC3    C3 4903   3.574   1.709  14.238  0.2673 -0.6626 -0.2502
  323TMC3    C4 4904   3.346   1.610  14.365 -0.5409  0.8565 -0.0970
  323TMC3    C5 4905   3.452   1.654  14.439  0.4978 -0.4805  0.3790
  323TMC3    C6 4906   3.558   1.716  14.376  0.2197 -0.4340 -0.3199
  323TMC3     C 4907   3.291   1.516  14.144  0.0058 -0.2122 -0.3921
  323TMC3     O 4908   3.269   1.413  14.202  0.8985 -0.2491 -0.2871
  323TMC3     H 4909   3.499   1.625  14.064 -0.2830  1.8691 -1.3850
  323TMC3    H1 4910   3.267   1.554  14.414  1.0261 -0.6114  0.7131
  323TMC3    H2 4911   3.641   1.748  14.438 -1.7364  1.4503  1.3479
  323TMC3    C7 4912   3.479   1.565  14.551 -0.2628 -0.0108 -0.6001
  323TMC3    C8 4913   3.705   1.656  14.208  0.4125 -0.2671  0.3454
  323TMC3    O1 4914   3.413   1.460  14.558 -0.4009  0.4783 -0.1723
  323TMC3    O2 4915   3.766   1.588  14.290 -0.4423 -0.5488 -0.8100
  324MPD2     C 4916   0.600   3.259  14.147 -0.0277 -0.5537 -0.6755
  324MPD2    C1 4917   0.523   3.147  14.187 -1.0218  0.5430  0.2132
  324MPD2    C2 4918   0.393   3.136  14.144  0.4874 -0.4816 -0.3393
  324MPD2    C3 4919   0.339   3.229  14.054 -0.2232 -0.5653 -0.0505
  324MPD2    C4 4920   0.417   3.331  14.010  0.3243  0.7180  0.6798
  324MPD2    C5 4921   0.546   3.350  14.056 -0.0505  0.4092 -0.2200
  324MPD2     H 4922   0.330   3.055  14.178 -1.4666  0.5583 -1.4773
  324MPD2    H1 4923   0.387   3.396  13.929 -2.3943  0.8817  1.8315
  324MPD2    H2 4924   0.699   3.275  14.188 -0.2720  0.8235 -0.6147
  324MPD2    H3 4925   0.603   3.434  14.017 -0.8121  0.7165 -0.6597
  324MPD2     N 4926   0.205   3.228  14.010 -0.1414  0.2606 -0.3052
  324MPD2    H5 4927   0.168   3.314  13.970 -1.3404 -0.1566 -0.0871
  324MPD2    N1 4928   0.574   3.058  14.293  0.1429  0.2070 -0.2206
  324MPD2    H7 4929   0.512   2.986  14.330 -1.3621  2.8384  2.3440
  325TMC3    C1 4930   0.006   3.130  13.936  0.2738  0.6049 -0.6197
  325TMC3    C2 4931   4.688   3.020  13.882 -0.2896  0.9637  0.8339
  325TMC3    C3 4932   4.560   3.027  13.836  1.4800  0.2298 -0.3866
  325TMC3    C4 4933   4.682   3.248  13.942  0.4222 -0.2924 -0.4522
  325TMC3    C5 4934   4.558   3.255  13.894  0.8028 -0.2139 -0.4835
  325TMC3    C6 4935   4.491   3.147  13.844 -0.1449  0.4338  0.7067
  325TMC3     C 4936   0.136   3.115  14.010  0.0384  0.1136  0.9431
  325TMC3     O 4937   0.174   3.000  14.019 -0.3564  0.1052 -0.0307
  325TMC3     H 4938   0.011   2.931  13.875  0.9906  1.9007  0.4609
  325TMC3    H1 4939   4.729   3.332  13.991 -1.2011 -0.7805  1.9630
  325TMC3    H2 4940   4.388   3.156  13.812  0.0193 -0.5980 -0.1004
  325TMC3    C7 4941   4.481   3.380  13.907 -0.0944 -0.3686  0.1751
  325TMC3    C8 4942   4.495   2.898  13.821  0.1341 -0.5857  0.5335
  325TMC3    O1 4943   4.551   3.480  13.893 -0.1089  0.0227  0.2802
  325TMC3    O2 4944   4.575   2.803  13.846  0.1928  0.8016  0.3430
  326MPD2     C 4945   1.266   3.437  11.343  0.2313  0.3882 -0.0641
  326MPD2    C1 4946   1.175   3.495  11.259  0.3869  0.0400  0.2050
  326MPD2    C2 4947   1.215   3.594  11.170  0.4675 -0.4830  0.1654
  326MPD2    C3 4948   1.348   3.622  11.159 -0.1176  0.0021  0.0429
  326MPD2    C4 4949   1.442   3.559  11.239  0.2791  0.6511  0.0764
  326MPD2    C5 4950   1.403   3.465  11.327  0.3493  0.3391  0.3228
  326MPD2     H 4951   1.141   3.634  11.102  0.3803 -0.7842  0.0816
  326MPD2    H1 4952   1.548   3.574  11.225  0.4315 -0.2231  0.3267
  326MPD2    H2 4953   1.245   3.367  11.424  0.9796  1.0298  0.6758
  326MPD2    H3 4954   1.477   3.412  11.386 -1.1699 -0.5019  1.4583
  326MPD2     N 4955   1.395   3.706  11.053 -0.3036  0.8313 -0.1822
  326MPD2    H5 4956   1.495   3.699  11.037 -0.0127  2.3773  0.9607
  326MPD2    N1 4957   1.039   3.461  11.243  0.1519  0.3129 -0.4048
  326MPD2    H7 4958   0.984   3.518  11.180 -0.3246  0.0913 -0.1854
  327TMC3    C1 4959   0.882   3.300  11.190 -0.2335  0.1779  0.0054
  327TMC3    C2 4960   0.787   3.394  11.166  0.7208 -0.0916  0.2150
  327TMC3    C3 4961   0.743   3.427  11.040 -0.0626 -0.6947 -0.5363
  327TMC3    C4 4962   0.951   3.258  11.085  0.2959  0.5355 -1.0192
  327TMC3    C5 4963   0.915   3.289  10.952  0.4459  0.1625  0.3096
  327TMC3    C6 4964   0.800   3.366  10.934  0.2466  0.2378  0.0699
  327TMC3     C 4965   0.985   3.342  11.286  0.2955 -0.8387 -0.3335
  327TMC3     O 4966   1.020   3.266  11.374  0.1577 -0.0981 -0.2372
  327TMC3     H 4967   0.771   3.454  11.254  1.1035 -0.8964  0.8351
  327TMC3    H1 4968   1.039   3.198  11.108  0.2554  0.2194 -1.6712
  327TMC3    H2 4969   0.769   3.398  10.835  0.2922  0.0080 -0.0190
  327TMC3    C7 4970   1.024   3.337  10.862  0.1786  0.5099  0.6533
  327TMC3    C8 4971   0.724   3.568  11.010 -0.0600  0.4509 -1.3328
  327TMC3    O1 4972   0.986   3.409  10.772  0.2936 -0.4334 -0.0425
  327TMC3    O2 4973   0.764   3.605  10.900 -0.1683  0.3280  0.0402
  328MPD2     C 4974   3.977   3.694  17.386 -0.3164 -0.3501  0.2568
  328MPD2    C1 4975   3.890   3.589  17.359 -0.1900 -0.1591 -0.1175
  328MPD2    C2 4976   3.847   3.578  17.226  0.2961  0.2529 -0.6555
  328MPD2    C3 4977   3.903   3.653  17.127  0.4195  0.3362 -0.4434
  328MPD2    C4 4978   3.992   3.751  17.155  0.3687 -0.1125  0.4266
  328MPD2    C5 4979   4.022   3.776  17.286  0.2054  0.5088 -0.3299
  328MPD2     H 4980   3.772   3.508  17.192  0.7617 -1.3414  1.5294
  328MPD2    H1 4981   4.022   3.822  17.079 -1.1764 -1.1441 -1.1292
  328MPD2    H2 4982   4.020   3.727  17.480  0.5331 -0.6846 -0.0156
  328MPD2    H3 4983   4.080   3.865  17.309 -0.4580  0.7927  0.2398
  328MPD2     N 4984   3.859   3.655  16.989 -0.1199 -0.5617  0.2008
  328MPD2    H5 4985   3.888   3.733  16.930 -0.1793 -0.5480  0.1894
  328MPD2    N1 4986   3.838   3.512  17.463  0.3219  0.7077  0.3287
  328MPD2    H7 4987   3.867   3.536  17.557 -0.0207  0.2906  0.5369
  329TMC3    C1 4988   3.682   3.391  17.587 -0.2827  0.5095  0.0008
  329TMC3    C2 4989   3.647   3.501  17.655 -0.3200  0.5595  0.0717
  329TMC3    C3 4990   3.550   3.491  17.751 -0.1224 -0.4542  0.4203
  329TMC3    C4 4991   3.616   3.274  17.604 -0.3438  0.2237  0.5605
  329TMC3    C5 4992   3.526   3.268  17.703 -0.3128  0.2031 -0.3870
  329TMC3    C6 4993   3.495   3.374   0.024  0.2820 -0.0647  0.2138
  329TMC3     C 4994   3.744   3.415  17.456 -0.2057  0.5901  0.2661
  329TMC3     O 4995   3.700   3.345  17.365 -0.1725 -0.7104  0.0775
  329TMC3     H 4996   3.692   3.596  17.626 -0.5042  1.0232  1.2936
  329TMC3    H1 4997   3.651   3.185  17.554 -1.8893  0.1649 -0.4326
  329TMC3    H2 4998   3.420   3.372   0.102  1.2857  0.6291  1.2041
  329TMC3    C7 4999   3.442   3.149  17.728 -0.0426 -0.5300 -0.2757
  329TMC3    C8 5000   3.477   3.611   0.041  0.3588  0.2351  0.2030
  329TMC3    O1 5001   3.370   3.156   0.069 -0.3423  0.1943 -0.1122
  329TMC3    O2 5002   3.407   3.607   0.139 -0.6010 -0.2096 -0.0016
  330TMC3    C1 5003   1.309   3.438   9.853 -0.5360 -0.0891 -0.2006
  330TMC3    C2 5004   1.236   3.355   9.768 -0.1328  0.5860 -0.2153
  330TMC3    C3 5005   1.297   3.239   9.723 -0.0219  0.3301 -0.3484
  330TMC3    C4 5006   1.438   3.415   9.881  0.0997 -0.4750 -0.1691
  330TMC3    C5 5007   1.495   3.304   9.830  0.4974 -0.3142 -0.6868
  330TMC3    C6 5008   1.429   3.220   9.752 -0.1734  0.0400  0.7479
  330TMC3     C 5009   1.235   3.531   9.945  0.3147  0.1102 -0.1380
  330TMC3     O 5010   1.304   3.604  10.023  0.1365  0.0037  0.3583
  330TMC3     H 5011   1.137   3.391   9.740 -0.2180  1.3368  1.0087
  330TMC3    H1 5012   1.500   3.483   9.938 -2.1483  0.9177  0.5869
  330TMC3    H2 5013   1.477   3.131   9.713 -0.1018  0.8153 -0.9132
  330TMC3    C7 5014   1.631   3.279   9.873  0.0882  0.2685  0.6081
  330TMC3    C8 5015   1.223   3.146   9.641  0.4285  0.1301 -0.0048
  330TMC3    O1 5016   1.688   3.377   9.919 -0.4489  0.3877  0.2965
  330TMC3    O2 5017   1.112   3.182   9.608  0.6412  0.3674 -0.6734
  331MPD2     C 5018   4.495   2.227  13.087  0.5493 -0.1382 -0.3105
  331MPD2    C1 5019   4.442   2.199  12.961  0.2188 -0.2483 -0.3822
  331MPD2    C2 5020   4.412   2.072  12.923  0.1942 -0.2710 -0.2521
  331MPD2    C3 5021   4.452   1.967  13.006 -0.1199  0.3079  0.2795
  331MPD2    C4 5022   4.523   1.990  13.126 -0.3880  0.4608 -0.0227
  331MPD2    C5 5023   4.535   2.119  13.162 -0.4168  0.1008 -0.1360
  331MPD2     H 5024   4.367   2.049  12.827 -1.7808  1.9356  0.1389
  331MPD2    H1 5025   4.570   1.909  13.181 -2.2442  0.3540  1.4229
  331MPD2    H2 5026   4.517   2.329  13.114 -0.4071  0.4745 -1.8750
  331MPD2    H3 5027   4.586   2.142  13.255  0.4642  0.0443 -0.6102
  331MPD2     N 5028   4.427   1.838  12.960  0.4094 -0.2744  0.7896
  331MPD2    H5 5029   4.362   1.834  12.882  0.3969 -2.1428  0.8867
  331MPD2    N1 5030   4.409   2.306  12.879 -0.0952  0.3560 -0.3863
  331MPD2    H7 5031   4.443   2.398  12.904  1.2068 -0.4388  0.7797
  332TMC3    C1 5032   4.459   1.618  12.911  0.0051 -0.3733  0.6379
  332TMC3    C2 5033   4.345   1.624  12.827  0.1876  0.1256 -0.2329
  332TMC3    C3 5034   4.325   1.520  12.737  0.3084 -0.4576  0.0570
  332TMC3    C4 5035   4.537   1.512  12.910  0.2986  0.1620  0.2022
  332TMC3    C5 5036   4.523   1.423  12.811 -0.0222 -0.3403  0.0821
  332TMC3    C6 5037   4.412   1.414  12.735 -0.3845 -0.2347  0.0274
  332TMC3     C 5038   4.495   1.727  12.997 -0.1657 -0.1695 -0.1738
  332TMC3     O 5039   4.579   1.704  13.082  0.0629  0.1645  0.4750
  332TMC3     H 5040   4.272   1.704  12.821  0.3073  0.2219 -0.3985
  332TMC3    H1 5041   4.627   1.501  12.970  1.4305  0.1224 -1.4904
  332TMC3    H2 5042   4.397   1.333  12.664  0.8453 -1.9740  1.7076
  332TMC3    C7 5043   4.620   1.320  12.782 -0.1290 -0.5927 -0.1106
  332TMC3    C8 5044   4.249   1.543  12.614  0.1591  0.3034  0.2530
  332TMC3    O1 5045   4.578   1.218  12.733  0.2441 -0.2733 -0.1514
  332TMC3    O2 5046   4.211   1.658  12.589 -0.2869  0.8598  0.2121
  333MPD2     C 5047   4.736   1.183  10.767 -0.1186  0.3200  0.4070
  333MPD2    C1 5048   4.735   1.306  10.834 -0.1705 -0.3997  0.3917
  333MPD2    C2 5049   4.677   1.304  10.955  0.4324  0.0363  0.5107
  333MPD2    C3 5050   4.612   1.194  11.006  0.1108  0.3242 -0.8346
  333MPD2    C4 5051   4.625   1.075  10.937  0.2694 -0.4243 -0.0587
  333MPD2    C5 5052   4.694   1.068  10.821 -0.0753 -0.1646  0.2754
  333MPD2     H 5053   4.668   1.389  11.021 -3.5875 -0.3189  0.4155
  333MPD2    H1 5054   4.582   0.980  10.967  1.4194 -0.6543  0.8599
  333MPD2    H2 5055   0.042   1.176  10.668 -0.8399 -1.6104  0.2165
  333MPD2    H3 5056   4.694   0.987  10.749  2.6477  2.5085 -2.6937
  333MPD2     N 5057   4.550   1.204  11.129  0.2678  0.3899 -0.6928
  333MPD2    H5 5058   4.564   1.292  11.177  0.9629 -0.4661  0.6568
  333MPD2    N1 5059   0.029   1.428  10.772  0.0834 -0.1211 -0.1344
  333MPD2    H7 5060   0.076   1.422  10.682  1.1296 -3.0949  0.6231
  334TMC3    C1 5061   0.015   1.650  10.717  0.1778  0.3657 -0.7416
  334TMC3    C2 5062   0.141   1.650  10.668  0.4878 -0.7010 -0.3087
  334TMC3    C3 5063   0.174   1.758  10.591 -1.1242  0.4812  0.5064
  334TMC3    C4 5064   4.666   1.751  10.690 -0.0363 -0.3049 -0.1415
  334TMC3    C5 5065   4.698   1.854  10.605  0.1143 -0.5077  0.5117
  334TMC3    C6 5066   0.091   1.862  10.559 -0.5011 -0.1369  0.3008
  334TMC3     C 5067   4.707   1.543  10.801  0.7639 -0.9904 -0.3841
  334TMC3     O 5068   4.604   1.560  10.865 -0.1842  0.3491 -0.3577
  334TMC3     H 5069   0.208   1.566  10.683 -1.1268 -1.4762  2.7213
  334TMC3    H1 5070   4.569   1.760  10.738  0.3694 -1.3735  0.8864
  334TMC3    H2 5071   0.117   1.949  10.501 -2.2650  0.7323  0.8216
  334TMC3    C7 5072   4.638   1.984  10.634 -0.3817 -0.2783  0.1943
  334TMC3    C8 5073   0.305   1.758  10.530 -0.2025  0.0269 -0.5685
  334TMC3    O1 5074   4.707   2.084  10.653  0.6505  0.5129  0.3406
  334TMC3    O2 5075   0.387   1.703  10.597  0.0935  0.0726  0.0848
  335TMC3    C1 5076   4.487   3.498  17.212 -0.0824 -0.2852 -0.1480
  335TMC3    C2 5077   4.453   3.501  17.082 -0.0784  0.1810  0.3981
  335TMC3    C3 5078   4.548   3.471  16.987  0.7103  0.1182  0.2112
  335TMC3    C4 5079   4.606   3.447  17.261  0.7952 -0.3663 -0.1341
  335TMC3    C5 5080   4.694   3.411  17.166  0.0058  0.3434 -0.1048
  335TMC3    C6 5081   4.671   3.418  17.028  0.6111  0.4798  0.3078
  335TMC3     C 5082   4.380   3.521  17.304 -0.2376  0.4129 -1.0388
  335TMC3     O 5083   4.296   3.608  17.285 -0.0394  0.1486  0.0555
  335TMC3     H 5084   4.364   3.553  17.046  0.5176  0.1853 -1.0440
  335TMC3    H1 5085   4.629   3.452  17.367  0.7973  3.0978 -0.2973
  335TMC3    H2 5086   4.738   3.369  16.958 -1.0112 -1.3139  0.0185
  335TMC3    C7 5087   0.070   3.337  17.214  0.2989 -0.0926  0.4462
  335TMC3    C8 5088   4.504   3.421  16.860 -0.3395  0.5054 -0.2015
  335TMC3    O1 5089   0.167   3.340  17.144  0.3576  0.2238  0.4667
  335TMC3    O2 5090   4.590   3.399  16.773  0.5736 -0.1985  0.2168
  336MPD2     C 5091   4.023   1.419  16.234  0.3209 -0.0574  0.0937
  336MPD2    C1 5092   3.977   1.341  16.131 -0.1947  0.7383  0.1103
  336MPD2    C2 5093   4.025   1.210  16.123 -0.1547  0.8244  0.1424
  336MPD2    C3 5094   4.108   1.148  16.216 -0.1681  1.1124  0.0474
  336MPD2    C4 5095   4.143   1.226  16.317 -0.2436 -0.3397 -0.2598
  336MPD2    C5 5096   4.110   1.362  16.328 -0.0869  0.1701 -0.4023
  336MPD2     H 5097   4.006   1.159  16.030  0.6042  1.2642 -0.2558
  336MPD2    H1 5098   4.203   1.182  16.396 -1.1544  0.3185  0.7997
  336MPD2    H2 5099   3.993   1.523  16.244  0.3237 -0.2166  1.7818
  336MPD2    H3 5100   4.149   1.427  16.406  0.9592 -0.6282 -0.2636
  336MPD2     N 5101   4.155   1.016  16.215 -0.3664  0.5058 -0.0133
  336MPD2    H5 5102   4.186   0.975  16.303  0.5345  0.0314 -0.5461
  336MPD2    N1 5103   3.900   1.383  16.023  0.3699  0.3608 -0.2150
  336MPD2    H7 5104   3.880   1.324  15.943 -1.0086  0.7079 -0.1282
  337TMC3    C1 5105   3.764   1.518  15.897  0.1628  0.0682 -0.5836
  337TMC3    C2 5106   3.714   1.403  15.842  0.5003 -0.2885 -0.1835
  337TMC3    C3 5107   3.656   1.414  15.723  0.1401 -0.3801 -0.3654
  337TMC3    C4 5108   3.779   1.640  15.831  0.6901  0.1070  0.1801
  337TMC3    C5 5109   3.741   1.630  15.696 -0.4896 -0.7771  0.8801
  337TMC3    C6 5110   3.663   1.529  15.644 -0.5220 -0.2812 -0.3451
  337TMC3     C 5111   3.853   1.508  16.004 -0.6759 -0.2950  0.3125
  337TMC3     O 5112   3.864   1.613  16.067  0.1334  0.1102 -0.4916
  337TMC3     H 5113   3.674   1.317  15.896 -0.5967  0.7619  0.6869
  337TMC3    H1 5114   3.839   1.719  15.873 -0.7761  2.0374 -1.3430
  337TMC3    H2 5115   3.628   1.535  15.542 -3.5765 -1.5062  0.6276
  337TMC3    C7 5116   3.758   1.742  15.609 -0.3184  0.0521  0.1107
  337TMC3    C8 5117   3.552   1.312  15.682  0.3435 -0.5967  0.2325
  337TMC3    O1 5118   3.663   1.777  15.540  0.3176  0.1472  0.0580
  337TMC3    O2 5119   3.556   1.198  15.719  0.6797  0.1742  0.7256
  338MPD2     C 5120   3.865   4.651   0.451  0.1930  0.1039  0.3496
  338MPD2    C1 5121   3.955   4.738   0.386  0.7009  0.2112 -0.4468
  338MPD2    C2 5122   3.910   0.117   0.326  0.5020 -0.3896  0.4174
  338MPD2    C3 5123   3.771   0.146   0.330  0.0072 -0.1419 -0.7432
  338MPD2    C4 5124   3.684   0.054   0.386  0.1893  0.2656  0.4465
  338MPD2    C5 5125   3.733   4.681   0.438  0.7232  0.4820 -0.5365
  338MPD2     H 5126   3.981   0.184   0.279  2.4334 -0.5849  3.0334
  338MPD2    H1 5127   3.576   0.059   0.374  0.7798  4.1909 -3.1181
  338MPD2    H2 5128   3.882   4.562   0.511  0.6230  1.1036  1.6941
  338MPD2    H3 5129   3.658   4.614   0.478  1.2428  0.1588 -0.1019
  338MPD2     N 5130   3.734   0.267   0.265  0.6393  0.0331  0.7422
  338MPD2    H5 5131   3.809   0.323   0.228  1.9303 -2.0116  0.2939
  338MPD2    N1 5132   4.087   0.005   0.407  0.5208  0.3687  0.3983
  338MPD2    H7 5133   4.134   0.090   0.377  1.7990  0.1245  1.7038
  339TMC3    C1 5134   3.591   0.436   0.186  0.4452 -0.1202  0.3376
  339TMC3    C2 5135   3.471   0.456   0.127  0.0443  0.6839 -0.0866
  339TMC3    C3 5136   3.431   0.588   0.124 -0.1653 -0.5802 -0.3322
  339TMC3    C4 5137   3.669   0.535   0.237  0.6484  0.1860 -0.4824
  339TMC3    C5 5138   3.634   0.664   0.209 -0.0753  0.6081 -0.3010
  339TMC3    C6 5139   3.518   0.693   0.147  0.3002  0.1916  0.3060
  339TMC3     C 5140   3.604   0.307   0.249 -0.0625  0.0497  0.2247
  339TMC3     O 5141   3.500   0.262   0.296 -0.7157 -0.1425  0.5202
  339TMC3     H 5142   3.402   0.372   0.120  0.6212 -0.0071  2.2738
  339TMC3    H1 5143   3.751   0.507   0.302  0.7429 -2.3243 -1.6680
  339TMC3    H2 5144   3.490   0.796   0.127 -0.4015  0.2170  1.4009
  339TMC3    C7 5145   3.724   0.775   0.221 -0.5690  0.1682  0.0863
  339TMC3    C8 5146   3.306   0.604   0.187  0.3100  0.4245  0.4108
  339TMC3    O1 5147   3.684   0.890   0.199 -0.6254 -0.0307 -0.7836
  339TMC3    O2 5148   3.200   0.554   0.146 -0.3540 -0.3475  0.0346
  340MPD2     C 5149   4.544   3.144   9.885 -0.0545  0.8961 -1.4254
  340MPD2    C1 5150   4.672   3.164   9.927 -0.2091  0.5988 -0.2820
  340MPD2    C2 5151   4.700   3.259  10.027 -0.4031 -0.4367  0.5180
  340MPD2    C3 5152   4.594   3.342  10.060  1.1599  0.8522 -0.4001
  340MPD2    C4 5153   4.465   3.328  10.005 -0.4536 -0.2258  0.0375
  340MPD2    C5 5154   4.440   3.220   9.927  0.1779  0.7687  1.2094
  340MPD2     H 5155   0.061   3.266  10.067 -0.4037 -0.1556  0.4720
  340MPD2    H1 5156   4.378   3.390  10.025  0.8513  0.9080  2.2933
  340MPD2    H2 5157   4.523   3.063   9.816  0.6638 -0.8249  0.3936
  340MPD2    H3 5158   4.341   3.202   9.886  2.1642 -1.2532 -2.7149
  340MPD2     N 5159   4.601   3.429  10.179  0.1648 -0.1344 -0.0400
  340MPD2    H5 5160   4.510   3.460  10.211  0.0627 -0.9588  0.4716
  340MPD2    N1 5161   0.033   3.080   9.863  0.1998  0.4920  0.1450
  340MPD2    H7 5162   0.005   2.990   9.824  0.7120  0.9084 -1.1563
  341TMC3    C1 5163   0.223   2.961   9.877 -0.1225 -0.2399  0.1927
  341TMC3    C2 5164   0.148   2.850   9.912 -0.2294 -0.0412 -0.4116
  341TMC3    C3 5165   0.193   2.753  10.000 -0.2558 -0.2186  0.6418
  341TMC3    C4 5166   0.347   2.974   9.939  0.2292  0.1265 -0.0982
  341TMC3    C5 5167   0.397   2.867  10.014  0.0660 -0.2862 -0.2393
  341TMC3    C6 5168   0.324   2.751  10.039 -0.1366 -0.2378 -0.3391
  341TMC3     C 5169   0.161   3.088   9.883  0.1558 -0.0847  1.0369
  341TMC3     O 5170   0.226   3.186   9.914  0.3514 -0.2312 -0.6999
  341TMC3     H 5171   0.049   2.851   9.868 -0.0898 -0.3754 -0.7347
  341TMC3    H1 5172   0.401   3.068   9.935  0.8621 -0.2467 -0.4334
  341TMC3    H2 5173   0.366   2.678  10.108  1.2029 -0.7307 -1.6727
  341TMC3    C7 5174   0.538   2.869  10.051  0.6599 -0.7557 -0.0654
  341TMC3    C8 5175   0.091   2.656  10.054 -0.2092 -0.3953  0.2468
  341TMC3    O1 5176   0.570   2.783  10.135  0.3032  0.2486  0.7716
  341TMC3    O2 5177   4.715   2.688  10.053 -0.6498  0.8640 -0.1948
  342MPD2     C 5178   2.122   1.689  17.369 -1.0671  0.1683  0.1525
  342MPD2    C1 5179   2.246   1.700  17.304 -0.4716 -0.1957  0.1428
  342MPD2    C2 5180   2.320   1.813  17.340 -0.3656  0.7493 -0.3644
  342MPD2    C3 5181   2.261   1.927  17.399 -0.6533 -0.6631 -0.4101
  342MPD2    C4 5182   2.128   1.917  17.436 -0.3560  0.5027  0.5810
  342MPD2    C5 5183   2.067   1.796  17.434 -0.4635  0.1133  0.7621
  342MPD2     H 5184   2.421   1.821  17.301 -0.0939  1.6857  0.5088
  342MPD2    H1 5185   2.083   2.012  17.462 -0.0207  0.0013  2.9879
  342MPD2    H2 5186   2.054   1.607  17.346  0.6553 -1.8949  2.5424
  342MPD2    H3 5187   1.961   1.791  17.454 -0.1732 -1.8448  1.7559
  342MPD2     N 5188   2.332   2.050  17.416  0.0480  0.1030 -0.6293
  342MPD2    H5 5189   2.289   2.130  17.461  2.0862  0.3548  0.8913
  342MPD2    N1 5190   2.300   1.607  17.215 -0.1086 -0.0631 -0.4984
  342MPD2    H7 5191   2.369   1.643  17.150 -2.2633 -0.5137 -3.0068
  343TMC3    C1 5192   2.342   1.403  17.093 -0.2133  0.2346  0.3076
  343TMC3    C2 5193   2.453   1.451  17.025 -0.4813 -0.5169  0.1688
  343TMC3    C3 5194   2.523   1.347  16.966  0.3590  0.2920  0.3272
  343TMC3    C4 5195   2.316   1.271  17.104 -0.0989 -0.1523  0.0800
  343TMC3    C5 5196   2.383   1.181  17.033  0.4375  0.1636  0.6009
  343TMC3    C6 5197   2.495   1.211  16.959  0.0442 -0.5048  0.6392
  343TMC3     C 5198   2.266   1.479  17.197  0.8509 -0.4059 -0.0460
  343TMC3     O 5199   2.176   1.427  17.259 -0.4388  0.2236  0.6247
  343TMC3     H 5200   2.485   1.554  17.010 -1.4027 -0.3584 -0.7334
  343TMC3    H1 5201   2.227   1.232  17.152 -0.8712  0.8273 -0.5369
  343TMC3    H2 5202   2.551   1.136  16.904  1.3445  1.8851 -1.3247
  343TMC3    C7 5203   2.386   1.057  17.103 -0.5700 -0.1158 -0.5690
  343TMC3    C8 5204   2.663   1.383  16.938 -0.3898  0.7250 -0.2926
  343TMC3    O1 5205   2.399   0.951  17.038  0.0453  0.5233  0.4876
  343TMC3    O2 5206   2.695   1.503  16.934 -0.4305  0.1728  0.0765
  344MPD2     C 5207   3.726   0.555  10.996 -0.7478  0.3167  0.7452
  344MPD2    C1 5208   3.606   0.602  10.953  0.1588 -0.7811  0.1871
  344MPD2    C2 5209   3.596   0.737  10.922  0.0826  0.4065  0.7005
  344MPD2    C3 5210   3.704   0.818  10.928  0.4866  0.1168 -0.4475
  344MPD2    C4 5211   3.825   0.766  10.975 -0.5506 -0.3447 -0.4485
  344MPD2    C5 5212   3.839   0.633  11.003  0.3079 -0.0362 -1.5441
  344MPD2     H 5213   3.496   0.776  10.905  0.2570  0.3935 -0.3420
  344MPD2    H1 5214   3.916   0.823  10.988 -0.4046 -0.6078 -0.3193
  344MPD2    H2 5215   3.742   0.453  11.029  2.6746 -0.0994 -2.1602
  344MPD2    H3 5216   3.927   0.588  11.048  0.8261  3.8273  1.2630
  344MPD2     N 5217   3.697   0.960  10.900 -0.2779 -0.0518  0.2976
  344MPD2    H5 5218   3.763   1.026  10.939 -0.1051 -0.1704  0.2067
  344MPD2    N1 5219   3.490   0.524  10.959 -0.0835  0.4166 -0.5809
  344MPD2    H7 5220   3.494   0.442  11.020 -1.8860  1.9875  1.6332
  345TMC3    C1 5221   3.611   1.162  10.800  0.2300  0.0128  0.6691
  345TMC3    C2 5222   3.705   1.228  10.874 -0.9066  1.2132 -0.3792
  345TMC3    C3 5223   3.735   1.356  10.845 -0.1658  0.4352  0.2232
  345TMC3    C4 5224   3.540   1.218  10.697  0.1384  0.3746 -0.2693
  345TMC3    C5 5225   3.577   1.348  10.667 -0.0627  0.3972  0.4311
  345TMC3    C6 5226   3.680   1.417  10.731 -0.9910 -0.5918 -0.1814
  345TMC3     C 5227   3.594   1.020  10.830  0.8204  0.3084 -0.2730
  345TMC3     O 5228   3.495   0.968  10.780  0.3870  1.2517  0.1546
  345TMC3     H 5229   3.748   1.190  10.966 -1.5197  0.7852 -0.2646
  345TMC3    H1 5230   3.449   1.173  10.661  0.3975  0.2490 -0.7703
  345TMC3    H2 5231   3.720   1.513  10.703 -0.4892 -1.0786 -1.1196
  345TMC3    C7 5232   3.503   1.434  10.579 -0.5602  0.4884  0.7303
  345TMC3    C8 5233   3.779   1.441  10.956  0.1452 -1.0268  0.0917
  345TMC3    O1 5234   3.556   1.546  10.564 -0.2418 -1.0285  0.1474
  345TMC3    O2 5235   3.860   1.394  11.036  0.2820 -0.8373  0.1521
  346MPD2     C 5236   3.369   2.756  14.143  0.6666  0.5552  0.2248
  346MPD2    C1 5237   3.485   2.807  14.088  0.6809 -0.5800 -0.2406
  346MPD2    C2 5238   3.562   2.900  14.148 -0.0353 -0.3896 -0.1471
  346MPD2    C3 5239   3.524   2.930  14.276 -0.6557  0.2190 -0.4754
  346MPD2    C4 5240   3.415   2.868  14.332  0.5865 -0.1780 -0.2593
  346MPD2    C5 5241   3.337   2.782  14.269  0.6187  0.0994  0.2554
  346MPD2     H 5242   3.631   2.971  14.104  1.2616  0.7194  3.6167
  346MPD2    H1 5243   3.381   2.896  14.432 -0.3888  1.1673 -0.9663
  346MPD2    H2 5244   3.304   2.683  14.096  0.7136 -0.4799  1.7389
  346MPD2    H3 5245   3.258   2.733  14.325  0.3689  1.9082  1.4893
  346MPD2     N 5246   3.592   3.045  14.329 -0.1397 -0.3529 -0.3835
  346MPD2    H5 5247   3.679   3.068  14.284 -0.9042  1.1778 -1.0690
  346MPD2    N1 5248   3.517   2.786  13.952  0.5203  0.1635 -0.3176
  346MPD2    H7 5249   3.600   2.822  13.906 -0.9595  2.7253 -0.9554
  347TMC3    C1 5250   3.628   3.253  14.426  0.6186 -0.1348  0.1587
  347TMC3    C2 5251   3.704   3.280  14.318  1.2174  0.5808 -0.0292
  347TMC3    C3 5252   3.805   3.373  14.331 -0.4184  0.1733 -0.4572
  347TMC3    C4 5253   3.655   3.321  14.545 -0.4008  0.1297  0.5004
  347TMC3    C5 5254   3.756   3.401  14.557  0.7299 -0.0952 -0.4032
  347TMC3    C6 5255   3.836   3.435  14.447  0.2565  0.1473  0.4279
  347TMC3     C 5256   3.554   3.126  14.433  0.0679 -0.2662 -0.4276
  347TMC3     O 5257   3.453   3.125  14.501  0.0467 -0.2955  0.2810
  347TMC3     H 5258   3.678   3.241  14.220 -2.4481  0.5009  0.9575
  347TMC3    H1 5259   3.596   3.290  14.631 -2.2137  0.3811 -0.6517
  347TMC3    H2 5260   3.911   3.512  14.457 -1.6662  2.0728 -0.0052
  347TMC3    C7 5261   3.801   3.433  14.685  0.4258  0.1434 -0.1909
  347TMC3    C8 5262   3.894   3.398  14.220  0.4359  0.0681 -0.7912
  347TMC3    O1 5263   3.740   3.376  14.773  0.3530  0.1572 -0.7253
  347TMC3    O2 5264   3.893   3.322  14.126 -0.0477 -0.0847 -0.0849
  348MPD2     C 5265   2.622   2.628  12.129 -0.1897 -0.0693 -0.0157
  348MPD2    C1 5266   2.539   2.548  12.054  0.1840  0.9100 -0.5982
  348MPD2    C2 5267   2.432   2.610  11.989 -0.0380 -0.1474  0.6853
  348MPD2    C3 5268   2.392   2.740  12.011  0.0330 -0.1755 -0.2149
  348MPD2    C4 5269   2.468   2.807  12.102 -0.1179 -0.1660 -0.2189
  348MPD2    C5 5270   2.580   2.753  12.157  0.1442 -0.1435 -0.0882
  348MPD2     H 5271   2.369   2.551  11.923 -1.4416  2.1227  0.0244
  348MPD2    H1 5272   2.460   2.913  12.123 -0.5503 -0.0990 -0.7260
  348MPD2    H2 5273   2.716   2.593  12.172 -0.1764  2.1059  1.7028
  348MPD2    H3 5274   2.645   2.807  12.225  3.5937 -3.1200 -1.0518
  348MPD2     N 5275   2.286   2.787  11.934 -0.0853 -0.4626  0.2133
  348MPD2    H5 5276   2.243   2.715  11.876 -1.0565  0.4838 -0.2266
  348MPD2    N1 5277   2.566   2.412  12.024 -0.1907 -0.2820 -0.8492
  348MPD2    H7 5278   2.510   2.370  11.951 -0.0915  0.3547 -1.2900
  349TMC3    C1 5279   2.643   2.190  12.052 -0.1149 -0.0436 -0.2956
  349TMC3    C2 5280   2.683   2.089  12.142 -0.3643 -0.1538 -0.1837
  349TMC3    C3 5281   2.665   1.956  12.099 -0.3546  0.6220  0.3081
  349TMC3    C4 5282   2.585   2.160  11.930 -0.5550  0.1224 -0.0263
  349TMC3    C5 5283   2.583   2.032  11.891 -0.2252 -0.7391 -0.7848
  349TMC3    C6 5284   2.622   1.930  11.971 -0.0115  0.2308 -0.6658
  349TMC3     C 5285   2.652   2.332  12.099  0.0258  0.4510 -0.5925
  349TMC3     O 5286   2.726   2.355  12.193 -0.0348  0.2954  0.5936
  349TMC3     H 5287   2.710   2.116  12.243 -0.3457  0.7267 -0.4257
  349TMC3    H1 5288   2.560   2.236  11.857  0.4806 -1.3294 -1.9017
  349TMC3    H2 5289   2.602   1.828  11.940 -0.7132  0.3584 -0.6291
  349TMC3    C7 5290   2.485   2.004  11.792  0.1892 -0.3392 -0.6035
  349TMC3    C8 5291   2.674   1.843  12.194 -1.1191 -0.8578  0.9809
  349TMC3    O1 5292   2.392   2.082  11.775  0.2067  0.2009 -0.1266
  349TMC3    O2 5293   2.669   1.883  12.308 -0.4911 -0.1868  0.1158
  350MPD2     C 5294   1.594   0.928  10.595 -0.5173 -0.4407  0.7187
  350MPD2    C1 5295   1.530   0.804  10.578 -0.3545 -0.1925 -0.5159
  350MPD2    C2 5296   1.433   0.774  10.680 -0.1934 -0.5419 -0.3465
  350MPD2    C3 5297   1.421   0.854  10.795  0.2461  0.3119 -0.2761
  350MPD2    C4 5298   1.495   0.968  10.802 -0.5576  0.2901 -0.1104
  350MPD2    C5 5299   1.576   1.010  10.703  0.0840  0.4827  0.1869
  350MPD2     H 5300   1.366   0.689  10.681  0.0367 -0.7307 -0.9481
  350MPD2    H1 5301   1.488   1.035  10.887 -3.5709  0.9983 -0.9205
  350MPD2    H2 5302   1.661   0.963  10.517  1.0092 -3.0701  0.8416
  350MPD2    H3 5303   1.619   1.109  10.699 -0.3019  0.6138 -0.8126
  350MPD2     N 5304   1.330   0.812  10.890 -1.0494 -0.3848  0.0852
  350MPD2    H5 5305   1.272   0.732  10.864 -1.8306  0.0338  0.5441
  350MPD2    N1 5306   1.547   0.727  10.456  0.5619  0.3540  0.7814
  350MPD2    H7 5307   1.479   0.654  10.437  0.3108  0.7735  0.0756
  351TMC3    C1 5308   1.634   0.656  10.244 -0.4252 -0.7536  0.0607
  351TMC3    C2 5309   1.641   0.524  10.271 -0.4805  0.4266  0.4352
  351TMC3    C3 5310   1.674   0.441  10.172 -0.0030  0.5898  0.2612
  351TMC3    C4 5311   1.662   0.710  10.118 -0.4968  0.0807  0.1645
  351TMC3    C5 5312   1.695   0.615  10.028 -0.0451  0.2722  0.2757
  351TMC3    C6 5313   1.697   0.482  10.044  0.0935 -0.8451 -0.2145
  351TMC3     C 5314   1.643   0.749  10.358 -0.4005 -0.2156 -0.4697
  351TMC3     O 5315   1.716   0.842  10.335  0.1546  0.2107 -0.2800
  351TMC3     H 5316   1.626   0.499  10.376  2.8123 -2.0541  0.2884
  351TMC3    H1 5317   1.653   0.817  10.101 -2.5592  0.1951  1.9042
  351TMC3    H2 5318   1.740   0.412   9.973  2.3345  1.3272 -0.9975
  351TMC3    C7 5319   1.707   0.666   9.893  0.1409  0.4168  0.1801
  351TMC3    C8 5320   1.656   0.297  10.190  0.8080  0.7112  0.3438
  351TMC3    O1 5321   1.744   0.781   9.876 -0.2231  0.2296 -0.0396
  351TMC3    O2 5322   1.704   0.219  10.106 -0.3056  0.1556 -0.2120
  352MPD2     C 5323   0.098   3.064   0.931 -0.0425  0.1464 -0.2646
  352MPD2    C1 5324   0.052   3.019   0.807  0.6063  0.2388 -0.1655
  352MPD2    C2 5325   0.088   2.889   0.774  0.2205 -0.4937  0.4290
  352MPD2    C3 5326   0.159   2.805   0.857  0.2980 -0.4746 -0.8617
  352MPD2    C4 5327   0.205   2.855   0.978  0.5449 -0.9440  0.4183
  352MPD2    C5 5328   0.182   2.988   1.010  0.3782  0.2912  0.7576
  352MPD2     H 5329   0.050   2.849   0.681 -0.3651 -0.1621  0.5263
  352MPD2    H1 5330   0.267   2.801   1.049  2.0835  1.4632  0.9188
  352MPD2    H2 5331   0.089   3.168   0.961 -1.1408  0.2038 -0.8089
  352MPD2    H3 5332   0.215   3.025   1.106 -1.4899 -1.1960  1.9710
  352MPD2     N 5333   0.184   2.666   0.836  0.2628 -0.7722 -0.4064
  352MPD2    H5 5334   0.241   2.618   0.904  2.2068  0.7569 -0.9517
  352MPD2    N1 5335   4.693   3.093   0.737  0.3249  0.0634 -1.0240
  352MPD2    H7 5336   4.684   3.193   0.755 -0.3540 -0.0619 -0.6746
  353TMC3    C1 5337   0.178   2.454   0.715  0.8999  0.7249 -0.0455
  353TMC3    C2 5338   0.285   2.398   0.780 -0.4095 -0.4490 -0.4439
  353TMC3    C3 5339   0.300   2.263   0.779  0.5451  0.0580  0.0652
  353TMC3    C4 5340   0.099   2.379   0.635 -0.6021 -0.2700  0.1432
  353TMC3    C5 5341   0.130   2.253   0.626 -0.5593 -0.1452 -0.1050
  353TMC3    C6 5342   0.237   2.190   0.691 -0.2791 -0.4134  0.4292
  353TMC3     C 5343   0.132   2.593   0.728 -0.1204  0.5927  0.6804
  353TMC3     O 5344   0.046   2.633   0.655 -0.0090  0.4696 -0.2580
  353TMC3     H 5345   0.345   2.451   0.853 -0.9561  2.8619 -2.3970
  353TMC3    H1 5346   0.017   2.423   0.579 -0.6614  1.5897  1.6617
  353TMC3    H2 5347   0.249   2.083   0.680 -0.7784 -0.4299  0.0298
  353TMC3    C7 5348   0.045   2.171   0.540 -0.0138  0.1732  0.0047
  353TMC3    C8 5349   0.351   2.202   0.900  0.6078 -0.0008  0.4445
  353TMC3    O1 5350   0.054   2.052   0.561 -0.0563 -0.3935 -0.4897
  353TMC3    O2 5351   0.358   2.267   1.000  0.7605 -0.1650  0.2530
  354TMC3    C1 5352   1.046   3.717  13.495  0.6188 -0.0540  0.6981
  354TMC3    C2 5353   1.050   3.844  13.463 -0.5015  0.7216 -0.2427
  354TMC3    C3 5354   0.985   3.890  13.350  0.4636 -0.2057  0.3446
  354TMC3    C4 5355   0.958   3.626  13.437  0.0914 -0.0395 -0.7836
  354TMC3    C5 5356   0.891   3.668  13.325 -0.5836 -0.5129  0.1100
  354TMC3    C6 5357   0.911   3.794  13.281  0.5379 -0.0707  0.4394
  354TMC3     C 5358   1.081   3.679  13.629  0.8795  0.0804 -0.2684
  354TMC3     O 5359   1.086   3.766  13.714  0.1616  0.8365 -0.2426
  354TMC3     H 5360   1.105   3.917  13.522  0.6856  1.0325 -1.7425
  354TMC3    H1 5361   0.956   3.519  13.452  0.0367  0.2474  1.2782
  354TMC3    H2 5362   0.862   3.819  13.188  0.6174  0.3404  0.5085
  354TMC3    C7 5363   0.903   3.573  13.218 -0.1082  0.6922 -0.6371
  354TMC3    C8 5364   1.067   3.966  13.262  0.4014 -0.0867 -1.1545
  354TMC3    O1 5365   0.802   3.512  13.189 -0.7735  0.2173  0.3409
  354TMC3    O2 5366   1.012   4.054  13.193 -0.0412  0.2974 -0.3667
  355MPD2     C 5367   1.412   4.411  11.381  0.3244 -0.2248  0.6526
  355MPD2    C1 5368   1.425   4.510  11.474 -0.0016  0.2471  0.3070
  355MPD2    C2 5369   1.508   4.495  11.583 -0.2164 -0.1278  0.3702
  355MPD2    C3 5370   1.578   4.383  11.605 -0.2755 -0.3220  0.0799
  355MPD2    C4 5371   1.570   4.285  11.511  0.4186 -0.5028  0.6617
  355MPD2    C5 5372   1.489   4.297  11.406 -0.0351 -0.0176  0.2002
  355MPD2     H 5373   1.518   4.569  11.662  1.9952 -0.4960  0.4306
  355MPD2    H1 5374   1.619   4.190  11.523  1.9071  0.0492 -1.0681
  355MPD2    H2 5375   1.336   4.408  11.304  0.7231 -0.0215  0.2452
  355MPD2    H3 5376   1.480   4.219  11.331  1.4414 -1.5129  1.5819
  355MPD2     N 5377   1.669   4.381  11.715  0.8320 -0.1693  0.3879
  355MPD2    H5 5378   1.675   4.463  11.775  0.0562  0.7604 -0.8048
  355MPD2    N1 5379   1.381   4.641  11.448  0.7814  0.1910  0.3051
  355MPD2    H7 5380   1.397   4.706  11.523  1.0019 -1.4278  1.6569
  356TMC3    C1 5381   1.829   4.298  11.863 -0.4914 -0.4065 -0.5931
  356TMC3    C2 5382   1.963   4.268  11.858 -0.6233  0.4295 -0.4364
  356TMC3    C3 5383   2.050   4.351  11.924  0.0646 -0.1076  0.1089
  356TMC3    C4 5384   1.785   4.399  11.946  0.3209 -0.1556  1.0749
  356TMC3    C5 5385   1.878   4.465  12.016 -0.5265  0.3640 -0.4781
  356TMC3    C6 5386   2.011   4.461  12.001  0.2362 -0.4198  0.0227
  356TMC3     C 5387   1.764   4.275  11.738 -0.5643  0.6971 -0.2600
  356TMC3     O 5388   1.797   4.175  11.675 -0.4651 -0.6420 -0.5053
  356TMC3     H 5389   1.993   4.194  11.784 -1.6036 -0.9245  0.5219
  356TMC3    H1 5390   1.678   4.415  11.959  0.2140  1.3805 -1.4519
  356TMC3    H2 5391   2.083   4.500  12.072  0.5398  0.7258 -0.9195
  356TMC3    C7 5392   1.818   4.534  12.130 -0.0494 -0.5976 -0.1931
  356TMC3    C8 5393   2.191   4.319  11.904 -0.2517 -0.8937  0.2361
  356TMC3    O1 5394   1.716   4.479  12.179  0.1126 -0.3243  0.1058
  356TMC3    O2 5395   2.211   4.204  11.873  0.5935  0.2062  0.6259
  357MPD2     C 5396   1.452   4.518   0.597 -0.6965  0.1400  0.4973
  357MPD2    C1 5397   1.348   4.482   0.687  0.6713 -0.1092 -0.0220
  357MPD2    C2 5398   1.215   4.493   0.650 -0.4470 -0.0836  0.3999
  357MPD2    C3 5399   1.182   4.526   0.517 -0.1596  0.1377 -0.4973
  357MPD2    C4 5400   1.285   4.579   0.429  0.2602 -0.2537 -0.0890
  357MPD2    C5 5401   1.416   4.570   0.474 -0.1104  0.7561 -0.0561
  357MPD2     H 5402   1.128   4.465   0.709  0.7804  0.1178  2.2737
  357MPD2    H1 5403   1.253   4.613   0.331  0.2980  2.0802  0.6952
  357MPD2    H2 5404   1.556   4.514   0.626 -0.3615  0.6937 -0.6291
  357MPD2    H3 5405   1.498   4.593   0.408  0.4984 -1.6512 -0.1234
  357MPD2     N 5406   1.050   4.515   0.459 -0.5370 -0.3922  0.0336
  357MPD2    H5 5407   1.039   4.530   0.359  1.4732  0.9825  0.0304
  357MPD2    N1 5408   1.396   4.428   0.809 -0.0074 -0.6070 -0.4144
  357MPD2    H7 5409   1.495   4.407   0.814 -0.1617 -1.5907 -1.5738
  358TMC3    C1 5410   1.370   4.275   0.986  0.0188  0.3955  0.2213
  358TMC3    C2 5411   1.456   4.191   0.918 -0.2992  0.6126  0.5378
  358TMC3    C3 5412   1.483   4.076   0.983  0.4681  0.0511  0.2926
  358TMC3    C4 5413   1.307   4.237   1.102 -0.0951  0.2950  0.3605
  358TMC3    C5 5414   1.335   4.115   1.165 -0.7514  0.6357 -0.3487
  358TMC3    C6 5415   1.419   4.031   1.100  0.2604  0.0976  0.1373
  358TMC3     C 5416   1.309   4.381   0.909 -0.5008  0.6010  0.1991
  358TMC3     O 5417   1.194   4.414   0.930 -1.1383 -0.0403 -0.7040
  358TMC3     H 5418   1.488   4.209   0.816 -0.7455 -1.2776  0.0632
  358TMC3    H1 5419   1.237   4.304   1.151 -0.9043 -0.1466 -0.1874
  358TMC3    H2 5420   1.464   3.944   1.145 -0.8053 -1.3545 -1.6258
  358TMC3    C7 5421   1.363   4.127   1.300 -0.0983 -0.5151  0.0088
  358TMC3    C8 5422   1.551   3.978   0.895  0.3023  0.5756  0.2504
  358TMC3    O1 5423   1.473   4.088   1.336  0.5353 -0.2714 -0.6178
  358TMC3    O2 5424   1.648   4.023   0.839 -0.4981 -0.5079  0.2324
  359MPD2     C 5425   2.133   3.366  12.816 -0.2769  0.1097  0.2015
  359MPD2    C1 5426   2.054   3.350  12.705 -0.2175  0.2556  0.1344
  359MPD2    C2 5427   1.925   3.299  12.719 -0.2858 -0.1286  0.6771
  359MPD2    C3 5428   1.870   3.264  12.842  0.6696 -0.2036  0.0767
  359MPD2    C4 5429   1.948   3.288  12.956 -0.1092  0.5292 -0.2542
  359MPD2    C5 5430   2.080   3.331  12.939 -0.0461  0.4332 -0.5725
  359MPD2     H 5431   1.869   3.283  12.628  1.1268 -0.7054 -0.0710
  359MPD2    H1 5432   1.909   3.266  13.055  0.0412 -1.0612 -0.5577
  359MPD2    H2 5433   2.235   3.400  12.803  0.4755 -2.6031 -1.0834
  359MPD2    H3 5434   2.145   3.340  13.025 -1.3715  2.0963  0.2543
  359MPD2     N 5435   1.741   3.214  12.864  0.3540  0.0387 -0.3995
  359MPD2    H5 5436   1.718   3.188  12.960  0.6226 -0.5234 -0.4872
  359MPD2    N1 5437   2.104   3.362  12.571 -0.6139  0.2038 -0.3162
  359MPD2    H7 5438   2.032   3.339  12.503 -3.1793 -0.4360  2.6139
  360TMC3    C1 5439   2.234   3.376  12.379 -0.3573 -0.1692 -0.6462
  360TMC3    C2 5440   2.333   3.436  12.308  0.1976  0.1836  0.2167
  360TMC3    C3 5441   2.359   3.380  12.182 -0.1273 -0.0021 -0.5694
  360TMC3    C4 5442   2.153   3.277  12.322 -0.1892  0.3247 -0.1609
  360TMC3    C5 5443   2.171   3.246  12.189  0.5499  0.1013  0.6321
  360TMC3    C6 5444   2.270   3.297  12.118 -0.4835 -0.0832 -0.2983
  360TMC3     C 5445   2.232   3.389  12.524  0.0500  0.3288  0.2182
  360TMC3     O 5446   2.327   3.440  12.582  0.6612 -0.2136  0.0053
  360TMC3     H 5447   2.420   3.476  12.358 -1.1099 -0.5384  3.0325
  360TMC3    H1 5448   2.065   3.238  12.371  0.3995  2.8298  2.8271
  360TMC3    H2 5449   2.284   3.266  12.015 -0.4017  0.4185 -0.4408
  360TMC3    C7 5450   2.062   3.160  12.127  0.1024  0.1965  0.2228
  360TMC3    C8 5451   2.496   3.369  12.149 -0.4906 -0.0989 -0.5260
  360TMC3    O1 5452   1.988   3.105  12.205 -0.6600 -0.3636 -0.4992
  360TMC3    O2 5453   2.568   3.458  12.183 -0.1049  0.4435 -0.5549
  361MPD2     C 5454   3.612   1.895  16.408 -0.1393  0.5363  1.2826
  361MPD2    C1 5455   3.598   1.978  16.518 -0.3539 -0.4260 -0.3854
  361MPD2    C2 5456   3.658   1.935  16.641 -0.5114 -0.7731  0.9891
  361MPD2    C3 5457   3.710   1.807  16.654 -0.2999  0.2717  0.2005
  361MPD2    C4 5458   3.698   1.720  16.546 -0.7301 -0.6587 -0.0891
  361MPD2    C5 5459   3.662   1.765  16.421  0.1675 -0.1250 -0.7174
  361MPD2     H 5460   3.660   2.006  16.723 -1.1625  0.8465 -0.3929
  361MPD2    H1 5461   3.743   1.623  16.562  0.0885 -0.4886 -1.3689
  361MPD2    H2 5462   3.597   1.928  16.306  2.0122 -3.5541 -0.3805
  361MPD2    H3 5463   3.683   1.701  16.335  0.5199 -0.6143 -0.2673
  361MPD2     N 5464   3.776   1.759  16.770 -0.4188  0.6658  0.3476
  361MPD2    H5 5465   3.807   1.662  16.768 -2.3690 -0.0117  2.6714
  361MPD2    N1 5466   3.540   2.103  16.502 -0.5917  0.2560  0.6773
  361MPD2    H7 5467   3.537   2.168  16.581 -1.8337  0.2317  0.6406
  362TMC3    C1 5468   3.397   2.264  16.412 -1.0511  0.4823 -0.1611
  362TMC3    C2 5469   3.394   2.310  16.538 -0.0519 -0.0161 -0.2039
  362TMC3    C3 5470   3.281   2.366  16.588 -0.2500 -0.2514  0.2445
  362TMC3    C4 5471   3.285   2.282  16.328 -0.1634 -0.2355 -0.6821
  362TMC3    C5 5472   3.173   2.341  16.380  0.8559  0.3405 -0.1341
  362TMC3    C6 5473   3.170   2.391  16.508 -0.4509  0.3195  0.2686
  362TMC3     C 5474   3.466   2.141  16.390 -0.7879 -0.5705 -0.1602
  362TMC3     O 5475   3.435   2.084  16.288  0.1303 -0.6680 -0.1807
  362TMC3     H 5476   3.484   2.307  16.599 -1.7988  0.3962  2.4159
  362TMC3    H1 5477   3.282   2.231  16.232  0.4006 -0.8294 -0.3878
  362TMC3    H2 5478   3.076   2.433  16.542 -1.7807 -2.1892 -0.3095
  362TMC3    C7 5479   3.077   2.401  16.287 -0.9695  0.6135 -0.4207
  362TMC3    C8 5480   3.277   2.374  16.735 -0.2404 -0.2121 -0.1351
  362TMC3    O1 5481   2.998   2.485  16.327  0.0957  0.5174 -0.5620
  362TMC3    O2 5482   3.359   2.309  16.797 -0.2321 -0.0896 -0.1234
  363TMC3    C1 5483   1.540   4.408   9.485  0.2193 -0.0274  0.5253
  363TMC3    C2 5484   1.620   4.369   9.590 -0.5059  0.2287 -0.0962
  363TMC3    C3 5485   1.638   4.461   9.689  0.3453 -0.9248  0.5216
  363TMC3    C4 5486   1.454   4.517   9.491  0.1440 -0.2980  0.3511
  363TMC3    C5 5487   1.457   4.583   9.607 -0.0732  0.4126  0.0831
  363TMC3    C6 5488   1.549   4.564   9.706 -0.5523 -0.9701 -0.0115
  363TMC3     C 5489   1.567   4.347   9.356  0.5499  0.0450  0.7669
  363TMC3     O 5490   1.596   4.229   9.354 -0.1686  0.4802  0.3545
  363TMC3     H 5491   1.689   4.291   9.560  0.1022  1.4019 -1.7586
  363TMC3    H1 5492   1.388   4.538   9.409 -0.0990  0.8330  0.8399
  363TMC3    H2 5493   1.557   4.637   9.785 -1.2325  1.7454 -2.4446
  363TMC3    C7 5494   1.368   4.689   9.634 -0.8877 -0.1127 -0.0167
  363TMC3    C8 5495   1.768   4.465   9.763 -0.1191 -0.3242 -0.5434
  363TMC3    O1 5496   1.392   0.031   9.719  0.1445 -0.2655 -0.1117
  363TMC3    O2 5497   1.786   4.575   9.818  0.2824 -0.4349 -0.4654
  364MPD2     C 5498   0.577   4.057  11.149 -0.0345  0.0090  0.0478
  364MPD2    C1 5499   0.658   4.011  11.046  0.4270  0.0299  0.9106
  364MPD2    C2 5500   0.678   3.873  11.029 -0.1575  0.0543 -0.6427
  364MPD2    C3 5501   0.632   3.777  11.108  0.2367  0.6063 -0.4474
  364MPD2    C4 5502   0.562   3.823  11.216  0.3223 -0.3096  0.1521
  364MPD2    C5 5503   0.532   3.960  11.229  0.0316  0.0738 -0.7393
  364MPD2     H 5504   0.731   3.842  10.939 -0.9660  0.9867 -1.4529
  364MPD2    H1 5505   0.525   3.754  11.291 -0.7076  0.4886  0.3730
  364MPD2    H2 5506   0.559   4.162  11.168  1.8854  0.5603 -1.1248
  364MPD2    H3 5507   0.468   3.998  11.307 -1.9986  4.1166 -4.3549
  364MPD2     N 5508   0.665   3.641  11.110 -0.1277  0.0086 -0.5390
  364MPD2    H5 5509   0.622   3.577  11.177 -1.1522  0.2845 -0.9317
  364MPD2    N1 5510   0.725   4.101  10.960 -0.4107 -0.3982  0.2053
  364MPD2    H7 5511   0.702   4.200  10.962 -3.4250 -1.1067 -0.0558
  365TMC3    C1 5512   0.907   4.185  10.835 -0.4386  0.4370 -0.1474
  365TMC3    C2 5513   1.031   4.152  10.786 -0.5458 -0.0783  0.1196
  365TMC3    C3 5514   1.103   4.234  10.702 -0.1402  0.3709 -0.2842
  365TMC3    C4 5515   0.843   4.295  10.787  0.1753 -0.3543  0.1464
  365TMC3    C5 5516   0.919   4.368  10.696 -0.2824  0.0606  0.2877
  365TMC3    C6 5517   1.045   4.344  10.654  0.3882 -0.0674  0.2003
  365TMC3     C 5518   0.838   4.073  10.893  0.1900  0.1383  0.2417
  365TMC3     O 5519   0.901   3.965  10.887 -0.0756 -0.5221 -0.6831
  365TMC3     H 5520   1.091   4.075  10.834 -0.5917 -0.3240 -0.2134
  365TMC3    H1 5521   0.741   4.316  10.816 -0.2485 -2.2388  0.0089
  365TMC3    H2 5522   1.100   4.418  10.597  3.4512  0.2371  3.5488
  365TMC3    C7 5523   0.890   4.507  10.668 -0.1579 -0.4891 -0.1718
  365TMC3    C8 5524   1.213   4.178  10.628 -0.3559  0.2521 -0.8237
  365TMC3    O1 5525   0.932   4.561  10.568 -0.5389 -0.3657  0.3184
  365TMC3    O2 5526   1.305   4.254  10.591 -0.2630  0.3545  0.4290
  366MPD2     C 5527   3.660   0.350  15.401  0.4170 -1.4275 -0.5517
  366MPD2    C1 5528   3.751   0.455  15.423  1.2488 -0.0397 -0.7182
  366MPD2    C2 5529   3.872   0.432  15.368 -0.6252 -0.1974  0.2080
  366MPD2    C3 5530   3.915   0.317  15.306  0.5000 -0.1921 -0.1141
  366MPD2    C4 5531   3.827   0.216  15.291  0.1748 -0.2410 -0.0920
  366MPD2    C5 5532   3.704   0.235  15.338 -0.3934  0.0918 -0.1052
  366MPD2     H 5533   3.942   0.513  15.386  0.2001 -0.5903 -1.2447
  366MPD2    H1 5534   3.841   0.137  15.218 -0.3178  1.5011 -2.0771
  366MPD2    H2 5535   3.562   0.354  15.446  0.7272  1.7053 -0.1511
  366MPD2    H3 5536   3.628   0.163  15.309  0.5302 -0.1561 -1.9000
  366MPD2     N 5537   4.044   0.307  15.263  0.0991 -0.0073  0.3994
  366MPD2    H5 5538   4.098   0.391  15.281  0.1853 -0.3012  1.4743
  366MPD2    N1 5539   3.715   0.577  15.472  0.2856 -0.7791  0.0929
  366MPD2    H7 5540   3.789   0.646  15.469 -0.9857  0.5204 -1.2898
  367TMC3    C1 5541   3.591   0.780  15.509 -0.1054 -0.0110 -0.9017
  367TMC3    C2 5542   3.716   0.832  15.546  0.4054  0.3156 -0.0491
  367TMC3    C3 5543   3.736   0.968  15.517  0.7600  0.2819 -0.7505
  367TMC3    C4 5544   3.503   0.857  15.430 -0.4067 -0.3902 -0.2309
  367TMC3    C5 5545   3.543   0.980  15.391  0.6437 -0.0649  0.4663
  367TMC3    C6 5546   3.653   1.043  15.439  0.2005 -0.3770 -0.0849
  367TMC3     C 5547   3.589   0.634  15.488  0.2028  0.1667  0.1754
  367TMC3     O 5548   3.482   0.573  15.465 -0.1864 -0.2541 -0.4696
  367TMC3     H 5549   3.788   0.770  15.599 -1.4391  0.0530  2.1217
  367TMC3    H1 5550   3.413   0.808  15.393 -0.3710  0.1573 -1.0413
  367TMC3    H2 5551   3.663   1.150  15.425  0.1871 -0.3350  0.2111
  367TMC3    C7 5552   3.488   1.037  15.264 -0.2541 -0.5427  0.1347
  367TMC3    C8 5553   3.828   1.035  15.610 -0.4102 -0.5459 -0.6756
  367TMC3    O1 5554   3.522   1.151  15.227  0.1920 -0.1254 -0.2894
  367TMC3    O2 5555   3.867   0.969  15.703  0.4491 -0.2091  0.2376
  368MPD2     C 5556   0.662   1.784  13.204  0.0322  0.2635 -0.4322
  368MPD2    C1 5557   0.656   1.901  13.137 -0.7275 -0.0500 -0.3969
  368MPD2    C2 5558   0.764   1.952  13.071  0.3721 -0.2320 -0.3017
  368MPD2    C3 5559   0.881   1.881  13.071 -0.4515  0.1053 -0.2612
  368MPD2    C4 5560   0.890   1.762  13.139  0.0273  0.1309 -0.0112
  368MPD2    C5 5561   0.779   1.713  13.202  0.4566  0.3653  0.1369
  368MPD2     H 5562   0.754   2.050  13.026  0.1051  0.3959  1.1041
  368MPD2    H1 5563   0.982   1.706  13.144 -0.3908 -0.4828  0.9972
  368MPD2    H2 5564   0.583   1.738  13.262  0.4903  3.1081  2.4350
  368MPD2    H3 5565   0.789   1.615  13.246 -1.7375 -0.6606 -1.6437
  368MPD2     N 5566   0.997   1.934  13.008 -0.1548  0.4979  0.1517
  368MPD2    H5 5567   1.086   1.888  13.024  0.5062  0.6212 -3.0797
  368MPD2    N1 5568   0.528   1.961  13.140  0.9720  0.4207  0.3987
  368MPD2    H7 5569   0.451   1.917  13.189  0.5458 -1.6762 -2.1870
  369TMC3    C1 5570   0.358   2.117  13.125  0.0514 -0.1925  0.0860
  369TMC3    C2 5571   0.325   2.245  13.082  0.3519  0.5236  0.3229
  369TMC3    C3 5572   0.217   2.309  13.131  0.4373 -0.4684 -0.7609
  369TMC3    C4 5573   0.269   2.051  13.215  0.7594  0.3650 -0.3360
  369TMC3    C5 5574   0.157   2.119  13.250 -0.3897 -0.0626  0.2191
  369TMC3    C6 5575   0.132   2.246  13.212  0.3718  0.4235  0.0128
  369TMC3     C 5576   0.494   2.079  13.084  0.7839  0.1411  0.4145
  369TMC3     O 5577   0.561   2.157  13.018  0.8717 -0.1165  0.2624
  369TMC3     H 5578   0.381   2.294  13.003  1.3260  0.6360  1.0832
  369TMC3    H1 5579   0.288   1.950  13.248  0.9004  0.3526 -0.4571
  369TMC3    H2 5580   0.036   2.285  13.244  0.5361 -1.9428  3.3338
  369TMC3    C7 5581   0.065   2.066  13.354  0.0596 -0.3932 -0.2092
  369TMC3    C8 5582   0.181   2.436  13.073  0.3388  0.1273 -0.1217
  369TMC3    O1 5583   0.007   2.152  13.419  0.3492  0.6221 -0.3634
  369TMC3    O2 5584   0.237   2.470  12.969  0.4034  0.6250  0.0248
  370TMC3    C1 5585   0.076   2.977  16.269 -0.8524 -0.2365  0.4150
  370TMC3    C2 5586   4.729   2.908  16.350  0.3282 -0.1602 -0.3888
  370TMC3    C3 5587   4.713   2.773  16.319  0.3783 -0.0076 -0.1344
  370TMC3    C4 5588   0.157   2.919  16.171  0.2134 -0.0640  0.3621
  370TMC3    C5 5589   0.126   2.793  16.140  0.5322  0.5205 -0.1902
  370TMC3    C6 5590   0.040   2.712  16.212 -0.1663 -0.1401  0.8293
  370TMC3     C 5591   0.117   3.097  16.323  0.2014 -0.6661 -0.4652
  370TMC3     O 5592   0.076   3.119  16.435 -1.1833  0.1559 -0.5415
  370TMC3     H 5593   4.672   2.961  16.426  2.1227 -1.3911  1.8221
  370TMC3    H1 5594   0.224   2.974  16.107 -3.0547  2.5450 -0.7975
  370TMC3    H2 5595   0.022   2.609  16.183 -2.3293  0.5881 -0.4277
  370TMC3    C7 5596   0.186   2.750  16.020  0.8732 -0.3537 -0.1728
  370TMC3    C8 5597   4.664   2.688  16.421  0.0967 -0.1423  0.0766
  370TMC3    O1 5598   0.152   2.812  15.920  0.0906  0.0111 -0.3336
  370TMC3    O2 5599   4.694   2.569  16.422 -0.1913 -0.5447  0.1319
  371TMC3    C1 5600   1.096   1.357  15.235 -0.0957 -0.2027 -0.0371
  371TMC3    C2 5601   1.062   1.378  15.369 -0.1990 -0.9112 -1.2601
  371TMC3    C3 5602   1.095   1.493  15.430 -0.6596  0.5098  0.5790
  371TMC3    C4 5603   1.151   1.459  15.161 -0.3152  0.4638  0.9461
  371TMC3    C5 5604   1.189   1.569  15.227 -0.4448 -0.0455 -0.5968
  371TMC3    C6 5605   1.161   1.590  15.362  0.5750 -0.1432  0.0356
  371TMC3     C 5606   1.161   1.225  15.220  0.2950 -0.0034 -0.5531
  371TMC3     O 5607   1.273   1.207  15.173  0.4048 -0.4000 -0.4659
  371TMC3     H 5608   1.000   1.310  15.426  1.4849 -0.4125  1.1497
  371TMC3    H1 5609   1.197   1.440  15.065 -1.8376 -0.9024  0.4850
  371TMC3    H2 5610   1.179   1.689  15.403  0.9288 -0.3537  0.3802
  371TMC3    C7 5611   1.260   1.677  15.164 -0.0573  0.4761  0.2908
  371TMC3    C8 5612   1.103   1.488  15.574  0.0199  0.4877 -0.0353
  371TMC3    O1 5613   1.324   1.754  15.234  0.0497  0.0520  0.4131
  371TMC3    O2 5614   1.121   1.379  15.622 -0.3227  0.0800 -0.9730
  372MPD2     C 5615   0.383   2.354  13.456  0.3342 -0.1171  0.2154
  372MPD2    C1 5616   0.470   2.246  13.454  0.3868 -0.0022  0.1093
  372MPD2    C2 5617   0.437   2.134  13.539 -0.0767  0.6186  0.8148
  372MPD2    C3 5618   0.335   2.146  13.632  0.3939 -0.5347  0.3022
  372MPD2    C4 5619   0.262   2.257  13.636 -0.3409 -0.3580 -0.8420
  372MPD2    C5 5620   0.283   2.356  13.550 -0.4917 -0.5000  0.3052
  372MPD2     H 5621   0.503   2.048  13.544  1.0490  1.3646 -1.1966
  372MPD2    H1 5622   0.184   2.260  13.712  0.3109 -1.6412 -0.1181
  372MPD2    H2 5623   0.399   2.453  13.414  0.5281 -0.0975  0.3305
  372MPD2    H3 5624   0.223   2.446  13.554 -1.8460 -1.4476  1.5306
  372MPD2     N 5625   0.314   2.027  13.703  0.4149  0.5581 -0.0386
  372MPD2    H5 5626   0.390   1.961  13.695  1.6411  1.8331  1.1881
  372MPD2    N1 5627   0.597   2.261  13.385 -0.5460  0.6452  0.1732
  372MPD2    H7 5628   0.669   2.191  13.397 -2.1867 -0.9108  0.9864
  373TMC3    C1 5629   0.277   1.912  13.890  0.2091 -0.0520  0.4340
  373TMC3    C2 5630   0.278   1.952  14.020  0.3171  0.2069 -0.0037
  373TMC3    C3 5631   0.347   1.873  14.111  0.0032 -0.3188  0.5212
  373TMC3    C4 5632   0.358   1.804  13.852 -0.2883 -0.5464 -0.5932
  373TMC3    C5 5633   0.436   1.745  13.944  0.4060 -0.3543 -0.5115
  373TMC3    C6 5634   0.426   1.769  14.079  0.8358  0.3092  0.0938
  373TMC3     C 5635   0.218   2.002  13.797  0.0823  0.3331 -0.0343
  373TMC3     O 5636   0.124   2.072  13.836  0.0784 -0.4907 -0.1477
  373TMC3     H 5637   0.215   2.037  14.046  1.1658  0.9626 -0.4220
  373TMC3    H1 5638   0.357   1.762  13.752  0.8981 -2.4150  0.1877
  373TMC3    H2 5639   0.463   1.700  14.154 -2.2892 -1.2047  0.2255
  373TMC3    C7 5640   0.487   1.615  13.914  0.5027 -0.0653  0.2990
  373TMC3    C8 5641   0.390   1.923  14.241  0.0235 -0.1943 -0.8876
  373TMC3    O1 5642   0.421   1.553  13.836  0.1181 -0.5265  0.0511
  373TMC3    O2 5643   0.445   1.851  14.324  0.0059  0.0424 -0.3736
  374TMC3    C1 5644   0.802   2.291  10.273 -0.0845  0.2489 -1.1899
  374TMC3    C2 5645   0.929   2.248  10.258  0.2767  0.2742  0.2070
  374TMC3    C3 5646   0.987   2.288  10.145  0.2662  0.7573 -0.0868
  374TMC3    C4 5647   0.736   2.366  10.176  0.1791 -0.3526 -0.0536
  374TMC3    C5 5648   0.807   2.393  10.060  0.3213 -0.3646  0.0596
  374TMC3    C6 5649   0.939   2.368  10.045  0.5613  0.0389  0.5493
  374TMC3     C 5650   0.745   2.272  10.409  1.2560 -0.8262  0.3272
  374TMC3     O 5651   0.821   2.241  10.498 -1.1119 -0.3584  0.2039
  374TMC3     H 5652   0.963   2.171  10.327 -1.2348 -0.4497  0.1279
  374TMC3    H1 5653   0.632   2.395  10.189  0.5933  1.0486  0.1238
  374TMC3    H2 5654   0.982   2.365   9.946  0.7751 -3.3848  0.7529
  374TMC3    C7 5655   0.737   2.470   9.965  0.3149  0.1733 -0.2451
  374TMC3    C8 5656   1.130   2.258  10.139  0.7766  0.3364  0.0701
  374TMC3    O1 5657   0.620   2.431   9.947  0.4379  0.2690  0.4845
  374TMC3    O2 5658   1.181   2.288  10.033  0.3470  0.5355 -0.1240
  375MPD2     C 5659   1.213   2.696  17.207  0.2010 -0.6981  0.7123
  375MPD2    C1 5660   1.178   2.816  17.143  0.3374  0.1387  0.1334
  375MPD2    C2 5661   1.228   2.849  17.022  0.6629 -0.1161 -0.4342
  375MPD2    C3 5662   1.291   2.751  16.948  0.2442 -0.3709 -0.1049
  375MPD2    C4 5663   1.320   2.633  17.011  0.2918  0.5168 -0.1041
  375MPD2    C5 5664   1.296   2.613  17.142  0.4428  0.1254  0.8308
  375MPD2     H 5665   1.209   2.951  16.989 -1.3670 -0.5429 -0.5556
  375MPD2    H1 5666   1.374   2.548  16.971  1.5096  0.9758  0.5820
  375MPD2    H2 5667   1.191   2.676  17.311 -2.4254 -0.6136  0.1943
  375MPD2    H3 5668   1.319   2.517  17.188  1.4448  0.1785  0.4425
  375MPD2     N 5669   1.345   2.783  16.819  0.1366 -0.1082  0.2185
  375MPD2    H5 5670   1.405   2.714  16.775 -0.3784 -1.9011  2.3261
  375MPD2    N1 5671   1.104   2.921  17.210  0.3955 -0.0956  0.3341
  375MPD2    H7 5672   1.078   3.008  17.166 -0.0642  0.6264  2.0239
  376TMC3    C1 5673   1.368   2.909  16.632  0.3487 -0.8226  0.1051
  376TMC3    C2 5674   1.503   2.888  16.634  0.1041  0.0414  0.4853
  376TMC3    C3 5675   1.569   2.929  16.519  0.1470  0.4341 -0.4238
  376TMC3    C4 5676   1.305   2.968  16.521  0.4326  0.7276  0.2412
  376TMC3    C5 5677   1.377   2.997  16.411 -0.0203 -0.2405 -0.4072
  376TMC3    C6 5678   1.514   2.979  16.404  0.3964  0.4468 -0.1007
  376TMC3     C 5679   1.288   2.876  16.745 -0.3862 -0.5660  0.5291
  376TMC3     O 5680   1.181   2.932  16.759 -0.9544 -0.1380  0.0852
  376TMC3     H 5681   1.554   2.845  16.719  0.6665  0.2150  0.2353
  376TMC3    H1 5682   1.197   2.976  16.523  0.5606  2.1816  1.5645
  376TMC3    H2 5683   1.589   3.022  16.338 -0.4242 -0.1577 -1.4162
  376TMC3    C7 5684   1.321   3.072  16.302  0.3033 -0.3178 -0.4937
  376TMC3    C8 5685   1.697   2.982  16.547 -0.3683  0.2577 -0.2866
  376TMC3    O1 5686   1.218   3.133  16.328 -0.0070  0.2811 -0.0997
  376TMC3    O2 5687   1.719   3.096  16.510  0.1424  0.3718 -0.6067
  377MPD2     C 5688   3.943   2.722  12.979 -0.1177  0.2621  0.9325
  377MPD2    C1 5689   4.079   2.732  12.981  0.2960  0.0706  0.3314
  377MPD2    C2 5690   4.153   2.664  13.079 -0.1440  0.4920  0.4136
  377MPD2    C3 5691   4.085   2.589  13.173  0.2326 -0.3579  0.1159
  377MPD2    C4 5692   3.946   2.584  13.172  0.3268  0.0704  0.3739
  377MPD2    C5 5693   3.879   2.647  13.075 -0.0697  0.2691 -0.4067
  377MPD2     H 5694   4.259   2.685  13.082 -0.3765  1.9601 -1.6317
  377MPD2    H1 5695   3.893   2.537  13.254 -0.5159  1.1830  0.4597
  377MPD2    H2 5696   3.892   2.769  12.896  1.5570  1.7590  0.7522
  377MPD2    H3 5697   3.771   2.641  13.066 -0.0408  2.1549 -2.1176
  377MPD2     N 5698   4.153   2.508  13.267  0.2777  0.5391  0.2439
  377MPD2    H5 5699   4.095   2.463  13.337  2.4058 -1.9702  0.4054
  377MPD2    N1 5700   4.128   2.812  12.878  0.0633 -0.4906  0.4355
  377MPD2    H7 5701   4.062   2.846  12.808 -0.5365  1.8221  2.1508
  378TMC3    C1 5702   4.196   2.883  12.502  0.6121  0.2603 -0.3861
  378TMC3    C2 5703   4.183   2.910  12.637 -0.4126  0.3233  0.4645
  378TMC3    C3 5704   4.287   2.879  12.716  1.0969  0.3703  0.4076
  378TMC3    C4 5705   4.311   2.843  12.448 -0.1930 -0.0376  0.5384
  378TMC3    C5 5706   4.410   2.801  12.533  0.0496  0.2176  0.7413
  378TMC3    C6 5707   4.403   2.822  12.667 -0.1441 -1.2291  0.1256
  378TMC3     C 5708   4.106   2.960  12.416  0.7914  0.1275 -0.6892
  378TMC3     O 5709   4.009   3.006  12.472 -0.0874  0.2336  0.0844
  378TMC3     H 5710   4.091   2.955  12.675 -0.8009 -0.8115  0.8527
  378TMC3    H1 5711   4.312   2.803  12.347  1.3519  0.9635  0.1536
  378TMC3    H2 5712   4.485   2.809  12.735  0.7378 -1.5548 -0.9969
  378TMC3    C7 5713   4.532   2.744  12.478 -0.5972  0.2404  0.0609
  378TMC3    C8 5714   4.259   2.833  12.849  0.3310 -0.0476  0.9673
  378TMC3    O1 5715   4.615   2.705  12.559  0.6851 -0.5109  0.0078
  378TMC3    O2 5716   4.351   2.821  12.926  0.0431 -0.7635  0.3095
  379MPD2     C 5717   4.513   1.252  16.616 -0.2618  0.0095 -0.2179
  379MPD2    C1 5718   4.605   1.198  16.527 -0.1778  0.0389  1.2111
  379MPD2    C2 5719   4.717   1.133  16.578 -0.0546  0.6439  0.0775
  379MPD2    C3 5720   0.009   1.140  16.711  0.1484  0.2972 -0.1290
  379MPD2    C4 5721   4.658   1.196  16.799  0.2650  0.0955 -0.2681
  379MPD2    C5 5722   4.537   1.243  16.753  0.0580  0.4270 -0.1100
  379MPD2     H 5723   0.042   1.069  16.518 -0.1578  1.8023 -1.2529
  379MPD2    H1 5724   4.679   1.225  16.901 -1.7899 -3.3440  1.1070
  379MPD2    H2 5725   4.430   1.311  16.581 -1.3975 -1.0778  0.6267
  379MPD2    H3 5726   4.462   1.292  16.814  1.0284 -0.4309  1.7776
  379MPD2     N 5727   0.131   1.083  16.767 -0.6674 -0.3748  0.2552
  379MPD2    H5 5728   0.128   1.051  16.863  0.5537 -2.4436 -0.3995
  379MPD2    N1 5729   4.571   1.197  16.393 -0.4640 -0.8367 -0.3727
  379MPD2    H7 5730   4.474   1.218  16.369 -0.8298 -1.7534  0.3063
  380TMC3    C1 5731   4.589   1.133  16.164  0.2016 -0.4980 -0.0043
  380TMC3    C2 5732   4.635   1.026  16.092 -0.2328  0.6483  0.1195
  380TMC3    C3 5733   4.560   0.993  15.980 -0.3931 -1.0128 -0.2987
  380TMC3    C4 5734   4.470   1.196  16.137  0.3598  0.1212 -0.2741
  380TMC3    C5 5735   4.411   1.168  16.017 -0.4416  0.6242 -0.3879
  380TMC3    C6 5736   4.441   1.058  15.942 -0.5520 -0.4839  1.6015
  380TMC3     C 5737   4.656   1.150  16.291  0.1174 -0.3060 -0.3249
  380TMC3     O 5738   0.037   1.132  16.283 -0.1646  0.5138  0.7994
  380TMC3     H 5739   4.733   0.983  16.109 -1.0308 -1.8890 -1.6279
  380TMC3    H1 5740   4.440   1.279  16.199  0.0954 -0.7645  0.7900
  380TMC3    H2 5741   4.402   1.045  15.842 -0.2176  1.2835  1.2442
  380TMC3    C7 5742   4.340   1.269  15.943  0.0652 -0.0184  0.0714
  380TMC3    C8 5743   4.637   0.936  15.866 -0.7399  0.9528 -0.1746
  380TMC3    O1 5744   4.367   1.388  15.955  0.2203 -0.1053  0.0421
  380TMC3    O2 5745   4.591   0.963  15.757  0.5515  0.1413  0.3894
  381TMC3    C1 5746   0.135   2.072  16.388  0.5036 -0.0973  0.2546
  381TMC3    C2 5747   0.192   2.194  16.350 -0.1534 -0.8471  0.0266
  381TMC3    C3 5748   0.163   2.306  16.425  0.7605  0.4082  0.1659
  381TMC3    C4 5749   0.035   2.072  16.478 -0.7415  0.1304  0.0390
  381TMC3    C5 5750   0.009   2.183  16.550  0.2319 -0.5318  0.2859
  381TMC3    C6 5751   0.065   2.306  16.525  0.3110  0.6179 -0.0963
  381TMC3     C 5752   0.152   1.960  16.301  0.0247 -0.3075  0.0377
  381TMC3     O 5753   0.214   1.978  16.194  0.7908 -0.0003  0.1360
  381TMC3     H 5754   0.277   2.187  16.284 -0.8927 -3.6712 -0.6220
  381TMC3    H1 5755   4.733   1.978  16.513 -3.0830  0.6947 -1.2412
  381TMC3    H2 5756   0.051   2.384  16.599 -1.0250 -1.0007  1.3628
  381TMC3    C7 5757   4.685   2.162  16.682  0.8885  0.2017 -0.7015
  381TMC3    C8 5758   0.244   2.420  16.385  0.2667 -0.4051  0.2039
  381TMC3    O1 5759   4.704   2.056  16.739 -0.1491 -0.3027  0.6465
  381TMC3    O2 5760   0.284   2.412  16.268  0.1312  0.4177 -0.3054
  382MPD2     C 5761   3.719   4.579  16.736 -0.1471 -0.1014 -0.7045
  382MPD2    C1 5762   3.732   4.571  16.872 -0.5436  0.0127  0.1691
  382MPD2    C2 5763   3.712   4.450  16.940  0.2419 -0.5062 -0.3427
  382MPD2    C3 5764   3.684   4.333  16.871  0.6196 -0.0292  0.4706
  382MPD2    C4 5765   3.681   4.340  16.732  0.3780 -0.3939  0.0433
  382MPD2    C5 5766   3.698   4.458  16.665  0.4936 -0.3372 -0.1345
  382MPD2     H 5767   3.725   4.449  17.048  1.8375  0.3081 -0.5246
  382MPD2    H1 5768   3.669   4.248  16.678  2.3579 -1.1665  0.9057
  382MPD2    H2 5769   3.729   4.665  16.672 -1.3067  0.4944 -0.0978
  382MPD2    H3 5770   3.676   4.469  16.559 -0.1431 -0.1336  0.0178
  382MPD2     N 5771   3.657   4.205  16.930 -0.4033 -0.0661 -0.4048
  382MPD2    H5 5772   3.647   4.126  16.866 -0.4927 -0.0249 -0.4417
  382MPD2    N1 5773   3.767   4.684  16.955  0.0592 -0.7190 -0.1251
  382MPD2    H7 5774   3.773   4.661  17.054 -1.5927  1.6613  0.5326
  383TMC3    C1 5775   3.658   4.039  17.108 -0.1476  0.2066 -0.8297
  383TMC3    C2 5776   3.560   3.964  17.051 -0.3878 -0.5837 -0.1607
  383TMC3    C3 5777   3.523   3.845  17.119  0.7289 -0.5395 -0.3130
  383TMC3    C4 5778   3.704   4.025  17.237 -0.3188 -0.2290 -0.1857
  383TMC3    C5 5779   3.656   3.910  17.301  0.3857  0.2706 -0.4471
  383TMC3    C6 5780   3.578   3.812  17.243  0.5053 -0.6677  0.3893
  383TMC3     C 5781   3.667   4.177  17.065  0.4093 -0.1290  0.7712
  383TMC3     O 5782   3.687   4.260  17.150 -0.4330  0.3278  0.1318
  383TMC3     H 5783   3.510   4.000  16.962  1.2004  2.4545  0.1774
  383TMC3    H1 5784   3.780   4.094  17.272 -0.6476 -0.3436  0.7711
  383TMC3    H2 5785   3.553   3.723  17.300  0.2846 -2.3375 -2.3490
  383TMC3    C7 5786   3.707   3.862  17.429 -0.3168  0.6088 -0.0867
  383TMC3    C8 5787   3.456   3.740  17.040 -0.6027 -0.4513 -0.3845
  383TMC3    O1 5788   3.659   3.765  17.484  0.1679 -0.8233 -0.2152
  383TMC3    O2 5789   3.418   3.773  16.930  0.0060  0.0928  0.5373
  384MPD2     C 5790   0.320   1.100  12.340 -0.0992  0.0169  0.7139
  384MPD2    C1 5791   0.307   0.970  12.392 -0.2684 -0.2951 -0.1235
  384MPD2    C2 5792   0.422   0.892  12.412  0.0253  0.4311 -0.0841
  384MPD2    C3 5793   0.547   0.944  12.376 -0.2795  0.1224 -0.6110
  384MPD2    C4 5794   0.558   1.074  12.329 -0.0661 -0.2048 -0.5743
  384MPD2    C5 5795   0.445   1.148  12.311 -0.4900 -0.8711  0.8764
  384MPD2     H 5796   0.416   0.787  12.439 -0.9511 -0.6342 -4.5246
  384MPD2    H1 5797   0.648   1.134  12.322  0.0456 -0.3316 -0.2282
  384MPD2    H2 5798   0.232   1.162  12.331 -0.0885  0.2025  1.7792
  384MPD2    H3 5799   0.454   1.251  12.281  0.3627 -1.2476 -0.1618
  384MPD2     N 5800   0.667   0.873  12.398  0.3767 -0.1603 -0.1732
  384MPD2    H5 5801   0.760   0.910  12.382  0.4989  0.5422  2.1918
  384MPD2    N1 5802   0.188   0.913  12.443  0.2997 -0.0083  0.4644
  384MPD2    H7 5803   0.185   0.814  12.466 -0.5081 -1.0478 -4.0269
  385TMC3    C1 5804   0.801   0.686  12.473  0.0694  0.2481  0.1407
  385TMC3    C2 5805   0.881   0.707  12.361  0.0195  0.3515  0.4395
  385TMC3    C3 5806   0.913   0.593  12.288 -0.0356  0.3652 -0.3984
  385TMC3    C4 5807   0.784   0.557  12.515  0.0444 -0.1781  0.3282
  385TMC3    C5 5808   0.801   0.453  12.429  0.0882  0.3236  0.4514
  385TMC3    C6 5809   0.869   0.466  12.316  0.1808  0.1669 -0.5975
  385TMC3     C 5810   0.672   0.750  12.468  0.9048 -0.4559  0.5158
  385TMC3     O 5811   0.588   0.687  12.532  0.6202  0.7260 -0.0744
  385TMC3     H 5812   0.907   0.807  12.329  1.4847  0.5888  2.3290
  385TMC3    H1 5813   0.728   0.542  12.606 -1.2755 -0.7965 -0.5937
  385TMC3    H2 5814   0.880   0.394  12.236 -1.1763 -0.1438 -0.5047
  385TMC3    C7 5815   0.701   0.348  12.433  0.0269 -0.3744  0.5251
  385TMC3    C8 5816   0.954   0.621  12.150  0.2216 -0.5112  0.6628
  385TMC3    O1 5817   0.723   0.242  12.381  0.2013 -0.0005  0.2101
  385TMC3    O2 5818   1.014   0.728  12.146 -0.0597  0.3646 -0.0846
  386TMC3    C1 5819   0.731   2.804  11.673  0.0675  0.4946 -0.7135
  386TMC3    C2 5820   0.653   2.813  11.562  0.0932 -0.4694  0.8878
  386TMC3    C3 5821   0.556   2.914  11.564 -0.2831 -0.0383 -0.3783
  386TMC3    C4 5822   0.731   2.896  11.779  0.3369  0.3393 -0.2499
  386TMC3    C5 5823   0.635   2.992  11.774 -0.6261 -0.2329  0.2581
  386TMC3    C6 5824   0.548   2.995  11.670  0.1588  0.2664 -0.2060
  386TMC3     C 5825   0.818   2.684  11.668  0.0571 -0.9572 -0.3116
  386TMC3     O 5826   0.796   2.606  11.575  0.0298 -0.5443  0.1970
  386TMC3     H 5827   0.650   2.746  11.477  1.6674 -0.3636  0.7423
  386TMC3    H1 5828   0.793   2.877  11.866  0.7046  0.8893 -0.3874
  386TMC3    H2 5829   0.463   3.062  11.677 -0.1712  0.1241 -2.8626
  386TMC3    C7 5830   0.576   3.012  11.904  0.6641 -0.2570  0.3159
  386TMC3    C8 5831   0.450   2.925  11.463 -0.0511 -0.1569 -0.4338
  386TMC3    O1 5832   0.456   2.992  11.914  0.5922  0.1196  0.0796
  386TMC3    O2 5833   0.347   2.987  11.483  0.4155 -0.3360 -0.5830
  387MPD2     C 5834   3.098   2.850   9.997  0.2671 -0.4989 -0.3647
  387MPD2    C1 5835   3.111   2.828  10.134 -0.3201  0.1841 -0.5250
  387MPD2    C2 5836   3.112   2.695  10.174 -0.4015  0.0443 -0.0697
  387MPD2    C3 5837   3.082   2.587  10.097 -0.6522  0.2853  0.7224
  387MPD2    C4 5838   3.069   2.611   9.963 -0.0114  0.2123 -0.0850
  387MPD2    C5 5839   3.077   2.742   9.918 -0.1137 -0.8148 -0.2002
  387MPD2     H 5840   3.126   2.674  10.280 -1.2318 -0.3109 -0.0332
  387MPD2    H1 5841   3.041   2.531   9.896 -0.9326  0.3344  0.1590
  387MPD2    H2 5842   3.102   2.947   9.950 -1.2088  0.2928  1.1641
  387MPD2    H3 5843   3.061   2.765   9.813  1.0477  0.1072 -0.1758
  387MPD2     N 5844   3.086   2.464  10.162 -0.0317  0.6248 -0.0624
  387MPD2    H5 5845   3.109   2.458  10.261 -0.8300  0.7755  0.1338
  387MPD2    N1 5846   3.155   2.926  10.230 -0.4160  0.6693  1.3143
  387MPD2    H7 5847   3.168   2.896  10.326 -0.7483 -1.1393  0.8005
  388TMC3    C1 5848   3.248   3.113  10.337 -0.2606 -0.2621  0.6270
  388TMC3    C2 5849   3.277   3.244  10.341 -0.0289  0.1622  0.4941
  388TMC3    C3 5850   3.359   3.293  10.441  0.1216 -0.4129 -0.0347
  388TMC3    C4 5851   3.310   3.026  10.423 -0.1263 -0.1717 -0.3374
  388TMC3    C5 5852   3.412   3.068  10.503  0.2305 -0.0583  0.1357
  388TMC3    C6 5853   3.425   3.205  10.529 -0.2229 -0.2781  0.0468
  388TMC3     C 5854   3.177   3.053  10.221  0.5107  0.8499 -0.0974
  388TMC3     O 5855   3.122   3.130  10.137  0.3128  0.0030 -0.7443
  388TMC3     H 5856   3.239   3.306  10.261 -1.0895 -0.3996  0.5563
  388TMC3    H1 5857   3.289   2.920  10.421  0.8151 -0.3831  0.6553
  388TMC3    H2 5858   3.507   3.242  10.590  0.8550 -0.3702 -1.3375
  388TMC3    C7 5859   3.468   2.969  10.594 -0.4823  0.2160 -0.2759
  388TMC3    C8 5860   3.379   3.433  10.446 -0.5031 -0.5757 -0.0592
  388TMC3    O1 5861   3.497   2.997  10.711  0.5615 -0.4071 -0.4454
  388TMC3    O2 5862   3.337   3.502  10.353 -0.0169  0.0970 -0.6783
  389MPD2     C 5863   2.864   0.951  11.655  0.3665 -0.0764  0.1198
  389MPD2    C1 5864   2.769   0.889  11.583 -0.3433  0.3905 -0.5475
  389MPD2    C2 5865   2.651   0.848  11.641  0.4053  0.3696  0.2292
  389MPD2    C3 5866   2.633   0.870  11.778 -0.0011  0.6659 -0.3572
  389MPD2    C4 5867   2.728   0.945  11.853 -0.2899  0.0846  1.0337
  389MPD2    C5 5868   2.844   0.981  11.788 -0.3329  0.0231 -0.2413
  389MPD2     H 5869   2.581   0.797  11.577 -0.1283 -0.9493  1.8839
  389MPD2    H1 5870   2.717   0.964  11.959 -1.3391  0.5410  0.8444
  389MPD2    H2 5871   2.963   0.974  11.619 -0.6984 -0.5836 -3.1197
  389MPD2    H3 5872   2.924   1.033  11.839 -2.2003  2.0491  0.5986
  389MPD2     N 5873   2.521   0.821  11.852  0.5784  0.5906  0.5402
  389MPD2    H5 5874   2.526   0.839  11.952  0.1924  1.7253  0.3510
  389MPD2    N1 5875   2.776   0.869  11.444  0.7494  0.3003 -0.1678
  389MPD2    H7 5876   2.691   0.830  11.404  1.3408 -0.1958 -0.9457
  390TMC3    C1 5877   2.315   0.692  11.900  0.3442  0.0259  0.3698
  390TMC3    C2 5878   2.239   0.587  11.874  0.6700 -0.2869 -0.4520
  390TMC3    C3 5879   2.141   0.554  11.958 -0.3309  0.1732  0.0918
  390TMC3    C4 5880   2.303   0.766  12.018 -0.6794 -0.3861  0.0101
  390TMC3    C5 5881   2.211   0.713  12.107 -0.0268  0.2904 -0.4335
  390TMC3    C6 5882   2.135   0.603  12.085  1.0339 -0.0868  0.8104
  390TMC3     C 5883   2.417   0.744  11.802 -0.2535  0.0263  0.3926
  390TMC3     O 5884   2.403   0.713  11.683  0.1482 -0.5845 -0.5399
  390TMC3     H 5885   2.271   0.535  11.784 -1.6092  0.8203 -1.9028
  390TMC3    H1 5886   2.364   0.852  12.043 -1.8985 -0.0966  1.9856
  390TMC3    H2 5887   2.060   0.566  12.154  1.2378 -1.2195  0.4268
  390TMC3    C7 5888   2.192   0.791  12.226  0.2961 -0.5811 -0.3032
  390TMC3    C8 5889   2.035   0.468  11.903  0.7144  0.0189  0.0761
  390TMC3    O1 5890   2.291   0.848  12.269 -0.8100 -0.4315 -0.2089
  390TMC3    O2 5891   2.041   0.446  11.780  0.0715  0.1527  0.2796
  391MPD2     C 5892   1.642   2.622  11.570  0.2262 -0.3605 -0.1612
  391MPD2    C1 5893   1.768   2.651  11.515  0.7724  0.7981  0.3659
  391MPD2    C2 5894   1.788   2.600  11.385  0.0759  0.3018  0.6133
  391MPD2    C3 5895   1.692   2.530  11.318  0.0009  0.5168  0.2408
  391MPD2    C4 5896   1.575   2.490  11.387  0.1559  0.9130  0.0685
  391MPD2    C5 5897   1.548   2.540  11.510 -0.0226  0.0530  0.2876
  391MPD2     H 5898   1.877   2.625  11.328 -0.2804 -0.9978 -0.5133
  391MPD2    H1 5899   1.491   2.443  11.338 -0.7739  1.7685  0.8409
  391MPD2    H2 5900   1.628   2.662  11.671  0.0754 -0.4194 -0.1587
  391MPD2    H3 5901   1.449   2.524  11.552 -0.3440  1.1285 -0.0614
  391MPD2     N 5902   1.710   2.504  11.180  0.4281 -0.0381 -0.5637
  391MPD2    H5 5903   1.795   2.535  11.134 -0.2537  1.9248 -0.5223
  391MPD2    N1 5904   1.861   2.731  11.587  0.2410  0.1542 -0.3595
  391MPD2    H7 5905   1.843   2.755  11.683  3.2029  1.3851 -0.1135
  392TMC3    C1 5906   1.659   2.452  10.953 -0.2291 -1.0973  0.3535
  392TMC3    C2 5907   1.578   2.384  10.869  0.0759 -0.4802  0.0122
  392TMC3    C3 5908   1.595   2.404  10.736 -0.4101  0.5912  0.0792
  392TMC3    C4 5909   1.741   2.551  10.908  0.7237 -0.0287  0.1297
  392TMC3    C5 5910   1.748   2.580  10.778 -0.5661  0.0512 -0.0795
  392TMC3    C6 5911   1.677   2.506  10.688  0.1545  0.9507 -0.2324
  392TMC3     C 5912   1.620   2.444  11.092 -0.2484  0.3512  0.1635
  392TMC3     O 5913   1.537   2.363  11.121  0.2909  0.6899 -0.4574
  392TMC3     H 5914   1.501   2.313  10.898 -0.6844  2.0851  4.3154
  392TMC3    H1 5915   1.800   2.599  10.985  1.6654 -0.7208 -0.1637
  392TMC3    H2 5916   1.701   2.515  10.582  0.1932 -2.6253 -0.5112
  392TMC3    C7 5917   1.848   2.679  10.745 -0.6537  0.1355 -0.2051
  392TMC3    C8 5918   1.521   2.328  10.643 -0.0659 -0.1365 -0.4001
  392TMC3    O1 5919   1.945   2.699  10.817 -0.1647 -0.1605  0.5874
  392TMC3    O2 5920   1.403   2.308  10.673 -0.0101  0.4974  0.7399
  393TMC3    C1 5921   0.448   0.571  10.359 -0.3866  0.3405 -0.6110
  393TMC3    C2 5922   0.439   0.453  10.289 -0.4349  0.1747 -0.6640
  393TMC3    C3 5923   0.387   0.347  10.362  0.3839 -0.9317  0.4663
  393TMC3    C4 5924   0.435   0.590  10.491 -0.2707  0.3833 -0.1090
  393TMC3    C5 5925   0.383   0.481  10.554  0.4584 -0.4687  0.2462
  393TMC3    C6 5926   0.349   0.365  10.492  0.0905  0.2869 -0.4615
  393TMC3     C 5927   0.485   0.684  10.275 -0.3267 -0.5761 -0.3237
  393TMC3     O 5928   0.545   0.662  10.171  0.3724  0.2091  0.1364
  393TMC3     H 5929   0.451   0.439  10.182  2.8226  2.1095 -0.5318
  393TMC3    H1 5930   0.443   0.686  10.540 -0.1731  0.3271 -0.0143
  393TMC3    H2 5931   0.301   0.283  10.545  0.3350  0.2240 -0.3341
  393TMC3    C7 5932   0.373   0.474  10.691 -0.0048 -0.0909 -0.2624
  393TMC3    C8 5933   0.392   0.211  10.318  0.0604 -0.0243  0.2677
  393TMC3    O1 5934   0.270   0.421  10.736  0.1682 -0.1911 -0.0596
  393TMC3    O2 5935   0.371   0.122  10.399 -0.7039  0.0401  0.8941
  394TMC3    C1 5936   2.829   0.905  11.215  0.0673  0.7340 -0.6506
  394TMC3    C2 5937   2.703   0.941  11.188 -0.1594  0.2266 -0.2524
  394TMC3    C3 5938   2.668   0.967  11.062 -0.1753 -0.2616 -0.1725
  394TMC3    C4 5939   2.923   0.903  11.117 -0.0800  0.1224 -0.0556
  394TMC3    C5 5940   2.886   0.938  10.989  0.4171  0.5296 -0.0825
  394TMC3    C6 5941   2.755   0.974  10.958  0.2838  0.5023  0.1643
  394TMC3     C 5942   2.873   0.908  11.353  0.0530  0.4478 -1.1783
  394TMC3     O 5943   2.991   0.944  11.373 -0.9884  0.1458 -0.1275
  394TMC3     H 5944   2.630   0.922  11.265  0.1608  0.4712  0.1108
  394TMC3    H1 5945   3.027   0.883  11.139  0.0876  1.0174 -0.0525
  394TMC3    H2 5946   2.715   1.006  10.862 -0.3431  0.8685  0.5482
  394TMC3    C7 5947   2.985   0.922  10.885 -0.0872  0.4188 -0.3451
  394TMC3    C8 5948   2.519   0.971  11.052 -0.4091  0.4023 -0.0289
  394TMC3    O1 5949   3.062   0.827  10.890  0.3632 -0.2657 -0.2059
  394TMC3    O2 5950   2.435   0.989  11.143 -0.1020 -0.0576  0.0566
  395TMC3    C1 5951   2.428   2.927  15.134  0.1048 -0.4382 -0.1689
  395TMC3    C2 5952   2.487   2.820  15.077  0.5502 -0.2502  0.7682
  395TMC3    C3 5953   2.607   2.841  15.006  0.0198 -0.0854 -0.1309
  395TMC3    C4 5954   2.489   3.052  15.137  0.4730 -0.1986 -0.1495
  395TMC3    C5 5955   2.604   3.071  15.065 -0.0299 -0.7562 -0.4290
  395TMC3    C6 5956   2.666   2.964  15.000  0.0916  0.2773 -0.2106
  395TMC3     C 5957   2.356   2.900  15.255 -0.2344 -0.2595  0.2863
  395TMC3     O 5958   2.257   2.969  15.277 -0.2161 -0.3437 -0.1018
  395TMC3     H 5959   2.436   2.726  15.097 -0.5674  0.7366  2.6034
  395TMC3    H1 5960   2.450   3.120  15.211 -0.9797 -0.2212 -0.9024
  395TMC3    H2 5961   2.757   2.979  14.944 -0.5847  0.2636 -1.3353
  395TMC3    C7 5962   2.676   3.194  15.094 -0.5949  0.2804  0.3278
  395TMC3    C8 5963   2.688   2.732  14.963  0.1507 -0.6971 -0.3855
  395TMC3    O1 5964   2.610   3.272  15.156  1.1609  0.3024 -0.3909
  395TMC3    O2 5965   2.806   2.760  14.985  0.4444  0.5646 -0.7609
  396MPD2     C 5966   1.851   3.981  17.030  1.2615  0.4058 -0.4898
  396MPD2    C1 5967   1.988   4.008  17.030 -0.2875 -0.1731  0.2931
  396MPD2    C2 5968   2.037   4.100  16.938  0.6753 -0.6340 -0.0355
  396MPD2    C3 5969   1.961   4.175  16.854 -0.2208 -0.3248 -0.2967
  396MPD2    C4 5970   1.821   4.158  16.859  0.1826 -0.1395 -0.0941
  396MPD2    C5 5971   1.772   4.059  16.947 -0.0030  0.7093  0.8646
  396MPD2     H 5972   2.140   4.133  16.949  0.6136 -0.5036  0.1588
  396MPD2    H1 5973   1.760   4.223  16.799 -0.4024 -0.6500 -0.0497
  396MPD2    H2 5974   1.812   3.899  17.090  0.2025 -0.3074 -2.1558
  396MPD2    H3 5975   1.663   4.060  16.950 -0.0300  0.5195 -0.1134
  396MPD2     N 5976   2.024   4.277  16.784 -0.4388 -0.3220  0.3847
  396MPD2    H5 5977   2.124   4.291  16.799 -0.1160  0.5783 -2.6499
  396MPD2    N1 5978   2.067   3.945  17.135  0.2160 -0.0243 -0.2131
  396MPD2    H7 5979   2.018   3.891  17.206  2.1882  0.0290  1.1721
  397TMC3    C1 5980   2.257   3.876  17.256  0.5907 -0.8273 -0.0765
  397TMC3    C2 5981   2.333   3.775  17.229  0.3213 -0.0102 -0.3166
  397TMC3    C3 5982   2.322   3.660  17.306 -0.4605  0.1340  0.8666
  397TMC3    C4 5983   2.165   3.875  17.352  0.0382  0.4798  0.1277
  397TMC3    C5 5984   2.165   3.770  17.447  0.6619 -0.4187 -0.5522
  397TMC3    C6 5985   2.244   3.657  17.420  0.1133  0.2871 -0.5399
  397TMC3     C 5986   2.208   3.948  17.144 -0.4078 -0.0309 -0.3216
  397TMC3     O 5987   2.288   3.982  17.058  0.0225  0.5307  0.3384
  397TMC3     H 5988   2.372   3.760  17.129  2.1137 -0.4325  0.4344
  397TMC3    H1 5989   2.106   3.962  17.379 -1.4722 -0.5985  0.2570
  397TMC3    H2 5990   2.239   3.573  17.489 -1.2481 -0.6867 -1.8319
  397TMC3    C7 5991   2.041   3.744  17.520 -0.0905 -0.2849  0.6210
  397TMC3    C8 5992   2.296   3.546  17.217  0.2440 -0.2091 -0.2194
  397TMC3    O1 5993   1.936   3.785  17.469  0.6215 -0.2365 -0.0597
  397TMC3    O2 5994   2.372   3.530  17.122 -0.4237  0.1247  0.8228
  398MPD2     C 5995   0.206   1.061   0.268 -0.6614  0.0003  0.4458
  398MPD2    C1 5996   0.331   1.005   0.253  0.3702  0.3557 -0.4404
  398MPD2    C2 5997   0.447   1.069   0.290 -0.6431 -0.2128 -0.5007
  398MPD2    C3 5998   0.435   1.197   0.337  0.3532 -0.2881 -0.3297
  398MPD2    C4 5999   0.311   1.254   0.355 -0.5519  0.0371  0.3863
  398MPD2    C5 6000   0.199   1.182   0.332 -0.3395  0.9649 -0.6642
  398MPD2     H 6001   0.542   1.019   0.276 -0.4682 -0.1679  0.5354
  398MPD2    H1 6002   0.294   1.354   0.393  3.6376  1.2542 -0.9405
  398MPD2    H2 6003   0.113   1.007   0.254  0.1816 -1.1151 -0.8436
  398MPD2    H3 6004   0.105   1.228   0.360  0.0520 -0.0282  2.2512
  398MPD2     N 6005   0.555   1.260   0.370  0.4689 -0.3566  0.4352
  398MPD2    H5 6006   0.640   1.208   0.349 -0.9376 -2.2366 -0.6561
  398MPD2    N1 6007   0.352   0.867   0.223  0.0817 -0.5885  0.6263
  398MPD2    H7 6008   0.442   0.825   0.239  0.9556  0.9739 -0.1964
  399TMC3    C1 6009   0.295   0.648   0.165  0.5219  0.6362  0.3504
  399TMC3    C2 6010   0.399   0.606   0.244  0.0282  0.2011 -0.0665
  399TMC3    C3 6011   0.416   0.472   0.271 -0.6715 -0.3423  0.1723
  399TMC3    C4 6012   0.198   0.558   0.120 -0.6710 -0.7549 -0.1247
  399TMC3    C5 6013   0.206   0.431   0.171  0.2470 -0.6092 -0.1171
  399TMC3    C6 6014   0.320   0.384   0.223 -0.9587 -0.3789 -0.4255
  399TMC3     C 6015   0.253   0.790   0.173 -0.3747  0.1241  0.0015
  399TMC3     O 6016   0.138   0.822   0.134 -0.6275 -0.8753  0.2005
  399TMC3     H 6017   0.470   0.676   0.286 -0.4300  0.3311  0.4826
  399TMC3    H1 6018   0.108   0.601   0.078  0.0633 -0.0629 -0.9875
  399TMC3    H2 6019   0.342   0.278   0.234 -1.1016 -0.5205 -1.4272
  399TMC3    C7 6020   0.092   0.339   0.165 -0.0405  0.0445 -0.4352
  399TMC3    C8 6021   0.552   0.420   0.294 -0.1436  0.2103  0.1960
  399TMC3    O1 6022   0.112   0.235   0.223 -0.5341 -0.2742 -0.2837
  399TMC3    O2 6023   0.646   0.498   0.280  0.7663 -0.0692  0.0589
  400TMC3    C1 6024   3.711   3.608  16.804  0.0678 -0.1678  0.8201
  400TMC3    C2 6025   3.649   3.519  16.720  0.0288 -0.1321 -0.5267
  400TMC3    C3 6026   3.576   3.563  16.616 -0.2166  0.5268 -0.0989
  400TMC3    C4 6027   3.704   3.738  16.777 -0.2434  0.4950 -0.7069
  400TMC3    C5 6028   3.639   3.783  16.663  1.4164  0.7591 -0.1743
  400TMC3    C6 6029   3.566   3.697  16.580 -0.4490 -0.0050 -0.3185
  400TMC3     C 6030   3.765   3.568  16.933 -0.6220 -0.4285 -0.4502
  400TMC3     O 6031   3.735   3.456  16.972 -0.7060 -0.8057  0.0690
  400TMC3     H 6032   3.637   3.416  16.750  1.0335 -0.2002 -0.3642
  400TMC3    H1 6033   3.747   3.812  16.843  2.8389 -1.4856 -0.5169
  400TMC3    H2 6034   3.500   3.731  16.502  0.4910  2.9220  0.1691
  400TMC3    C7 6035   3.597   3.925  16.666 -0.0340  0.4307  0.4753
  400TMC3    C8 6036   3.496   3.477  16.534 -0.4674 -0.1342  0.6041
  400TMC3    O1 6037   3.638   3.993  16.756 -0.1974 -0.0470  0.5109
  400TMC3    O2 6038   3.404   3.537  16.482  0.0974  0.5587 -0.5295
  401MPD2     C 6039   2.171   2.643   0.872 -0.0071  0.9953 -0.0857
  401MPD2    C1 6040   2.273   2.570   0.924 -0.0878  0.5559 -0.3259
  401MPD2    C2 6041   2.275   2.436   0.916  0.1887  0.1444 -0.7469
  401MPD2    C3 6042   2.182   2.369   0.844  0.1185  0.5864  0.2875
  401MPD2    C4 6043   2.069   2.441   0.806 -0.3449  0.0904 -0.0463
  401MPD2    C5 6044   2.061   2.580   0.815 -0.6791 -0.0213 -0.4915
  401MPD2     H 6045   2.361   2.385   0.956 -0.3427  0.6132  0.9794
  401MPD2    H1 6046   1.989   2.394   0.750 -0.9438  2.4106 -1.1099
  401MPD2    H2 6047   2.161   2.751   0.872  0.4554  1.0365  1.1275
  401MPD2    H3 6048   1.978   2.642   0.784 -0.4843  1.3821  1.8041
  401MPD2     N 6049   2.202   2.232   0.825 -0.5710 -0.5728  0.3962
  401MPD2    H5 6050   2.295   2.203   0.853  0.0377  1.2841  0.3475
  401MPD2    N1 6051   2.381   2.640   0.984 -0.2113  0.0995  0.2869
  401MPD2    H7 6052   2.453   2.574   1.014 -0.4582 -1.4764 -2.4853
  402TMC3    C1 6053   2.167   2.015   0.741  0.0019  0.4736  0.5985
  402TMC3    C2 6054   2.255   1.957   0.830 -0.3285 -0.5247  0.3800
  402TMC3    C3 6055   2.309   1.838   0.779  0.2206  0.2056 -0.1437
  402TMC3    C4 6056   2.155   1.971   0.615  0.3297 -0.1071 -0.3077
  402TMC3    C5 6057   2.222   1.864   0.572  0.4902 -0.1860 -0.3497
  402TMC3    C6 6058   2.306   1.797   0.651 -0.3081  0.1300  0.2595
  402TMC3     C 6059   2.119   2.143   0.762 -0.3062  0.8615 -0.0875
  402TMC3     O 6060   2.008   2.160   0.713  0.3414 -0.1109 -0.1280
  402TMC3     H 6061   2.253   1.985   0.935  1.8958  0.7773  0.0843
  402TMC3    H1 6062   2.097   2.031   0.546  0.5167  0.2025 -0.1974
  402TMC3    H2 6063   2.348   1.701   0.624  1.2090  0.6185  0.8626
  402TMC3    C7 6064   2.164   1.798   0.457  0.0349  0.2133 -0.3685
  402TMC3    C8 6065   2.357   1.734   0.871  0.3317  0.2637  0.4274
  402TMC3    O1 6066   2.046   1.808   0.444  0.2117  0.3338 -0.0051
  402TMC3    O2 6067   2.434   1.645   0.834  0.9214  0.3007  0.0070
  403MPD2     C 6068   0.176   0.746  13.416 -0.3847 -0.2012  0.3088
  403MPD2    C1 6069   0.105   0.765  13.525 -0.5417  0.0682  0.7086
  403MPD2    C2 6070   0.175   0.789  13.647  0.1585 -0.3890 -0.1391
  403MPD2    C3 6071   0.312   0.765  13.661  0.4661 -0.1908 -0.4036
  403MPD2    C4 6072   0.378   0.729  13.539  0.4836 -0.9025 -1.1086
  403MPD2    C5 6073   0.308   0.715  13.419  0.4531  0.5137 -0.3304
  403MPD2     H 6074   0.113   0.821  13.730 -1.6136 -0.5832 -1.3993
  403MPD2    H1 6075   0.481   0.697  13.535  0.7797 -0.2379  1.2779
  403MPD2    H2 6076   0.130   0.753  13.318  0.1935  2.5821  0.2149
  403MPD2    H3 6077   0.371   0.685  13.336  0.0931 -0.0747 -0.3883
  403MPD2     N 6078   0.370   0.788  13.785 -0.2607 -0.2874  0.2354
  403MPD2    H5 6079   0.316   0.830  13.861 -0.4127 -0.8298  0.4244
  403MPD2    N1 6080   4.712   0.788  13.509 -0.1581  0.2584 -0.0359
  403MPD2    H7 6081   4.671   0.772  13.418  1.2905  1.3384 -0.8642
  404TMC3    C1 6082   4.483   0.783  13.543  0.1416  0.0141 -0.0143
  404TMC3    C2 6083   4.414   0.681  13.599 -0.0865 -0.2808  0.8858
  404TMC3    C3 6084   4.345   0.602  13.514 -0.6824 -0.5184 -0.0011
  404TMC3    C4 6085   4.473   0.811  13.414  0.4307  0.4793  1.0822
  404TMC3    C5 6086   4.407   0.727  13.329 -0.4020  0.5999  0.3393
  404TMC3    C6 6087   4.346   0.619  13.380 -0.3828 -0.1213 -0.3046
  404TMC3     C 6088   4.616   0.794  13.606 -0.2802 -0.1165 -0.3759
  404TMC3     O 6089   4.628   0.768  13.727  0.6670  0.8025 -0.0072
  404TMC3     H 6090   4.445   0.668  13.702 -0.7008  4.5141  1.6871
  404TMC3    H1 6091   4.522   0.901  13.377 -0.7262  0.5106 -0.3891
  404TMC3    H2 6092   4.293   0.546  13.320  1.3269  1.1071 -3.3340
  404TMC3    C7 6093   4.442   0.728  13.195  1.0869 -0.3786  0.3189
  404TMC3    C8 6094   4.358   0.470  13.559  0.3595  0.6186 -0.0988
  404TMC3    O1 6095   4.558   0.750  13.168  0.0601  0.0897  0.8440
  404TMC3    O2 6096   4.388   0.379  13.480  0.0437 -0.2566  0.3430
  405MPD2     C 6097   0.671   1.295  14.715 -0.4018 -0.3970 -0.4898
  405MPD2    C1 6098   0.666   1.183  14.636  0.2752 -0.2314 -0.3960
  405MPD2    C2 6099   0.601   1.185  14.509  0.0775 -0.5656  0.4858
  405MPD2    C3 6100   0.559   1.304  14.457  0.3315 -0.3098 -0.0717
  405MPD2    C4 6101   0.560   1.415  14.541  0.0912  0.9429  0.3735
  405MPD2    C5 6102   0.612   1.407  14.672 -0.6536  0.7424 -0.0548
  405MPD2     H 6103   0.575   1.094  14.457 -0.6931 -0.8064  1.2926
  405MPD2    H1 6104   0.527   1.512  14.506  0.6543  1.3769  1.0280
  405MPD2    H2 6105   0.708   1.288  14.817 -0.9914 -0.5454 -0.2898
  405MPD2    H3 6106   0.625   1.493  14.737 -0.9314  1.2476 -0.6679
  405MPD2     N 6107   0.501   1.299  14.327  0.0393  0.3737  0.2388
  405MPD2    H5 6108   0.503   1.210  14.278 -1.1560  0.6831 -0.3688
  405MPD2    N1 6109   0.710   1.064  14.694  0.6151  0.5943 -0.3466
  405MPD2    H7 6110   0.732   1.070  14.794  0.5369 -1.3323 -0.2128
  406TMC3    C1 6111   0.177   1.392  14.017 -0.1242  0.2553 -0.2540
  406TMC3    C2 6112   0.168   1.256  13.995  0.1240  0.5572 -0.2723
  406TMC3    C3 6113   0.268   1.174  14.037  0.9065 -0.5239  0.7399
  406TMC3    C4 6114   0.276   1.441  14.093  0.4911 -0.2478 -0.3247
  406TMC3    C5 6115   0.378   1.356  14.143  0.1797 -0.2255 -0.2089
  406TMC3    C6 6116   0.377   1.223  14.113  0.1624 -0.6094  0.0515
  406TMC3     C 6117   0.050   1.462  14.016 -0.3748  0.2366  0.6190
  406TMC3     O 6118   0.040   1.572  13.964  0.3501  1.0152  0.5892
  406TMC3     H 6119   0.088   1.215  13.934  0.4041 -1.0504  0.4380
  406TMC3    H1 6120   0.273   1.544  14.127 -1.0195  0.2193 -1.8924
  406TMC3    H2 6121   0.456   1.153  14.137  0.9381 -0.0059 -0.7641
  406TMC3    C7 6122   0.445   1.404  14.257 -1.0689 -0.5072 -0.5494
  406TMC3    C8 6123   0.235   1.039  14.051 -0.0892 -1.0672  0.0984
  406TMC3    O1 6124   0.427   1.519  14.296 -0.6818  0.0137  0.1500
  406TMC3    O2 6125   0.167   0.974  13.969 -0.0245  0.0275  0.1987
  407MPD2     C 6126   2.700   2.240   9.990  1.0672  1.2333 -0.5402
  407MPD2    C1 6127   2.758   2.346   9.932 -0.0161 -0.0330  0.6036
  407MPD2    C2 6128   2.749   2.467   9.993  0.6256 -0.4865 -0.5999
  407MPD2    C3 6129   2.685   2.487  10.111 -0.3410 -0.2077 -0.5089
  407MPD2    C4 6130   2.619   2.376  10.169 -0.2053  0.0409 -0.5580
  407MPD2    C5 6131   2.621   2.257  10.105  0.2288  0.0569  0.4290
  407MPD2     H 6132   2.807   2.544   9.943  0.4254 -0.6065 -1.0197
  407MPD2    H1 6133   2.577   2.386  10.268 -1.0593  0.5651 -0.9702
  407MPD2    H2 6134   2.720   2.135   9.968 -0.2634  0.9468 -0.3686
  407MPD2    H3 6135   2.589   2.169  10.160 -0.6772  1.0924  1.5577
  407MPD2     N 6136   2.692   2.609  10.176 -0.3849 -0.0170  0.2304
  407MPD2    H5 6137   2.649   2.619  10.267  1.2352 -0.3567  1.0348
  407MPD2    N1 6138   2.854   2.333   9.831  0.1569  0.5909  0.1088
  407MPD2    H7 6139   2.897   2.419   9.797 -0.6771 -0.1474 -2.7678
  408TMC3    C1 6140   3.016   2.232   9.688  0.0999  0.5450  0.0420
  408TMC3    C2 6141   3.122   2.154   9.708 -0.4939 -0.4959 -0.4767
  408TMC3    C3 6142   3.241   2.183   9.639 -0.7354  0.1710 -0.5987
  408TMC3    C4 6143   3.021   2.348   9.612 -0.2326 -0.2238 -0.1453
  408TMC3    C5 6144   3.138   2.383   9.560 -0.3298 -0.1019 -0.9754
  408TMC3    C6 6145   3.253   2.304   9.576  0.0664  0.4641  0.2778
  408TMC3     C 6146   2.899   2.210   9.779 -0.4092 -0.4486  0.2302
  408TMC3     O 6147   2.884   2.093   9.819  0.7574  0.3211 -0.9317
  408TMC3     H 6148   3.116   2.071   9.777 -0.3339  1.2988  1.6991
  408TMC3    H1 6149   2.934   2.413   9.607 -1.3239 -1.5876  1.0371
  408TMC3    H2 6150   3.341   2.328   9.517  0.2240  1.8636  1.0780
  408TMC3    C7 6151   3.164   2.524   9.536 -0.4066  0.1582 -0.4230
  408TMC3    C8 6152   3.346   2.085   9.656  0.1929  0.1846 -0.4142
  408TMC3    O1 6153   3.282   2.560   9.552 -0.4560  0.6678 -0.0757
  408TMC3    O2 6154   3.307   1.970   9.668 -0.4315 -0.4031  0.6869
  409MPD2     C 6155   2.321   3.114  16.899  0.2473 -0.2089 -0.0632
  409MPD2    C1 6156   2.442   3.057  16.898 -0.2384 -0.0049 -0.1904
  409MPD2    C2 6157   2.543   3.111  16.819 -0.6028  0.0808 -0.4006
  409MPD2    C3 6158   2.530   3.232  16.754  0.5400  0.2463  0.2727
  409MPD2    C4 6159   2.412   3.293  16.767  0.2984  0.3565 -0.4891
  409MPD2    C5 6160   2.305   3.235  16.832 -0.4289  0.6183 -0.4242
  409MPD2     H 6161   2.635   3.053  16.816 -0.3725  0.4707 -0.8088
  409MPD2    H1 6162   2.396   3.387  16.715  1.8527  0.5958 -0.5328
  409MPD2    H2 6163   2.233   3.079  16.953 -0.1618  0.1267 -0.5162
  409MPD2    H3 6164   2.207   3.280  16.842 -0.3401  0.6350  0.4089
  409MPD2     N 6165   2.627   3.294  16.667  0.2847 -0.2156 -0.1470
  409MPD2    H5 6166   2.612   3.387  16.629 -0.6445 -0.2317  0.1739
  409MPD2    N1 6167   2.477   2.941  16.981 -0.0357 -0.2148  0.5129
  409MPD2    H7 6168   2.566   2.893  16.969  0.0141 -0.0900  0.3879
  410TMC3    C1 6169   2.854   3.343  16.593 -0.5027 -0.2348  0.1883
  410TMC3    C2 6170   2.986   3.341  16.633 -1.0470 -0.1747  0.5709
  410TMC3    C3 6171   3.077   3.421  16.575  0.5091  0.0765  0.0554
  410TMC3    C4 6172   2.811   3.427  16.492 -0.1285 -0.1490 -0.5724
  410TMC3    C5 6173   2.904   3.517  16.448 -0.0161  0.4625  0.3255
  410TMC3    C6 6174   3.040   3.504  16.472 -0.8848  0.1160 -0.0154
  410TMC3     C 6175   2.761   3.259  16.670  0.0205  0.4002  0.1256
  410TMC3     O 6176   2.818   3.166  16.728 -0.2067 -0.0693 -0.1891
  410TMC3     H 6177   3.014   3.276  16.715 -0.6051  0.4606  0.9252
  410TMC3    H1 6178   2.709   3.428  16.456 -0.1889 -2.1731 -0.4441
  410TMC3    H2 6179   3.105   3.589  16.454 -1.3058  0.7652  1.5906
  410TMC3    C7 6180   2.854   3.636  16.385  0.5738 -0.2119  0.5610
  410TMC3    C8 6181   3.180   3.472  16.674  0.4980 -0.5338 -0.0018
  410TMC3    O1 6182   2.748   3.682  16.425 -0.1808 -0.3169  0.5031
  410TMC3    O2 6183   3.177   3.592  16.696 -0.7846 -0.0102  0.1193
  411MPD2     C 6184   2.665   3.740  14.867  0.6310  0.7641  0.9924
  411MPD2    C1 6185   2.542   3.783  14.826  0.3621 -0.6704 -0.1326
  411MPD2    C2 6186   2.457   3.684  14.775  0.5842  0.1337  0.2452
  411MPD2    C3 6187   2.472   3.546  14.786  1.1674  0.2078 -0.4850
  411MPD2    C4 6188   2.581   3.509  14.855 -0.5918 -0.2859 -0.3752
  411MPD2    C5 6189   2.677   3.606  14.880  0.3638  0.1500 -0.0363
  411MPD2     H 6190   2.369   3.712  14.718 -1.0457 -1.4268  1.9799
  411MPD2    H1 6191   2.598   3.402  14.864  0.9620  0.2281  2.8173
  411MPD2    H2 6192   2.748   3.804  14.895  1.3737  0.4069 -0.3677
  411MPD2    H3 6193   2.775   3.569  14.909  0.5012  1.1948  0.8253
  411MPD2     N 6194   2.380   3.454  14.736 -0.1295  0.2890 -0.1334
  411MPD2    H5 6195   2.416   3.359  14.742 -0.3109  0.3604  2.3348
  411MPD2    N1 6196   2.512   3.919  14.811  0.1514  0.2632 -0.4074
  411MPD2    H7 6197   2.415   3.938  14.784 -0.4887 -1.1943  0.9062
  412TMC3    C1 6198   2.226   3.358  14.605  0.4696  0.7596  0.2080
  412TMC3    C2 6199   2.094   3.316  14.596  0.8549  0.1032  0.5414
  412TMC3    C3 6200   2.061   3.200  14.536  0.3575 -0.5950  0.1800
  412TMC3    C4 6201   2.332   3.286  14.551  0.1291  0.2983  0.2638
  412TMC3    C5 6202   2.290   3.174  14.483  0.2060  0.1642 -0.6125
  412TMC3    C6 6203   2.161   3.128  14.479  0.3555  0.4307 -0.1306
  412TMC3     C 6204   2.257   3.472  14.685  0.1710 -0.3125  1.0591
  412TMC3     O 6205   2.176   3.564  14.698  0.1375 -0.1553 -0.5745
  412TMC3     H 6206   2.020   3.358  14.663  2.0109  2.3895  0.3663
  412TMC3    H1 6207   2.431   3.328  14.539 -0.5334  1.7649 -0.0817
  412TMC3    H2 6208   2.143   3.026  14.446  0.8744  0.9398 -1.9401
  412TMC3    C7 6209   2.355   3.161  14.360 -0.4231  0.0263 -0.3860
  412TMC3    C8 6210   1.947   3.223  14.442  0.4563  0.1454  0.2345
  412TMC3    O1 6211   2.279   3.120  14.270  0.1601 -0.1908 -0.6120
  412TMC3    O2 6212   1.865   3.309  14.468 -0.0189 -0.4514  0.3856
  413MPD2     C 6213   4.542   2.684  15.644  0.0656  0.0574  0.3184
  413MPD2    C1 6214   4.487   2.618  15.539 -0.1048  0.6157  0.2099
  413MPD2    C2 6215   4.574   2.558  15.447 -0.3957  0.8264 -0.5458
  413MPD2    C3 6216   4.711   2.562  15.460 -0.5406 -0.2697  0.7751
  413MPD2    C4 6217   0.029   2.652  15.551 -0.0801 -0.3683 -0.7025
  413MPD2    C5 6218   4.682   2.707  15.645  0.4381 -0.2110  0.3091
  413MPD2     H 6219   4.533   2.485  15.377 -0.2720  0.8399 -0.6321
  413MPD2    H1 6220   0.138   2.650  15.552 -0.1093 -0.5307  1.9820
  413MPD2    H2 6221   4.480   2.732  15.719 -1.1136 -1.7664  0.5189
  413MPD2    H3 6222   4.725   2.758  15.730 -0.8564  0.1677  0.7374
  413MPD2     N 6223   0.049   2.476  15.374  0.1254  0.0576 -0.0307
  413MPD2    H5 6224   4.738   2.421  15.306 -1.6156  0.5602  0.8646
  413MPD2    N1 6225   4.343   2.593  15.525 -0.7779  0.4088 -0.7139
  413MPD2    H7 6226   4.320   2.555  15.434  0.6736 -0.4805 -0.7101
  414TMC3    C1 6227   0.221   2.333  15.318 -0.0934 -0.5361 -0.0684
  414TMC3    C2 6228   0.144   2.227  15.361  0.3357 -0.4014 -0.0150
  414TMC3    C3 6229   0.157   2.109  15.295 -0.4986 -0.0782 -0.1110
  414TMC3    C4 6230   0.318   2.321  15.217 -0.2219  0.2251  0.1902
  414TMC3    C5 6231   0.320   2.200  15.158  0.4788  0.3397  0.7947
  414TMC3    C6 6232   0.240   2.092  15.187 -0.2328 -0.1758  0.6059
  414TMC3     C 6233   0.189   2.464  15.367  0.1846 -0.1072 -0.4041
  414TMC3     O 6234   0.277   2.545  15.403 -0.4851  0.2788  0.3922
  414TMC3     H 6235   0.069   2.241  15.439 -1.6767 -2.6953 -1.5295
  414TMC3    H1 6236   0.378   2.407  15.192 -0.1036 -0.1616 -0.8611
  414TMC3    H2 6237   0.251   1.996  15.138 -0.7565  0.6095 -1.0245
  414TMC3    C7 6238   0.448   2.160  15.094  0.3745  0.0397  0.7564
  414TMC3    C8 6239   0.124   1.985  15.364 -0.6157  1.0771  0.4225
  414TMC3    O1 6240   0.544   2.230  15.121  0.5811 -0.2401  0.4980
  414TMC3    O2 6241   0.070   1.897  15.301  0.0265 -0.0183 -0.0715
  415TMC3    C1 6242   0.546   4.412  10.485  0.6269  0.2488  0.0620
  415TMC3    C2 6243   0.617   4.496  10.400 -0.5176 -0.2896 -0.1782
  415TMC3    C3 6244   0.597   4.480  10.262 -0.5551 -0.2592 -0.1807
  415TMC3    C4 6245   0.459   4.324  10.431 -0.4585 -0.1027  0.4572
  415TMC3    C5 6246   0.453   4.311  10.299 -0.1839  0.6511 -0.4823
  415TMC3    C6 6247   0.518   4.387  10.207  0.2875 -0.3286  0.4196
  415TMC3     C 6248   0.515   4.449  10.617 -0.7311 -0.4318  0.4081
  415TMC3     O 6249   0.473   4.356  10.683  0.1824 -0.2659  0.0622
  415TMC3     H 6250   0.691   4.566  10.436 -0.9176 -0.0396  0.1537
  415TMC3    H1 6251   0.407   4.256  10.497 -1.5140 -1.6037 -1.9432
  415TMC3    H2 6252   0.511   4.371  10.100  0.1240 -2.6393  0.7611
  415TMC3    C7 6253   0.368   4.210  10.231 -0.5057 -0.0316  0.5102
  415TMC3    C8 6254   0.688   4.547  10.169  0.5364  0.3199  0.1386
  415TMC3    O1 6255   0.409   4.160  10.128  0.3773  0.1867  0.0804
  415TMC3    O2 6256   0.724   4.484  10.069 -0.4500 -0.7455 -0.1686
  416MPD2     C 6257   2.127   3.741  11.491 -1.3284 -0.4723  0.2263
  416MPD2    C1 6258   2.014   3.709  11.420  0.3801  0.6488  0.9858
  416MPD2    C2 6259   2.028   3.625  11.307 -0.4309 -0.4676  0.6217
  416MPD2    C3 6260   2.158   3.579  11.272  0.4282  0.3753  0.5154
  416MPD2    C4 6261   2.270   3.629  11.330 -0.3700 -0.1183  0.3817
  416MPD2    C5 6262   2.254   3.694  11.454  0.3863  0.9781  0.3474
  416MPD2     H 6263   1.944   3.589  11.248 -1.2508  1.2266  0.7790
  416MPD2    H1 6264   2.367   3.585  11.311 -0.2723  0.4176 -0.3418
  416MPD2    H2 6265   2.112   3.802  11.579 -3.5728 -0.4040 -0.2105
  416MPD2    H3 6266   2.338   3.696  11.523 -0.0402  0.2105  0.8901
  416MPD2     N 6267   2.189   3.494  11.164 -0.5007 -0.2442 -0.6997
  416MPD2    H5 6268   2.285   3.491  11.134  0.0827  0.1042  1.1105
  416MPD2    N1 6269   1.894   3.750  11.473 -0.7023  0.0352  0.0053
  416MPD2    H7 6270   1.894   3.820  11.546  0.7410 -0.5166  0.5425
  417TMC3    C1 6271   1.669   3.812  11.461 -0.0314 -0.2023  0.8354
  417TMC3    C2 6272   1.654   3.829  11.595 -0.5998 -0.0978  0.8712
  417TMC3    C3 6273   1.546   3.896  11.642 -0.4418  0.4404  0.6817
  417TMC3    C4 6274   1.577   3.852  11.372 -0.4253 -0.3972 -0.4722
  417TMC3    C5 6275   1.461   3.913  11.417  1.3433 -0.0986  0.0322
  417TMC3    C6 6276   1.443   3.928  11.555 -0.1315  0.0038 -0.2247
  417TMC3     C 6277   1.777   3.727  11.410 -0.6960  0.0085  0.0035
  417TMC3     O 6278   1.743   3.657  11.317  0.6037  0.1330  0.2279
  417TMC3     H 6279   1.714   3.771  11.664 -0.5558  0.3053  1.1711
  417TMC3    H1 6280   1.582   3.844  11.264 -1.6426  0.1938 -0.5743
  417TMC3    H2 6281   1.365   3.998  11.584 -1.1039 -0.6796 -1.1764
  417TMC3    C7 6282   1.390   3.985  11.320  0.2553 -0.1226 -0.1150
  417TMC3    C8 6283   1.523   3.926  11.781  0.1323  0.2360  0.8326
  417TMC3    O1 6284   1.447   4.019  11.218 -1.0448 -0.4432 -0.1792
  417TMC3    O2 6285   1.437   4.007  11.809 -0.2845  0.7295  0.0793
  418TMC3    C1 6286   0.911   1.304   0.486  0.2422  0.7688  0.1699
  418TMC3    C2 6287   0.797   1.378   0.450  0.0396 -0.1687  0.5821
  418TMC3    C3 6288   0.690   1.366   0.528 -0.5003 -0.3639  0.3403
  418TMC3    C4 6289   0.909   1.209   0.585  0.7378 -0.2806 -0.0571
  418TMC3    C5 6290   0.794   1.201   0.659 -0.0463 -0.5835  0.0397
  418TMC3    C6 6291   0.684   1.285   0.640  0.5047  0.2970 -0.1943
  418TMC3     C 6292   1.026   1.318   0.399  0.2677  0.0332  0.2028
  418TMC3     O 6293   1.036   1.427   0.345 -0.3823  0.1525 -0.1351
  418TMC3     H 6294   0.788   1.439   0.361 -0.5538 -0.8973  0.1343
  418TMC3    H1 6295   0.992   1.140   0.602  2.0061  1.2973  0.1230
  418TMC3    H2 6296   0.596   1.278   0.702  0.7783  0.4654  0.2123
  418TMC3    C7 6297   0.756   1.064   0.693  0.6460  0.5913  0.6619
  418TMC3    C8 6298   0.564   1.362   0.465 -0.2800 -0.2334  1.0671
  418TMC3    O1 6299   0.845   0.982   0.724 -0.3096 -0.1619  0.5354
  418TMC3    O2 6300   0.479   1.390   0.547 -0.4329  0.4118 -0.1959
  419MPD2     C 6301   4.308   4.106  12.132  0.0498  1.3856  0.2965
  419MPD2    C1 6302   4.239   4.225  12.162 -0.3380  0.2954  0.0533
  419MPD2    C2 6303   4.168   4.231  12.278 -0.9181 -0.0879 -0.5258
  419MPD2    C3 6304   4.163   4.128  12.362 -0.0191 -0.6208  0.7178
  419MPD2    C4 6305   4.229   4.012  12.337 -0.2622  0.4553 -0.5670
  419MPD2    C5 6306   4.300   3.997  12.219  0.2411 -0.5506 -0.0415
  419MPD2     H 6307   4.119   4.324  12.307  1.5345  1.2767 -0.7621
  419MPD2    H1 6308   4.233   3.928  12.406  1.1468  0.3768 -0.7361
  419MPD2    H2 6309   4.357   4.086  12.038 -0.5318 -2.9794  0.9225
  419MPD2    H3 6310   4.356   3.907  12.196 -0.7126 -1.4988  1.2917
  419MPD2     N 6311   4.093   4.148  12.485  0.1880 -1.1398 -0.7830
  419MPD2    H5 6312   4.048   4.238  12.499 -1.1240 -1.6895 -1.4469
  419MPD2    N1 6313   4.231   4.343  12.078  0.0508  0.1808 -0.5212
  419MPD2    H7 6314   4.185   4.419  12.126 -2.4557 -1.7351  0.1045
  420TMC3    C1 6315   3.995   4.104  12.693  0.0982 -0.5634  0.3923
  420TMC3    C2 6316   3.889   4.184  12.659  0.0495  0.1094  0.3853
  420TMC3    C3 6317   3.802   4.217  12.759  0.1153  1.0486 -0.1104
  420TMC3    C4 6318   4.017   4.052  12.822  0.1719  0.0094  0.3008
  420TMC3    C5 6319   3.921   4.084  12.909  0.2216  0.2093 -0.0179
  420TMC3    C6 6320   3.813   4.166  12.880  0.5010  0.1496 -0.3285
  420TMC3     C 6321   4.090   4.064  12.589 -0.2629 -0.3901 -0.7768
  420TMC3     O 6322   4.150   3.959  12.614 -0.0339  0.1671 -0.4098
  420TMC3     H 6323   3.871   4.227  12.561 -1.9394  3.0572  2.0268
  420TMC3    H1 6324   4.106   3.991  12.830  0.2236 -0.1121 -1.2365
  420TMC3    H2 6325   3.754   4.211  12.959 -0.1595  0.3059 -0.9201
  420TMC3    C7 6326   3.923   4.037  13.043  1.2057  0.2173  0.8495
  420TMC3    C8 6327   3.674   4.274  12.717  0.6835  0.2693  0.1153
  420TMC3    O1 6328   3.826   4.066  13.111  0.2693  0.6056  0.0670
  420TMC3    O2 6329   3.665   4.354  12.623 -0.0865  0.1757 -0.1284
  421TMC3    C1 6330   0.537   0.758  13.946 -0.0667 -0.4035  0.0218
  421TMC3    C2 6331   0.572   0.880  14.011 -0.6467  0.5745 -0.0928
  421TMC3    C3 6332   0.653   0.869  14.125  0.0295  0.4045 -0.0548
  421TMC3    C4 6333   0.572   0.631  14.000  0.5965 -0.5555 -0.1951
  421TMC3    C5 6334   0.649   0.633  14.116  0.1319 -0.3054 -0.2566
  421TMC3    C6 6335   0.697   0.749  14.175 -1.0579 -0.6179  0.2757
  421TMC3     C 6336   0.502   0.754  13.811 -0.3997  0.5089 -0.0516
  421TMC3     O 6337   0.575   0.694  13.733  0.0919  0.0637 -0.0304
  421TMC3     H 6338   0.546   0.976  13.969 -3.2618 -0.5080 -0.9588
  421TMC3    H1 6339   0.536   0.537  13.958  0.2937 -0.2574 -0.6087
  421TMC3    H2 6340   0.762   0.737  14.261  0.8378 -1.7507 -1.3068
  421TMC3    C7 6341   0.714   0.507  14.144  0.3820  0.2164 -0.6199
  421TMC3    C8 6342   0.725   0.991  14.160 -0.5370  0.9325  0.4915
  421TMC3    O1 6343   0.800   0.513  14.236  0.0369  0.4981  0.2935
  421TMC3    O2 6344   0.653   1.083  14.189  0.0271 -0.3547 -0.1302
  422TMC3    C1 6345   2.875   2.000  12.547  0.9714  0.1593  0.6330
  422TMC3    C2 6346   2.855   2.120  12.608  0.6126  0.1858 -0.5983
  422TMC3    C3 6347   2.778   2.116  12.719 -0.5994  0.3174 -1.1010
  422TMC3    C4 6348   2.827   1.878  12.593 -0.6182  0.1712 -0.1708
  422TMC3    C5 6349   2.740   1.886  12.705 -0.5697 -0.0313 -0.2960
  422TMC3    C6 6350   2.722   2.002  12.778 -0.2114 -0.1480 -0.3170
  422TMC3     C 6351   2.991   1.995  12.462 -0.5940 -0.6651  0.1009
  422TMC3     O 6352   3.078   2.078  12.480 -0.5154  0.0145 -0.0430
  422TMC3     H 6353   2.894   2.213  12.569  1.3355 -0.6588 -1.8999
  422TMC3    H1 6354   2.859   1.781  12.555 -0.1927 -0.1311  0.9346
  422TMC3    H2 6355   2.672   1.998  12.874 -1.2409  3.1011 -0.7069
  422TMC3    C7 6356   2.645   1.781  12.730 -0.3085 -0.2190 -0.5156
  422TMC3    C8 6357   2.785   2.237  12.801 -0.2118  0.3234 -0.1644
  422TMC3    O1 6358   2.674   1.678  12.671 -0.9865 -0.1005  0.2266
  422TMC3    O2 6359   2.860   2.320  12.753 -0.3830 -0.8006  0.0813
  423MPD2     C 6360   3.993   2.837   0.467  0.4464 -0.8764  0.1475
  423MPD2    C1 6361   4.077   2.920   0.396  0.8919 -0.6571  0.2301
  423MPD2    C2 6362   4.106   2.882   0.265 -0.3132  0.5307  0.2459
  423MPD2    C3 6363   4.066   2.761   0.211  0.1455 -0.2105  0.7422
  423MPD2    C4 6364   3.990   2.675   0.287 -0.0862 -0.6900  0.4184
  423MPD2    C5 6365   3.949   2.718   0.406 -0.0059  0.8487 -0.4023
  423MPD2     H 6366   4.186   2.940   0.221  1.1167 -3.1392 -2.0706
  423MPD2    H1 6367   3.967   2.579   0.243  2.6436  0.1051 -2.7428
  423MPD2    H2 6368   3.963   2.854   0.570  0.5219  1.2299 -0.1898
  423MPD2    H3 6369   3.887   2.648   0.462  1.1003  0.9962  1.0255
  423MPD2     N 6370   4.103   2.717   0.084  0.4251 -0.1450  0.0183
  423MPD2    H5 6371   4.076   2.622   0.059  0.1560 -0.1593  0.3622
  423MPD2    N1 6372   4.152   3.020   0.457  0.4425  1.1115 -0.2921
  423MPD2    H7 6373   4.232   3.050   0.403  1.9214 -0.3056  1.1037
  424TMC3    C1 6374   4.271   3.109   0.630  0.5303 -0.3506 -0.2753
  424TMC3    C2 6375   4.388   3.055   0.590  0.0433 -0.1876  0.4607
  424TMC3    C3 6376   4.508   3.128   0.589  0.1940 -0.2993  0.9626
  424TMC3    C4 6377   4.267   3.234   0.671 -0.7315 -0.2553  0.0728
  424TMC3    C5 6378   4.383   3.310   0.653  0.1816 -0.0534  0.3962
  424TMC3    C6 6379   4.504   3.261   0.614  0.7145 -0.0168  0.0130
  424TMC3     C 6380   4.147   3.046   0.592  0.5623 -0.3010 -0.1320
  424TMC3     O 6381   4.068   3.016   0.678  0.1544 -0.4014  0.4928
  424TMC3     H 6382   4.383   2.951   0.560 -0.3985 -0.0212 -0.0476
  424TMC3    H1 6383   4.170   3.277   0.696 -2.5740 -3.0670 -2.1183
  424TMC3    H2 6384   4.594   3.321   0.610  0.8566 -0.1576  1.1392
  424TMC3    C7 6385   4.365   3.458   0.665  0.1063  0.8453 -1.0373
  424TMC3    C8 6386   4.618   3.047   0.629 -0.3950 -0.3205 -0.3586
  424TMC3    O1 6387   4.449   3.532   0.616 -0.4824 -0.5035  0.3069
  424TMC3    O2 6388   4.641   2.948   0.560  0.0030 -0.0169  0.0497
  425MPD2     C 6389   3.266   2.226  17.538  0.0464 -0.0225  0.0407
  425MPD2    C1 6390   3.163   2.128  17.557  0.1083  0.2024 -0.2394
  425MPD2    C2 6391   3.034   2.165  17.570  0.3963  0.3667  0.0113
  425MPD2    C3 6392   2.996   2.293  17.558  0.7907  1.4216 -0.7433
  425MPD2    C4 6393   3.094   2.388  17.534 -0.2126 -0.1741  0.1854
  425MPD2    C5 6394   3.227   2.356  17.525  0.8051 -0.1946  0.3925
  425MPD2     H 6395   2.956   2.090  17.575 -0.0525  0.8125 -0.2332
  425MPD2    H1 6396   3.083   2.496  17.535  0.7895 -0.0919  1.2478
  425MPD2    H2 6397   3.365   2.195  17.508  0.5156  0.0585  1.5221
  425MPD2    H3 6398   3.298   2.434  17.501 -0.1504  1.0248  1.4814
  425MPD2     N 6399   2.859   2.316  17.541 -0.5265 -0.1928  0.1061
  425MPD2    H5 6400   2.798   2.238  17.562 -1.3960  0.5810  0.5077
  425MPD2    N1 6401   3.196   1.994  17.524 -0.5228 -0.4403  0.2243
  425MPD2    H7 6402   3.285   1.962  17.488 -0.0203 -0.4329  1.4519
  426TMC3    C1 6403   3.154   1.781  17.479 -0.1631  0.4415 -0.1034
  426TMC3    C2 6404   3.188   1.805  17.348 -0.9154 -0.2768  0.2258
  426TMC3    C3 6405   3.208   1.690  17.279  0.2215  0.2680  0.3138
  426TMC3    C4 6406   3.120   1.665  17.538  0.2284  0.7767 -0.1774
  426TMC3    C5 6407   3.145   1.552  17.468 -0.1513  0.7524  0.1527
  426TMC3    C6 6408   3.195   1.565  17.339  0.7974 -0.1606  0.2092
  426TMC3     C 6409   3.108   1.895  17.546 -0.0332  0.3246 -0.6886
  426TMC3     O 6410   3.026   1.887  17.636 -0.5310  0.6570 -0.1179
  426TMC3     H 6411   3.206   1.903  17.306  0.9736 -0.3978  0.7302
  426TMC3    H1 6412   3.106   1.671  17.645 -0.3739 -0.3903 -0.2007
  426TMC3    H2 6413   3.194   1.479  17.274 -2.1689  0.0147  0.0215
  426TMC3    C7 6414   3.054   1.440  17.484  0.4281  0.7300  0.6581
  426TMC3    C8 6415   3.238   1.696  17.138  0.1637  0.3467 -0.7396
  426TMC3    O1 6416   3.063   1.344  17.412  0.0388  1.1028  0.2116
  426TMC3    O2 6417   3.303   1.607  17.088  0.2326 -0.1127  0.0070
  427MPD2     C 6418   1.736   3.915  14.970 -0.8295 -0.8572  0.1533
  427MPD2    C1 6419   1.704   3.971  15.088  0.4756 -0.9371  0.0286
  427MPD2    C2 6420   1.581   4.035  15.112  0.4177  0.0255 -0.0712
  427MPD2    C3 6421   1.495   4.055  15.013  0.4532 -0.2061  0.5247
  427MPD2    C4 6422   1.519   3.984  14.902  0.1339 -0.2506 -0.2540
  427MPD2    C5 6423   1.633   3.912  14.882 -0.2863  0.2747  0.1564
  427MPD2     H 6424   1.564   4.084  15.207 -1.4481 -1.5111  0.3898
  427MPD2    H1 6425   1.445   3.983  14.822  1.0575 -0.1567 -1.1054
  427MPD2    H2 6426   1.832   3.870  14.945 -0.1513  0.9899 -0.5846
  427MPD2    H3 6427   1.655   3.862  14.788  1.2258 -0.1898  0.7530
  427MPD2     N 6428   1.370   4.122  15.032  0.2285  0.2176 -0.5213
  427MPD2    H5 6429   1.308   4.123  14.952  0.4902  1.5647 -0.7059
  427MPD2    N1 6430   1.793   3.976  15.199 -0.2558 -0.8407 -0.7775
  427MPD2    H7 6431   1.756   4.007  15.288  0.8005  1.2631 -1.0605
  428TMC3    C1 6432   1.980   3.961  15.332  0.3264 -0.5998  0.5335
  428TMC3    C2 6433   1.917   3.905  15.441 -0.0449  0.3308  0.2351
  428TMC3    C3 6434   1.977   3.876  15.562  0.2379 -0.6653  0.1884
  428TMC3    C4 6435   2.113   3.988  15.348 -0.6097 -0.1453  0.4776
  428TMC3    C5 6436   2.172   3.965  15.467  0.2821 -0.1663  0.2354
  428TMC3    C6 6437   2.101   3.914  15.579 -0.3743  0.0830 -0.5892
  428TMC3     C 6438   1.927   3.945  15.197 -0.6277 -0.2014 -0.0695
  428TMC3     O 6439   1.998   3.915  15.105  0.1823 -0.2396  0.2026
  428TMC3     H 6440   1.813   3.875  15.437  0.4277 -1.3785  0.7251
  428TMC3    H1 6441   2.168   4.028  15.263  0.6087 -0.8458  0.9404
  428TMC3    H2 6442   2.141   3.899  15.678  0.5639  2.4752 -0.6023
  428TMC3    C7 6443   2.296   4.028  15.505 -0.0219 -0.7678 -0.1696
  428TMC3    C8 6444   1.899   3.860  15.682 -0.2928 -0.8122 -0.6220
  428TMC3    O1 6445   2.304   4.046  15.626 -0.1665 -0.0328 -0.1646
  428TMC3    O2 6446   1.849   3.955  15.742 -0.4983  0.9493 -0.1040
  429MPD2     C 6447   2.804   4.064  17.557  0.4275 -0.1228 -0.5261
  429MPD2    C1 6448   2.935   4.034  17.526  0.1285 -0.3505  0.3420
  429MPD2    C2 6449   3.004   4.112  17.433 -0.5606  0.0141  0.4407
  429MPD2    C3 6450   2.936   4.218  17.368 -0.5315  0.9545  0.4541
  429MPD2    C4 6451   2.805   4.244  17.400 -0.0715 -0.1390 -0.2272
  429MPD2    C5 6452   2.740   4.172  17.494 -0.0940 -0.1286 -0.1202
  429MPD2     H 6453   3.106   4.083  17.414 -1.1989 -2.2798  0.4751
  429MPD2    H1 6454   2.753   4.326  17.353  1.7571  0.3713 -1.3597
  429MPD2    H2 6455   2.750   3.987  17.611  0.2523 -0.1172 -0.6960
  429MPD2    H3 6456   2.636   4.189  17.519  0.5100  1.3869  1.3196
  429MPD2     N 6457   3.011   4.295  17.278 -0.2278  0.4575 -0.5651
  429MPD2    H5 6458   3.106   4.259  17.275 -0.2914  0.2760 -0.3338
  429MPD2    N1 6459   3.006   3.919  17.572 -0.4193  0.1089 -0.6140
  429MPD2    H7 6460   3.096   3.906  17.527  0.6533 -0.8132  1.7870
  430TMC3    C1 6461   3.093   4.456  17.123 -0.6496 -0.3005 -0.1892
  430TMC3    C2 6462   3.102   4.588  17.090 -0.1092 -0.1586 -0.0228
  430TMC3    C3 6463   3.204   4.629  17.003 -0.2560  0.2612  1.6945
  430TMC3    C4 6464   3.178   4.363  17.088 -0.2931 -0.8043 -0.0707
  430TMC3    C5 6465   3.268   4.400  16.997  0.0992 -0.1912 -0.2690
  430TMC3    C6 6466   3.289   4.532  16.968  0.7065  0.4953  0.1544
  430TMC3     C 6467   2.979   4.416  17.207  0.5048 -0.0986  0.1255
  430TMC3     O 6468   2.891   4.495  17.231 -0.4215 -0.2372 -0.1459
  430TMC3     H 6469   3.018   4.654  17.111 -0.3975 -0.3905 -0.4505
  430TMC3    H1 6470   3.150   4.258  17.085 -2.4379 -0.1963 -1.4850
  430TMC3    H2 6471   3.363   4.567  16.898  0.9806 -3.0474 -1.3440
  430TMC3    C7 6472   3.309   4.300  16.897  0.1857 -0.1828 -0.0196
  430TMC3    C8 6473   3.146   4.677  16.871  0.3040  0.0127 -0.6257
  430TMC3    O1 6474   3.318   4.183  16.934  0.5133  0.0814 -0.3605
  430TMC3    O2 6475   3.180   4.619  16.767  0.5501 -0.1071  0.3708
  431MPD2     C 6476   3.615   4.708  12.361  0.3815  0.0454 -0.1970
  431MPD2    C1 6477   3.715   0.054  12.337 -0.5360  0.3568  0.5338
  431MPD2    C2 6478   3.802   0.024  12.235 -0.0317  0.3363 -0.1153
  431MPD2    C3 6479   3.794   4.635  12.173 -0.1250 -0.2859 -0.6376
  431MPD2    C4 6480   3.710   4.537  12.219 -0.7280  0.1831  0.0047
  431MPD2    C5 6481   3.616   4.577  12.313  0.2912  0.0728  0.5122
  431MPD2     H 6482   3.877   0.097  12.205  0.1224 -0.4900 -1.7548
  431MPD2    H1 6483   3.704   4.436  12.180  1.2176 -0.4131  1.2486
  431MPD2    H2 6484   3.532   4.734  12.427  0.5529 -1.7004  0.7223
  431MPD2    H3 6485   3.531   4.519  12.347  0.8764 -1.0609  0.0516
  431MPD2     N 6486   3.888   4.606  12.068 -0.3402  0.4496 -0.3060
  431MPD2    H5 6487   3.889   4.511  12.033  0.9943  0.3894 -0.0963
  431MPD2    N1 6488   3.722   0.179  12.400  0.6328 -0.1119  0.0873
  431MPD2    H7 6489   3.786   0.248  12.361 -2.1917  1.5044 -1.6372
  432TMC3    C1 6490   4.070   4.649  11.918  0.6851  0.6710  1.0137
  432TMC3    C2 6491   4.159   4.739  11.877  0.4609 -0.1960  0.4981
  432TMC3    C3 6492   4.281   4.702  11.828 -0.2282  0.3749 -0.5515
  432TMC3    C4 6493   4.105   4.516  11.939 -0.8230  0.1866  0.8570
  432TMC3    C5 6494   4.227   4.475  11.886 -0.1521  0.1757  0.2225
  432TMC3    C6 6495   4.313   4.566  11.822  0.3858 -0.0620  0.2974
  432TMC3     C 6496   3.958   4.697  11.994  0.4490 -0.3270  0.2750
  432TMC3     O 6497   3.942   0.083  12.000 -0.0393  0.2952  0.2298
  432TMC3     H 6498   4.129   0.104  11.868  1.5228  0.2928  2.7151
  432TMC3    H1 6499   4.033   4.443  11.972  0.7799 -2.0105 -0.4677
  432TMC3    H2 6500   4.402   4.531  11.772  0.9098  0.8634  0.5789
  432TMC3    C7 6501   4.284   4.356  11.953 -0.0354 -0.5095  0.5208
  432TMC3    C8 6502   4.389   0.059  11.796  0.0509  0.1437 -0.1668
  432TMC3    O1 6503   4.340   4.273  11.885  0.4408 -0.9881 -0.0486
  432TMC3    O2 6504   4.353   0.167  11.750 -0.3271  0.3956 -0.0263
  433MPD2     C 6505   2.460   2.599  10.892 -0.3263 -0.2898  0.2078
  433MPD2    C1 6506   2.508   2.492  10.963  0.4557 -0.0029 -0.1082
  433MPD2    C2 6507   2.499   2.498  11.103 -0.4351 -0.2953 -0.0606
  433MPD2    C3 6508   2.466   2.615  11.165  0.4793 -0.6381 -0.0771
  433MPD2    C4 6509   2.424   2.729  11.098 -0.2439  0.1111  0.0092
  433MPD2    C5 6510   2.427   2.719  10.960  0.4806 -0.5724 -0.3803
  433MPD2     H 6511   2.534   2.407  11.150 -0.4402 -1.4504 -2.2811
  433MPD2    H1 6512   2.405   2.820  11.154  0.0811  0.1695  0.0267
  433MPD2    H2 6513   2.449   2.598  10.785 -1.4466  1.0762  0.3126
  433MPD2    H3 6514   2.395   2.801  10.896  0.7886 -0.2273 -0.0962
  433MPD2     N 6515   2.481   2.630  11.305 -0.0399  0.1089  0.5941
  433MPD2    H5 6516   2.454   2.722  11.339 -0.7266  0.1352 -0.0086
  433MPD2    N1 6517   2.549   2.374  10.903 -0.3369 -0.2334  0.1981
  433MPD2    H7 6518   2.576   2.306  10.974  0.8310 -1.7197 -1.6741
  434TMC3    C1 6519   2.626   2.212  10.751 -0.0911  0.1286  0.0190
  434TMC3    C2 6520   2.751   2.179  10.791  0.8053 -0.1508  0.1326
  434TMC3    C3 6521   2.804   2.057  10.763  0.3937  0.6710 -0.3610
  434TMC3    C4 6522   2.568   2.136  10.655 -0.8127  0.3433  0.6062
  434TMC3    C5 6523   2.636   2.025  10.601 -0.4280 -0.0613 -0.7594
  434TMC3    C6 6524   2.755   1.970  10.659 -0.3002 -0.2771  0.4324
  434TMC3     C 6525   2.588   2.348  10.769  0.6933  0.6019 -0.6072
  434TMC3     O 6526   2.598   2.414  10.667  0.3517 -0.7602 -0.3332
  434TMC3     H 6527   2.798   2.248  10.860  1.9895 -0.1750 -0.6658
  434TMC3    H1 6528   2.476   2.169  10.609 -0.4665  0.7687  0.2314
  434TMC3    H2 6529   2.802   1.878  10.626 -0.6774 -1.0608  2.0307
  434TMC3    C7 6530   2.561   1.950  10.501  0.6605  0.1873  0.4698
  434TMC3    C8 6531   2.914   2.015  10.851 -0.2062 -0.1807  0.3339
  434TMC3    O1 6532   2.476   2.017  10.438  0.4092 -0.0339  0.2643
  434TMC3    O2 6533   2.960   2.084  10.938  0.2464  0.0954 -0.5623
  435MPD2     C 6534   0.273   2.930  15.375 -0.1625  0.5731 -0.2261
  435MPD2    C1 6535   0.220   2.958  15.494 -0.4562 -0.3797  0.1530
  435MPD2    C2 6536   0.300   2.943  15.607  0.1960  0.3183  0.3880
  435MPD2    C3 6537   0.434   2.900  15.598 -1.1264 -0.0711 -0.0314
  435MPD2    C4 6538   0.485   2.869  15.472 -0.1774 -0.3673 -0.3338
  435MPD2    C5 6539   0.402   2.891  15.363  0.3620  0.2257  0.6615
  435MPD2     H 6540   0.276   2.973  15.708  2.0563  1.8922  0.3685
  435MPD2    H1 6541   0.589   2.855  15.444 -0.2789  0.9078 -1.3880
  435MPD2    H2 6542   0.218   2.935  15.282  1.0962  0.1616 -0.9950
  435MPD2    H3 6543   0.443   2.854  15.269 -3.4558  0.7638 -1.2263
  435MPD2     N 6544   0.510   2.876  15.718 -0.2151 -0.0725 -1.0536
  435MPD2    H5 6545   0.456   2.868  15.803 -1.3716 -0.9922 -1.8703
  435MPD2    N1 6546   0.086   2.998  15.510 -0.8538  0.0066 -0.3720
  435MPD2    H7 6547   0.060   3.034  15.601  0.1082  1.9467 -0.8508
  436TMC3    C1 6548   4.522   3.238  15.592  0.8717  0.3484 -0.4415
  436TMC3    C2 6549   4.633   3.192  15.528  0.7051  0.4032 -0.7641
  436TMC3    C3 6550   4.607   3.077  15.453  0.0037  0.5066 -1.1104
  436TMC3    C4 6551   4.404   3.173  15.597  0.0155 -0.1310  0.7045
  436TMC3    C5 6552   4.399   3.050  15.543  0.2441 -0.1805  0.4004
  436TMC3    C6 6553   4.494   3.006  15.460 -0.5073  0.3954 -0.0129
  436TMC3     C 6554   4.538   3.357  15.678 -0.5620  0.7110 -0.3993
  436TMC3     O 6555   4.606   3.439  15.620 -0.0208  0.5815 -0.0325
  436TMC3     H 6556   4.722   3.253  15.521  1.7545 -0.8463  2.2414
  436TMC3    H1 6557   4.325   3.216  15.657  1.6419  3.0718  0.5411
  436TMC3    H2 6558   4.495   2.909  15.412  1.2651  0.1500  0.5285
  436TMC3    C7 6559   4.265   3.004  15.518 -0.6026 -0.3528  1.0770
  436TMC3    C8 6560   4.725   2.990  15.419 -0.4503 -0.0787 -0.1282
  436TMC3    O1 6561   4.174   3.066  15.571 -0.5157 -0.5410  0.2694
  436TMC3    O2 6562   4.724   2.936  15.308 -0.2971  0.0738 -0.2976
  437TMC3    C1 6563   3.359   4.605  12.975 -0.3017  0.1400 -0.1327
  437TMC3    C2 6564   3.235   4.561  13.009 -0.3775 -0.3960  0.7951
  437TMC3    C3 6565   3.128   4.620  12.939 -0.8796 -0.4056  0.0448
  437TMC3    C4 6566   3.369   4.706  12.889 -0.0410 -0.2348  0.5950
  437TMC3    C5 6567   3.265   0.011  12.823 -0.3805  0.4795  0.4182
  437TMC3    C6 6568   3.143   4.707  12.839  0.6381 -0.8053 -0.3283
  437TMC3     C 6569   3.477   4.545  13.034 -0.0289  0.8895  0.2670
  437TMC3     O 6570   3.454   4.459  13.116  0.0274 -0.0127 -0.3716
  437TMC3     H 6571   3.228   4.476  13.076  1.6369 -1.2351 -0.0673
  437TMC3    H1 6572   3.468   4.732  12.852  0.9187 -1.1909  2.4910
  437TMC3    H2 6573   3.059   4.734  12.776  1.4224  2.1961 -0.1341
  437TMC3    C7 6574   3.272   0.116  12.722 -0.0612  0.0665 -0.3367
  437TMC3    C8 6575   2.994   4.609  12.998  0.2922 -0.6712 -0.0410
  437TMC3    O1 6576   3.183   0.128  12.640  0.5048 -0.0865  0.0907
  437TMC3    O2 6577   2.980   4.532  13.090  0.2490 -0.1730 -0.5486
  438MPD2     C 6578   1.196   1.249  16.866  0.7604 -0.0531  0.2208
  438MPD2    C1 6579   1.231   1.130  16.903  0.7923 -0.3658  0.9787
  438MPD2    C2 6580   1.237   1.107  17.039  0.3086  0.2107 -0.1093
  438MPD2    C3 6581   1.227   1.214  17.131  0.6378  0.2111  0.2001
  438MPD2    C4 6582   1.205   1.338  17.083  0.0212 -0.7989  0.3386
  438MPD2    C5 6583   1.177   1.355  16.948 -0.1194  0.0149 -0.8745
  438MPD2     H 6584   1.255   1.006  17.072  0.4256 -0.0992 -1.1437
  438MPD2    H1 6585   1.197   1.425  17.147 -1.3548  0.6599 -1.7979
  438MPD2    H2 6586   1.192   1.270  16.760 -0.5479  0.0868  0.3014
  438MPD2    H3 6587   1.148   1.452  16.910 -0.2104  1.2088  2.1980
  438MPD2     N 6588   1.221   1.199  17.266 -0.0587  0.4702  0.2334
  438MPD2    H5 6589   1.191   1.277  17.323 -1.8977  0.6070 -0.8897
  438MPD2    N1 6590   1.276   1.025  16.822 -0.9680  0.0576  0.1135
  438MPD2    H7 6591   1.305   0.944  16.877 -0.3238 -0.0565 -0.3853
  439TMC3    C1 6592   1.363   0.910  16.639  0.9044 -0.1726  0.3240
  439TMC3    C2 6593   1.375   0.885  16.504  0.0080 -0.2502 -0.7556
  439TMC3    C3 6594   1.426   0.766  16.460  1.3965 -0.3562 -0.0892
  439TMC3    C4 6595   1.412   0.823  16.735  0.1433  0.9400  0.2470
  439TMC3    C5 6596   1.454   0.701  16.689  0.5539 -0.3492 -0.1957
  439TMC3    C6 6597   1.458   0.671  16.552 -0.1448  0.2022 -0.2953
  439TMC3     C 6598   1.279   1.021  16.681 -0.1796  0.0650  0.2719
  439TMC3     O 6599   1.239   1.097  16.595  0.0473 -0.4639 -0.0451
  439TMC3     H 6600   1.365   0.966  16.433 -1.6443  0.2820  0.0911
  439TMC3    H1 6601   1.401   0.833  16.843  0.1884 -1.2529  0.4461
  439TMC3    H2 6602   1.495   0.574  16.521  0.7382 -0.0909  1.6079
  439TMC3    C7 6603   1.521   0.612  16.779  0.0104  0.5439  0.2464
  439TMC3    C8 6604   1.448   0.721  16.323 -0.3510  0.6782 -0.4358
  439TMC3    O1 6605   1.590   0.657  16.868 -0.0047  0.3660  0.0246
  439TMC3    O2 6606   1.519   0.622  16.321 -0.1499  0.2566 -0.4261
  440MPD2     C 6607   4.633   1.601  14.681 -0.4619 -0.2264 -0.5438
  440MPD2    C1 6608   4.605   1.645  14.803  0.3356 -0.1945 -0.0052
  440MPD2    C2 6609   4.644   1.577  14.910 -0.2061 -0.2000  0.1709
  440MPD2    C3 6610   4.713   1.458  14.904 -0.2064 -0.2947 -0.0650
  440MPD2    C4 6611   0.002   1.412  14.782 -0.2682 -0.4780 -0.2287
  440MPD2    C5 6612   4.701   1.482  14.672  0.8146 -0.7775 -0.1146
  440MPD2     H 6613   4.627   1.618  15.009 -0.7119 -1.4281  0.5943
  440MPD2    H1 6614   0.075   1.332  14.770  1.0023  0.4321  1.4733
  440MPD2    H2 6615   4.606   1.653  14.590  0.8853  0.0111 -0.8038
  440MPD2    H3 6616   4.718   1.437  14.575  1.8595  1.6555 -1.0734
  440MPD2     N 6617   0.018   1.397  15.031 -0.1560 -0.1434  0.6100
  440MPD2    H5 6618   4.734   1.453  15.113 -0.5406 -0.1629  0.5116
  440MPD2    N1 6619   4.526   1.759  14.832 -0.6493  0.4208 -0.4751
  440MPD2    H7 6620   4.517   1.786  14.929  2.2729 -1.5121  0.3446
  441TMC3    C1 6621   0.133   1.266  15.182 -0.5288  0.1705 -0.4624
  441TMC3    C2 6622   0.225   1.354  15.228 -0.3912 -0.2527 -0.3998
  441TMC3    C3 6623   0.310   1.306  15.326 -0.0028  0.3498  0.1842
  441TMC3    C4 6624   0.137   1.135  15.221  0.6938 -0.2957 -0.4640
  441TMC3    C5 6625   0.225   1.093  15.314  0.3311  0.6176  0.2346
  441TMC3    C6 6626   0.320   1.176  15.363 -0.1661  0.3410 -0.4702
  441TMC3     C 6627   0.088   1.281  15.047  0.0001  0.4864 -0.9442
  441TMC3     O 6628   0.131   1.201  14.958 -0.2751 -0.2326 -0.0926
  441TMC3     H 6629   0.224   1.458  15.197  0.1702  0.4541  1.9738
  441TMC3    H1 6630   0.054   1.076  15.182 -0.0872  0.6620 -0.2570
  441TMC3    H2 6631   0.395   1.145  15.436  0.6633  0.9900 -1.0403
  441TMC3    C7 6632   0.162   1.014  15.416  0.0964 -0.2573 -0.0780
  441TMC3    C8 6633   0.326   1.387  15.445 -0.4504 -0.0985  0.1953
  441TMC3    O1 6634   0.039   1.010  15.418  0.1567  0.5236 -0.6061
  441TMC3    O2 6635   0.316   1.330  15.551 -0.1779 -0.5664  0.6947
  442MPD2     C 6636   2.916   1.691  16.505  0.5388 -0.1464  0.2206
  442MPD2    C1 6637   2.836   1.630  16.598  0.7495 -0.3945  0.4372
  442MPD2    C2 6638   2.794   1.499  16.576  0.3531 -0.4033 -0.0516
  442MPD2    C3 6639   2.832   1.432  16.462  0.1005 -0.4205 -0.5393
  442MPD2    C4 6640   2.900   1.499  16.360  0.6988  0.1307  0.0528
  442MPD2    C5 6641   2.955   1.628  16.393 -0.4353  0.6010  0.1940
  442MPD2     H 6642   2.740   1.440  16.650 -1.1195  0.1480 -0.6694
  442MPD2    H1 6643   2.922   1.453  16.264 -0.8525 -0.6663  0.0711
  442MPD2    H2 6644   2.964   1.786  16.525  0.2314  0.5866 -2.6627
  442MPD2    H3 6645   3.019   1.680  16.323 -1.4197  0.6785 -0.6344
  442MPD2     N 6646   2.807   1.296  16.437 -0.0737  0.1561  0.1226
  442MPD2    H5 6647   2.868   1.268  16.361  2.2411  2.5716  1.1019
  442MPD2    N1 6648   2.792   1.691  16.713 -0.2241 -0.3817 -0.0040
  442MPD2    H7 6649   2.741   1.636  16.781 -1.8851 -0.6666 -1.4613
  443TMC3    C1 6650   2.768   1.874  16.876  0.1897 -0.1461  0.9359
  443TMC3    C2 6651   2.809   2.005  16.906  0.3602  0.3275  0.5817
  443TMC3    C3 6652   2.737   2.078  16.987 -0.5114 -0.0738  0.2055
  443TMC3    C4 6653   2.646   1.827  16.932 -0.6609  0.1127  0.1643
  443TMC3    C5 6654   2.581   1.910  17.017  0.0936 -0.4215  0.0326
  443TMC3    C6 6655   2.621   2.034  17.048  0.4489 -0.3632 -0.0540
  443TMC3     C 6656   2.821   1.823  16.748  0.2040 -0.3967 -0.2775
  443TMC3     O 6657   2.876   1.912  16.683  0.3480 -0.2863 -0.2568
  443TMC3     H 6658   2.899   2.053  16.869 -0.7215  1.2164 -0.8831
  443TMC3    H1 6659   2.598   1.733  16.911  0.5176 -0.2975 -0.6871
  443TMC3    H2 6660   2.570   2.099  17.117 -1.0411 -2.3058  0.6552
  443TMC3    C7 6661   2.441   1.884  17.018 -0.5474 -0.0133 -0.8732
  443TMC3    C8 6662   2.787   2.208  17.013  0.4431  0.2958 -0.1373
  443TMC3    O1 6663   2.400   1.769  17.010  0.3367 -0.2439  0.4422
  443TMC3    O2 6664   2.804   2.225  17.132 -0.2418  0.0390 -0.5120
  444MPD2     C 6665   2.964   1.392  16.897 -0.4326 -0.3893  0.2637
  444MPD2    C1 6666   2.885   1.282  16.870  0.6237 -0.0939  0.1126
  444MPD2    C2 6667   2.939   1.171  16.808 -0.5822  0.2901 -0.1423
  444MPD2    C3 6668   3.073   1.164  16.783  0.2080 -0.3322  0.1388
  444MPD2    C4 6669   3.151   1.268  16.818 -0.1287 -0.0134  0.6620
  444MPD2    C5 6670   3.092   1.389  16.863  1.1656  0.7978 -0.0787
  444MPD2     H 6671   2.868   1.095  16.778 -0.2931 -0.5872  1.3984
  444MPD2    H1 6672   3.259   1.272  16.807 -0.3524  2.5757 -0.4679
  444MPD2    H2 6673   2.917   1.475  16.947 -0.0519  0.6095 -1.0457
  444MPD2    H3 6674   3.154   1.477  16.878  1.3676  0.2058  2.4869
  444MPD2     N 6675   3.129   1.037  16.754 -0.0676 -0.3778 -0.2930
  444MPD2    H5 6676   3.065   0.959  16.763 -1.4926  0.8069 -0.1955
  444MPD2    N1 6677   2.744   1.275  16.905  0.0089 -0.6990  0.3594
  444MPD2    H7 6678   2.697   1.187  16.888 -1.5390  0.2439 -0.2215
  445TMC3    C1 6679   3.286   0.880  16.685 -0.0261  0.1392 -0.5978
  445TMC3    C2 6680   3.197   0.827  16.589 -1.0326 -0.1583 -0.0220
  445TMC3    C3 6681   3.231   0.705  16.532  0.0399 -0.2160 -0.6953
  445TMC3    C4 6682   3.403   0.821  16.728 -0.1291  0.2034  0.2538
  445TMC3    C5 6683   3.436   0.707  16.661 -0.2060 -0.4678  0.6739
  445TMC3    C6 6684   3.349   0.648  16.567  0.5882  0.9950 -0.4047
  445TMC3     C 6685   3.262   1.017  16.724  0.0616  0.1414  0.3800
  445TMC3     O 6686   3.360   1.091  16.736  0.4915 -0.5171 -0.5200
  445TMC3     H 6687   3.115   0.890  16.556  1.3718  2.4461 -1.1046
  445TMC3    H1 6688   3.475   0.882  16.782 -0.4913  1.4216 -0.6650
  445TMC3    H2 6689   3.375   0.548  16.535 -0.1306  1.1793 -1.5672
  445TMC3    C7 6690   3.579   0.678  16.663 -0.1570 -0.6756  0.1169
  445TMC3    C8 6691   3.124   0.620  16.478 -0.5386 -0.4632  0.5507
  445TMC3    O1 6692   3.656   0.774  16.666 -0.0905 -0.4035  0.1719
  445TMC3    O2 6693   3.009   0.663  16.474 -0.3395  0.0235  0.6464
  446MPD2     C 6694   2.595   1.674  10.999  0.2947 -0.0443 -0.1888
  446MPD2    C1 6695   2.525   1.789  10.988 -0.2908  0.2865 -0.4300
  446MPD2    C2 6696   2.564   1.905  11.056  0.2698 -0.1518  1.5549
  446MPD2    C3 6697   2.691   1.904  11.113  0.3443 -0.5955 -0.3870
  446MPD2    C4 6698   2.765   1.787  11.116  0.2947 -0.3048 -0.1246
  446MPD2    C5 6699   2.711   1.669  11.070  0.6923  0.4082  0.5924
  446MPD2     H 6700   2.497   1.990  11.058  0.2435 -0.1942  2.7037
  446MPD2    H1 6701   2.856   1.794  11.175  1.4478 -0.7816 -1.8402
  446MPD2    H2 6702   2.555   1.580  10.963  1.0796 -0.5179  0.1894
  446MPD2    H3 6703   2.776   1.582  11.076 -0.3998 -0.3195  1.6493
  446MPD2     N 6704   2.753   2.022  11.175  0.1232 -0.1506 -0.3262
  446MPD2    H5 6705   2.843   2.011  11.221  1.4699 -1.9771 -3.4474
  446MPD2    N1 6706   2.404   1.798  10.916 -0.2238  0.7055  0.4983
  446MPD2    H7 6707   2.357   1.887  10.925 -1.2730 -0.0094  1.9878
  447TMC3    C1 6708   2.818   2.245  11.191  0.4893 -0.0165  0.0743
  447TMC3    C2 6709   2.818   2.363  11.126 -0.0874 -0.0154  0.4531
  447TMC3    C3 6710   2.924   2.442  11.142 -0.3405 -0.4723  0.9811
  447TMC3    C4 6711   2.933   2.207  11.261  0.2833 -0.1264 -0.4610
  447TMC3    C5 6712   3.030   2.298  11.288  0.2511 -0.4280  0.8395
  447TMC3    C6 6713   3.025   2.420  11.231  0.0461 -0.2499 -0.5595
  447TMC3     C 6714   2.717   2.146  11.147  0.3036 -0.1508  0.0638
  447TMC3     O 6715   2.621   2.183  11.084 -0.5372 -0.1126 -0.6682
  447TMC3     H 6716   2.743   2.370  11.047 -0.1503  0.8906  0.5856
  447TMC3    H1 6717   2.938   2.114  11.318 -0.4466  0.3191  0.3263
  447TMC3    H2 6718   3.107   2.490  11.245  0.4664 -0.8198 -0.1467
  447TMC3    C7 6719   3.160   2.270  11.338  0.3813  0.1226  0.5618
  447TMC3    C8 6720   2.931   2.545  11.044  0.0668  0.2716 -0.0894
  447TMC3    O1 6721   3.235   2.177  11.307  0.2346  0.0382  0.3175
  447TMC3    O2 6722   2.832   2.561  10.973 -0.0471 -0.3134 -0.4432
  448TMC3    C1 6723   0.944   2.504  17.173  0.0709  0.4507 -0.3861
  448TMC3    C2 6724   0.988   2.402  17.092  0.4883  0.0103 -0.1734
  448TMC3    C3 6725   1.061   2.299  17.149 -0.3857 -0.2302  0.8404
  448TMC3    C4 6726   0.953   2.496  17.311 -0.5313 -0.7928 -1.1265
  448TMC3    C5 6727   1.015   2.382  17.360  0.7141  0.3206 -0.2618
  448TMC3    C6 6728   1.061   2.281  17.286  0.5271 -0.1315 -0.1942
  448TMC3     C 6729   0.898   2.623  17.113  0.0505  0.1792  0.0768
  448TMC3     O 6730   0.929   2.658  16.998 -0.1063  0.1005 -0.3658
  448TMC3     H 6731   0.973   2.410  16.985 -0.8755  0.5649  0.0645
  448TMC3    H1 6732   0.930   2.583  17.371  0.9934 -0.9628 -0.3028
  448TMC3    H2 6733   1.124   2.207  17.333  2.3161  1.4146 -0.1652
  448TMC3    C7 6734   1.107   2.401  17.468  0.8168 -0.5194  0.1944
  448TMC3    C8 6735   1.121   2.197  17.068 -0.2662 -0.2806  0.1765
  448TMC3    O1 6736   1.218   2.349  17.467  0.1725  0.8732 -0.2016
  448TMC3    O2 6737   1.157   2.087  17.115 -0.1293 -0.0053  0.0975
  449MPD2     C 6738   2.674   0.675  14.312  0.2945  0.4108 -0.0335
  449MPD2    C1 6739   2.554   0.736  14.286  0.7530 -0.3408  0.2001
  449MPD2    C2 6740   2.452   0.665  14.230 -0.7012 -0.8060 -0.4622
  449MPD2    C3 6741   2.465   0.535  14.192 -0.1712  1.0948 -0.1258
  449MPD2    C4 6742   2.581   0.468  14.232 -0.5272  0.1124 -0.5667
  449MPD2    C5 6743   2.685   0.538  14.294 -0.1896  0.1712 -0.3025
  449MPD2     H 6744   2.357   0.715  14.217  0.3258  1.3604  0.4259
  449MPD2    H1 6745   2.586   0.360  14.218  2.2401  0.0557  0.8726
  449MPD2    H2 6746   2.760   0.730  14.347  0.9039 -1.4947  1.4998
  449MPD2    H3 6747   2.780   0.493  14.318 -0.2597  0.1812 -0.0087
  449MPD2     N 6748   2.358   0.474  14.119  0.2947 -0.0460 -1.0493
  449MPD2    H5 6749   2.284   0.541  14.107  1.0320  1.0771  0.6549
  449MPD2    N1 6750   2.534   0.877  14.309 -0.5388 -0.3642 -0.3031
  449MPD2    H7 6751   2.447   0.917  14.274 -0.5812  1.5622  2.0043
  450TMC3    C1 6752   2.564   1.096  14.326 -0.5289  0.8480 -0.5516
  450TMC3    C2 6753   2.620   1.170  14.223 -0.1366  0.2749  0.2106
  450TMC3    C3 6754   2.529   1.245  14.143  0.2139 -0.2958 -0.3171
  450TMC3    C4 6755   2.426   1.104  14.348 -0.3556  0.2027 -0.0774
  450TMC3    C5 6756   2.343   1.169  14.262 -0.0673 -0.3821  0.4955
  450TMC3    C6 6757   2.390   1.247  14.159  0.0265 -0.0678  0.2684
  450TMC3     C 6758   2.629   0.968  14.344  0.0161 -0.3718  0.3961
  450TMC3     O 6759   2.746   0.962  14.368  0.1763 -0.3154 -0.1414
  450TMC3     H 6760   2.722   1.147  14.196 -0.5912 -0.4519 -0.9356
  450TMC3    H1 6761   2.398   1.051  14.438  2.2898 -1.8329 -0.4348
  450TMC3    H2 6762   2.323   1.291  14.086  1.1724  0.9127 -0.1807
  450TMC3    C7 6763   2.231   1.081  14.245  0.2836 -0.6056 -0.1183
  450TMC3    C8 6764   2.565   1.324  14.024  0.3338 -0.1712 -0.2536
  450TMC3    O1 6765   2.253   0.966  14.278 -0.1824 -0.4986  0.2088
  450TMC3    O2 6766   2.508   1.431  14.018 -0.1857 -0.0678  0.0566
  451MPD2     C 6767   3.715   4.209   1.617  0.6655 -0.7736  0.8928
  451MPD2    C1 6768   3.718   4.237   1.487  0.6051  0.1747 -0.0593
  451MPD2    C2 6769   3.837   4.207   1.414 -0.3660  0.4696 -0.6363
  451MPD2    C3 6770   3.945   4.146   1.479 -0.3224  0.3015  0.6791
  451MPD2    C4 6771   3.933   4.110   1.616  0.1179 -0.1319 -0.1058
  451MPD2    C5 6772   3.819   4.147   1.686  0.3937 -0.0593 -0.1658
  451MPD2     H 6773   3.843   4.229   1.308  1.7463  1.5507 -0.2852
  451MPD2    H1 6774   4.013   4.063   1.672  1.3887  0.6661 -1.2678
  451MPD2    H2 6775   3.626   4.224   1.677 -1.2299  0.5886 -2.2671
  451MPD2    H3 6776   3.812   4.127   1.792  2.6354  0.9978  0.1708
  451MPD2     N 6777   4.065   4.110   1.410 -0.5932  0.1112  0.3297
  451MPD2    H5 6778   4.120   4.042   1.461  2.1527  2.4001  0.3860
  451MPD2    N1 6779   3.596   4.291   1.428 -1.0221  0.0732 -0.2557
  451MPD2    H7 6780   3.515   4.303   1.489  0.5852  2.5766  1.4391
  452TMC3    C1 6781   4.233   4.097   1.246 -0.1588  0.3783 -0.5821
  452TMC3    C2 6782   4.286   3.982   1.308  0.2429  0.1445 -0.3506
  452TMC3    C3 6783   4.397   3.929   1.255 -0.3318  0.6829  0.7653
  452TMC3    C4 6784   4.299   4.158   1.141  0.0369  0.3409  0.4630
  452TMC3    C5 6785   4.418   4.108   1.105  0.8199  0.2741  0.2696
  452TMC3    C6 6786   4.461   3.986   1.152  0.3106 -0.0081 -0.1754
  452TMC3     C 6787   4.101   4.148   1.282 -0.1192  0.2923  0.0403
  452TMC3     O 6788   4.052   4.233   1.207  0.3144  0.2892  0.0171
  452TMC3     H 6789   4.240   3.942   1.398  0.1443  1.0657  0.0158
  452TMC3    H1 6790   4.267   4.253   1.099  0.9730 -0.4988 -2.1472
  452TMC3    H2 6791   4.547   3.937   1.109  0.3014  0.4870 -0.7562
  452TMC3    C7 6792   4.461   4.153   0.972 -0.4295  0.7124  0.1266
  452TMC3    C8 6793   4.450   3.804   1.311 -0.0222  0.1943 -0.1369
  452TMC3    O1 6794   4.369   4.195   0.903  0.1217  0.1619 -0.5357
  452TMC3    O2 6795   4.370   3.747   1.383 -0.1820  0.2938 -0.3110
  453TMC3    C1 6796   4.643   1.582  11.982  0.1350  0.1032  0.4479
  453TMC3    C2 6797   4.549   1.483  12.014  0.2252 -0.1364 -0.6043
  453TMC3    C3 6798   4.460   1.446  11.913 -0.1329 -0.3989 -0.7267
  453TMC3    C4 6799   4.651   1.640  11.860  0.7552  0.3295  0.5752
  453TMC3    C5 6800   4.571   1.587  11.763 -1.1168 -0.9420 -0.2644
  453TMC3    C6 6801   4.473   1.496  11.787  0.2087  0.5810 -0.0022
  453TMC3     C 6802   0.027   1.599  12.056 -0.6726  0.5024 -0.4164
  453TMC3     O 6803   0.105   1.686  12.024  0.2578 -0.2161  0.3817
  453TMC3     H 6804   4.518   1.461  12.115  2.7508 -0.8837  0.0091
  453TMC3    H1 6805   4.734   1.704  11.832 -0.2129  1.6928  0.7941
  453TMC3    H2 6806   4.400   1.471  11.711 -0.2988  1.1358  0.3109
  453TMC3    C7 6807   4.611   1.618  11.625 -0.1786 -0.3083  0.0220
  453TMC3    C8 6808   4.375   1.328  11.926 -0.3549  0.3829 -0.4524
  453TMC3    O1 6809   4.631   1.526  11.554 -0.1128 -0.6718 -0.2915
  453TMC3    O2 6810   4.283   1.321  11.847  0.6740 -0.0764  0.2839
  454MPD2     C 6811   3.795   1.083  16.306 -0.4059  0.4653 -0.4323
  454MPD2    C1 6812   3.698   1.111  16.205  0.0647 -0.1845 -0.4013
  454MPD2    C2 6813   3.621   1.220  16.203  0.0170  0.3477  0.0178
  454MPD2    C3 6814   3.629   1.316  16.303 -0.1370  0.1817  0.0955
  454MPD2    C4 6815   3.724   1.285  16.399 -0.4532  0.1126 -0.5541
  454MPD2    C5 6816   3.804   1.178  16.403 -0.2483  0.2311  0.2356
  454MPD2     H 6817   3.561   1.233  16.114  0.4841 -0.8325 -0.4654
  454MPD2    H1 6818   3.737   1.362  16.475 -0.0720 -2.4406  1.9452
  454MPD2    H2 6819   3.857   0.995  16.315  0.4677  1.2104  0.9114
  454MPD2    H3 6820   3.873   1.171  16.486 -1.0931  1.9564  1.0726
  454MPD2     N 6821   3.541   1.425  16.309 -0.0977 -0.0887 -0.1919
  454MPD2    H5 6822   3.538   1.475  16.398  1.7050 -0.9891  0.3758
  454MPD2    N1 6823   3.682   1.023  16.095  1.0571  0.1575 -0.4680
  454MPD2    H7 6824   3.603   1.041  16.034 -1.0369 -1.4051  1.8381
  455TMC3    C1 6825   3.346   1.534  16.262  0.2536 -0.5566 -0.3339
  455TMC3    C2 6826   3.347   1.603  16.381  0.0519 -0.2387  0.7289
  455TMC3    C3 6827   3.272   1.553  16.485  0.3181 -0.7894  0.7460
  455TMC3    C4 6828   3.266   1.427  16.245 -0.3604  0.6492  0.5282
  455TMC3    C5 6829   3.203   1.378  16.354 -0.8126 -0.7151 -0.0695
  455TMC3    C6 6830   3.212   1.428  16.475  0.1657  0.5194 -0.3013
  455TMC3     C 6831   3.468   1.477  16.210 -0.2652  0.2997 -0.0162
  455TMC3     O 6832   3.470   1.449  16.091 -0.1190  0.3812 -0.4830
  455TMC3     H 6833   3.403   1.693  16.400  0.0075  0.4008 -2.2414
  455TMC3    H1 6834   3.279   1.357  16.163 -1.2564  1.4195 -0.2718
  455TMC3    H2 6835   3.159   1.370  16.550  0.1787 -0.0241 -0.7128
  455TMC3    C7 6836   3.178   1.232  16.343  0.2444 -0.0373 -0.8990
  455TMC3    C8 6837   3.283   1.614  16.615  0.0106 -1.3105  0.1823
  455TMC3    O1 6838   3.066   1.195  16.307 -0.2359  0.3036  0.0733
  455TMC3    O2 6839   3.322   1.549  16.709 -0.3086  0.1653 -0.1240
  456MPD2     C 6840   1.530   1.091  16.105  0.3666  0.2308  0.1981
  456MPD2    C1 6841   1.605   1.037  16.205  0.2091  0.5400 -0.7383
  456MPD2    C2 6842   1.609   1.099  16.328  0.0975 -0.1464 -0.2897
  456MPD2    C3 6843   1.514   1.196  16.363 -0.3676 -0.2382  0.0964
  456MPD2    C4 6844   1.424   1.237  16.268 -0.2803 -0.5994  0.4862
  456MPD2    C5 6845   1.436   1.188  16.141 -0.0969 -0.2280  0.9500
  456MPD2     H 6846   1.682   1.062  16.398  3.5317  2.2674 -2.6310
  456MPD2    H1 6847   1.363   1.326  16.273  0.2066 -0.3817  2.5238
  456MPD2    H2 6848   1.523   1.058  16.002  1.6518 -2.9985  1.1465
  456MPD2    H3 6849   1.359   1.226  16.074  1.1353 -1.0101 -0.8973
  456MPD2     N 6850   1.523   1.265  16.488  0.2001  0.2202  0.1615
  456MPD2    H5 6851   1.598   1.241  16.551  2.3291 -0.4931 -2.6823
  456MPD2    N1 6852   1.687   0.922  16.169 -0.3241 -0.1369  0.3026
  456MPD2    H7 6853   1.666   0.876  16.081 -0.1885  0.3473  0.0182
  457TMC3    C1 6854   1.473   1.438  16.655  0.5233  0.3580 -0.7108
  457TMC3    C2 6855   1.424   1.565  16.679 -0.6747 -0.3386 -0.1040
  457TMC3    C3 6856   1.414   1.618  16.808 -0.6969 -0.4766  0.6006
  457TMC3    C4 6857   1.527   1.365  16.761  0.1680  0.3372 -0.5482
  457TMC3    C5 6858   1.523   1.422  16.887 -0.3181  0.3417 -0.5908
  457TMC3    C6 6859   1.468   1.546  16.912  0.3467 -0.0758  0.3392
  457TMC3     C 6860   1.443   1.372  16.527 -0.1957  0.5704 -0.6857
  457TMC3     O 6861   1.363   1.438  16.458 -0.1441 -0.5763 -0.0243
  457TMC3     H 6862   1.379   1.616  16.595  1.9941  0.9155 -0.7604
  457TMC3    H1 6863   1.569   1.266  16.745  0.3874  0.3584 -0.1011
  457TMC3    H2 6864   1.454   1.586  17.012  0.5100 -2.0444  1.1559
  457TMC3    C7 6865   1.546   1.329  16.997 -0.0261 -0.5603 -0.5709
  457TMC3    C8 6866   1.371   1.750  16.845  0.2538  0.3019  0.3781
  457TMC3    O1 6867   1.586   1.220  16.961 -0.0721  0.0150 -0.1526
  457TMC3    O2 6868   1.367   1.786  16.963  0.4460 -0.2776  0.1988
  458MPD2     C 6869   3.463   0.569  12.583  0.1407 -1.0115  0.1785
  458MPD2    C1 6870   3.522   0.536  12.700 -0.1313  0.4513 -0.6394
  458MPD2    C2 6871   3.486   0.416  12.757  0.9901  0.4795  0.3728
  458MPD2    C3 6872   3.400   0.328  12.695  0.0764  0.6028 -0.5080
  458MPD2    C4 6873   3.350   0.362  12.570  0.7492 -0.2100 -0.3715
  458MPD2    C5 6874   3.391   0.483  12.507 -0.4311  0.0974 -0.4315
  458MPD2     H 6875   3.535   0.387  12.849  1.3245 -1.0502 -0.2976
  458MPD2    H1 6876   3.278   0.310  12.508  0.5333  0.6389 -0.8293
  458MPD2    H2 6877   3.490   0.670  12.554  3.1944 -1.7529  0.4757
  458MPD2    H3 6878   3.355   0.507  12.408 -0.9636  1.7250  0.1454
  458MPD2     N 6879   3.370   0.202  12.754 -0.0025  0.2692 -0.4805
  458MPD2    H5 6880   3.429   0.185  12.835 -1.7735 -0.2894  0.6964
  458MPD2    N1 6881   3.594   0.642  12.751  0.3702  0.9554  0.1861
  458MPD2    H7 6882   3.620   0.719  12.690 -0.8224  1.1378 -0.0913
  459TMC3    C1 6883   3.724   0.753  12.918  0.0129  0.4607 -0.3686
  459TMC3    C2 6884   3.813   0.791  12.819 -0.2791  0.3349  0.8176
  459TMC3    C3 6885   3.936   0.820  12.856 -1.0978  0.1479  0.0857
  459TMC3    C4 6886   3.758   0.753  13.047 -0.4472  0.5663 -0.3103
  459TMC3    C5 6887   3.894   0.763  13.074  0.1711  0.7076 -0.2061
  459TMC3    C6 6888   3.983   0.802  12.982  0.9302  0.4955 -0.0972
  459TMC3     C 6889   3.629   0.648  12.884 -0.0206  0.3340 -0.1022
  459TMC3     O 6890   3.602   0.571  12.972 -0.4588 -0.5978  0.0419
  459TMC3     H 6891   3.798   0.766  12.714  1.5558  3.1750 -0.1375
  459TMC3    H1 6892   3.677   0.751  13.118  0.2484  0.9350  0.4878
  459TMC3    H2 6893   4.086   0.830  13.003  0.3847  2.4143 -0.0163
  459TMC3    C7 6894   3.945   0.668  13.172  0.3366 -0.3927 -0.2080
  459TMC3    C8 6895   4.031   0.851  12.752 -0.3623 -0.2306 -0.5443
  459TMC3    O1 6896   4.064   0.667  13.205 -0.2715  0.7525 -0.1020
  459TMC3    O2 6897   4.145   0.889  12.792 -0.2549  0.6105 -0.0009
  460MPD2     C 6898   3.213   2.759  10.922  0.3012  0.3405  0.5007
  460MPD2    C1 6899   3.089   2.696  10.925  0.2033  0.0843 -0.1946
  460MPD2    C2 6900   3.013   2.721  10.818  0.0698 -0.1094 -0.7359
  460MPD2    C3 6901   3.035   2.804  10.710  0.2149  1.1892  0.6166
  460MPD2    C4 6902   3.143   2.879  10.727  0.5842 -0.2400 -0.2831
  460MPD2    C5 6903   3.237   2.850  10.822  0.0696 -0.4300  0.5409
  460MPD2     H 6904   2.913   2.682  10.810 -0.2086  0.4280  0.1919
  460MPD2    H1 6905   3.168   2.960  10.659  0.5401 -1.8503 -2.2090
  460MPD2    H2 6906   3.287   2.738  10.999  1.5006  2.2296 -0.1235
  460MPD2    H3 6907   3.324   2.915  10.819 -1.8355  2.2135  1.6187
  460MPD2     N 6908   2.943   2.812  10.597 -0.4078  0.1444  0.3374
  460MPD2    H5 6909   2.865   2.748  10.605 -0.5015  0.2487  0.2526
  460MPD2    N1 6910   3.057   2.603  11.030  0.3867 -0.0222 -0.1137
  460MPD2    H7 6911   3.129   2.597  11.102  1.4638  2.0523 -1.0270
  461TMC3    C1 6912   2.845   2.931  10.401  0.5244  0.6948 -0.1650
  461TMC3    C2 6913   2.796   2.820  10.336  0.3627 -0.4450  0.7014
  461TMC3    C3 6914   2.734   2.838  10.216  0.5629 -0.0131 -0.2403
  461TMC3    C4 6915   2.805   3.056  10.359  0.4579  0.7783  0.6977
  461TMC3    C5 6916   2.735   3.069  10.242  0.0110 -0.5882 -0.8827
  461TMC3    C6 6917   2.710   2.959  10.165 -0.4194  0.5408  0.0365
  461TMC3     C 6918   2.939   2.920  10.512  0.8323 -0.3802 -0.1686
  461TMC3     O 6919   3.006   3.025  10.525 -0.1484  0.0400  0.3124
  461TMC3     H 6920   2.843   2.724  10.359 -0.4116 -0.8792  0.4685
  461TMC3    H1 6921   2.820   3.142  10.423 -0.3655 -0.2346  2.2497
  461TMC3    H2 6922   2.660   2.975  10.069 -2.7718 -0.5911  1.0522
  461TMC3    C7 6923   2.732   3.200  10.177  0.1184  0.1217  0.5036
  461TMC3    C8 6924   2.737   2.729  10.115  0.2154  0.0128  0.3630
  461TMC3    O1 6925   2.634   3.235  10.116 -0.1035 -0.2460  0.2952
  461TMC3    O2 6926   2.737   2.762   9.997  0.7631  0.8332  0.1286
  462TMC3    C1 6927   2.947   4.267   0.497 -0.1812  0.2032  0.6883
  462TMC3    C2 6928   3.003   4.263   0.367  0.5362 -0.0349  0.0451
  462TMC3    C3 6929   3.022   4.149   0.309 -0.2483  0.4135 -0.2857
  462TMC3    C4 6930   2.910   4.148   0.556  0.2862 -0.0360 -0.2834
  462TMC3    C5 6931   2.921   4.032   0.493 -0.3106 -0.7828  0.7079
  462TMC3    C6 6932   2.987   4.028   0.374  0.1687  0.3780 -1.1292
  462TMC3     C 6933   2.899   4.392   0.555  0.4662 -0.2942  0.2506
  462TMC3     O 6934   2.882   4.404   0.678  0.2521  0.3886  0.5527
  462TMC3     H 6935   3.037   4.350   0.312 -2.7889  1.5125  0.4766
  462TMC3    H1 6936   2.877   4.149   0.659  2.3830  1.2246  0.3743
  462TMC3    H2 6937   2.986   3.937   0.317 -1.2612 -0.9314  0.9812
  462TMC3    C7 6938   2.841   3.918   0.523  0.1697 -0.3903  0.3779
  462TMC3    C8 6939   3.090   4.141   0.181 -0.1607 -0.0486  0.3609
  462TMC3    O1 6940   2.899   3.812   0.511 -0.2607 -0.4344 -0.3554
  462TMC3    O2 6941   3.091   4.242   0.112 -0.1978 -0.5843 -0.1214
  463MPD2     C 6942   0.117   2.379   1.581 -0.2063 -0.6852 -0.1794
  463MPD2    C1 6943   0.085   2.438   1.460 -0.5606  0.0558  0.3367
  463MPD2    C2 6944   0.181   2.460   1.363 -0.0060  0.4772 -0.2531
  463MPD2    C3 6945   0.316   2.431   1.384 -1.1004 -0.1885 -0.6946
  463MPD2    C4 6946   0.351   2.365   1.507 -0.5663 -0.1496 -0.4872
  463MPD2    C5 6947   0.254   2.352   1.605 -0.1925  0.0324  0.3259
  463MPD2     H 6948   0.156   2.505   1.267 -0.3104 -0.4696 -0.6171
  463MPD2    H1 6949   0.452   2.334   1.529  0.1809  1.0913 -2.1572
  463MPD2    H2 6950   0.050   2.355   1.662 -1.2782  2.3946 -0.1615
  463MPD2    H3 6951   0.283   2.309   1.700 -0.3817  2.1407  1.3275
  463MPD2     N 6952   0.415   2.446   1.286  0.1485  1.0269  0.5755
  463MPD2    H5 6953   0.505   2.405   1.308  0.8401  2.9145  1.2369
  463MPD2    N1 6954   4.696   2.476   1.424 -0.2213 -0.0550 -0.0101
  463MPD2    H7 6955   4.683   2.523   1.335 -1.9523 -0.2003  0.1692
  464TMC3    C1 6956   4.459   2.471   1.432  0.0523  0.7938  0.0505
  464TMC3    C2 6957   4.449   2.564   1.329 -0.2416  0.4985  0.7791
  464TMC3    C3 6958   4.331   2.564   1.259 -0.1079  0.6166 -0.1119
  464TMC3    C4 6959   4.348   2.408   1.483  0.1599  0.3572 -0.3794
  464TMC3    C5 6960   4.233   2.419   1.411 -0.5856 -0.2452  0.2295
  464TMC3    C6 6961   4.227   2.487   1.299  1.5046 -0.4334  0.0982
  464TMC3     C 6962   4.584   2.442   1.496  0.1489  0.1427 -0.4838
  464TMC3     O 6963   4.577   2.392   1.613 -0.3421 -0.1314  0.4990
  464TMC3     H 6964   4.536   2.624   1.303  2.5383 -2.9872  2.0500
  464TMC3    H1 6965   4.354   2.330   1.558 -0.3329  2.4024  1.7931
  464TMC3    H2 6966   4.134   2.495   1.244  1.8192  2.8796  0.0236
  464TMC3    C7 6967   4.112   2.404   1.489 -0.0988 -0.0330  0.0741
  464TMC3    C8 6968   4.291   2.680   1.177 -0.7536 -0.2307 -0.6278
  464TMC3    O1 6969   4.131   2.394   1.611 -0.1396 -0.1588  0.0520
  464TMC3    O2 6970   4.169   2.706   1.184  0.7192 -0.2487 -0.2714
  465MPD2     C 6971   0.931   0.940  16.684 -0.0116 -0.1707  0.0004
  465MPD2    C1 6972   0.837   1.021  16.750  0.5485 -0.5692  0.3393
  465MPD2    C2 6973   0.754   1.099  16.677 -0.6521  0.1555  0.5804
  465MPD2    C3 6974   0.775   1.123  16.544  0.7831 -0.0541  0.1528
  465MPD2    C4 6975   0.877   1.047  16.477  0.1014 -0.3752  1.0437
  465MPD2    C5 6976   0.948   0.956  16.550 -0.5738  0.4615 -0.1835
  465MPD2     H 6977   0.670   1.145  16.728  1.6893  1.2500  3.4647
  465MPD2    H1 6978   0.909   1.074  16.377  1.7053  1.0670  1.9529
  465MPD2    H2 6979   0.993   0.872  16.741  0.5426  0.1409 -0.2251
  465MPD2    H3 6980   1.028   0.902  16.499  0.1935  1.0109  0.4354
  465MPD2     N 6981   0.685   1.207  16.482  0.1997 -0.2472  0.2726
  465MPD2    H5 6982   0.601   1.247  16.524 -1.5136 -0.5745 -2.8914
  465MPD2    N1 6983   0.841   1.049  16.887 -0.1316  0.2295 -0.0517
  465MPD2    H7 6984   0.776   1.121  16.917 -1.6118 -1.5091  0.9447
  466TMC3    C1 6985   0.369   1.402  16.446  0.0296 -0.4332 -0.4792
  466TMC3    C2 6986   0.375   1.532  16.407 -0.2518  0.4349 -0.2566
  466TMC3    C3 6987   0.491   1.553  16.337 -0.4601 -0.7449 -0.8791
  466TMC3    C4 6988   0.457   1.299  16.416  0.5236 -0.4068  0.3566
  466TMC3    C5 6989   0.569   1.338  16.340 -0.1890 -0.1363  0.3321
  466TMC3    C6 6990   0.587   1.464  16.306 -0.7655 -0.0072  0.7519
  466TMC3     C 6991   0.324   1.380  16.578  0.3063  0.6086  0.1507
  466TMC3     O 6992   0.413   1.324  16.645 -0.1737  0.4398  0.4498
  466TMC3     H 6993   0.300   1.608  16.429  0.6301  0.6652  1.8658
  466TMC3    H1 6994   0.436   1.195  16.436 -1.7775 -0.4172 -2.0278
  466TMC3    H2 6995   0.680   1.498  16.261  0.1446 -1.3405  1.6297
  466TMC3    C7 6996   0.688   1.261  16.363  0.2473  0.5298 -0.6020
  466TMC3    C8 6997   0.519   1.687  16.309  0.5632  0.8120 -0.4529
  466TMC3    O1 6998   0.782   1.277  16.289 -0.2135  0.1404 -0.1935
  466TMC3    O2 6999   0.567   1.714  16.200  0.2313  0.7219 -0.1314
  467TMC3    C1 7000   1.251   4.225  13.700 -0.3572  0.1243 -0.2870
  467TMC3    C2 7001   1.318   4.220  13.584  0.1232 -0.2071 -0.2018
  467TMC3    C3 7002   1.250   4.205  13.464  0.1937 -0.3062 -0.2423
  467TMC3    C4 7003   1.115   4.214  13.706  0.2307 -0.1961 -0.6832
  467TMC3    C5 7004   1.046   4.209  13.590  0.0887  0.5446 -0.2711
  467TMC3    C6 7005   1.113   4.204  13.466  0.8475  0.0701  0.1019
  467TMC3     C 7006   1.325   4.268  13.815  0.4082 -0.1650 -0.1219
  467TMC3     O 7007   1.437   4.317  13.792 -0.3574  0.1041 -0.0438
  467TMC3     H 7008   1.426   4.228  13.586  0.3386 -2.9800 -0.6411
  467TMC3    H1 7009   1.057   4.206  13.797 -0.7412 -1.0162 -1.3706
  467TMC3    H2 7010   1.069   4.220  13.368 -0.3959 -0.8462  0.4986
  467TMC3    C7 7011   0.902   4.233  13.580  0.2872  0.8408  0.8372
  467TMC3    C8 7012   1.305   4.273  13.350 -0.0207  0.2923  0.1920
  467TMC3    O1 7013   0.852   4.189  13.475  0.1916 -0.0476  0.6808
  467TMC3    O2 7014   1.231   4.352  13.294  0.2477  0.1165 -0.3766
  468MPD2     C 7015   4.211   2.229  10.834 -0.2875  0.5348 -0.0569
  468MPD2    C1 7016   4.342   2.281  10.829 -0.7205 -0.7532  0.0249
  468MPD2    C2 7017   4.449   2.197  10.775 -0.2047  0.1650 -0.6442
  468MPD2    C3 7018   4.422   2.069  10.727  0.3147  0.3681 -0.4680
  468MPD2    C4 7019   4.291   2.026  10.725  0.3833  0.4049  0.4414
  468MPD2    C5 7020   4.190   2.104  10.778  0.1111 -0.2237  0.8332
  468MPD2     H 7021   4.549   2.238  10.769  0.0799 -0.3132  0.6742
  468MPD2    H1 7022   4.271   1.928  10.683  1.0272 -0.0230  1.1256
  468MPD2    H2 7023   4.126   2.279  10.877 -1.0318 -0.2385 -0.6380
  468MPD2    H3 7024   4.087   2.071  10.772  0.1067 -0.4237  2.0455
  468MPD2     N 7025   4.511   1.975  10.679  0.4469  0.1381  0.4679
  468MPD2    H5 7026   4.472   1.883  10.657 -0.5705  1.0946 -1.7357
  468MPD2    N1 7027   4.381   2.410  10.880  0.3578 -0.0958 -0.1901
  468MPD2    H7 7028   4.479   2.434  10.880  0.4439 -0.4455 -0.1073
  469TMC3    C1 7029   4.376   2.608  11.012 -0.2444 -0.9371 -0.0255
  469TMC3    C2 7030   4.513   2.597  11.027 -0.3450  0.5022 -0.1674
  469TMC3    C3 7031   4.578   2.706  11.083 -0.6636  0.5941 -0.4427
  469TMC3    C4 7032   4.305   2.715  11.042  0.0758 -0.5516  0.5661
  469TMC3    C5 7033   4.380   2.818  11.102 -0.0422  0.5244  0.1140
  469TMC3    C6 7034   4.512   2.811  11.135 -0.2557 -0.1476  0.8494
  469TMC3     C 7035   4.302   2.505  10.945 -0.3540  0.0294 -0.6479
  469TMC3     O 7036   4.180   2.514  10.953 -0.9287  0.8194  0.3242
  469TMC3     H 7037   4.566   2.512  10.987 -1.5389 -0.8639  1.1683
  469TMC3    H1 7038   4.198   2.720  11.028 -0.0316 -0.4597  1.4358
  469TMC3    H2 7039   4.556   2.888  11.197  0.7239 -0.9204  1.1014
  469TMC3    C7 7040   4.301   2.920  11.161  0.0473  0.2069  0.7287
  469TMC3    C8 7041   4.724   2.715  11.061  0.7105 -0.1636 -0.6531
  469TMC3    O1 7042   4.178   2.907  11.160  0.6738  0.2779  0.1116
  469TMC3    O2 7043   0.032   2.614  11.007  0.9758  0.0720 -0.2409
  470TMC3    C1 7044   2.119   3.640   1.141 -0.6627 -0.0188  0.4083
  470TMC3    C2 7045   2.211   3.740   1.159  0.8633  0.1247  0.2191
  470TMC3    C3 7046   2.189   3.823   1.264 -0.4289 -0.0358 -0.2165
  470TMC3    C4 7047   2.003   3.626   1.217  0.5273 -0.3613 -0.3607
  470TMC3    C5 7048   1.996   3.709   1.328  0.4573 -0.1108 -0.6099
  470TMC3    C6 7049   2.090   3.804   1.350  0.3594 -0.2034 -0.1967
  470TMC3     C 7050   2.132   3.571   1.013 -0.0297  0.0803 -0.0367
  470TMC3     O 7051   2.180   3.629   0.920 -0.4340  0.2356 -0.1523
  470TMC3     H 7052   2.288   3.765   1.088  0.3724  0.2836 -0.2614
  470TMC3    H1 7053   1.930   3.551   1.189  0.2674 -0.3965  0.4023
  470TMC3    H2 7054   2.074   3.872   1.433  1.0527  0.5194 -0.6479
  470TMC3    C7 7055   1.914   3.666   1.433  0.1652 -0.1358  0.3153
  470TMC3    C8 7056   2.249   3.950   1.269  0.5943  0.5850  0.7175
  470TMC3    O1 7057   1.923   3.545   1.448 -0.0261  0.5839 -0.1543
  470TMC3    O2 7058   2.179   4.042   1.314  0.5800 -0.2166  0.1518
  471MPD2     C 7059   2.770   0.173  16.610  0.0280 -0.6191 -0.2009
  471MPD2    C1 7060   2.831   0.053  16.595 -0.0808  0.6795 -0.7759
  471MPD2    C2 7061   2.925   0.010  16.688  0.7328  0.5948 -0.3501
  471MPD2    C3 7062   2.947   0.075  16.810 -0.5275  0.1634 -0.2699
  471MPD2    C4 7063   2.878   0.187  16.823  0.3528 -0.0177 -0.3152
  471MPD2    C5 7064   2.796   0.241  16.729  0.6764  0.4868  0.5454
  471MPD2     H 7065   2.968   4.652  16.668  1.4529  0.9506 -0.5510
  471MPD2    H1 7066   2.871   0.252  16.910  0.5653  0.4820 -0.6673
  471MPD2    H2 7067   2.705   0.215  16.535 -0.1185 -0.1116  0.2040
  471MPD2    H3 7068   2.757   0.341  16.744 -0.9203  0.0136 -0.4190
  471MPD2     N 7069   3.042   0.030  16.904  0.3115 -0.7652  0.1725
  471MPD2    H5 7070   3.055   0.075  16.994  0.6254  0.0767 -0.2885
  471MPD2    N1 7071   2.807   4.704  16.489  0.4066  0.2242  0.3211
  471MPD2    H7 7072   2.838   4.607  16.492 -1.1679 -0.1809  3.7694
  472TMC3    C1 7073   2.697   4.610  16.295 -0.9563  0.0600 -0.0248
  472TMC3    C2 7074   2.581   4.604  16.230 -0.3236 -0.0473 -0.2247
  472TMC3    C3 7075   2.535   4.480  16.194  1.2803 -1.1785 -1.0180
  472TMC3    C4 7076   2.773   4.498  16.297  0.1086  0.3004 -0.2332
  472TMC3    C5 7077   2.723   4.374  16.265  0.1938 -0.4395 -0.8942
  472TMC3    C6 7078   2.603   4.365  16.208 -1.0450 -0.4633  0.9416
  472TMC3     C 7079   2.714   4.721  16.392  1.0486  0.6319  0.3170
  472TMC3     O 7080   2.642   0.077  16.374  0.1057 -0.5077 -0.5857
  472TMC3     H 7081   2.516   4.691  16.222 -1.2092 -0.6684  0.2594
  472TMC3    H1 7082   2.874   4.505  16.336  0.8514 -0.9342 -1.9325
  472TMC3    H2 7083   2.569   4.271  16.165 -0.8978  0.0209 -0.2458
  472TMC3    C7 7084   2.830   4.274  16.227  0.2051 -0.7861 -0.1067
  472TMC3    C8 7085   2.391   4.471  16.200 -0.1295  0.1064 -0.7433
  472TMC3    O1 7086   2.948   4.310  16.234 -0.0330  0.0952 -0.9187
  472TMC3    O2 7087   2.342   4.554  16.123 -0.1939 -0.1073 -0.2050
  473MPD2     C 7088   3.259   1.970  14.203  0.1929  0.0759  0.4236
  473MPD2    C1 7089   3.176   2.065  14.150 -0.6843 -0.0582 -0.8683
  473MPD2    C2 7090   3.174   2.189  14.207 -0.4184 -0.0722 -0.0866
  473MPD2    C3 7091   3.233   2.214  14.336 -0.0055 -0.1793  0.4615
  473MPD2    C4 7092   3.308   2.107  14.391  0.1114  0.3283 -0.0423
  473MPD2    C5 7093   3.328   1.996  14.319  0.3741 -0.2520 -0.0597
  473MPD2     H 7094   3.114   2.267  14.161  1.7066  0.9479 -1.1581
  473MPD2    H1 7095   3.350   2.119  14.490 -3.1815  0.9202  1.2921
  473MPD2    H2 7096   3.267   1.872  14.159 -2.6967 -0.3634  0.8563
  473MPD2    H3 7097   3.396   1.925  14.365  0.1243 -0.6736 -0.3439
  473MPD2     N 7098   3.229   2.335  14.407  0.6172 -0.4858  0.0624
  473MPD2    H5 7099   3.273   2.344  14.499  0.5175  0.9349 -0.0273
  473MPD2    N1 7100   3.116   2.041  14.029  0.4130  0.0503  0.3019
  473MPD2    H7 7101   3.053   2.110  13.990  0.6290  0.2655  0.3293
  474TMC3    C1 7102   3.161   2.553  14.466 -0.0806 -0.0537 -0.5561
  474TMC3    C2 7103   3.057   2.637  14.481 -0.2083  0.0415  1.0632
  474TMC3    C3 7104   3.071   2.745  14.555  0.2649  0.5762  0.2133
  474TMC3    C4 7105   3.285   2.572  14.530 -0.8043 -0.4632  0.5160
  474TMC3    C5 7106   3.291   2.676  14.619  0.1559 -0.3544 -0.0837
  474TMC3    C6 7107   3.181   2.763  14.633  0.4201  0.6517 -0.2553
  474TMC3     C 7108   3.140   2.439  14.378  0.5251 -0.0470  0.2856
  474TMC3     O 7109   3.052   2.435  14.295 -0.0355 -0.7597 -0.6242
  474TMC3     H 7110   2.957   2.604  14.452 -0.5869  1.4780  0.7367
  474TMC3    H1 7111   3.372   2.511  14.509  0.4478  1.6615 -0.5107
  474TMC3    H2 7112   3.189   2.844  14.706  0.8016 -0.4043  0.8760
  474TMC3    C7 7113   3.428   2.735  14.642 -0.0083 -0.1032  0.1675
  474TMC3    C8 7114   2.946   2.812  14.579 -0.1406  0.2334  0.3545
  474TMC3    O1 7115   3.517   2.698  14.564  0.2864  0.4140 -0.3129
  474TMC3    O2 7116   2.842   2.744  14.581 -0.5283  0.0886  0.1716
  475MPD2     C 7117   0.550   0.561  11.163 -0.0463 -0.2223 -0.4139
  475MPD2    C1 7118   0.655   0.571  11.068 -0.1787  0.1458  0.2318
  475MPD2    C2 7119   0.632   0.551  10.933  0.3778 -0.2346 -0.2294
  475MPD2    C3 7120   0.508   0.525  10.892 -0.1810  0.1960  0.0371
  475MPD2    C4 7121   0.404   0.515  10.986 -0.5228  0.4438 -0.3675
  475MPD2    C5 7122   0.424   0.534  11.119 -0.8171 -0.2869 -0.3701
  475MPD2     H 7123   0.711   0.563  10.860  1.5592 -1.0004  0.9136
  475MPD2    H1 7124   0.306   0.483  10.951 -1.3395  0.8061  1.5471
  475MPD2    H2 7125   0.570   0.565  11.270  1.0417  1.6856 -0.6833
  475MPD2    H3 7126   0.345   0.524  11.192  0.2017 -1.7547  0.5161
  475MPD2     N 7127   0.489   0.511  10.753 -0.6101 -0.3817 -0.4015
  475MPD2    H5 7128   0.568   0.538  10.696  0.5046 -1.0727  0.7931
  475MPD2    N1 7129   0.778   0.599  11.123  0.5239  0.3988 -0.8530
  475MPD2    H7 7130   0.788   0.607  11.223 -0.2100  2.4148 -0.9489
  476TMC3    C1 7131   1.007   0.683  11.114 -0.6476  0.8355 -0.2642
  476TMC3    C2 7132   1.113   0.715  11.040  0.3701 -0.0478 -1.1927
  476TMC3    C3 7133   1.207   0.803  11.090 -0.1502  0.1217  0.0029
  476TMC3    C4 7134   0.990   0.738  11.243 -0.0796  0.9413  0.2467
  476TMC3    C5 7135   1.083   0.837  11.279  0.8799  0.5983  0.2210
  476TMC3    C6 7136   1.191   0.875  11.202  0.0449  0.4823  0.0380
  476TMC3     C 7137   0.901   0.610  11.048 -0.7409 -0.1546  1.0478
  476TMC3     O 7138   0.922   0.595  10.929 -0.2848  0.0209 -0.0342
  476TMC3     H 7139   1.131   0.672  10.943 -1.8357 -1.6722 -0.8873
  476TMC3    H1 7140   0.910   0.713  11.311  0.4397 -2.5855 -0.4452
  476TMC3    H2 7141   1.270   0.937  11.243  1.3321 -1.6006  0.6733
  476TMC3    C7 7142   1.039   0.932  11.383 -0.2313 -0.1455  0.0021
  476TMC3    C8 7143   1.300   0.874  11.003 -0.7260  0.7842 -0.2769
  476TMC3    O1 7144   0.933   0.903  11.445  0.4737 -0.2661  0.3073
  476TMC3    O2 7145   1.336   0.985  11.044  0.2392 -0.5613  0.0541
  477MPD2     C 7146   3.863   2.129  11.815  0.4432  0.6474 -0.2206
  477MPD2    C1 7147   3.787   2.019  11.788 -0.0945 -0.1068 -0.3771
  477MPD2    C2 7148   3.792   1.905  11.865 -0.0649 -1.1696  0.4107
  477MPD2    C3 7149   3.871   1.908  11.986  0.3507  0.3863  0.2764
  477MPD2    C4 7150   3.942   2.021  12.017  0.8455 -0.3184 -0.8941
  477MPD2    C5 7151   3.941   2.128  11.929  0.2443  0.3358 -0.8664
  477MPD2     H 7152   3.736   1.814  11.852  0.9244 -1.3104 -2.7512
  477MPD2    H1 7153   3.987   2.026  12.116  2.1777 -1.0472 -1.4577
  477MPD2    H2 7154   3.875   2.204  11.737  3.4921  1.9134  1.4810
  477MPD2    H3 7155   4.009   2.209  11.954 -0.3150  1.1095 -1.8492
  477MPD2     N 7156   3.861   1.795  12.064  0.2302 -0.4879  0.5127
  477MPD2    H5 7157   3.840   1.703  12.028 -2.0051  0.2445 -0.0552
  477MPD2    N1 7158   3.699   2.027  11.678 -0.2536  0.5227  0.9655
  477MPD2    H7 7159   3.664   2.118  11.651  2.1519  1.5520  1.2912
  478TMC3    C1 7160   3.502   1.951  11.565 -0.1642  0.4506  0.4507
  478TMC3    C2 7161   3.420   2.037  11.631 -0.6334 -0.6665  0.1205
  478TMC3    C3 7162   3.286   2.023  11.600 -0.2717 -0.1094 -0.0620
  478TMC3    C4 7163   3.459   1.860  11.476  0.2586  0.5480  0.5486
  478TMC3    C5 7164   3.336   1.878  11.429  1.3401 -0.0371  0.7186
  478TMC3    C6 7165   3.241   1.949  11.493 -0.0284  0.4425  0.3516
  478TMC3     C 7166   3.629   1.915  11.624  0.4094 -0.0611  0.1881
  478TMC3     O 7167   3.655   1.797  11.638 -0.1607 -0.1533  0.2593
  478TMC3     H 7168   3.456   2.106  11.706  0.8540 -1.0836 -0.2132
  478TMC3    H1 7169   3.525   1.794  11.421 -2.2860 -0.4313 -1.3713
  478TMC3    H2 7170   3.139   1.965  11.457 -0.1204 -0.1450  0.3454
  478TMC3    C7 7171   3.286   1.787  11.327  0.0921  0.0857  0.1925
  478TMC3    C8 7172   3.182   2.091  11.666 -0.2943  0.1816  0.4983
  478TMC3    O1 7173   3.327   1.672  11.336 -0.2285 -0.2584  0.5308
  478TMC3    O2 7174   3.071   2.076  11.625 -0.3945  0.0024  0.5066
  479MPD2     C 7175   2.567   4.164  15.304 -0.6776  0.8304  0.4649
  479MPD2    C1 7176   2.494   4.142  15.420  0.4394  0.0180  0.2149
  479MPD2    C2 7177   2.534   4.199  15.538 -0.3375 -0.3735 -0.5051
  479MPD2    C3 7178   2.635   4.300  15.539  0.1352  0.7142 -0.1440
  479MPD2    C4 7179   2.698   4.335  15.419 -0.2282 -0.0041  0.0875
  479MPD2    C5 7180   2.675   4.254  15.312  0.6844  0.1430 -0.4673
  479MPD2     H 7181   2.490   4.165  15.631  2.0170 -1.5065  0.2142
  479MPD2    H1 7182   2.782   4.403  15.420  0.5219 -0.9451  0.5656
  479MPD2    H2 7183   2.543   4.106  15.216  1.6701 -1.0053  1.0429
  479MPD2    H3 7184   2.728   4.273  15.219 -0.0292  1.9574 -0.5224
  479MPD2     N 7185   2.671   4.372  15.651 -0.2715 -0.5692 -1.1125
  479MPD2    H5 7186   2.757   4.420  15.628 -1.4279  1.2346 -1.7285
  479MPD2    N1 7187   2.380   4.057  15.404  0.1823 -0.0094  0.2168
  479MPD2    H7 7188   2.366   4.018  15.311 -0.9166 -0.2493  0.4822
  480TMC3    C1 7189   2.330   4.227  15.939 -0.3329  0.0541  0.3280
  480TMC3    C2 7190   2.238   4.304  15.882 -0.3475  0.7220  0.8309
  480TMC3    C3 7191   2.278   4.386  15.782  0.2238  0.5112 -0.0982
  480TMC3    C4 7192   2.461   4.226  15.896 -0.5574 -0.1718  0.5570
  480TMC3    C5 7193   2.496   4.315  15.804  0.6057 -0.2828  0.1159
  480TMC3    C6 7194   2.408   4.398  15.748  0.1725 -0.2166  0.7443
  480TMC3     C 7195   2.286   4.128  16.037 -0.2106  0.0158  0.4919
  480TMC3     O 7196   2.377   4.090  16.109  0.2725  0.5548  0.8003
  480TMC3     H 7197   2.134   4.307  15.914 -0.5474  1.6861  0.0882
  480TMC3    H1 7198   2.529   4.161  15.949 -0.3444 -0.6027 -0.2585
  480TMC3    H2 7199   2.439   4.482  15.687 -2.5088  0.0568 -0.2008
  480TMC3    C7 7200   2.640   4.344  15.783 -0.2079 -0.1416  0.6537
  480TMC3    C8 7201   2.175   4.396  15.677 -0.1676 -0.5690 -0.2694
  480TMC3    O1 7202   2.711   4.366  15.879  0.2676  0.0155 -0.1867
  480TMC3    O2 7203   2.056   4.400  15.711  0.5683 -0.4752  0.3467
  481MPD2     C 7204   4.234   4.054  14.109  0.0169  0.3739 -0.0735
  481MPD2    C1 7205   4.107   4.010  14.155  0.2644  0.7464  0.0037
  481MPD2    C2 7206   4.072   4.003  14.292  0.0927 -0.6720  0.2460
  481MPD2    C3 7207   4.164   4.057  14.381 -0.8778 -0.1640  0.6793
  481MPD2    C4 7208   4.291   4.092  14.329  0.1906  0.3684 -0.0840
  481MPD2    C5 7209   4.322   4.094  14.201 -0.8701  0.2947 -0.7495
  481MPD2     H 7210   3.972   3.966  14.311 -1.1070  1.9976 -0.7564
  481MPD2    H1 7211   4.367   4.124  14.399 -1.0137 -0.7395  1.7446
  481MPD2    H2 7212   4.256   4.057  14.003 -0.3484  0.4151 -0.1504
  481MPD2    H3 7213   4.421   4.125  14.172 -0.4273  0.2124  0.6841
  481MPD2     N 7214   4.147   4.075  14.518 -0.1776 -0.0120  0.4800
  481MPD2    H5 7215   4.228   4.111  14.567 -0.2463  3.4419 -1.9740
  481MPD2    N1 7216   4.015   3.985  14.057 -0.1337 -0.9111 -0.0100
  481MPD2    H7 7217   4.044   3.992  13.960  2.3089 -0.2250  0.7767
  482TMC3    C1 7218   3.828   3.907  13.937 -0.5334  0.3303 -0.3618
  482TMC3    C2 7219   3.707   3.836  13.946 -0.0856 -0.0132  0.1612
  482TMC3    C3 7220   3.639   3.823  13.829 -0.8356 -0.6299  0.1135
  482TMC3    C4 7221   3.873   3.977  13.827 -0.5094 -0.4152 -0.2889
  482TMC3    C5 7222   3.802   3.955  13.714 -0.1912  0.0326  0.2847
  482TMC3    C6 7223   3.685   3.881  13.710  0.1481  0.4539 -0.6626
  482TMC3     C 7224   3.895   3.921  14.067  0.3324 -0.4990 -0.2737
  482TMC3     O 7225   3.847   3.870  14.166 -0.0724  0.5994 -0.3267
  482TMC3     H 7226   3.657   3.799  14.035  0.9704  2.4707  1.8025
  482TMC3    H1 7227   3.966   4.033  13.826 -0.6131 -0.2029  3.2920
  482TMC3    H2 7228   3.622   3.869  13.623 -0.1030 -0.8174 -0.3038
  482TMC3    C7 7229   3.854   3.980  13.581  0.1685  0.3067  0.3792
  482TMC3    C8 7230   3.569   3.692  13.809  0.2276 -0.0731  0.2170
  482TMC3    O1 7231   3.779   4.015  13.491  0.0511  0.0497  0.1422
  482TMC3    O2 7232   3.606   3.601  13.889 -0.4935 -0.1877  0.8168
  483TMC3    C1 7233   2.522   2.794   1.083 -0.2913  0.2230  0.4638
  483TMC3    C2 7234   2.577   2.913   1.050  0.3878  0.1598 -0.8643
  483TMC3    C3 7235   2.711   2.928   1.054 -0.0641  0.2236  0.3766
  483TMC3    C4 7236   2.598   2.688   1.124  0.5537 -0.0326  0.1037
  483TMC3    C5 7237   2.734   2.709   1.133  0.9069  1.0894 -0.5585
  483TMC3    C6 7238   2.793   2.828   1.090  0.9735  0.4641  0.1544
  483TMC3     C 7239   2.402   2.775   1.009  0.2755 -0.8315  0.2371
  483TMC3     O 7240   2.331   2.876   0.986 -0.4792  0.6215  0.0857
  483TMC3     H 7241   2.518   3.000   1.024 -1.8164 -0.9359  0.4542
  483TMC3    H1 7242   2.558   2.592   1.154  0.5180  0.1802  0.7416
  483TMC3    H2 7243   2.901   2.839   1.086  1.0448 -0.4970 -0.4357
  483TMC3    C7 7244   2.812   2.601   1.190  0.6772  1.5324  0.0250
  483TMC3    C8 7245   2.757   3.014   0.940 -0.5429  0.1631 -0.2266
  483TMC3    O1 7246   2.759   2.489   1.202  0.0352  0.0278  0.3823
  483TMC3    O2 7247   2.712   3.123   0.918  0.2845 -0.2790 -0.1506
  484MPD2     C 7248   3.970   0.977  12.412 -0.4204  0.2757 -0.2533
  484MPD2    C1 7249   4.034   0.914  12.513  0.0072 -0.2404 -0.1630
  484MPD2    C2 7250   4.157   0.851  12.475 -0.2904  0.3156 -0.2431
  484MPD2    C3 7251   4.222   0.879  12.356 -0.3170 -0.5087 -0.1775
  484MPD2    C4 7252   4.162   0.956  12.261 -0.5651  0.1556  0.3420
  484MPD2    C5 7253   4.031   0.995  12.286 -1.1506 -0.0974  0.5873
  484MPD2     H 7254   4.205   0.788  12.549 -0.0579 -0.1538 -0.7955
  484MPD2    H1 7255   4.226   0.980  12.177  0.4477  0.3859  1.1810
  484MPD2    H2 7256   3.866   1.002  12.431 -1.2164 -1.9766 -1.6236
  484MPD2    H3 7257   3.978   1.054  12.212  0.0827 -0.9572 -0.9834
  484MPD2     N 7258   4.357   0.842  12.334 -0.1319 -0.1937  0.1811
  484MPD2    H5 7259   4.413   0.896  12.268  1.2805 -0.7741  0.9017
  484MPD2    N1 7260   3.971   0.889  12.634 -0.1383 -0.0606  0.3470
  484MPD2    H7 7261   3.874   0.918  12.646 -0.0444  0.6320 -0.5084
  485TMC3    C1 7262   4.549   0.739  12.401 -0.8169  0.3397 -0.2197
  485TMC3    C2 7263   4.617   0.628  12.456 -0.1459 -0.0098 -0.0470
  485TMC3    C3 7264   4.718   0.651  12.543 -0.0540  0.7626 -0.2807
  485TMC3    C4 7265   4.604   0.868  12.419 -0.8294  0.7774 -0.0449
  485TMC3    C5 7266   4.704   0.881  12.506  0.1005 -0.0207 -0.2661
  485TMC3    C6 7267   0.015   0.780  12.585  0.1278 -0.2881  0.1810
  485TMC3     C 7268   4.411   0.728  12.380  0.0237  0.3445  0.1735
  485TMC3     O 7269   4.356   0.622  12.407  0.4927  0.4908 -0.0432
  485TMC3     H 7270   4.592   0.525  12.435  0.6550 -0.1602 -0.2476
  485TMC3    H1 7271   4.569   0.951  12.357 -0.4212  0.9123 -0.0920
  485TMC3    H2 7272   0.100   0.793  12.650 -1.4986  2.5187  1.7162
  485TMC3    C7 7273   0.067   0.974  12.454 -0.3653 -0.3642  0.0039
  485TMC3    C8 7274   0.098   0.579  12.504  0.7706 -0.4585  0.5421
  485TMC3    O1 7275   0.028   1.081  12.413  0.4708 -0.3067  0.4990
  485TMC3    O2 7276   0.192   0.654  12.505 -0.3456 -0.1887 -0.4358
  486MPD2     C 7277   1.901   4.005  12.400 -0.2320  0.7435 -0.0452
  486MPD2    C1 7278   1.807   4.009  12.500  0.3283  0.5305  0.5102
  486MPD2    C2 7279   1.711   4.112  12.494 -0.3165 -0.1297 -0.4254
  486MPD2    C3 7280   1.712   4.201  12.393 -0.1048 -0.0720  0.2015
  486MPD2    C4 7281   1.804   4.187  12.288  0.1446  0.6907  1.0097
  486MPD2    C5 7282   1.901   4.095  12.289  0.6753  0.7819 -0.3700
  486MPD2     H 7283   1.636   4.116  12.572  0.4424  1.7779  0.2180
  486MPD2    H1 7284   1.799   4.263  12.210 -2.0800 -0.6376 -0.1610
  486MPD2    H2 7285   1.972   3.923  12.397 -1.1367 -0.0725  0.5776
  486MPD2    H3 7286   1.965   4.080  12.203 -0.8542 -0.3298 -1.3236
  486MPD2     N 7287   1.632   4.317  12.397 -0.2347 -0.2391  0.4936
  486MPD2    H5 7288   1.645   4.382  12.319  2.5524 -0.2476  0.9514
  486MPD2    N1 7289   1.798   3.894  12.583 -0.2950  0.6002 -0.3283
  486MPD2    H7 7290   1.862   3.815  12.583 -0.9502  0.0584  0.2978
  487TMC3    C1 7291   1.704   3.738  12.727 -0.3181  0.6419  0.1612
  487TMC3    C2 7292   1.590   3.681  12.771  0.4604  0.3600  0.6347
  487TMC3    C3 7293   1.597   3.575  12.855 -0.8210 -0.1977  0.2761
  487TMC3    C4 7294   1.829   3.715  12.789  1.0365  0.0605 -0.6920
  487TMC3    C5 7295   1.822   3.629  12.898  0.3607 -1.1163 -0.0857
  487TMC3    C6 7296   1.713   3.553  12.924 -0.3558  0.6171  0.0598
  487TMC3     C 7297   1.683   3.863  12.654 -0.4595 -0.5771  0.0125
  487TMC3     O 7298   1.572   3.906  12.643 -0.0277  0.9846 -0.3177
  487TMC3     H 7299   1.505   3.710  12.710 -0.3340 -2.7619  0.2374
  487TMC3    H1 7300   1.919   3.770  12.764  1.3145  0.4610  1.1580
  487TMC3    H2 7301   1.704   3.501  13.019 -1.2227  0.3736 -0.1496
  487TMC3    C7 7302   1.920   3.616  13.005  0.1079 -0.7064 -0.1622
  487TMC3    C8 7303   1.474   3.540  12.925 -0.0801 -0.0477 -0.6751
  487TMC3    O1 7304   1.881   3.580  13.115  0.2811 -0.4858 -0.0469
  487TMC3    O2 7305   1.479   3.519  13.047  0.6327 -0.1463 -0.2490
  488MPD2     C 7306   2.309   1.278  16.550 -0.6496  0.2984  0.4504
  488MPD2    C1 7307   2.311   1.404  16.608 -0.1938 -0.0071  0.3015
  488MPD2    C2 7308   2.239   1.426  16.728  0.2483 -0.4587 -0.2124
  488MPD2    C3 7309   2.160   1.325  16.785 -0.1426 -0.2608 -0.4921
  488MPD2    C4 7310   2.156   1.202  16.718 -0.2554 -0.3091 -0.3815
  488MPD2    C5 7311   2.228   1.184  16.606 -0.5867 -0.4404 -0.3505
  488MPD2     H 7312   2.236   1.528  16.764  1.2662 -0.8544  0.9931
  488MPD2    H1 7313   2.112   1.118  16.771  1.4202 -1.1662 -0.3493
  488MPD2    H2 7314   2.362   1.260  16.457 -2.2130 -1.6574 -0.0469
  488MPD2    H3 7315   2.224   1.082  16.570 -0.7881 -0.1116 -1.2699
  488MPD2     N 7316   2.079   1.356  16.896 -0.1331  0.3752  0.0497
  488MPD2    H5 7317   2.079   1.454  16.923  0.2261  0.7180 -1.1569
  488MPD2    N1 7318   2.369   1.519  16.544 -0.6777 -0.4328 -0.1099
  488MPD2    H7 7319   2.360   1.607  16.593 -0.2691  0.2269 -1.2302
  489TMC3    C1 7320   1.896   1.346  17.031  0.6696  0.3342  0.6843
  489TMC3    C2 7321   1.873   1.474  16.981  0.0385 -0.4677 -0.3569
  489TMC3    C3 7322   1.850   1.576  17.070  0.2879 -0.2748  0.3315
  489TMC3    C4 7323   1.881   1.312  17.161  1.0133 -0.0090 -0.2423
  489TMC3    C5 7324   1.853   1.415  17.246 -0.9128 -1.2400 -0.7767
  489TMC3    C6 7325   1.833   1.546  17.202  0.0014  0.2659 -0.5075
  489TMC3     C 7326   2.000   1.271  16.963  0.3743 -0.4904  0.0571
  489TMC3     O 7327   2.012   1.147  16.988  0.0458 -0.6123 -0.4315
  489TMC3     H 7328   1.895   1.502  16.879 -1.0473 -1.6538 -0.9290
  489TMC3    H1 7329   1.895   1.211  17.200  0.9355 -0.2602 -0.8612
  489TMC3    H2 7330   1.842   1.622  17.280 -1.5706 -1.1974  1.1118
  489TMC3    C7 7331   1.864   1.396  17.389 -0.3594  0.1629  0.0883
  489TMC3    C8 7332   1.958   1.669  17.047  0.6801 -0.1478  0.4976
  489TMC3    O1 7333   1.826   1.489  17.461 -0.2622 -0.0799  0.2957
  489TMC3    O2 7334   2.043   1.635  16.970 -0.2361 -0.0532  0.3104
  490MPD2     C 7335   2.510   0.719   0.107  0.3755 -0.3527  0.6227
  490MPD2    C1 7336   2.594   0.658   0.015 -0.7846 -0.4570 -0.4495
  490MPD2    C2 7337   2.711   0.713  17.746  0.1529  0.0678  0.3040
  490MPD2    C3 7338   2.753   0.830   0.051 -0.2118 -0.0713 -0.8507
  490MPD2    C4 7339   2.671   0.896   0.132 -1.0351 -0.4146 -0.0726
  490MPD2    C5 7340   2.549   0.838   0.164 -0.4728 -0.7988 -0.3687
  490MPD2     H 7341   2.790   0.661  17.692  0.1522  0.6207 -0.2374
  490MPD2    H1 7342   2.699   0.999   0.151  1.8722 -1.1892 -0.2342
  490MPD2    H2 7343   2.411   0.684   0.132  0.7772 -0.6056  1.8627
  490MPD2    H3 7344   2.464   0.890   0.208  0.2111 -1.7406  2.0649
  490MPD2     N 7345   2.886   0.880   0.052  0.4394  0.2639 -0.2269
  490MPD2    H5 7346   2.906   0.942   0.130  1.9489 -0.4739 -0.0211
  490MPD2    N1 7347   2.567   0.538  17.706  0.6337 -0.0300  0.2050
  490MPD2    H7 7348   2.640   0.499  17.647  0.7287  2.1669 -1.1324
  491TMC3    C1 7349   2.467   0.331  17.670  0.2271 -0.7374  0.2851
  491TMC3    C2 7350   2.465   0.222   0.005  0.7950  0.3382 -0.6102
  491TMC3    C3 7351   2.510   0.103  17.717  0.2081  0.3587 -0.1203
  491TMC3    C4 7352   2.498   0.315  17.540 -0.4990 -0.3862  0.3913
  491TMC3    C5 7353   2.532   0.189  17.493  0.7429  0.5009 -0.0013
  491TMC3    C6 7354   2.548   0.082  17.583  0.5386 -0.4313 -0.8710
  491TMC3     C 7355   2.452   0.463  17.721  0.1150  0.4631 -0.3503
  491TMC3     O 7356   2.374   0.475   0.062  0.1312 -0.3527  0.0733
  491TMC3     H 7357   2.450   0.236   0.111 -0.0743  0.4142 -0.7419
  491TMC3    H1 7358   2.497   0.407  17.483  1.8438 -0.4449  0.2268
  491TMC3    H2 7359   2.561   4.722  17.544 -1.5758 -1.6248  1.4707
  491TMC3    C7 7360   2.475   0.152  17.360 -0.0795 -0.7209 -0.9700
  491TMC3    C8 7361   2.533   4.734   0.055 -0.1731  0.6214 -0.7253
  491TMC3    O1 7362   2.413   0.049  17.344 -0.1470  0.4658 -0.7140
  491TMC3    O2 7363   2.483   0.011   0.166 -0.0331 -0.0580 -0.1327
  492MPD2     C 7364   3.123   0.351  11.490 -0.6042 -0.5647 -0.3778
  492MPD2    C1 7365   3.137   0.241  11.408 -0.7686 -0.1885 -0.1313
  492MPD2    C2 7366   3.092   0.114  11.451  0.0555  0.1308 -0.4745
  492MPD2    C3 7367   3.051   0.097  11.582 -0.0440  0.1594  0.0108
  492MPD2    C4 7368   3.032   0.208  11.659 -0.1344  0.4239  0.3869
  492MPD2    C5 7369   3.055   0.335  11.611 -0.6792 -0.5961  0.9386
  492MPD2     H 7370   3.105   0.028  11.387 -1.3662 -1.5858  1.5554
  492MPD2    H1 7371   3.009   0.197  11.765 -1.5573  1.4248  0.1751
  492MPD2    H2 7372   3.158   0.448  11.455  0.8258 -0.4999  1.2404
  492MPD2    H3 7373   3.045   0.411  11.688 -0.0217  1.1549 -0.7151
  492MPD2     N 7374   3.048   4.709  11.646  0.3492  0.4540 -0.2088
  492MPD2    H5 7375   3.026   4.716  11.745  0.5323  1.8736 -0.2720
  492MPD2    N1 7376   3.171   0.273  11.274  0.8750  0.2386 -0.0673
  492MPD2    H7 7377   3.197   0.370  11.258  2.7901 -0.3209 -0.2979
  493TMC3    C1 7378   3.194   0.258  11.043 -0.1481  0.9885 -0.1996
  493TMC3    C2 7379   3.287   0.360  11.029 -0.1450  0.3960  0.0526
  493TMC3    C3 7380   3.295   0.425  10.914  0.2520  0.9987  0.2233
  493TMC3    C4 7381   3.102   0.230  10.942  0.1280  0.9479 -0.0283
  493TMC3    C5 7382   3.110   0.306  10.825 -0.2263 -0.0441 -0.2914
  493TMC3    C6 7383   3.204   0.408  10.810 -0.0738  0.0268 -0.0669
  493TMC3     C 7384   3.169   0.185  11.164 -0.0594 -0.9826 -0.0281
  493TMC3     O 7385   3.110   0.075  11.160 -0.1431  0.0313  0.0332
  493TMC3     H 7386   3.352   0.385  11.113  0.3656  1.3432 -0.6287
  493TMC3    H1 7387   3.037   0.147  10.967 -0.5577  2.0730  1.9392
  493TMC3    H2 7388   3.207   0.470  10.721 -0.5314  0.1444 -0.0017
  493TMC3    C7 7389   2.991   0.321  10.744  0.3513 -0.0562  0.1240
  493TMC3    C8 7390   3.363   0.546  10.915 -0.0291 -0.8378 -0.1579
  493TMC3    O1 7391   2.987   0.405  10.660 -0.1215 -0.7570 -0.0707
  493TMC3    O2 7392   3.326   0.630  10.836 -0.1226 -0.6730  0.5874
  494TMC3    C1 7393   3.536   2.601   0.374 -0.7098 -0.1326 -1.0258
  494TMC3    C2 7394   3.574   2.486   0.431 -0.0451  0.3361  0.4663
  494TMC3    C3 7395   3.649   2.402   0.351 -0.1688 -0.1657  0.2355
  494TMC3    C4 7396   3.594   2.651   0.257 -0.3444 -0.4695  0.0457
  494TMC3    C5 7397   3.673   2.564   0.187 -1.0505  0.1698 -0.3596
  494TMC3    C6 7398   3.699   2.437   0.224 -0.4481 -0.4259  0.1074
  494TMC3     C 7399   3.512   2.706   0.468  0.7509 -0.1432 -0.4882
  494TMC3     O 7400   3.559   2.693   0.583  0.4206  0.0396  0.4421
  494TMC3     H 7401   3.530   2.450   0.523 -1.5205 -1.9452 -1.1342
  494TMC3    H1 7402   3.558   2.749   0.228 -2.7172 -1.5200 -0.5103
  494TMC3    H2 7403   3.760   2.375   0.159  3.9287  0.8095  2.9874
  494TMC3    C7 7404   3.716   2.606   0.057  0.0938 -0.1432  0.1407
  494TMC3    C8 7405   3.638   2.259   0.389  0.6647 -0.0559  0.0890
  494TMC3    O1 7406   3.754   2.528  17.723  0.1313 -0.3901  0.3894
  494TMC3    O2 7407   3.551   2.225   0.469 -0.1285  0.0352  0.2095
  495TMC3    C1 7408   2.520   4.152  14.829 -0.0759 -0.1393 -0.4758
  495TMC3    C2 7409   2.424   4.159  14.729 -0.1162 -0.9537 -0.1069
  495TMC3    C3 7410   2.335   4.255  14.742  0.2082  0.2398  0.0689
  495TMC3    C4 7411   2.527   4.242  14.934 -0.1875  0.2627 -0.0183
  495TMC3    C5 7412   2.432   4.334  14.936  0.4888  0.0204  0.1521
  495TMC3    C6 7413   2.331   4.341  14.842 -0.2076  0.0014 -0.1684
  495TMC3     C 7414   2.585   4.029  14.853  0.0909 -0.7869 -0.5930
  495TMC3     O 7415   2.701   4.037  14.896 -0.1096  0.1961 -0.5297
  495TMC3     H 7416   2.428   4.090  14.645  0.3938  1.9481 -2.4315
  495TMC3    H1 7417   2.592   4.211  15.016 -1.6921 -0.0813  1.0468
  495TMC3    H2 7418   2.259   4.422  14.845 -1.6574 -1.3063  0.3763
  495TMC3    C7 7419   2.395   4.376  15.065 -0.2679 -0.0963  0.6284
  495TMC3    C8 7420   2.225   4.264  14.647 -0.5128  0.0925 -0.2205
  495TMC3    O1 7421   2.479   4.442  15.127 -0.2670  0.1073 -0.0216
  495TMC3    O2 7422   2.134   4.345  14.671  0.4666  0.1721  0.5925
  496MPD2     C 7423   4.516   0.170  15.600 -0.0608  0.2475  0.1703
  496MPD2    C1 7424   4.507   0.056  15.519  0.0331 -0.3539  0.2106
  496MPD2    C2 7425   4.378   0.005  15.495 -0.0219 -0.0528 -0.3701
  496MPD2    C3 7426   4.268   0.068  15.547 -0.2410  0.3234 -0.3641
  496MPD2    C4 7427   4.278   0.177  15.636 -0.4553 -0.2022 -1.0895
  496MPD2    C5 7428   4.407   0.222  15.660 -0.1942  0.3188  0.5072
  496MPD2     H 7429   4.374   4.656  15.432 -1.1356  0.2593 -0.7248
  496MPD2    H1 7430   4.199   0.231  15.687 -0.2422 -0.8432 -0.0871
  496MPD2    H2 7431   4.610   0.209  15.638  0.4928 -2.2812  1.4296
  496MPD2    H3 7432   4.424   0.302  15.731 -0.1570  0.1652  0.6681
  496MPD2     N 7433   4.136   0.020  15.520  0.4277  0.1461  0.0082
  496MPD2    H5 7434   4.062   0.068  15.569 -0.0632 -2.0837  1.4376
  496MPD2    N1 7435   4.616   4.729  15.475  0.6948  0.0436  0.0564
  496MPD2    H7 7436   4.599   4.640  15.430  3.4120 -0.0670 -0.7615
  497TMC3    C1 7437   3.977   4.615  15.440  0.4729  0.0717  0.6762
  497TMC3    C2 7438   3.942   4.520  15.354  0.9657  0.7544  0.2652
  497TMC3    C3 7439   3.841   4.442  15.389  0.9305  0.0650 -0.0552
  497TMC3    C4 7440   3.899   4.644  15.556 -0.6327 -0.4075  0.3966
  497TMC3    C5 7441   3.800   4.554  15.592 -0.0627 -0.3417 -0.0717
  497TMC3    C6 7442   3.771   4.446  15.510 -0.5388  0.3739  0.2213
  497TMC3     C 7443   4.109   4.669  15.427  0.0733  1.1334 -0.0197
  497TMC3     O 7444   4.170   4.652  15.320 -0.2232 -0.2636 -0.3511
  497TMC3     H 7445   4.001   4.498  15.266 -1.4656  0.1118 -1.2124
  497TMC3    H1 7446   3.927   4.725  15.623 -1.7011 -0.7234  1.2338
  497TMC3    H2 7447   3.688   4.382  15.536  0.5774 -1.2613 -0.2787
  497TMC3    C7 7448   3.795   4.519  15.731  0.3570  0.3024  0.8713
  497TMC3    C8 7449   3.823   4.331  15.291 -0.2187 -0.7574  0.0719
  497TMC3    O1 7450   3.700   4.456  15.770 -0.0377  0.3842 -0.3651
  497TMC3    O2 7451   3.748   4.248  15.333 -0.2136  0.0747  0.2985
  498MPD2     C 7452   0.958   0.193   9.962  0.5268  0.9174 -0.1102
  498MPD2    C1 7453   0.871   0.246  10.058  0.7436 -0.2664 -0.2470
  498MPD2    C2 7454   0.797   0.157  10.138  0.1079 -1.0260  0.2304
  498MPD2    C3 7455   0.803   0.023  10.115 -0.0966 -0.3745 -0.0040
  498MPD2    C4 7456   0.877   4.717  10.014  0.3524 -0.0006  0.7269
  498MPD2    C5 7457   0.956   0.057   9.934  0.1416 -0.3782 -0.1298
  498MPD2     H 7458   0.733   0.191  10.218  2.8170 -0.0707  1.9921
  498MPD2    H1 7459   0.882   4.611   9.989  0.2860  0.2263 -0.2693
  498MPD2    H2 7460   1.026   0.249   9.898  0.4219 -1.6479 -2.4785
  498MPD2    H3 7461   1.017   0.010   9.858  0.6348 -0.3936  0.2790
  498MPD2     N 7462   0.720   4.678  10.203 -0.0142  0.6332 -0.0422
  498MPD2    H5 7463   0.676   4.714  10.287 -0.8297 -0.1933 -0.1130
  498MPD2    N1 7464   0.857   0.384  10.083 -0.0534 -0.5251 -0.2368
  498MPD2    H7 7465   0.789   0.413  10.152  0.3329 -0.0914 -0.0428
  499TMC3    C1 7466   0.931   0.611  10.071  0.0555 -0.1789  0.5031
  499TMC3    C2 7467   0.878   0.646  10.190 -0.7435  0.5266  0.6521
  499TMC3    C3 7468   0.857   0.776  10.214 -0.1819  0.0622 -0.0281
  499TMC3    C4 7469   0.949   0.699   9.969  0.5711 -0.3575 -0.2398
  499TMC3    C5 7470   0.916   0.828   9.986 -0.8516 -0.0022 -0.4351
  499TMC3    C6 7471   0.860   0.868  10.108  0.4620  0.3861 -0.4588
  499TMC3     C 7472   0.954   0.472  10.035  0.8170  0.2047  0.5641
  499TMC3     O 7473   1.045   0.456   9.956 -0.4294 -0.9071 -0.2134
  499TMC3     H 7474   0.887   0.573  10.270 -0.9942  3.3864  3.2721
  499TMC3    H1 7475   1.015   0.677   9.885  1.7273  1.3455  0.2237
  499TMC3    H2 7476   0.836   0.973  10.113  0.3874  0.3394  0.1208
  499TMC3    C7 7477   0.945   0.928   9.889 -0.2442 -0.0853  0.2119
  499TMC3    C8 7478   0.840   0.816  10.350 -0.1437 -0.0558  0.1753
  499TMC3    O1 7479   0.956   1.043   9.925 -0.0452  0.0458  0.1622
  499TMC3    O2 7480   0.855   0.728  10.430 -0.7875  0.4158 -0.1772
  500MPD2     C 7481   1.979   1.369  10.993 -0.2996  0.0442 -0.2528
  500MPD2    C1 7482   2.035   1.362  10.869  0.3203 -0.5096  0.4359
  500MPD2    C2 7483   1.957   1.358  10.756 -0.1189  0.2584  0.0410
  500MPD2    C3 7484   1.819   1.370  10.765 -0.3792  0.1541  0.1097
  500MPD2    C4 7485   1.762   1.363  10.892 -0.6267 -0.2358  0.2765
  500MPD2    C5 7486   1.847   1.372  10.997  0.2362 -0.1072  0.8118
  500MPD2     H 7487   2.018   1.366  10.666 -0.2236  2.2603  0.1357
  500MPD2    H1 7488   1.656   1.377  10.909 -0.9403 -2.1613 -0.0945
  500MPD2    H2 7489   2.040   1.372  11.082  0.6881  1.6884 -0.9807
  500MPD2    H3 7490   1.798   1.391  11.092  0.9042  2.6104  0.6252
  500MPD2     N 7491   1.737   1.399  10.655  0.5456  0.4663  0.2510
  500MPD2    H5 7492   1.639   1.405  10.681  0.2239 -1.7117 -0.4345
  500MPD2    N1 7493   2.171   1.356  10.841 -0.4414 -0.1588 -0.1008
  500MPD2    H7 7494   2.201   1.340  10.745 -1.1132  0.7568 -0.4585
  501TMC3    C1 7495   2.398   1.308  10.862  0.0477 -0.8940 -0.4376
  501TMC3    C2 7496   2.413   1.299  10.722  0.2337 -0.2554 -0.0133
  501TMC3    C3 7497   2.533   1.252  10.670  0.5817 -0.7285  0.8943
  501TMC3    C4 7498   2.498   1.299  10.944  0.3898 -0.1113 -0.0977
  501TMC3    C5 7499   2.622   1.276  10.893  0.4880 -0.3597 -0.5749
  501TMC3    C6 7500   2.643   1.239  10.760  0.1432 -0.3698 -0.3531
  501TMC3     C 7501   2.272   1.343  10.931 -0.5092  0.6508 -0.2798
  501TMC3     O 7502   2.262   1.321  11.051  0.0250 -0.7230  0.0791
  501TMC3     H 7503   2.338   1.322  10.647  0.6338  0.1139 -0.3038
  501TMC3    H1 7504   2.486   1.324  11.049 -0.6454 -0.7045 -0.0764
  501TMC3    H2 7505   2.743   1.217  10.724  0.4709 -0.9400  0.8961
  501TMC3    C7 7506   2.743   1.292  10.967 -0.3882  0.3509  0.0647
  501TMC3    C8 7507   2.577   1.316  10.546 -0.4601 -0.0633  0.3480
  501TMC3    O1 7508   2.846   1.276  10.908 -0.5445 -0.0131  0.1540
  501TMC3    O2 7509   2.680   1.380  10.571 -0.0709  0.2131 -0.3453
  502TMC3    C1 7510   2.067   0.377  14.780  0.5279  0.0611 -0.3616
  502TMC3    C2 7511   2.088   0.512  14.757 -0.4311  0.1385 -0.4211
  502TMC3    C3 7512   2.005   0.608  14.814  0.2005  0.0866 -0.3922
  502TMC3    C4 7513   1.944   0.336  14.822  0.1478  0.3666 -0.4791
  502TMC3    C5 7514   1.859   0.432  14.859  0.0617 -0.0802 -0.5850
  502TMC3    C6 7515   1.883   0.568  14.860  0.3869 -0.1111 -0.8650
  502TMC3     C 7516   2.160   0.346  14.878  0.1438  0.1611 -0.4386
  502TMC3     O 7517   2.273   0.387  14.853  0.6328  0.0775  0.2209
  502TMC3     H 7518   2.186   0.538  14.719 -0.5581 -0.2724 -1.0285
  502TMC3    H1 7519   1.925   0.230  14.838  0.8440  0.2979 -0.0859
  502TMC3    H2 7520   1.830   0.638  14.924 -0.9523 -2.8485  1.0291
  502TMC3    C7 7521   1.766   0.373  14.955 -0.0875 -0.1296 -0.7255
  502TMC3    C8 7522   2.070   0.719  14.879 -0.1783  0.1539 -0.0166
  502TMC3    O1 7523   1.807   0.267  15.009  0.3733  0.3641  0.7823
  502TMC3    O2 7524   2.005   0.809  14.934  0.7878  0.0234 -0.8413
  503MPD2     C 7525   3.822   1.161  17.284 -0.4300  0.2357  0.0288
  503MPD2    C1 7526   3.934   1.244  17.296 -0.4276 -0.1066  0.5386
  503MPD2    C2 7527   4.050   1.197  17.359  0.7369  0.1360 -0.4090
  503MPD2    C3 7528   4.043   1.073  17.423  0.5195  0.6262  0.1685
  503MPD2    C4 7529   3.936   0.992  17.413 -0.9316  0.1672  0.1321
  503MPD2    C5 7530   3.824   1.045  17.345  0.2471 -0.1649  0.8992
  503MPD2     H 7531   4.135   1.265  17.364  0.3710  0.5351  0.3168
  503MPD2    H1 7532   3.930   0.895  17.461 -2.3158 -0.5742 -1.5401
  503MPD2    H2 7533   3.719   1.186  17.262  0.3524  1.2240 -2.5796
  503MPD2    H3 7534   3.731   0.989  17.341  1.0112 -1.4269  0.5501
  503MPD2     N 7535   4.162   1.026  17.483  0.7485  0.1471 -0.2300
  503MPD2    H5 7536   4.242   1.088  17.487  0.4231  0.4908  1.2530
  503MPD2    N1 7537   3.945   1.373  17.235 -0.6925 -0.5558  0.5904
  503MPD2    H7 7538   4.037   1.415  17.236  0.8624 -3.9187 -1.5454
  504TMC3    C1 7539   4.316   0.909  17.609  0.0427 -0.6944 -0.7440
  504TMC3    C2 7540   4.328   0.846  17.730  0.3122 -0.1258  0.0444
  504TMC3    C3 7541   4.452   0.846   0.032 -0.5769  0.2186 -0.3379
  504TMC3    C4 7542   4.416   0.976  17.553 -0.2972 -0.3661  0.4026
  504TMC3    C5 7543   4.542   0.970  17.617  0.6870  0.5307  0.4141
  504TMC3    C6 7544   4.563   0.901  17.730  0.1439 -0.2249  0.0322
  504TMC3     C 7545   4.180   0.915  17.553  0.1680  0.6834 -0.6031
  504TMC3     O 7546   4.100   0.829  17.591  0.2432  0.2222 -0.5296
  504TMC3     H 7547   4.244   0.816   0.036  0.9392  0.1813  1.0503
  504TMC3    H1 7548   4.400   1.010  17.451 -0.4293 -0.8238  0.2715
  504TMC3    H2 7549   4.653   0.912   0.034 -0.3402  1.5615  0.4370
  504TMC3    C7 7550   4.656   0.990  17.525  0.7291  0.1902  0.1004
  504TMC3    C8 7551   4.472   0.737   0.129 -0.2344 -0.3367  0.6766
  504TMC3    O1 7552   4.639   1.039  17.413 -0.2418 -0.0026  0.2218
  504TMC3    O2 7553   4.379   0.656   0.137 -0.6836 -0.1383  0.2231
  505MPD2     C 7554   4.399   4.421  10.712 -0.1115  0.8125  0.6691
  505MPD2    C1 7555   4.397   4.309  10.790 -0.2067 -0.0805  0.6952
  505MPD2    C2 7556   4.449   4.319  10.922 -0.4284  0.1628 -0.3743
  505MPD2    C3 7557   4.488   4.443  10.970  0.2079 -0.8642  0.6322
  505MPD2    C4 7558   4.484   4.556  10.889  0.3053 -0.1906 -0.7809
  505MPD2    C5 7559   4.445   4.543  10.760  0.0633  0.7372 -0.1430
  505MPD2     H 7560   4.470   4.235  10.988  0.9287  1.9054  1.4380
  505MPD2    H1 7561   4.528   4.652  10.910  0.3928 -0.2606 -0.6458
  505MPD2    H2 7562   4.367   4.413  10.609  1.8762 -1.0661  0.2230
  505MPD2    H3 7563   4.446   4.625  10.689 -2.3390 -0.9654 -2.1760
  505MPD2     N 7564   4.558   4.462  11.094 -0.5055  0.0949  0.0167
  505MPD2    H5 7565   4.572   4.558  11.124  1.7193 -0.7275  1.6110
  505MPD2    N1 7566   4.339   4.194  10.735  0.0149  0.8082 -0.7356
  505MPD2    H7 7567   4.319   4.186  10.636  0.7971 -2.6703 -0.6292
  506TMC3    C1 7568   4.331   3.954  10.729 -0.2301  0.2126 -0.1776
  506TMC3    C2 7569   4.389   3.951  10.607  0.0459  1.3158 -0.3282
  506TMC3    C3 7570   4.440   3.827  10.566  0.3325 -0.1118 -0.7189
  506TMC3    C4 7571   4.341   3.838  10.809  1.0726  0.5042 -0.6762
  506TMC3    C5 7572   4.402   3.727  10.765 -0.0539  0.0723  0.3358
  506TMC3    C6 7573   4.438   3.716  10.636  0.3631  0.0284 -0.0962
  506TMC3     C 7574   4.331   4.080  10.805 -0.3076  0.7953 -0.0354
  506TMC3     O 7575   4.309   4.066  10.926 -0.0135 -0.1123 -0.0141
  506TMC3     H 7576   4.408   4.038  10.546  0.5466  0.9170 -0.7530
  506TMC3    H1 7577   4.290   3.837  10.905 -1.0234  0.8100 -1.7798
  506TMC3    H2 7578   4.505   3.642  10.593 -1.0633 -0.8246 -0.8338
  506TMC3    C7 7579   4.517   3.690  10.847  0.2820  0.3376 -1.2037
  506TMC3    C8 7580   4.512   3.826  10.442  0.6497 -0.4723 -0.8742
  506TMC3    O1 7581   4.581   3.593  10.814 -0.1370  0.4283 -0.0034
  506TMC3    O2 7582   4.487   3.737  10.360  0.4162  0.0509  0.4288
  507TMC3    C1 7583   0.511   0.769  14.847 -0.0412 -0.3414  0.2253
  507TMC3    C2 7584   0.499   0.656  14.773 -0.2337  0.0408 -0.6405
  507TMC3    C3 7585   0.578   0.634  14.670  0.2711  0.5735 -0.2260
  507TMC3    C4 7586   0.615   0.858  14.831 -0.5254 -0.5780 -0.4320
  507TMC3    C5 7587   0.699   0.829  14.729 -0.5421 -0.4986 -0.4858
  507TMC3    C6 7588   0.680   0.720  14.653 -0.5622 -0.0395  0.9231
  507TMC3     C 7589   0.416   0.785  14.958  0.4688 -0.6591  0.3514
  507TMC3     O 7590   0.452   0.850  15.056 -0.1008 -0.1988 -0.2062
  507TMC3     H 7591   0.420   0.586  14.801 -0.0337 -0.0069 -0.2047
  507TMC3    H1 7592   0.623   0.950  14.887 -3.9297  0.1409 -1.1405
  507TMC3    H2 7593   0.748   0.708  14.570  2.2274  1.3358  2.9917
  507TMC3    C7 7594   0.715   0.942  14.634 -0.0757 -0.1945  0.1211
  507TMC3    C8 7595   0.515   0.584  14.552 -0.3488 -0.1179 -1.0144
  507TMC3    O1 7596   0.713   0.917  14.510  0.3059 -0.6601 -0.1458
  507TMC3    O2 7597   0.424   0.513  14.585  0.7319  0.5204 -0.3457
  508MPD2     C 7598   1.425   3.147  15.950 -0.6066  0.8743 -0.0626
  508MPD2    C1 7599   1.386   3.170  16.086  0.0086  0.5036  0.0020
  508MPD2    C2 7600   1.331   3.293  16.119  0.0927  0.3961  0.1070
  508MPD2    C3 7601   1.306   3.397  16.029 -0.4949 -0.2890  0.1821
  508MPD2    C4 7602   1.347   3.366  15.897 -0.5401 -0.2576  0.7691
  508MPD2    C5 7603   1.401   3.242  15.859 -0.2970 -0.0497  0.1249
  508MPD2     H 7604   1.321   3.303  16.226 -0.7175  2.4076 -0.1522
  508MPD2    H1 7605   1.356   3.446  15.824 -1.4689 -0.0847  0.8472
  508MPD2    H2 7606   1.484   3.062  15.917 -2.3161 -0.2399 -0.2818
  508MPD2    H3 7607   1.436   3.231  15.757 -1.2175  2.9535 -0.5077
  508MPD2     N 7608   1.258   3.523  16.074 -0.5384  0.6126 -0.4906
  508MPD2    H5 7609   1.245   3.533  16.175  0.2272 -0.2279 -0.3097
  508MPD2    N1 7610   1.398   3.070  16.186  0.6086  0.0156 -0.4702
  508MPD2    H7 7611   1.476   3.005  16.182  0.6421 -0.0487  1.2078
  509TMC3    C1 7612   0.989   3.914  16.065  0.3842  0.2096  0.2970
  509TMC3    C2 7613   1.013   3.934  16.199 -0.2051 -0.2854 -0.3218
  509TMC3    C3 7614   1.118   3.865  16.255 -0.1814 -0.3339 -0.4062
  509TMC3    C4 7615   1.054   3.816  15.991  1.1466  0.7031 -0.2817
  509TMC3    C5 7616   1.156   3.745  16.057 -0.5276 -0.1230 -0.0172
  509TMC3    C6 7617   1.186   3.769  16.191  0.0180  0.0399 -0.3261
  509TMC3     C 7618   0.909   4.008  16.001 -0.1124 -0.0253  0.4994
  509TMC3     O 7619   0.822   4.061  16.074  0.2199  0.9015 -0.5398
  509TMC3     H 7620   0.973   4.026  16.239  1.0736  0.8043 -1.5442
  509TMC3    H1 7621   1.017   3.786  15.893 -0.0404  1.1039  0.0460
  509TMC3    H2 7622   1.278   3.739  16.240  0.1530  1.1027  0.0664
  509TMC3    C7 7623   1.204   3.628  15.992 -0.6843 -0.9042 -0.4575
  509TMC3    C8 7624   1.197   3.929  16.356 -0.3296  0.7048  0.1516
  509TMC3    O1 7625   1.208   3.632  15.868  0.0771  0.1375  0.3839
  509TMC3    O2 7626   1.243   3.850  16.442 -0.2912 -0.4857  0.0115
  510MPD2     C 7627   3.526   4.580  14.527  0.5003  0.8927 -0.0741
  510MPD2    C1 7628   3.591   4.635  14.644 -0.4473  0.6228 -0.2690
  510MPD2    C2 7629   3.715   4.695  14.625  0.8431  0.8155 -0.5073
  510MPD2    C3 7630   3.772   4.695  14.496 -0.9027  0.1697  0.3051
  510MPD2    C4 7631   3.713   4.633  14.391 -0.2896  0.1095 -0.2674
  510MPD2    C5 7632   3.586   4.576  14.407 -0.3062  0.0261 -0.5389
  510MPD2     H 7633   3.776   0.001  14.701  1.8521 -0.4988 -0.5353
  510MPD2    H1 7634   3.764   4.610  14.299  0.8052  0.3328  0.2841
  510MPD2    H2 7635   3.432   4.527  14.527  0.2641  1.3109 -1.0470
  510MPD2    H3 7636   3.530   4.532  14.325 -1.9058  2.0558 -0.5376
  510MPD2     N 7637   3.903   0.001  14.487  0.0514 -0.0695  0.1595
  510MPD2    H5 7638   3.941   0.026  14.578 -2.5940  3.2609  0.3416
  510MPD2    N1 7639   3.549   4.603  14.778 -0.3620  0.7261 -0.3685
  510MPD2    H7 7640   3.461   4.553  14.784 -1.1042  1.8561 -1.7855
  511TMC3    C1 7641   3.545   4.562  15.010  0.1502  0.9170 -0.4514
  511TMC3    C2 7642   3.568   4.611  15.140 -0.6303 -0.3784 -0.0807
  511TMC3    C3 7643   3.509   4.555  15.247 -0.1044 -0.1705  0.0837
  511TMC3    C4 7644   3.462   4.458  14.985 -0.0137 -0.0392  0.7159
  511TMC3    C5 7645   3.417   4.397  15.092  0.1680 -0.1726  0.7584
  511TMC3    C6 7646   3.438   4.442  15.223 -0.4032 -0.9413  0.4398
  511TMC3     C 7647   3.611   4.635  14.897 -1.1721 -0.5682  0.7323
  511TMC3     O 7648   3.704   4.708  14.912  0.2415 -0.0915 -0.5687
  511TMC3     H 7649   3.641   4.690  15.153 -0.9685 -0.0307 -0.2771
  511TMC3    H1 7650   3.452   4.413  14.887 -0.6800 -0.1238  0.8201
  511TMC3    H2 7651   3.401   4.383  15.306 -1.4807  0.2634  0.8166
  511TMC3    C7 7652   3.361   4.264  15.063 -0.1893 -0.8682  0.3043
  511TMC3    C8 7653   3.476   4.642  15.356 -0.4993  0.3552 -0.6831
  511TMC3    O1 7654   3.322   4.233  14.950  0.0938 -0.5175 -0.0101
  511TMC3    O2 7655   3.457   0.021  15.336  0.3898  0.2861 -0.2912
  512TMC3    C1 7656   3.189   3.605  13.908 -0.0450  0.0578 -0.0461
  512TMC3    C2 7657   3.215   3.713  13.979  0.2276 -0.4964 -0.1654
  512TMC3    C3 7658   3.172   3.834  13.932 -0.4796  0.6331  0.1301
  512TMC3    C4 7659   3.133   3.612  13.783 -0.3190  0.0955 -0.4397
  512TMC3    C5 7660   3.101   3.739  13.732 -0.8556  0.8054  0.4369
  512TMC3    C6 7661   3.111   3.848  13.812  0.2415 -0.3987  0.0090
  512TMC3     C 7662   3.225   3.481  13.972  0.5677 -0.0018  0.5946
  512TMC3     O 7663   3.310   3.481  14.062  0.0652  0.1056 -0.0253
  512TMC3     H 7664   3.250   3.714  14.082 -1.1677  1.7190  0.2973
  512TMC3    H1 7665   3.103   3.520  13.734  1.5390 -0.6185 -0.2408
  512TMC3    H2 7666   3.099   3.945  13.765 -1.0984 -1.0299 -0.9439
  512TMC3    C7 7667   3.040   3.755  13.600 -0.0115  0.4598  0.0320
  512TMC3    C8 7668   3.215   3.950  13.998 -0.0904  0.1340 -0.2411
  512TMC3    O1 7669   2.996   3.867  13.571 -0.0858  0.3469 -0.1396
  512TMC3    O2 7670   3.324   3.953  14.046 -0.7395 -0.0256  0.1092
  513MPD2     C 7671   4.675   3.794  12.950  0.0627  0.2967  0.4021
  513MPD2    C1 7672   4.564   3.869  12.933 -0.0167  0.2925 -0.5949
  513MPD2    C2 7673   4.510   3.925  13.048  0.0795  0.1459 -0.5008
  513MPD2    C3 7674   4.563   3.901  13.174 -0.3897  0.2395 -0.6838
  513MPD2    C4 7675   4.656   3.804  13.183  0.0408  0.3800 -0.0862
  513MPD2    C5 7676   4.722   3.766  13.073 -0.0377 -0.0739  0.3701
  513MPD2     H 7677   4.426   3.992  13.037  0.1350  0.7114  2.3333
  513MPD2    H1 7678   4.700   3.773  13.277  0.0295 -1.6391 -0.7518
  513MPD2    H2 7679   4.735   3.765  12.864  1.0437 -2.2013  1.9298
  513MPD2    H3 7680   0.062   3.693  13.078 -0.6421 -0.7153  0.5195
  513MPD2     N 7681   4.497   3.960  13.286  0.1363  0.0746 -0.1971
  513MPD2    H5 7682   4.419   4.019  13.260  0.3623  0.9471  1.1088
  513MPD2    N1 7683   4.514   3.913  12.806 -0.8407 -0.3123 -0.3397
  513MPD2    H7 7684   4.437   3.979  12.815 -0.8234 -0.3107 -0.2000
  514TMC3    C1 7685   4.506   3.965  12.577  0.4677 -0.2545  0.3411
  514TMC3    C2 7686   4.599   3.955  12.474  0.0196  0.7763 -0.0308
  514TMC3    C3 7687   4.644   4.075  12.426  0.2993 -0.2751 -0.5526
  514TMC3    C4 7688   4.461   4.081  12.630 -0.5136 -0.3719  0.2201
  514TMC3    C5 7689   4.514   4.201  12.579  0.0809  0.4672 -0.2649
  514TMC3    C6 7690   4.601   4.198  12.475 -0.3624 -0.6879 -1.2573
  514TMC3     C 7691   4.550   3.869  12.684 -0.4920 -0.7231 -0.6052
  514TMC3     O 7692   4.615   3.766  12.653 -0.4735 -0.0596 -0.3355
  514TMC3     H 7693   4.627   3.858  12.435 -2.8680 -0.7323  1.7216
  514TMC3    H1 7694   4.376   4.075  12.697  1.1330 -1.4369  2.1970
  514TMC3    H2 7695   4.635   4.295  12.439  1.1443 -0.0138  1.9783
  514TMC3    C7 7696   4.510   4.321  12.658  0.7790 -0.3910  0.1108
  514TMC3    C8 7697   0.015   4.071  12.331 -0.2672 -0.6598 -0.9472
  514TMC3    O1 7698   4.543   4.424  12.597 -0.4894  0.0851 -0.4540
  514TMC3    O2 7699   0.028   4.184  12.282 -0.5813  0.3010 -0.7543
  515MPD2     C 7700   2.869   0.779  15.086 -0.3767  0.3328 -0.3169
  515MPD2    C1 7701   2.831   0.824  14.959  0.1993 -0.3244 -0.7993
  515MPD2    C2 7702   2.806   0.957  14.937  0.2619  0.4791  0.2719
  515MPD2    C3 7703   2.817   1.045  15.037  0.4299  0.0519 -0.1549
  515MPD2    C4 7704   2.856   1.002  15.160  0.6340  1.2097 -0.3356
  515MPD2    C5 7705   2.889   0.871  15.178  0.4547 -0.2773  0.6647
  515MPD2     H 7706   2.780   0.989  14.837  0.7772 -1.7611 -0.5822
  515MPD2    H1 7707   2.875   1.069  15.243  0.7513  1.6482 -0.7193
  515MPD2    H2 7708   2.889   0.673  15.097  0.2079  0.3768 -0.9989
  515MPD2    H3 7709   2.929   0.835  15.272  2.3585  0.6509  0.2065
  515MPD2     N 7710   2.814   1.184  15.023 -0.6203 -0.3383 -0.3620
  515MPD2    H5 7711   2.834   1.239  15.106 -1.4726 -0.3298 -0.1571
  515MPD2    N1 7712   2.821   0.738  14.843 -0.2699 -0.6719  0.3853
  515MPD2    H7 7713   2.798   0.791  14.759 -0.9133 -0.1299  0.9034
  516TMC3    C1 7714   2.773   0.542  14.733 -0.1853  0.6797  0.0338
  516TMC3    C2 7715   2.701   0.625  14.650  0.0396  0.7579  0.0316
  516TMC3    C3 7716   2.569   0.594  14.638  0.0860 -0.1505 -0.0516
  516TMC3    C4 7717   2.738   0.414  14.754  0.3707  0.0213  0.3353
  516TMC3    C5 7718   2.611   0.376  14.717 -0.6072  1.0250 -0.4571
  516TMC3    C6 7719   2.528   0.463  14.656 -0.0068  0.2855 -0.1618
  516TMC3     C 7720   2.836   0.604  14.842 -0.9479  0.0507 -0.1041
  516TMC3     O 7721   2.888   0.532  14.928 -0.6641  0.1514 -0.4403
  516TMC3     H 7722   2.736   0.721  14.616  1.9208 -0.3236 -1.0805
  516TMC3    H1 7723   2.788   0.358  14.832 -0.9766 -4.0062 -1.6643
  516TMC3    H2 7724   2.427   0.429  14.636  0.5044 -1.1582 -0.2144
  516TMC3    C7 7725   2.559   0.269  14.792  0.5934  0.3628  0.0253
  516TMC3    C8 7726   2.469   0.701  14.617  0.1722  0.4390  0.2823
  516TMC3    O1 7727   2.583   0.275  14.913 -0.3689  1.0531 -0.5303
  516TMC3    O2 7728   2.360   0.663  14.575 -0.4585 -0.2594  0.2125
  517MPD2     C 7729   2.173   2.802  17.441 -0.1159 -0.3119 -0.5536
  517MPD2    C1 7730   2.276   2.753  17.517  0.3473  0.3864 -0.9408
  517MPD2    C2 7731   2.324   2.833  17.620  0.3735  0.7064  0.0771
  517MPD2    C3 7732   2.262   2.958  17.644 -0.0246  0.2202  0.3566
  517MPD2    C4 7733   2.166   3.008  17.557 -0.0418 -0.9153 -0.3586
  517MPD2    C5 7734   2.125   2.925  17.455  0.2665  0.1154  0.2767
  517MPD2     H 7735   2.394   2.788  17.690 -1.2973 -0.6243  0.8882
  517MPD2    H1 7736   2.118   3.105  17.559 -0.0070 -0.9408  2.8459
  517MPD2    H2 7737   2.138   2.749  17.352  1.0068 -1.3153 -0.4095
  517MPD2    H3 7738   2.053   2.971  17.388 -1.4593 -0.8958  1.4393
  517MPD2     N 7739   2.303   3.039  17.756 -0.0857 -0.7556 -0.0151
  517MPD2    H5 7740   2.368   2.998   0.067  0.5339  3.5110  1.9821
  517MPD2    N1 7741   2.349   2.633  17.492 -0.0976 -0.3737  0.2275
  517MPD2    H7 7742   2.415   2.616  17.568  1.6709  1.0111 -0.9993
  518TMC3    C1 7743   2.431   2.437  17.409 -0.4162 -0.3657 -0.1001
  518TMC3    C2 7744   2.396   2.313  17.380  0.0562  0.2842 -0.9941
  518TMC3    C3 7745   2.500   2.217  17.387  0.8875  0.0327 -0.3014
  518TMC3    C4 7746   2.560   2.481  17.442 -0.0004 -0.0814  0.4020
  518TMC3    C5 7747   2.660   2.378  17.449 -0.1357 -0.0711  0.0004
  518TMC3    C6 7748   2.632   2.251  17.417 -0.2863 -0.2314  0.9908
  518TMC3     C 7749   2.332   2.537  17.398  0.6005 -0.0416 -0.2437
  518TMC3     O 7750   2.256   2.533  17.306  0.0872  0.0702  0.2991
  518TMC3     H 7751   2.293   2.290  17.355 -1.0786  2.4244  1.7556
  518TMC3    H1 7752   2.586   2.586  17.449 -0.8387  0.1226  0.3770
  518TMC3    H2 7753   2.703   2.169  17.407  0.7236  0.6766  0.7581
  518TMC3    C7 7754   2.793   2.421  17.476  0.3437  0.2309  0.4492
  518TMC3    C8 7755   2.461   2.077  17.383 -0.1156  0.1870 -0.2964
  518TMC3    O1 7756   2.831   2.535  17.464  0.4075  0.3840 -0.6247
  518TMC3    O2 7757   2.543   1.990  17.351  0.2509  0.1455 -0.4204
  519MPD2     C 7758   4.117   1.021  14.873  0.4812  0.4797 -0.3361
  519MPD2    C1 7759   4.087   1.087  14.759 -0.2773 -0.1422 -0.5860
  519MPD2    C2 7760   4.147   1.038  14.639  0.2326  0.2318 -0.3598
  519MPD2    C3 7761   4.213   0.916  14.629 -0.1059 -0.2520  0.3298
  519MPD2    C4 7762   4.240   0.851  14.750  0.5307  0.2981  0.3027
  519MPD2    C5 7763   4.191   0.908  14.868  0.5927 -0.5741 -0.0340
  519MPD2     H 7764   4.118   1.090  14.548 -0.4651  0.6875  0.1251
  519MPD2    H1 7765   4.284   0.753  14.758 -1.3536 -0.2755  3.7991
  519MPD2    H2 7766   4.072   1.061  14.963 -1.0859 -0.2329 -0.8023
  519MPD2    H3 7767   4.216   0.863  14.964  1.4951  1.4348  0.6601
  519MPD2     N 7768   4.235   0.834  14.512 -0.3501  0.8034  0.1938
  519MPD2    H5 7769   4.281   0.745  14.526 -1.3106  0.1038 -1.2265
  519MPD2    N1 7770   3.984   1.188  14.762 -0.1408  0.2884 -0.2155
  519MPD2    H7 7771   3.929   1.210  14.844  0.2408 -0.3477  0.2103
  520TMC3    C1 7772   4.223   0.766  14.282  0.1900  0.3391 -0.0591
  520TMC3    C2 7773   4.159   0.768  14.156  0.1888  1.3522  0.3998
  520TMC3    C3 7774   4.226   0.710  14.059  0.1371  0.1739  0.3668
  520TMC3    C4 7775   4.340   0.692  14.305  0.4897  0.3927  0.3327
  520TMC3    C5 7776   4.399   0.635  14.195  0.4780 -0.0548  0.4629
  520TMC3    C6 7777   4.345   0.643  14.072 -0.8181  0.6563 -0.1591
  520TMC3     C 7778   4.185   0.858  14.382 -0.0601 -0.1490  0.5820
  520TMC3     O 7779   4.115   0.953  14.355 -0.5015 -0.0019 -0.3811
  520TMC3     H 7780   4.069   0.826  14.141  0.1966  1.5763  1.2170
  520TMC3    H1 7781   4.393   0.680  14.399 -0.1252 -0.4056  0.5813
  520TMC3    H2 7782   4.378   0.581  13.989 -1.0314 -0.3246  0.4855
  520TMC3    C7 7783   4.514   0.546  14.212  0.2770 -0.1858 -0.5067
  520TMC3    C8 7784   4.167   0.712  13.927 -0.4597 -0.1449  0.0618
  520TMC3    O1 7785   4.544   0.502  14.325 -0.8125 -0.1584 -0.2873
  520TMC3    O2 7786   4.246   0.687  13.836 -0.2694 -0.6942  0.4710
  521MPD2     C 7787   0.114   3.135  17.525  0.0009  0.3491  0.3738
  521MPD2    C1 7788   0.156   3.217  17.416  0.8170  0.5201  0.3585
  521MPD2    C2 7789   0.292   3.229  17.395  0.1861  0.5009 -0.2309
  521MPD2    C3 7790   0.381   3.156  17.479 -0.3421 -0.8733 -0.5905
  521MPD2    C4 7791   0.331   3.089  17.588  0.2506 -0.7999  0.2855
  521MPD2    C5 7792   0.203   3.091  17.618 -0.2032  0.3762 -0.2946
  521MPD2     H 7793   0.327   3.275  17.303  1.4481  0.1825  0.0932
  521MPD2    H1 7794   0.389   3.015  17.643  2.1572  0.1031 -0.5208
  521MPD2    H2 7795   0.010   3.120  17.553  0.4986 -3.5194  0.0724
  521MPD2    H3 7796   0.172   3.027  17.700 -1.6045  2.5143  0.8138
  521MPD2     N 7797   0.517   3.160  17.443 -0.5064  0.0113  0.0084
  521MPD2    H5 7798   0.544   3.213  17.360 -1.6226  0.4262 -0.0939
  521MPD2    N1 7799   0.055   3.276  17.336  0.0542 -0.4130 -0.1108
  521MPD2    H7 7800   4.698   3.257  17.359 -0.2167 -2.3105 -2.9306
  522TMC3    C1 7801   0.749   3.105  17.443  0.2848  0.2371  0.3261
  522TMC3    C2 7802   0.830   2.999  17.429 -0.1457  0.0198 -0.2240
  522TMC3    C3 7803   0.950   3.024  17.359 -0.1500 -0.4257 -0.0559
  522TMC3    C4 7804   0.778   3.232  17.386  0.0884 -0.0124 -0.0063
  522TMC3    C5 7805   0.899   3.252  17.325 -0.3918 -0.6761  0.3652
  522TMC3    C6 7806   0.986   3.149  17.317 -0.8023 -0.6046 -0.4520
  522TMC3     C 7807   0.616   3.076  17.494  0.0856  0.6233  0.1017
  522TMC3     O 7808   0.601   2.976  17.565  0.2225 -0.1275  0.9073
  522TMC3     H 7809   0.811   2.901  17.472  0.5179 -0.3641 -0.7902
  522TMC3    H1 7810   0.703   3.310  17.394  0.5379  0.2817  1.3893
  522TMC3    H2 7811   1.078   3.169  17.263 -0.0247  1.8877  1.8430
  522TMC3    C7 7812   0.937   3.379  17.284  0.4253 -0.0799 -0.4238
  522TMC3    C8 7813   1.035   2.905  17.332 -0.0306  0.2227  0.2073
  522TMC3    O1 7814   1.055   3.408  17.270  0.3589 -0.0761  0.6505
  522TMC3    O2 7815   1.031   2.804  17.406  0.2758  0.6355 -0.3452
  523MPD2     C 7816   2.979   3.471  10.223  0.1662  0.1122 -0.1039
  523MPD2    C1 7817   2.856   3.419  10.185 -0.3797 -0.1299  0.6381
  523MPD2    C2 7818   2.776   3.495  10.105 -0.0275 -0.1162 -0.1119
  523MPD2    C3 7819   2.803   3.624  10.062  0.5947 -0.5621  0.2773
  523MPD2    C4 7820   2.924   3.670  10.110 -0.0413 -0.2606  0.7407
  523MPD2    C5 7821   3.010   3.602  10.192 -0.2529  0.6359  0.1115
  523MPD2     H 7822   2.679   3.448  10.093 -0.3514  0.3854  0.5076
  523MPD2    H1 7823   2.958   3.772  10.096  0.5410 -0.8346 -2.0164
  523MPD2    H2 7824   3.052   3.414  10.280 -2.4008 -1.2701  1.8328
  523MPD2    H3 7825   3.105   3.643  10.226  0.4442 -0.8488 -0.0291
  523MPD2     N 7826   2.713   3.696   9.975  0.0949 -0.5699  0.7726
  523MPD2    H5 7827   2.730   3.791   9.945  0.8684 -0.1906  2.3916
  523MPD2    N1 7828   2.828   3.285  10.223 -0.3775  0.0310 -0.2211
  523MPD2    H7 7829   2.898   3.235  10.277 -0.6944 -0.5770 -0.3730
  524TMC3    C1 7830   2.524   3.723   9.826  0.2933  0.3531 -0.2838
  524TMC3    C2 7831   2.464   3.665   9.714  0.2898 -0.5762 -0.2320
  524TMC3    C3 7832   2.382   3.747   9.645 -0.1266 -0.2632 -0.5431
  524TMC3    C4 7833   2.502   3.850   9.866  0.8874 -0.3016  0.0134
  524TMC3    C5 7834   2.407   3.919   9.798 -0.4475  0.2452  0.6909
  524TMC3    C6 7835   2.350   3.876   9.687 -0.1794 -0.8412 -0.2646
  524TMC3     C 7836   2.614   3.636   9.903 -0.8822  0.3554 -0.2642
  524TMC3     O 7837   2.593   3.517   9.883  0.0319  0.6739  0.0190
  524TMC3     H 7838   2.468   3.559   9.688  1.2704 -0.6712  0.2867
  524TMC3    H1 7839   2.525   3.868   9.970 -1.6668 -1.0925  0.7316
  524TMC3    H2 7840   2.271   3.919   9.627 -0.7000 -1.1823  0.1616
  524TMC3    C7 7841   2.368   4.044   9.852  0.6792 -0.1439  0.0429
  524TMC3    C8 7842   2.289   3.678   9.556 -0.3972  0.3964 -0.9320
  524TMC3    O1 7843   2.449   4.111   9.916 -0.1082 -0.2235  0.1964
  524TMC3    O2 7844   2.181   3.734   9.541 -0.0309 -0.1364  1.0058
  525MPD2     C 7845   1.163   0.275  14.651  0.8407 -0.1881 -0.4994
  525MPD2    C1 7846   1.226   0.327  14.763  0.6124  0.1738  0.2537
  525MPD2    C2 7847   1.316   0.432  14.748 -0.5151 -0.0121  0.5108
  525MPD2    C3 7848   1.334   0.475  14.621 -0.1526  0.1950  0.6168
  525MPD2    C4 7849   1.258   0.431  14.511  0.0084  0.2950  0.0701
  525MPD2    C5 7850   1.170   0.330  14.523 -0.6960  0.1510 -0.3642
  525MPD2     H 7851   1.363   0.477  14.834  0.9313  0.0305 -0.3062
  525MPD2    H1 7852   1.272   0.489  14.421 -0.7800 -2.1273 -1.6052
  525MPD2    H2 7853   1.105   0.184  14.653  0.2945  0.1424 -1.2640
  525MPD2    H3 7854   1.132   0.281  14.433 -0.2898 -0.1819 -0.3513
  525MPD2     N 7855   1.424   0.581  14.590 -0.1876  0.1518 -0.1877
  525MPD2    H5 7856   1.422   0.616  14.495 -0.5655 -1.7003 -0.8612
  525MPD2    N1 7857   1.208   0.271  14.892 -1.0878 -0.0156 -0.1598
  525MPD2    H7 7858   1.275   0.305  14.960  0.1683 -3.1443  0.1641
  526TMC3    C1 7859   1.131   0.148  15.065  0.2890 -0.1439  0.0996
  526TMC3    C2 7860   1.015   0.131  15.135  0.2606 -0.4757  0.9634
  526TMC3    C3 7861   1.020   0.052  15.246 -0.3191 -0.0131  0.3601
  526TMC3    C4 7862   1.253   0.097  15.103  0.6436 -0.3606  0.0017
  526TMC3    C5 7863   1.248   0.014  15.212  0.1781  0.2157 -0.6162
  526TMC3    C6 7864   1.134   4.737  15.288  0.2336 -0.6912 -0.2052
  526TMC3     C 7865   1.111   0.187  14.933  0.3802 -0.1396 -0.1039
  526TMC3     O 7866   0.998   0.168  14.882  0.8143  0.1227 -0.4028
  526TMC3     H 7867   0.917   0.167  15.104 -0.5300 -1.5432  2.1575
  526TMC3    H1 7868   1.349   0.115  15.058 -1.4639  0.9066 -4.0111
  526TMC3    H2 7869   1.137   4.664  15.368 -0.7350  1.3603  1.6938
  526TMC3    C7 7870   1.338   4.642  15.202  0.0259 -0.0281  0.6464
  526TMC3    C8 7871   0.933   0.086  15.348 -0.4363 -0.2251 -1.3560
  526TMC3    O1 7872   1.348   4.568  15.299 -0.1192 -0.1225  0.5131
  526TMC3    O2 7873   0.972   0.095  15.464 -0.0589 -0.0322  0.1291
  527MPD2     C 7874   4.170   3.877   0.880 -0.2275  0.7418  0.3449
  527MPD2    C1 7875   4.145   3.773   0.964 -0.8110 -0.3999 -0.0498
  527MPD2    C2 7876   4.195   3.647   0.940 -0.3171  0.2327 -1.0701
  527MPD2    C3 7877   4.265   3.622   0.819  0.1795 -0.0081 -0.2291
  527MPD2    C4 7878   4.275   3.725   0.733 -0.0128 -0.5257  0.6494
  527MPD2    C5 7879   4.221   3.846   0.760 -0.7775  0.5771  0.7393
  527MPD2     H 7880   4.175   3.567   1.010  1.5014 -0.1217 -0.9560
  527MPD2    H1 7881   4.310   3.704   0.632 -1.3519  1.0520 -0.1401
  527MPD2    H2 7882   4.139   3.978   0.904  1.5485  1.4269 -0.2127
  527MPD2    H3 7883   4.223   3.926   0.686 -1.5352 -1.2975 -1.2858
  527MPD2     N 7884   4.283   3.492   0.772 -0.2304 -0.5377 -0.5205
  527MPD2    H5 7885   4.224   3.422   0.815 -0.1263  0.0019  0.5058
  527MPD2    N1 7886   4.066   3.785   1.083 -0.2667  0.9348 -0.1922
  527MPD2    H7 7887   4.082   3.709   1.149  0.3755  1.7874  0.6379
  528TMC3    C1 7888   3.909   3.871   1.233 -0.8352 -0.2798 -0.4230
  528TMC3    C2 7889   3.968   3.806   1.342 -0.4015 -0.4577 -0.1444
  528TMC3    C3 7890   3.891   3.788   1.452  0.6441 -0.1276 -0.3901
  528TMC3    C4 7891   3.779   3.917   1.241  0.0456  1.0764 -0.0259
  528TMC3    C5 7892   3.708   3.890   1.354  0.2452 -0.3840  0.2289
  528TMC3    C6 7893   3.765   3.831   1.458 -0.3194 -0.7043  0.1639
  528TMC3     C 7894   3.979   3.888   1.106 -0.8545 -0.1954  0.1795
  528TMC3     O 7895   3.948   3.981   1.036 -0.1533  0.2512 -0.1413
  528TMC3     H 7896   4.070   3.772   1.335  0.0678  0.7222  0.8663
  528TMC3    H1 7897   3.751   3.994   1.169 -0.2662  0.9141 -0.0807
  528TMC3    H2 7898   3.690   3.799   1.530 -2.8427 -0.5617 -2.4217
  528TMC3    C7 7899   3.565   3.911   1.366  0.1096  0.1681 -0.1348
  528TMC3    C8 7900   3.959   3.790   1.575 -0.9721  0.2556 -0.0632
  528TMC3    O1 7901   3.521   3.941   1.478 -0.6677  0.1968  0.6226
  528TMC3    O2 7902   4.080   3.809   1.574 -0.3002  0.0824 -0.7440
  529MPD2     C 7903   0.875   1.615   0.931 -0.0291 -0.3980  0.4607
  529MPD2    C1 7904   0.967   1.630   0.830  0.1591  0.1475 -0.4240
  529MPD2    C2 7905   0.976   1.751   0.766 -0.1580  0.0817  0.3546
  529MPD2    C3 7906   0.885   1.851   0.795  0.1659  0.2081 -1.1773
  529MPD2    C4 7907   0.782   1.834   0.883  0.8377  0.0202 -0.1860
  529MPD2    C5 7908   0.787   1.717   0.948  0.0929 -0.7594  0.3205
  529MPD2     H 7909   1.047   1.761   0.685  0.6493 -1.4169  0.8899
  529MPD2    H1 7910   0.704   1.909   0.897 -0.0685 -0.6040 -1.8970
  529MPD2    H2 7911   0.875   1.533   1.002 -0.7118  0.3015  1.2797
  529MPD2    H3 7912   0.703   1.712   1.016  1.0837  1.2022  1.6999
  529MPD2     N 7913   0.878   1.971   0.730 -0.5152 -0.9735 -0.8232
  529MPD2    H5 7914   0.796   2.025   0.754  0.0746  0.4226 -1.9364
  529MPD2    N1 7915   1.059   1.527   0.788  0.5454  0.0311 -0.6044
  529MPD2    H7 7916   1.117   1.550   0.708  1.2686 -0.3316 -0.1856
  530TMC3    C1 7917   1.169   1.316   0.779  0.9100 -0.1193 -0.1494
  530TMC3    C2 7918   1.267   1.373   0.710 -0.0280  0.0920  0.1169
  530TMC3    C3 7919   1.354   1.290   0.644  0.0672  0.2464 -0.3703
  530TMC3    C4 7920   1.161   1.184   0.814  0.6013  0.1162 -1.0805
  530TMC3    C5 7921   1.253   1.105   0.756 -0.8362  0.2516  0.4145
  530TMC3    C6 7922   1.346   1.156   0.663  0.3841 -0.1769  0.1428
  530TMC3     C 7923   1.064   1.400   0.843 -0.3280  0.3297 -1.1235
  530TMC3     O 7924   0.974   1.344   0.905 -0.4842 -0.1854 -0.4435
  530TMC3     H 7925   1.285   1.478   0.687  0.5370  0.2038  1.0746
  530TMC3    H1 7926   1.091   1.150   0.889 -0.3334  1.6513 -1.2728
  530TMC3    H2 7927   1.414   1.087   0.614  2.0997  0.7059  1.2817
  530TMC3    C7 7928   1.300   0.982   0.818 -0.3939  0.0833 -0.6096
  530TMC3    C8 7929   1.495   1.344   0.661 -0.3452 -0.0671 -0.1064
  530TMC3    O1 7930   1.412   0.953   0.775 -0.2066  0.2541 -0.1811
  530TMC3    O2 7931   1.515   1.459   0.649 -0.5452 -0.1501  0.5010
  531MPD2     C 7932   4.459   4.572  13.109  0.0828 -0.4468  0.5536
  531MPD2    C1 7933   4.425   4.439  13.122  0.5928  0.5774 -0.5654
  531MPD2    C2 7934   4.445   4.354  13.022 -0.6240  0.5040 -0.7127
  531MPD2    C3 7935   4.472   4.395  12.893 -0.3663 -0.6725  0.4411
  531MPD2    C4 7936   4.494   4.525  12.870  0.0961  0.3909 -0.5604
  531MPD2    C5 7937   4.493   4.613  12.980  0.3101  0.1229 -0.3494
  531MPD2     H 7938   4.437   4.248  13.044  0.0252  0.2201 -1.8396
  531MPD2    H1 7939   4.510   4.566  12.771 -6.1044  2.2843 -0.8203
  531MPD2    H2 7940   4.466   4.637  13.196  0.8900  1.6003 -1.0326
  531MPD2    H3 7941   4.514   4.719  12.969  3.0557 -0.4229 -0.4085
  531MPD2     N 7942   4.486   4.298  12.789 -0.3664  0.6691  0.4379
  531MPD2    H5 7943   4.482   4.204  12.828 -1.7471  0.4033 -0.3527
  531MPD2    N1 7944   4.387   4.396  13.254 -0.4416  0.2406 -0.4857
  531MPD2    H7 7945   4.387   4.459  13.333 -0.0586  0.4522 -0.6525
  532TMC3    C1 7946   4.368   4.232  13.425 -0.1943  0.4759  0.4112
  532TMC3    C2 7947   4.360   4.098  13.432 -0.4594  0.2930  0.0078
  532TMC3    C3 7948   4.453   4.023  13.498  0.8892  0.5399  0.3905
  532TMC3    C4 7949   4.462   4.298  13.503 -0.0544 -0.8711  0.0419
  532TMC3    C5 7950   4.548   4.222  13.574 -0.3789 -0.4367  0.7534
  532TMC3    C6 7951   4.544   4.084  13.572 -0.1766 -0.3429 -0.2403
  532TMC3     C 7952   4.337   4.269  13.288 -0.4767 -0.6708  0.5498
  532TMC3     O 7953   4.303   4.177  13.215 -0.3797 -0.0079 -0.0518
  532TMC3     H 7954   4.280   4.046  13.381  0.8446 -1.8506  0.1672
  532TMC3    H1 7955   4.472   4.406  13.507  3.8536 -1.1875 -1.9536
  532TMC3    H2 7956   4.619   4.024  13.622  1.0540  0.0542 -1.5953
  532TMC3    C7 7957   4.640   4.300  13.656 -0.9766 -0.1462  0.0831
  532TMC3    C8 7958   4.522   3.935  13.415 -1.0748  0.5561  0.9499
  532TMC3    O1 7959   4.587   4.394  13.714 -0.1719 -0.1783 -0.0835
  532TMC3    O2 7960   4.611   3.867  13.470 -0.0633 -0.4149  0.3261
  533TMC3    C1 7961   1.533   0.798  14.635 -0.9002  0.1390 -0.1089
  533TMC3    C2 7962   1.601   0.878  14.722 -0.4248  0.2910  0.5984
  533TMC3    C3 7963   1.562   1.004  14.741  0.3696 -0.6220 -0.1655
  533TMC3    C4 7964   1.431   0.857  14.559 -0.2725 -0.8764 -0.2211
  533TMC3    C5 7965   1.393   0.988  14.584 -0.8521  0.8682  0.0471
  533TMC3    C6 7966   1.464   1.064  14.673 -0.2555  0.7509  0.3615
  533TMC3     C 7967   1.509   0.656  14.674  0.3175 -0.4490 -0.5813
  533TMC3     O 7968   1.562   0.630  14.780 -0.1572 -0.1900 -0.1730
  533TMC3     H 7969   1.664   0.834  14.798 -0.7948 -1.3980 -0.0700
  533TMC3    H1 7970   1.373   0.791  14.495  0.6018  0.2210 -2.1412
  533TMC3    H2 7971   1.429   1.166  14.682  0.7001  1.1547 -0.4459
  533TMC3    C7 7972   1.251   0.991  14.608 -0.1658  0.4678 -0.4303
  533TMC3    C8 7973   1.634   1.074  14.843 -0.1617 -0.1877 -0.0394
  533TMC3    O1 7974   1.193   0.887  14.577 -0.2139  0.6676  0.1629
  533TMC3    O2 7975   1.727   1.025  14.904 -0.1871 -0.1235  0.9895
  534MPD2     C 7976   3.835   2.386   1.601 -0.2974 -0.2826  0.1988
  534MPD2    C1 7977   3.868   2.358   1.468 -0.3094  0.2388  0.0791
  534MPD2    C2 7978   3.769   2.296   1.390  0.3468  0.4553  0.2484
  534MPD2    C3 7979   3.641   2.271   1.440  0.0034  0.1357  0.1519
  534MPD2    C4 7980   3.616   2.291   1.571  0.2127  0.1535  0.0165
  534MPD2    C5 7981   3.709   2.353   1.654 -0.5499 -0.1173 -0.4253
  534MPD2     H 7982   3.787   2.280   1.285 -1.7924  2.2837 -0.3910
  534MPD2    H1 7983   3.520   2.278   1.619 -0.6703 -1.9762 -2.3521
  534MPD2    H2 7984   3.907   2.436   1.666  2.1222  0.0098 -2.6881
  534MPD2    H3 7985   3.689   2.378   1.758 -0.0697 -0.0285 -0.3541
  534MPD2     N 7986   3.540   2.212   1.354 -0.1812  0.2440 -0.8364
  534MPD2    H5 7987   3.473   2.151   1.400  0.5885  1.3473  1.7992
  534MPD2    N1 7988   4.001   2.377   1.417 -0.1299 -0.0780  0.4442
  534MPD2    H7 7989   4.005   2.359   1.317 -0.0822  0.8610  0.2777
  535TMC3    C1 7990   3.436   2.155   1.144  0.1819 -0.6181 -0.3234
  535TMC3    C2 7991   3.419   2.024   1.185 -0.3319 -0.2350  0.6007
  535TMC3    C3 7992   3.332   1.949   1.112 -0.1682  0.4022  0.9360
  535TMC3    C4 7993   3.367   2.215   1.044  0.2343  0.0015 -0.6492
  535TMC3    C5 7994   3.275   2.135   0.981  0.5363  0.5276  0.1944
  535TMC3    C6 7995   3.251   2.010   1.025 -0.2862 -0.4156 -0.3328
  535TMC3     C 7996   3.517   2.245   1.221 -0.8106  0.5570 -0.2979
  535TMC3     O 7997   3.566   2.342   1.164 -0.5532  0.0504  0.0375
  535TMC3     H 7998   3.457   1.982   1.278 -0.0202 -0.0508  0.5545
  535TMC3    H1 7999   3.395   2.311   1.003  1.4134  0.4246  1.1458
  535TMC3    H2 8000   3.183   1.944   0.973 -0.7663 -0.2076  0.0318
  535TMC3    C7 8001   3.223   2.162   0.850  0.0257 -0.0800  0.4210
  535TMC3    C8 8002   3.298   1.810   1.154  1.0922  0.3339 -0.1682
  535TMC3    O1 8003   3.167   2.077   0.780 -0.3598  0.4658  0.2143
  535TMC3    O2 8004   3.197   1.764   1.097 -0.4489 -0.1042 -0.0320
  536MPD2     C 8005   2.362   0.167  16.244  1.1500  0.1033 -0.1881
  536MPD2    C1 8006   2.234   0.122  16.268 -0.1955 -0.1770  0.4855
  536MPD2    C2 8007   2.133   0.161  16.175 -0.0377 -0.3828 -0.0317
  536MPD2    C3 8008   2.161   0.230  16.060 -0.1929 -0.2874  0.3715
  536MPD2    C4 8009   2.289   0.268  16.042 -0.0345 -0.1739  0.7455
  536MPD2    C5 8010   2.392   0.239  16.132  0.4073 -1.0337 -0.7778
  536MPD2     H 8011   2.034   0.120  16.191 -0.2823  0.0876 -0.3641
  536MPD2    H1 8012   2.323   0.333  15.962 -0.4802  0.2420  0.8916
  536MPD2    H2 8013   2.446   0.144  16.308  0.2490  1.1965  1.4058
  536MPD2    H3 8014   2.489   0.285  16.118 -0.5487  1.2804  0.1263
  536MPD2     N 8015   2.071   0.254  15.950 -0.1762  0.4088  0.3455
  536MPD2    H5 8016   2.122   0.287  15.869  1.8945 -1.6096  0.8273
  536MPD2    N1 8017   2.206   0.049  16.382 -0.8917 -0.2500  0.0180
  536MPD2    H7 8018   2.283   0.035  16.446  0.3834  0.3661 -1.3777
  537TMC3    C1 8019   2.091   4.675  16.548  0.7231  0.2705  0.2051
  537TMC3    C2 8020   2.147   4.739  16.654 -0.1187  0.3001 -0.4226
  537TMC3    C3 8021   2.139   4.670  16.772  0.4154  0.3433 -0.2604
  537TMC3    C4 8022   2.044   4.548  16.553 -0.3080  0.3441  0.1088
  537TMC3    C5 8023   2.061   4.475  16.670  0.2790 -0.2481 -0.3937
  537TMC3    C6 8024   2.101   4.542  16.784 -0.5546  1.0551  0.7915
  537TMC3     C 8025   2.087   4.736  16.413 -0.3757  0.5400 -0.6636
  537TMC3     O 8026   1.979   4.726  16.349 -0.1343 -0.0215 -0.0270
  537TMC3     H 8027   2.170   0.103  16.632 -0.5109  0.8846  1.9012
  537TMC3    H1 8028   2.002   4.502  16.465  2.0163  0.4657 -1.0688
  537TMC3    H2 8029   2.111   4.490  16.879 -2.1558  0.2026  0.5146
  537TMC3    C7 8030   1.971   4.364  16.694  0.3143 -0.3619  0.1512
  537TMC3    C8 8031   2.202   4.735  16.889 -0.2186 -0.0865 -0.5682
  537TMC3    O1 8032   1.863   4.364  16.637 -0.0687  0.5859 -0.4149
  537TMC3    O2 8033   2.226   4.667  16.985  0.1138  0.0386  0.2130
  538TMC3    C1 8034   3.112   3.112  11.162  0.5517 -0.7633 -0.3445
  538TMC3    C2 8035   3.230   3.050  11.189 -0.0919 -0.5509  0.3736
  538TMC3    C3 8036   3.334   3.070  11.100 -0.0460  0.1717 -0.0771
  538TMC3    C4 8037   3.089   3.192  11.055 -0.4117 -0.2967 -0.3957
  538TMC3    C5 8038   3.195   3.201  10.968  0.2869  0.4028  0.2450
  538TMC3    C6 8039   3.317   3.145  10.990  0.0987 -0.2530  0.1262
  538TMC3     C 8040   3.024   3.134  11.272  0.3229 -0.6086  0.3747
  538TMC3     O 8041   2.909   3.158  11.234  0.4364 -0.1440 -0.6443
  538TMC3     H 8042   3.231   2.976  11.268  1.7328  0.0157  0.8918
  538TMC3    H1 8043   2.988   3.227  11.039 -0.6580 -1.1107 -0.6360
  538TMC3    H2 8044   3.397   3.164  10.919 -2.3139  4.7576 -1.2774
  538TMC3    C7 8045   3.190   3.284  10.851  1.3779 -0.2857 -0.5289
  538TMC3    C8 8046   3.442   2.969  11.112  0.7163  0.3875  0.5011
  538TMC3    O1 8047   3.293   3.340  10.798  0.7273 -0.2682 -0.4896
  538TMC3    O2 8048   3.416   2.869  11.175  0.2733 -0.1580  0.4512
  539MPD2     C 8049   3.210   2.268  11.983  0.1497 -0.2325  0.6422
  539MPD2    C1 8050   3.150   2.231  11.863  0.6095 -0.8193 -0.9577
  539MPD2    C2 8051   3.031   2.284  11.829  0.5472 -0.7125 -0.0942
  539MPD2    C3 8052   2.975   2.382  11.905 -0.1790 -0.4442 -0.5341
  539MPD2    C4 8053   3.037   2.428  12.017  0.3580 -0.6740  0.0383
  539MPD2    C5 8054   3.154   2.362  12.062 -0.8007 -0.3575  0.0558
  539MPD2     H 8055   2.985   2.245  11.738  0.3975  3.4297 -1.7895
  539MPD2    H1 8056   2.988   2.498  12.083  0.2086 -1.8342  1.1524
  539MPD2    H2 8057   3.300   2.213  12.008  0.3482  0.8025  2.2200
  539MPD2    H3 8058   3.199   2.380  12.159  1.1948 -1.0725 -0.7403
  539MPD2     N 8059   2.859   2.455  11.858 -0.0715  1.0427 -0.7919
  539MPD2    H5 8060   2.854   2.552  11.887  1.7157  1.4240 -1.7826
  539MPD2    N1 8061   3.225   2.140  11.782  0.1549 -0.1099 -0.3867
  539MPD2    H7 8062   3.321   2.119  11.805 -0.5047  0.5678  3.0405
  540TMC3    C1 8063   2.682   2.514  11.714  0.3321  0.2802  0.1656
  540TMC3    C2 8064   2.604   2.485  11.608 -0.4580 -0.5327 -0.2943
  540TMC3    C3 8065   2.560   2.586  11.528 -0.1116 -0.1029  0.5511
  540TMC3    C4 8066   2.703   2.639  11.760  0.0377 -0.0876 -0.5820
  540TMC3    C5 8067   2.663   2.740  11.684  0.2151 -0.0591 -0.4224
  540TMC3    C6 8068   2.600   2.716  11.560  0.0839 -0.0960  0.1998
  540TMC3     C 8069   2.770   2.413  11.763 -0.1448 -0.4608  0.1991
  540TMC3     O 8070   2.744   2.302  11.728  0.2355 -0.3758  0.6218
  540TMC3     H 8071   2.588   2.383  11.576  0.6266 -0.4434 -1.1289
  540TMC3    H1 8072   2.756   2.674  11.848 -1.1672  1.5397 -0.5174
  540TMC3    H2 8073   2.577   2.808  11.507 -1.2349 -0.4609  0.1332
  540TMC3    C7 8074   2.652   2.878  11.745  0.1180  0.3792  0.2604
  540TMC3    C8 8075   2.555   2.547  11.386  0.3276 -0.0035  0.7138
  540TMC3    O1 8076   2.574   2.954  11.696  0.5858 -1.0367 -0.4234
  540TMC3    O2 8077   2.629   2.455  11.364 -0.0075  0.1749 -0.0631
  541MPD2     C 8078   1.421   3.891  13.192  0.0567 -0.3946  0.2662
  541MPD2    C1 8079   1.296   3.949  13.173  0.6362 -1.0879  0.6138
  541MPD2    C2 8080   1.281   4.022  13.055  0.2745 -0.2016  0.3433
  541MPD2    C3 8081   1.372   4.018  12.945 -0.5586  0.5539  0.6301
  541MPD2    C4 8082   1.493   3.963  12.973  0.0415 -0.0220  0.3826
  541MPD2    C5 8083   1.522   3.906  13.096  0.1209 -0.5290 -0.3192
  541MPD2     H 8084   1.190   4.080  13.047  1.0047  0.6974 -1.4722
  541MPD2    H1 8085   1.573   3.957  12.900 -0.6007  0.4520 -0.3694
  541MPD2    H2 8086   1.443   3.834  13.281  0.7357 -1.3423 -0.5043
  541MPD2    H3 8087   1.622   3.867  13.112  0.1063 -0.4666 -0.0718
  541MPD2     N 8088   1.349   4.072  12.811  0.1534  0.2180 -0.0686
  541MPD2    H5 8089   1.426   4.058  12.746 -0.2712  0.2206 -0.5722
  541MPD2    N1 8090   1.199   3.935  13.271  0.8534  0.0407  0.0576
  541MPD2    H7 8091   1.223   3.878  13.352  1.8534  0.9217  0.3797
  542TMC3    C1 8092   1.216   4.139  12.629  0.5027  0.2419 -0.8056
  542TMC3    C2 8093   1.298   4.075  12.541 -0.3857 -0.3171 -0.4155
  542TMC3    C3 8094   1.282   4.113  12.408 -0.5416  0.2205 -0.7915
  542TMC3    C4 8095   1.131   4.235  12.587  0.3760  0.4735  0.0215
  542TMC3    C5 8096   1.114   4.271  12.458  0.4327 -0.4691  1.1107
  542TMC3    C6 8097   1.193   4.205  12.373 -0.8885  0.0612  0.1097
  542TMC3     C 8098   1.228   4.124  12.769 -0.5475  0.5686  0.7934
  542TMC3     O 8099   1.138   4.159  12.837 -0.0252 -0.0742 -0.0391
  542TMC3     H 8100   1.360   3.991  12.573 -0.8435 -0.7728 -0.7307
  542TMC3    H1 8101   1.104   4.306  12.664  1.7950  1.4602 -0.3950
  542TMC3    H2 8102   1.185   4.242  12.271  0.6904  4.1584  1.4939
  542TMC3    C7 8103   1.078   4.412  12.427  0.5041  0.2086 -0.0844
  542TMC3    C8 8104   1.362   4.063  12.295  0.9558  0.8355 -0.0024
  542TMC3    O1 8105   1.070   4.482  12.529 -0.1695  0.1469  0.1991
  542TMC3    O2 8106   1.351   4.126  12.192 -0.0215 -0.1675 -0.5597
  543TMC3    C1 8107   1.206   1.076  17.467 -0.2638 -0.3534 -0.2429
  543TMC3    C2 8108   1.247   0.965  17.535  0.1897  0.0954  0.2487
  543TMC3    C3 8109   1.183   0.936  17.655  0.5307 -0.0513  0.2532
  543TMC3    C4 8110   1.104   1.159  17.518  0.5736 -0.3951  0.6492
  543TMC3    C5 8111   1.063   1.131  17.646  0.4340 -0.2000 -0.2805
  543TMC3    C6 8112   1.087   1.012  17.707  0.1514  0.0277  0.3709
  543TMC3     C 8113   1.242   1.080  17.332 -0.5270  0.4094  0.0613
  543TMC3     O 8114   1.294   0.979  17.291  0.0024 -0.1282 -0.6298
  543TMC3     H 8115   1.337   0.919  17.495  0.6435  0.3484  0.9765
  543TMC3    H1 8116   1.058   1.239  17.461 -0.5435 -0.2666  1.7360
  543TMC3    H2 8117   1.029   0.983   0.039 -0.9672 -3.0058 -1.3823
  543TMC3    C7 8118   0.974   1.227  17.717 -0.5801 -0.6124  0.0930
  543TMC3    C8 8119   1.201   0.800  17.700 -0.7494  0.1011  0.1669
  543TMC3    O1 8120   0.938   1.180   0.068 -0.3723 -0.4281  0.3743
  543TMC3    O2 8121   1.256   0.731  17.618  0.4307 -0.0867 -0.0990
  544MPD2     C 8122   1.204   0.406   0.255 -1.0539  0.0496  0.2818
  544MPD2    C1 8123   1.227   0.412   0.122  0.3939  0.0119 -0.0459
  544MPD2    C2 8124   1.194   0.529   0.060 -0.6779  0.2030 -0.1109
  544MPD2    C3 8125   1.170   0.644   0.129  0.5743 -0.3306 -0.3863
  544MPD2    C4 8126   1.144   0.635   0.262 -0.2531  0.2887 -0.2517
  544MPD2    C5 8127   1.151   0.517   0.324 -0.4239  0.3216 -0.4550
  544MPD2     H 8128   1.188   0.533  17.707 -0.8147 -1.1681 -0.1512
  544MPD2    H1 8129   1.116   0.712   0.333 -1.2659  0.1826 -0.5315
  544MPD2    H2 8130   1.215   0.310   0.306 -0.1984  0.7309  1.3739
  544MPD2    H3 8131   1.129   0.505   0.430  0.9605 -0.9766 -0.3319
  544MPD2     N 8132   1.159   0.771   0.073  0.7987 -0.5884 -0.0432
  544MPD2    H5 8133   1.133   0.846   0.137 -0.6093 -0.3174 -0.9131
  544MPD2    N1 8134   1.247   0.289   0.052  0.1690 -0.0867 -0.7677
  544MPD2    H7 8135   1.275   0.216   0.118 -1.7391 -1.4444 -1.4649
  545TMC3    C1 8136   1.235   0.131  17.629  0.0035 -0.8181  0.7883
  545TMC3    C2 8137   1.217   0.105  17.492  0.3560  0.0470 -0.0363
  545TMC3    C3 8138   1.191   4.717  17.449  0.0701 -0.6888  0.7573
  545TMC3    C4 8139   1.205   0.035  17.724 -0.3594  0.3140 -0.1671
  545TMC3    C5 8140   1.167   4.653  17.673 -0.1218 -0.1524 -0.2727
  545TMC3    C6 8141   1.165   4.615  17.544 -0.2867  0.5933 -0.3516
  545TMC3     C 8142   1.249   0.272  17.667 -1.2683  0.6593 -0.0324
  545TMC3     O 8143   1.231   0.353  17.577 -0.4083  0.2869 -0.0894
  545TMC3     H 8144   1.262   0.184  17.432  2.5778 -0.6381  0.7339
  545TMC3    H1 8145   1.204   0.047   0.076  0.2712 -1.6764  0.0462
  545TMC3    H2 8146   1.122   4.521  17.511  1.0738  0.2949 -1.2933
  545TMC3    C7 8147   1.133   4.553   0.013  0.5506 -0.0331 -0.3883
  545TMC3    C8 8148   1.184   4.691  17.304  0.1619 -0.7681  0.4623
  545TMC3    O1 8149   1.102   4.591   0.121  0.0241 -0.2988  0.2137
  545TMC3    O2 8150   1.170   4.577  17.274  0.6730  0.2989  0.3587
  546MPD2     C 8151   2.277   0.766  17.511 -0.0905 -0.7069 -0.7310
  546MPD2    C1 8152   2.271   0.740  17.371 -0.0646 -0.7704  0.7477
  546MPD2    C2 8153   2.311   0.833  17.290 -0.6052 -0.2021 -0.5508
  546MPD2    C3 8154   2.353   0.956  17.332 -0.1563 -0.6701 -0.4169
  546MPD2    C4 8155   2.364   0.984  17.466 -0.1675 -0.1305  0.5000
  546MPD2    C5 8156   2.322   0.884  17.555 -0.0229  0.1373 -0.0840
  546MPD2     H 8157   2.303   0.814  17.183  1.1934  0.5854 -0.8308
  546MPD2    H1 8158   2.400   1.079  17.503  0.6262  0.2071 -1.1435
  546MPD2    H2 8159   2.235   0.711  17.595  0.1180 -2.7293 -1.9400
  546MPD2    H3 8160   2.314   0.913  17.659  1.5171 -1.1175  0.3888
  546MPD2     N 8161   2.382   1.061  17.241  0.1843 -0.2065  0.6671
  546MPD2    H5 8162   2.403   1.153  17.279 -2.0835  0.2448  0.8532
  546MPD2    N1 8163   2.216   0.621  17.323 -0.2179 -0.0429  0.6437
  546MPD2    H7 8164   2.204   0.615  17.222  0.6407  0.0116  0.5420
  547TMC3    C1 8165   2.137   0.397  17.313 -0.1285  0.5948  0.6058
  547TMC3    C2 8166   2.079   0.422  17.197 -0.4250 -1.0812  0.7254
  547TMC3    C3 8167   2.041   0.322  17.122 -0.6941  0.4052  0.7104
  547TMC3    C4 8168   2.156   0.274  17.363  0.8863 -0.4626  0.3872
  547TMC3    C5 8169   2.118   0.166  17.287 -0.0266 -1.1697  0.0894
  547TMC3    C6 8170   2.065   0.192  17.161 -0.0740 -0.3971  0.1848
  547TMC3     C 8171   2.183   0.508  17.398  0.1873  0.2786  0.5334
  547TMC3     O 8172   2.173   0.496  17.521  0.0295 -0.7983 -0.1592
  547TMC3     H 8173   2.062   0.522  17.158 -2.0110 -1.4412  0.4862
  547TMC3    H1 8174   2.208   0.261  17.458  1.8213  0.2304 -0.0282
  547TMC3    H2 8175   2.036   0.102  17.107  0.5323 -0.2348 -0.4054
  547TMC3    C7 8176   2.080   0.037  17.347 -0.2875  0.2051 -0.1230
  547TMC3    C8 8177   1.934   0.358  17.027  0.6247 -0.2201  0.4330
  547TMC3    O1 8178   2.004   0.029  17.445 -0.0736  0.2043  0.1937
  547TMC3    O2 8179   1.944   0.470  16.976 -0.1087 -0.3972  0.6127
  548MPD2     C 8180   1.757   0.942  12.966 -0.1932 -0.3934 -0.4995
  548MPD2    C1 8181   1.701   0.821  12.928 -0.3487 -0.5151  0.3488
  548MPD2    C2 8182   1.777   0.725  12.858 -0.0929 -0.3778 -0.3597
  548MPD2    C3 8183   1.910   0.731  12.860 -0.0907  0.9085 -0.2815
  548MPD2    C4 8184   1.962   0.839  12.923  0.4467  0.1081 -0.0136
  548MPD2    C5 8185   1.890   0.940  12.977  0.0654  0.2516  0.4862
  548MPD2     H 8186   1.730   0.647  12.800 -1.2323 -0.4401  0.6561
  548MPD2    H1 8187   2.067   0.865  12.929 -0.0609  1.9296  1.0703
  548MPD2    H2 8188   1.703   1.029  13.001 -0.3583 -0.6796 -0.0445
  548MPD2    H3 8189   1.933   1.035  13.007 -0.6183  0.5830  0.4002
  548MPD2     N 8190   1.989   0.631  12.799 -0.2750  0.1495  0.4579
  548MPD2    H5 8191   1.935   0.556  12.757  1.6454 -1.1637  0.3685
  548MPD2    N1 8192   1.560   0.806  12.953  0.0246 -0.1723 -0.4405
  548MPD2    H7 8193   1.517   0.891  12.986 -1.3807 -0.1371 -2.3705
  549TMC3    C1 8194   1.351   0.729  12.885 -0.0521 -0.0296 -0.3046
  549TMC3    C2 8195   1.310   0.859  12.857 -0.2667  0.6228 -0.0727
  549TMC3    C3 8196   1.171   0.884  12.845  0.1554  1.0420  0.2531
  549TMC3    C4 8197   1.263   0.628  12.872  0.2236 -0.1505  0.0169
  549TMC3    C5 8198   1.135   0.660  12.829 -0.2438 -1.0735 -0.1507
  549TMC3    C6 8199   1.084   0.784  12.817  0.1627  0.0156  0.4035
  549TMC3     C 8200   1.486   0.697  12.923  0.0756  0.2936 -0.1831
  549TMC3     O 8201   1.519   0.583  12.896 -0.0202  0.1571  0.2939
  549TMC3     H 8202   1.384   0.938  12.846 -1.1723  1.7398  1.6916
  549TMC3    H1 8203   1.304   0.529  12.888  0.0707 -0.3880 -1.0875
  549TMC3    H2 8204   0.981   0.810  12.798  0.2432  1.4331  1.9042
  549TMC3    C7 8205   1.047   0.544  12.805  0.6572  0.1422  0.4064
  549TMC3    C8 8206   1.130   1.015  12.788 -0.8990 -0.1393 -1.1599
  549TMC3    O1 8207   0.928   0.567  12.804 -0.2641  0.2138 -0.3739
  549TMC3    O2 8208   1.033   1.024  12.712 -0.2706 -0.7051  0.3563
  550TMC3    C1 8209   1.050   3.594  11.910 -0.4481 -0.3895  0.1961
  550TMC3    C2 8210   1.116   3.620  12.023 -0.8282  0.2967  0.3904
  550TMC3    C3 8211   1.195   3.741  12.039  0.2859  0.6276  0.4674
  550TMC3    C4 8212   1.070   3.675  11.798  0.6767  0.2141  0.2574
  550TMC3    C5 8213   1.161   3.772  11.810 -0.6786  0.1474  0.1730
  550TMC3    C6 8214   1.211   3.817  11.931 -0.6619  0.5229 -0.3914
  550TMC3     C 8215   0.930   3.518  11.919 -0.0212  0.7769 -0.2261
  550TMC3     O 8216   0.940   3.414  11.984 -0.2072 -0.7305 -0.5184
  550TMC3     H 8217   1.112   3.552  12.107 -1.9151 -2.3569 -1.8122
  550TMC3    H1 8218   1.019   3.650  11.706  0.3587 -1.7313  0.9454
  550TMC3    H2 8219   1.252   3.916  11.944 -0.2000  0.2447  0.2605
  550TMC3    C7 8220   1.098   3.879  11.741 -1.0090 -0.2972 -0.0100
  550TMC3    C8 8221   1.138   3.820  12.142  0.3212  0.3250  0.6518
  550TMC3    O1 8222   0.982   3.862  11.705 -0.4987  0.2193 -0.5289
  550TMC3    O2 8223   1.081   3.919  12.096 -0.5204  0.0470  0.3439
  551TMC3    C1 8224   3.380   1.685  13.615  0.7607 -0.0115 -0.0881
  551TMC3    C2 8225   3.494   1.605  13.581 -0.0413 -0.5874 -0.2385
  551TMC3    C3 8226   3.614   1.651  13.607  0.2453  0.7109 -0.3699
  551TMC3    C4 8227   3.391   1.797  13.691  0.3395  0.4617  0.5364
  551TMC3    C5 8228   3.517   1.834  13.736 -0.1329  0.5275  0.6606
  551TMC3    C6 8229   3.627   1.758  13.700  0.2681  0.3671  0.1838
  551TMC3     C 8230   3.274   1.666  13.511 -0.7835 -0.8072 -0.4666
  551TMC3     O 8231   3.269   1.555  13.459 -0.2418  0.2231  0.0938
  551TMC3     H 8232   3.490   1.528  13.504  2.2137  1.8401 -2.7460
  551TMC3    H1 8233   3.307   1.848  13.736  1.0598  0.6118  1.7164
  551TMC3    H2 8234   3.721   1.793  13.741  0.1010 -0.1883  1.0467
  551TMC3    C7 8235   3.534   1.919  13.851  0.1806  0.3406 -0.7415
  551TMC3    C8 8236   3.717   1.636  13.507 -0.5404  0.5388 -0.0542
  551TMC3    O1 8237   3.610   1.875  13.934 -0.4408  0.1565 -0.3383
  551TMC3    O2 8238   3.702   1.551  13.423  0.3835 -0.4850 -1.0214
  552MPD2     C 8239   0.158   4.097  14.353 -0.3604  0.3142 -0.6169
  552MPD2    C1 8240   0.097   3.979  14.393 -0.1552 -0.0808  0.8898
  552MPD2    C2 8241   0.160   3.897  14.482 -0.7099 -0.5293 -0.6842
  552MPD2    C3 8242   0.268   3.945  14.551  0.0155 -0.0164  0.0788
  552MPD2    C4 8243   0.331   4.062  14.519  0.4320  0.3833 -0.2432
  552MPD2    C5 8244   0.278   4.135  14.416 -0.2581 -0.5127 -0.4517
  552MPD2     H 8245   0.108   3.807  14.511  1.0169 -0.8446  1.4033
  552MPD2    H1 8246   0.416   4.096  14.576 -1.5474  2.6494  1.3827
  552MPD2    H2 8247   0.108   4.164  14.285  1.3199  1.3853 -0.8012
  552MPD2    H3 8248   0.320   4.227  14.378  0.0781  0.2994  1.8977
  552MPD2     N 8249   0.339   3.869  14.647  0.3217  0.0245  0.2773
  552MPD2    H5 8250   0.418   3.915  14.692  1.4683 -0.0892 -1.6007
  552MPD2    N1 8251   4.721   3.922  14.335  0.4278  0.1003 -0.2576
  552MPD2    H7 8252   4.692   3.830  14.367 -2.0340  1.1672  0.5437
  553TMC3    C1 8253   4.582   3.869  14.145 -0.1156 -0.6433  0.5145
  553TMC3    C2 8254   4.616   3.886  14.010  0.8183 -0.4202  0.2660
  553TMC3    C3 8255   4.678   3.786  13.949  0.7092  0.8963  0.1893
  553TMC3    C4 8256   4.598   3.742  14.200 -0.6938 -0.5353  0.1626
  553TMC3    C5 8257   4.672   3.646  14.135  0.0240 -0.5960 -0.2829
  553TMC3    C6 8258   4.715   3.668  14.008 -0.0455 -0.1058 -0.1338
  553TMC3     C 8259   4.652   3.976  14.223  0.0575  0.1425 -0.6827
  553TMC3     O 8260   4.661   4.084  14.171  0.4593  0.6771 -0.2769
  553TMC3     H 8261   4.630   3.984  13.966 -2.2060  0.0304  0.2910
  553TMC3    H1 8262   4.551   3.723  14.295  1.4668  0.8999  1.5181
  553TMC3    H2 8263   0.044   3.600  13.958 -1.6409  0.6035 -3.2671
  553TMC3    C7 8264   0.010   3.557  14.222  0.6033 -0.1800 -0.1205
  553TMC3    C8 8265   0.012   3.812  13.821 -0.8570  0.3297  0.4463
  553TMC3    O1 8266   4.686   3.484  14.297  0.3838  0.0383  0.1254
  553TMC3    O2 8267   0.073   3.914  13.808  0.0069 -0.5066 -0.0252
  554TMC3    C1 8268   2.190   2.939  11.783  0.1828 -0.5947  0.0707
  554TMC3    C2 8269   2.078   2.865  11.751  0.0796 -0.1244  0.5200
  554TMC3    C3 8270   2.020   2.888  11.629 -0.3842  0.5778  0.8755
  554TMC3    C4 8271   2.245   3.033  11.697  0.6512 -0.1645 -0.4480
  554TMC3    C5 8272   2.175   3.060  11.581  0.1032 -0.1357 -0.6414
  554TMC3    C6 8273   2.066   2.987  11.548  0.0229  1.0141 -0.3893
  554TMC3     C 8274   2.261   2.918  11.909  0.2676  0.0630 -0.2892
  554TMC3     O 8275   2.306   3.017  11.961 -0.0447 -0.1477 -0.1003
  554TMC3     H 8276   2.041   2.782  11.811  1.5126 -1.7614 -0.8619
  554TMC3    H1 8277   2.333   3.089  11.724 -1.1868  1.0227  3.0910
  554TMC3    H2 8278   2.011   3.017  11.459 -0.5430 -1.1592 -0.7743
  554TMC3    C7 8279   2.244   3.117  11.461  0.0150  0.8507 -0.3330
  554TMC3    C8 8280   1.976   2.773  11.549 -0.1039  0.1879 -0.8195
  554TMC3    O1 8281   2.196   3.083  11.354  0.4670  0.2584 -0.4067
  554TMC3    O2 8282   2.034   2.753  11.444 -0.5444  0.2670  0.2107
  555TMC3    C1 8283   1.589   2.447  14.853  0.8370  0.1091  0.3530
  555TMC3    C2 8284   1.580   2.523  14.964  0.2711 -0.1458  0.8012
  555TMC3    C3 8285   1.610   2.469  15.080  0.0824 -0.6178  0.5838
  555TMC3    C4 8286   1.623   2.314  14.856 -0.2039 -0.4095 -0.1040
  555TMC3    C5 8287   1.636   2.258  14.980 -0.6445  0.1238 -0.3367
  555TMC3    C6 8288   1.625   2.334  15.096 -0.2984 -0.1139  0.0974
  555TMC3     C 8289   1.552   2.500  14.728 -0.2516  0.5010  0.1435
  555TMC3     O 8290   1.616   2.464  14.629  0.1378 -0.4968  0.0434
  555TMC3     H 8291   1.546   2.625  14.958 -2.3312 -1.0030  0.8528
  555TMC3    H1 8292   1.603   2.254  14.768  0.4439 -0.8041  0.0104
  555TMC3    H2 8293   1.641   2.284  15.191  3.0830 -1.0774 -0.9629
  555TMC3    C7 8294   1.585   2.121  15.000  0.2912  0.0803  0.7593
  555TMC3    C8 8295   1.629   2.557  15.197 -0.4134  0.1420 -0.1857
  555TMC3    O1 8296   1.518   2.102  15.101  0.6126 -0.3454  0.5975
  555TMC3    O2 8297   1.598   2.673  15.187  0.2485 -0.1351 -0.0101
  556MPD2     C 8298   4.016   3.910  10.575 -0.1248 -0.1627 -0.1812
  556MPD2    C1 8299   4.015   3.847  10.697 -0.0189 -0.6145 -0.6788
  556MPD2    C2 8300   4.046   3.715  10.705 -0.5886  0.0203  0.6095
  556MPD2    C3 8301   4.088   3.651  10.589  0.0696 -0.2022 -0.3123
  556MPD2    C4 8302   4.111   3.723  10.475 -0.6071 -0.4120  0.0073
  556MPD2    C5 8303   4.082   3.853  10.470 -0.1023 -0.1574  0.2263
  556MPD2     H 8304   4.037   3.658  10.796 -1.6069 -2.5638 -1.0933
  556MPD2    H1 8305   4.130   3.680  10.377  0.6039  0.1751 -0.0116
  556MPD2    H2 8306   3.977   4.010  10.561  2.1449  0.5116 -1.7503
  556MPD2    H3 8307   4.098   3.904  10.376  0.2776 -0.0303  0.3594
  556MPD2     N 8308   4.110   3.507  10.590  0.0202  0.0183 -0.3045
  556MPD2    H5 8309   4.077   3.451  10.668 -0.4769  0.4005 -0.2356
  556MPD2    N1 8310   3.977   3.906  10.823 -0.3893  0.8578 -0.1134
  556MPD2    H7 8311   3.996   3.846  10.903 -0.0888  1.8499  0.5551
  557TMC3    C1 8312   4.176   3.291  10.527 -0.1459 -0.4777 -0.2714
  557TMC3    C2 8313   4.187   3.213  10.412  0.1531  0.7017  0.0372
  557TMC3    C3 8314   4.122   3.093  10.417  0.0940  0.0469 -0.2586
  557TMC3    C4 8315   4.110   3.251  10.638 -0.0302 -1.1078  0.1971
  557TMC3    C5 8316   4.075   3.117  10.647 -0.2551 -0.2572  0.0086
  557TMC3    C6 8317   4.070   3.036  10.535 -0.5527  0.0598 -0.6955
  557TMC3     C 8318   4.167   3.435  10.497  0.2955 -0.1443  1.1722
  557TMC3     O 8319   4.222   3.476  10.395  0.4733 -0.0700  0.4070
  557TMC3     H 8320   4.221   3.246  10.315 -0.9590 -1.4179 -1.0818
  557TMC3    H1 8321   4.124   3.307  10.730 -0.4005  2.5364 -1.9652
  557TMC3    H2 8322   4.030   2.936  10.535 -1.9908  0.6470  0.4036
  557TMC3    C7 8323   3.982   3.098  10.758 -0.0584  0.0606 -0.1922
  557TMC3    C8 8324   4.085   3.046  10.292  0.8249 -0.1511  0.0732
  557TMC3    O1 8325   3.926   3.197  10.809 -0.2878 -0.1299 -0.3294
  557TMC3    O2 8326   4.073   3.132  10.208 -0.8452 -0.2286  0.0299
  558TMC3    C1 8327   1.655   1.437  10.434  0.4997  0.5874  0.2620
  558TMC3    C2 8328   1.530   1.469  10.485  0.0092  0.0038 -0.1185
  558TMC3    C3 8329   1.427   1.482  10.398  0.0883 -0.0500 -0.7721
  558TMC3    C4 8330   1.678   1.435  10.299 -0.0473 -0.7847  0.1071
  558TMC3    C5 8331   1.570   1.460  10.212  0.0875 -0.0928 -0.4239
  558TMC3    C6 8332   1.441   1.479  10.261  0.8810  0.5503 -0.4650
  558TMC3     C 8333   1.770   1.424  10.521 -0.0782  0.0978  0.2920
  558TMC3     O 8334   1.881   1.403  10.474  0.0638  0.9694  0.8536
  558TMC3     H 8335   1.504   1.466  10.591  0.5975 -0.7156  0.0057
  558TMC3    H1 8336   1.772   1.399  10.259  0.1519  0.0152 -0.1507
  558TMC3    H2 8337   1.357   1.477  10.193 -0.2814  1.4166  0.9499
  558TMC3    C7 8338   1.612   1.470  10.071  0.1940  0.2402  0.0349
  558TMC3    C8 8339   1.296   1.517  10.443 -0.3627 -0.5626 -0.0453
  558TMC3    O1 8340   1.730   1.452  10.044 -0.5369 -0.2365 -0.2793
  558TMC3    O2 8341   1.206   1.546  10.361  0.4340  0.4804  0.2772
  559MPD2     C 8342   1.605   1.800  10.196 -0.1071 -0.0036  0.3003
  559MPD2    C1 8343   1.574   1.813  10.332  0.3484  0.2318  0.6104
  559MPD2    C2 8344   1.676   1.799  10.420 -0.3582  0.3766 -0.1765
  559MPD2    C3 8345   1.806   1.784  10.375 -0.7075  0.9684 -0.0435
  559MPD2    C4 8346   1.843   1.767  10.243 -0.2008 -1.0858 -0.8666
  559MPD2    C5 8347   1.739   1.764  10.156 -0.5088  1.4103  0.1141
  559MPD2     H 8348   1.664   1.802  10.528  0.6531  1.2336 -0.0782
  559MPD2    H1 8349   1.944   1.751  10.208  0.5826  0.3205  0.7335
  559MPD2    H2 8350   1.535   1.812  10.114  0.6959  2.2824 -0.0440
  559MPD2    H3 8351   1.761   1.744  10.051 -0.1223  1.2042  0.2350
  559MPD2     N 8352   1.896   1.780  10.484 -0.3485  0.9552 -0.0739
  559MPD2    H5 8353   1.862   1.810  10.574 -2.5259  1.7687 -1.1558
  559MPD2    N1 8354   1.437   1.831  10.375 -1.1764  0.5809 -0.1720
  559MPD2    H7 8355   1.375   1.842  10.295 -0.3335  0.5070 -0.8359
  560TMC3    C1 8356   2.061   1.698  10.624 -0.6294  0.3569 -0.3419
  560TMC3    C2 8357   1.966   1.692  10.723  0.3653  0.4053  0.1743
  560TMC3    C3 8358   2.007   1.708  10.850 -0.8453 -0.2542 -0.4438
  560TMC3    C4 8359   2.193   1.704  10.653 -1.0824  0.2513  0.8635
  560TMC3    C5 8360   2.227   1.718  10.780  0.9189 -0.0603  0.6605
  560TMC3    C6 8361   2.139   1.728  10.878  0.5964  0.7642  0.3437
  560TMC3     C 8362   2.021   1.728  10.485 -0.0749  0.2168 -0.2050
  560TMC3     O 8363   2.086   1.699  10.389  0.1717 -0.1583  0.2667
  560TMC3     H 8364   1.861   1.683  10.698  0.5144 -1.3732  0.2117
  560TMC3    H1 8365   2.272   1.705  10.579 -0.0370 -2.9354  1.9245
  560TMC3    H2 8366   2.180   1.733  10.978 -0.5156 -1.2393  0.9095
  560TMC3    C7 8367   2.367   1.701  10.821  0.3692 -0.1799  0.4621
  560TMC3    C8 8368   1.903   1.718  10.943 -0.4240  0.5575 -0.4286
  560TMC3    O1 8369   2.426   1.604  10.772 -0.3272 -0.2836  0.5323
  560TMC3    O2 8370   1.789   1.726  10.900  0.3622 -0.2975 -0.1960
  561TMC3    C1 8371   4.459   1.217  11.527  0.1594  0.0620  0.5084
  561TMC3    C2 8372   4.328   1.194  11.562  0.3864 -0.9036  0.1873
  561TMC3    C3 8373   4.238   1.150  11.469  0.5396 -0.5898  0.3394
  561TMC3    C4 8374   4.507   1.212  11.400 -0.5299  0.2433  0.0928
  561TMC3    C5 8375   4.412   1.173  11.308  0.2311 -0.5932  0.0303
  561TMC3    C6 8376   4.281   1.133  11.342  0.3147  0.7018  0.2300
  561TMC3     C 8377   4.545   1.159  11.627 -0.6571 -0.5939  0.0627
  561TMC3     O 8378   4.508   1.060  11.694  0.2113 -0.1337 -0.2206
  561TMC3     H 8379   4.302   1.178  11.666  0.6716  0.0317  0.4042
  561TMC3    H1 8380   4.611   1.219  11.372 -1.0001  0.2718 -1.6686
  561TMC3    H2 8381   4.219   1.089  11.265  0.8364  0.7874 -0.2342
  561TMC3    C7 8382   4.459   1.117  11.182  0.0254  0.0345 -0.4113
  561TMC3    C8 8383   4.099   1.152  11.497  0.1895  0.2518 -0.6967
  561TMC3    O1 8384   4.396   1.023  11.128  0.4886 -0.3430 -0.0343
  561TMC3    O2 8385   4.033   1.070  11.431  1.0844  0.2433 -0.2961
  562TMC3    C1 8386   1.491   2.499  15.982  0.5195 -0.1217  0.3276
  562TMC3    C2 8387   1.414   2.590  15.907  0.1847  0.2463 -0.2533
  562TMC3    C3 8388   1.388   2.559  15.777  0.3047  0.2882 -0.4158
  562TMC3    C4 8389   1.539   2.388  15.923 -0.3427 -0.0384 -0.4570
  562TMC3    C5 8390   1.512   2.364  15.788 -0.7668  0.2272  0.3110
  562TMC3    C6 8391   1.438   2.448  15.712  0.1857 -0.1397  0.4455
  562TMC3     C 8392   1.485   2.494  16.124  0.0756 -0.3381 -0.0603
  562TMC3     O 8393   1.575   2.459  16.192 -0.3609  0.4992 -0.0312
  562TMC3     H 8394   1.385   2.684  15.950 -0.4506 -0.4702  0.8697
  562TMC3    H1 8395   1.602   2.324  15.984  1.4995  2.2426  0.0115
  562TMC3    H2 8396   1.422   2.436  15.605 -1.4091  1.1624  0.5347
  562TMC3    C7 8397   1.546   2.231  15.731  0.3262 -0.2649 -0.0472
  562TMC3    C8 8398   1.347   2.667  15.681  0.2396  0.4025  0.5727
  562TMC3    O1 8399   1.528   2.223  15.609  0.0709  0.1761 -0.1810
  562TMC3    O2 8400   1.331   2.637  15.564  0.0029 -0.4466 -0.2351
  563MPD2     C 8401   3.983   4.203  15.695  0.3626  0.3061  0.6038
  563MPD2    C1 8402   3.962   4.124  15.806  0.0741  0.2089 -0.5978
  563MPD2    C2 8403   4.073   4.084  15.871  0.4601 -0.5386 -0.0704
  563MPD2    C3 8404   4.202   4.129  15.841  0.2566 -0.1101 -0.2703
  563MPD2    C4 8405   4.218   4.212  15.736 -0.4647  0.5735 -0.3205
  563MPD2    C5 8406   4.107   4.240  15.662 -0.2790 -0.1976 -0.2719
  563MPD2     H 8407   4.056   4.010  15.948  1.7271 -0.3926  0.3534
  563MPD2    H1 8408   4.316   4.244  15.701  0.1182 -1.2124 -0.2808
  563MPD2    H2 8409   3.910   4.232  15.620  1.4239 -0.5572 -0.7687
  563MPD2    H3 8410   4.114   4.292  15.567 -1.7690 -1.1964 -0.9226
  563MPD2     N 8411   4.300   4.082  15.928 -0.3097  0.3611  0.5944
  563MPD2    H5 8412   4.271   4.009  15.992  0.5204  0.6625  1.3024
  563MPD2    N1 8413   3.832   4.088  15.853  0.5729  0.1126 -0.0464
  563MPD2    H7 8414   3.813   4.044  15.942  0.3394 -1.4848 -0.8988
  564TMC3    C1 8415   3.604   4.101  15.873 -0.1439 -0.0325 -0.4193
  564TMC3    C2 8416   3.490   4.047  15.822 -0.3506 -0.3342  0.0395
  564TMC3    C3 8417   3.401   3.994  15.913 -0.7248  0.3049  0.4995
  564TMC3    C4 8418   3.632   4.102  16.005 -0.6612  0.1484  0.1011
  564TMC3    C5 8419   3.545   4.034  16.090  0.3014  0.2904 -0.0924
  564TMC3    C6 8420   3.428   3.984  16.045 -0.1104 -0.1188  0.4750
  564TMC3     C 8421   3.714   4.115  15.786  0.8321  0.2552 -0.1970
  564TMC3     O 8422   3.691   4.141  15.669  0.1330  0.8346 -0.2377
  564TMC3     H 8423   3.484   4.019  15.717  0.1282 -0.7713  0.1314
  564TMC3    H1 8424   3.717   4.156  16.045 -0.1222 -1.1107  0.6750
  564TMC3    H2 8425   3.354   3.940  16.111  1.4759  0.5584  2.7143
  564TMC3    C7 8426   3.620   3.935  16.154  0.0503  1.1483 -0.9630
  564TMC3    C8 8427   3.336   3.865  15.874 -0.4442 -0.7950  0.4610
  564TMC3    O1 8428   3.734   3.964  16.187  0.8454 -0.3887 -0.3746
  564TMC3    O2 8429   3.337   3.778  15.957  0.0235  0.0806  0.1736
  565TMC3    C1 8430   2.727   4.615  10.055 -0.2163  0.3409 -0.5228
  565TMC3    C2 8431   2.823   4.523  10.077  0.1099  0.8832 -0.1006
  565TMC3    C3 8432   2.794   4.415  10.150 -0.0047 -0.9056  0.0162
  565TMC3    C4 8433   2.601   4.612  10.107  0.4443  0.4079 -0.8544
  565TMC3    C5 8434   2.581   4.501  10.189 -0.0591 -0.6981 -0.3316
  565TMC3    C6 8435   2.672   4.402  10.212  0.3838 -0.1104  1.1242
  565TMC3     C 8436   2.779   0.011  10.011 -0.1289  0.1543 -0.5909
  565TMC3     O 8437   2.902   0.030  10.014 -0.2156 -0.0913 -0.5675
  565TMC3     H 8438   2.924   4.534  10.038  1.4370  0.0358  3.0740
  565TMC3    H1 8439   2.534   4.696  10.101  2.2083  1.9434  1.2479
  565TMC3    H2 8440   2.662   4.330  10.292  1.9151 -2.0936 -0.4731
  565TMC3    C7 8441   2.448   4.471  10.260 -0.3330  0.3041 -0.1810
  565TMC3    C8 8442   2.907   4.337  10.192  0.2947 -0.2723  0.0645
  565TMC3    O1 8443   2.443   4.352  10.284  0.1783  0.2273  0.4950
  565TMC3    O2 8444   3.015   4.386  10.165 -0.7915 -0.2928  0.2810
  566MPD2     C 8445   0.542   2.298  14.538 -0.0009 -0.0470 -0.1502
  566MPD2    C1 8446   0.536   2.348  14.409  0.2231  0.4694  0.2927
  566MPD2    C2 8447   0.478   2.264  14.316  0.7365  0.2364 -0.3780
  566MPD2    C3 8448   0.431   2.140  14.351  0.9632 -0.4445 -0.0232
  566MPD2    C4 8449   0.438   2.094  14.480 -0.3617  0.0896 -0.1927
  566MPD2    C5 8450   0.485   2.177  14.574  0.2064  1.0065 -0.3280
  566MPD2     H 8451   0.471   2.281  14.209  0.0957 -1.3449 -0.5815
  566MPD2    H1 8452   0.382   2.006  14.511 -0.2186 -0.0156 -0.2336
  566MPD2    H2 8453   0.582   2.361  14.617 -0.6831 -2.5622  2.1455
  566MPD2    H3 8454   0.483   2.152  14.679  0.4277 -0.9672 -0.7940
  566MPD2     N 8455   0.387   2.058  14.242 -0.5832 -0.5644  0.3410
  566MPD2    H5 8456   0.357   2.105  14.157  3.0183  1.3461  0.1510
  566MPD2    N1 8457   0.610   2.463  14.374 -0.2437  0.1138 -0.3285
  566MPD2    H7 8458   0.659   2.518  14.443  0.4578  2.6526 -2.8477
  567TMC3    C1 8459   0.771   2.562  14.237 -0.5544  0.1021  0.1171
  567TMC3    C2 8460   0.788   2.621  14.111  0.1244  0.0670  0.7441
  567TMC3    C3 8461   0.913   2.658  14.074 -0.1659  0.3093 -0.2519
  567TMC3    C4 8462   0.875   2.546  14.325  0.5459 -0.6438  0.4129
  567TMC3    C5 8463   0.999   2.587  14.281 -0.7447 -0.6437  0.2324
  567TMC3    C6 8464   1.019   2.651  14.160  0.0288 -0.5228 -0.4310
  567TMC3     C 8465   0.660   2.476  14.246  0.3659  0.2175 -0.5475
  567TMC3     O 8466   0.636   2.414  14.142 -0.0812  0.7891 -0.4338
  567TMC3     H 8467   0.705   2.630  14.042 -0.2988 -0.4912  1.1715
  567TMC3    H1 8468   0.862   2.482  14.411 -0.6153 -0.5372  0.3064
  567TMC3    H2 8469   1.108   2.708  14.136  1.2117 -0.9260  3.0779
  567TMC3    C7 8470   1.114   2.508  14.315  0.6802 -0.1878 -0.2160
  567TMC3    C8 8471   0.947   2.597  13.941 -0.6939 -0.2672 -0.3938
  567TMC3    O1 8472   1.189   2.485  14.223 -0.1237 -0.1067 -0.4090
  567TMC3    O2 8473   0.851   2.573  13.874  0.2501 -0.6370  0.4976
  568MPD2     C 8474   3.061   2.370  15.912 -0.4027  0.9175  0.4207
  568MPD2    C1 8475   3.056   2.430  16.037 -0.6991  0.4347 -0.9447
  568MPD2    C2 8476   3.030   2.569  16.046  0.0981 -0.0772  0.3907
  568MPD2    C3 8477   2.998   2.636  15.930 -0.1393  0.4706  0.0843
  568MPD2    C4 8478   3.010   2.579  15.809  0.2217  0.6233 -0.0652
  568MPD2    C5 8479   3.037   2.447  15.800 -0.3566  0.1366 -0.4324
  568MPD2     H 8480   3.042   2.622  16.139  1.1383 -0.4761  0.4876
  568MPD2    H1 8481   3.008   2.639  15.719  0.8750 -3.2518 -2.6704
  568MPD2    H2 8482   3.073   2.263  15.900 -0.5130  0.9420  0.0801
  568MPD2    H3 8483   3.044   2.405  15.701 -1.0353 -0.2623 -0.3099
  568MPD2     N 8484   2.982   2.779  15.936  0.0856  0.1107  0.2701
  568MPD2    H5 8485   2.988   2.824  16.026  1.0217  0.6522 -0.0650
  568MPD2    N1 8486   3.094   2.363  16.157 -0.3358 -0.0306  0.0506
  568MPD2    H7 8487   3.135   2.271  16.142 -0.5686 -0.4338  1.9161
  569TMC3    C1 8488   2.938   3.000  15.885 -0.3780  0.0937 -0.4422
  569TMC3    C2 8489   3.006   3.017  16.005 -0.1578  0.1706  0.4513
  569TMC3    C3 8490   3.103   3.115  16.018  0.7552 -0.0560 -0.5119
  569TMC3    C4 8491   2.951   3.090  15.785 -0.0506 -0.3882 -0.3498
  569TMC3    C5 8492   3.053   3.184  15.799  0.3330  0.5185  0.2660
  569TMC3    C6 8493   3.130   3.197  15.913 -0.5998 -0.7848  0.0251
  569TMC3     C 8494   2.939   2.862  15.838  0.4168 -0.2923 -0.0394
  569TMC3     O 8495   2.895   2.841  15.726 -0.4540  0.9593  0.3335
  569TMC3     H 8496   2.981   2.957  16.092 -3.2751  1.9419  0.7948
  569TMC3    H1 8497   2.903   3.086  15.688  0.0472  0.4296 -0.4314
  569TMC3    H2 8498   3.215   3.264  15.913 -0.6752 -0.6905  0.1180
  569TMC3    C7 8499   3.065   3.280  15.697  0.9420  0.1232 -0.3185
  569TMC3    C8 8500   3.221   3.070  16.091  0.6824 -0.2183  0.5703
  569TMC3    O1 8501   3.039   3.250  15.583 -0.7599  0.2826 -0.0156
  569TMC3    O2 8502   3.215   2.950  16.112  0.0390  0.3347 -0.4184
  570TMC3    C1 8503   2.512   1.646  16.413 -0.0370 -0.4803  0.3824
  570TMC3    C2 8504   2.587   1.653  16.292 -0.2940  0.0333 -0.7055
  570TMC3    C3 8505   2.659   1.767  16.272  0.8209  0.0601  0.1066
  570TMC3    C4 8506   2.500   1.754  16.495  0.2453  0.3187  0.0060
  570TMC3    C5 8507   2.576   1.868  16.465 -0.0780 -0.3516 -0.1704
  570TMC3    C6 8508   2.672   1.875  16.363  0.3616 -0.1113 -0.6705
  570TMC3     C 8509   2.436   1.524  16.427  0.1454  0.1912  0.2646
  570TMC3     O 8510   2.454   1.432  16.345 -0.2830 -0.0394  0.0738
  570TMC3     H 8511   2.579   1.572  16.220  0.4974  1.6733 -2.6267
  570TMC3    H1 8512   2.440   1.760  16.585 -0.4110 -1.3664 -0.3083
  570TMC3    H2 8513   2.712   1.967  16.324 -0.0497 -0.0579 -0.9619
  570TMC3    C7 8514   2.557   1.981  16.559  0.8158  0.8590 -0.3702
  570TMC3    C8 8515   2.755   1.773  16.158 -0.0428 -0.1037 -0.3926
  570TMC3    O1 8516   2.526   1.962  16.675 -0.2622  0.3811  0.0603
  570TMC3    O2 8517   2.817   1.880  16.146 -0.6850 -0.0201 -0.2183
  571MPD2     C 8518   4.392   4.142  17.703  0.0174 -0.0624 -0.1072
  571MPD2    C1 8519   4.483   4.075   0.030  0.0430  0.3546 -0.1633
  571MPD2    C2 8520   4.597   4.147   0.072  0.1763 -0.4617  0.2064
  571MPD2    C3 8521   4.625   4.275   0.021  0.0474 -0.7025  0.2784
  571MPD2    C4 8522   4.533   4.331  17.687 -0.2660 -0.3274  0.1391
  571MPD2    C5 8523   4.411   4.265  17.653 -0.3870 -0.3739  0.2483
  571MPD2     H 8524   4.685   4.100   0.116  1.2788 -0.1594 -1.6858
  571MPD2    H1 8525   4.552   4.424  17.634 -0.1584 -0.4832 -0.0983
  571MPD2    H2 8526   4.298   4.102  17.667 -0.1487  0.9704 -0.8169
  571MPD2    H3 8527   4.335   4.316  17.595 -0.6391  0.1258  1.0149
  571MPD2     N 8528   0.006   4.342   0.050 -0.0393  0.2286  0.1386
  571MPD2    H5 8529   0.042   4.411  17.740  0.3284  0.6449  0.7721
  571MPD2    N1 8530   4.460   3.943   0.079 -0.5523 -0.4643 -0.2613
  571MPD2    H7 8531   4.371   3.900   0.059  0.0363 -1.9318  0.3069
  572TMC3    C1 8532   0.214   4.361   0.168 -0.6012 -0.0635  0.0046
  572TMC3    C2 8533   0.264   4.366   0.290 -0.1887  0.0390 -0.0977
  572TMC3    C3 8534   0.368   4.448   0.308  0.5796 -0.3733  0.5541
  572TMC3    C4 8535   0.270   4.417   0.060  0.1274  0.3171 -0.0173
  572TMC3    C5 8536   0.375   4.505   0.080 -0.0370 -0.1233 -0.0499
  572TMC3    C6 8537   0.422   4.523   0.205  0.0498  0.1920 -0.0839
  572TMC3     C 8538   0.080   4.306   0.164  0.4843 -0.5854  0.2124
  572TMC3     O 8539   0.033   4.265   0.267 -0.3396 -0.0145  0.5241
  572TMC3     H 8540   0.214   4.340   0.382  0.8801 -4.7915 -0.9283
  572TMC3    H1 8541   0.224   4.411  17.718 -0.2242 -3.4366  0.3815
  572TMC3    H2 8542   0.489   4.602   0.237 -1.1728  1.3191 -0.3201
  572TMC3    C7 8543   0.390   4.616  17.741  0.1097 -0.1542  0.6198
  572TMC3    C8 8544   0.433   4.441   0.438 -0.6490 -0.2788 -0.1580
  572TMC3    O1 8545   0.312   4.626  17.646  0.1673 -0.2611  0.3912
  572TMC3    O2 8546   0.510   4.532   0.459 -0.2637 -0.8552  0.0016
  573MPD2     C 8547   1.395   3.667   0.776  0.1947 -0.4816  0.4818
  573MPD2    C1 8548   1.484   3.776   0.768 -0.4909  0.9535  0.2432
  573MPD2    C2 8549   1.564   3.793   0.656  0.2589 -0.2532  0.6465
  573MPD2    C3 8550   1.556   3.706   0.546  1.0179  0.3126  0.2529
  573MPD2    C4 8551   1.469   3.602   0.550  0.3995  0.8183 -0.4091
  573MPD2    C5 8552   1.391   3.581   0.663  0.4713 -0.1639 -0.7906
  573MPD2     H 8553   1.637   3.873   0.658 -0.0508  0.1317 -2.8726
  573MPD2    H1 8554   1.472   3.524   0.475  0.0488 -2.3089  2.8647
  573MPD2    H2 8555   1.324   3.654   0.857  0.3475  1.5871  0.9274
  573MPD2    H3 8556   1.318   3.502   0.659 -2.0055  2.1955 -1.9589
  573MPD2     N 8557   1.619   3.715   0.420 -0.2750 -0.9769  0.5654
  573MPD2    H5 8558   1.595   3.644   0.351 -0.3747  0.1978 -0.6139
  573MPD2    N1 8559   1.482   3.865   0.877 -0.2306 -0.1768  0.0592
  573MPD2    H7 8560   1.405   3.846   0.941 -2.6565  1.2478 -2.4761
  574TMC3    C1 8561   1.727   3.830   0.252 -0.3248  0.3804 -0.3951
  574TMC3    C2 8562   1.612   3.874   0.185 -0.4455  0.6360  0.0679
  574TMC3    C3 8563   1.628   3.955   0.077  0.4217  0.4885 -0.1604
  574TMC3    C4 8564   1.850   3.867   0.215 -0.4205  0.0867 -0.2947
  574TMC3    C5 8565   1.863   3.946   0.103  0.7079  0.6215  0.1332
  574TMC3    C6 8566   1.755   3.983   0.030  0.2129  0.2563  0.1447
  574TMC3     C 8567   1.703   3.825   0.388 -0.3113  0.5768  0.0312
  574TMC3     O 8568   1.737   3.921   0.458 -0.0111 -0.0104 -0.2824
  574TMC3     H 8569   1.515   3.840   0.219  0.0096 -1.3191 -0.5604
  574TMC3    H1 8570   1.935   3.839   0.277  0.4037 -0.0938 -1.5000
  574TMC3    H2 8571   1.760   4.044  17.696 -1.0716  0.8162  0.4502
  574TMC3    C7 8572   1.988   3.983   0.052  0.3085 -0.0867 -0.4698
  574TMC3    C8 8573   1.515   4.035   0.025 -0.3038 -0.0160 -0.2668
  574TMC3    O1 8574   1.991   4.046  17.702 -0.1937 -0.2558 -0.4032
  574TMC3    O2 8575   1.540   4.106  17.680  0.6451  0.5798 -0.1157
  575TMC3    C1 8576   3.648   4.403  10.600 -0.5432  0.6752  0.2295
  575TMC3    C2 8577   3.672   4.338  10.723 -0.4310 -0.5393 -0.5279
  575TMC3    C3 8578   3.585   4.241  10.761 -0.0441  0.0302  0.4592
  575TMC3    C4 8579   3.539   4.371  10.519  0.5602  0.2249  0.0050
  575TMC3    C5 8580   3.462   4.271  10.568 -0.5488 -0.0593 -0.1026
  575TMC3    C6 8581   3.470   4.219  10.694  0.7028  0.0608  0.8077
  575TMC3     C 8582   3.738   4.509  10.546 -0.2162 -0.3671  1.1654
  575TMC3     O 8583   3.718   4.551  10.437 -0.1596  0.2096 -0.0322
  575TMC3     H 8584   3.761   4.358  10.781 -0.4705 -1.2466 -0.2225
  575TMC3    H1 8585   3.537   4.398  10.414 -1.0218 -0.5227 -0.1558
  575TMC3    H2 8586   3.386   4.161  10.730  0.0658 -1.1709 -2.6159
  575TMC3    C7 8587   3.341   4.254  10.486 -0.5189  0.3864 -0.4599
  575TMC3    C8 8588   3.589   4.202  10.903  0.2722 -0.6765 -0.0589
  575TMC3    O1 8589   3.315   4.348  10.409 -0.7141  0.3209  0.3565
  575TMC3    O2 8590   3.669   4.245  10.978  0.0736  0.3831 -0.2014
  576MPD2     C 8591   3.732   1.434  12.852 -0.3575 -0.2536 -0.0733
  576MPD2    C1 8592   3.706   1.547  12.770 -0.0272  0.1336 -0.1883
  576MPD2    C2 8593   3.643   1.655  12.834 -0.6275 -0.6442 -0.9802
  576MPD2    C3 8594   3.606   1.656  12.969 -0.4605  0.0044  0.1529
  576MPD2    C4 8595   3.626   1.547  13.048  0.1366  0.3181  0.0539
  576MPD2    C5 8596   3.698   1.445  12.990  0.1096  0.0549  0.0376
  576MPD2     H 8597   3.628   1.746  12.778  0.6831 -0.2163 -0.6240
  576MPD2    H1 8598   3.615   1.538  13.155  2.6171 -0.1413  0.2698
  576MPD2    H2 8599   3.793   1.351  12.819 -1.6081 -1.3901  0.4957
  576MPD2    H3 8600   3.723   1.361  13.054  0.8552  0.3164  0.0880
  576MPD2     N 8601   3.562   1.779  13.027 -0.3734 -0.0095  0.0571
  576MPD2    H5 8602   3.559   1.861  12.968 -2.9200 -0.3488 -0.3059
  576MPD2    N1 8603   3.733   1.560  12.631 -0.3982  0.1581  0.4643
  576MPD2    H7 8604   3.690   1.637  12.582 -0.7740  0.7622  1.7298
  577TMC3    C1 8605   3.805   1.496  12.422  0.2615 -0.5217 -0.5302
  577TMC3    C2 8606   3.770   1.402  12.334  0.3627  0.2330 -0.2154
  577TMC3    C3 8607   3.768   1.428  12.201  0.7212 -0.1057 -0.0464
  577TMC3    C4 8608   3.846   1.620  12.375 -0.1081  0.1667  0.1007
  577TMC3    C5 8609   3.832   1.653  12.248  0.8074 -0.0001 -0.3595
  577TMC3    C6 8610   3.793   1.556  12.156  0.2962  0.0270  0.5974
  577TMC3     C 8611   3.792   1.462  12.558 -0.9227  0.0099 -0.0068
  577TMC3     O 8612   3.820   1.346  12.592 -0.3170  0.3567  0.5170
  577TMC3     H 8613   3.733   1.306  12.368 -1.4148 -0.4913 -4.2362
  577TMC3    H1 8614   3.876   1.689  12.453 -0.7057 -0.2704  0.7165
  577TMC3    H2 8615   3.791   1.570  12.049 -2.8651  1.2809  0.8268
  577TMC3    C7 8616   3.862   1.789  12.205  0.7580 -0.0909 -0.7423
  577TMC3    C8 8617   3.755   1.323  12.104  0.0114  0.4563 -0.2337
  577TMC3    O1 8618   3.897   1.872  12.288  0.0371 -0.0862  0.2575
  577TMC3    O2 8619   3.686   1.227  12.129 -0.5400 -0.1038  0.3992
  578MPD2     C 8620   2.397   1.791   1.226 -0.5605  0.8045  0.0102
  578MPD2    C1 8621   2.395   1.712   1.112 -0.3016  0.1385  0.0604
  578MPD2    C2 8622   2.465   1.596   1.112 -0.0403  0.4014  1.2376
  578MPD2    C3 8623   2.523   1.547   1.228 -0.1376 -0.0697 -0.1256
  578MPD2    C4 8624   2.524   1.631   1.337  0.0152  0.3834 -0.5954
  578MPD2    C5 8625   2.461   1.753   1.337  0.2024 -0.4352  0.1505
  578MPD2     H 8626   2.463   1.533   1.024 -0.4024  0.9052  0.8820
  578MPD2    H1 8627   2.571   1.593   1.427  0.4640 -1.5886 -1.6520
  578MPD2    H2 8628   2.332   1.878   1.228 -0.3769  1.0242 -3.6496
  578MPD2    H3 8629   2.468   1.816   1.426  1.0253  0.4820 -0.5580
  578MPD2     N 8630   2.601   1.429   1.223  0.1509 -0.2078  0.0156
  578MPD2    H5 8631   2.607   1.390   1.130  0.7239  0.0405 -0.0462
  578MPD2    N1 8632   2.327   1.758   1.000 -0.3894 -0.2419 -0.1900
  578MPD2    H7 8633   2.261   1.832   1.020  0.1451  0.4613 -1.0131
  579TMC3    C1 8634   2.782   1.287   1.259 -0.1885  0.4341 -0.0595
  579TMC3    C2 8635   2.905   1.274   1.319  0.1144 -0.3260 -0.4476
  579TMC3    C3 8636   2.989   1.184   1.255 -0.8502 -0.1477  0.0328
  579TMC3    C4 8637   2.746   1.215   1.143 -0.4789 -0.0085 -0.0104
  579TMC3    C5 8638   2.832   1.127   1.088 -0.4884 -0.8504 -0.2532
  579TMC3    C6 8639   2.956   1.121   1.140 -0.3391  0.2786 -0.1188
  579TMC3     C 8640   2.694   1.388   1.312  0.3988  0.1758  0.3667
  579TMC3     O 8641   2.708   1.414   1.435 -0.4123  0.0486 -0.2457
  579TMC3     H 8642   2.930   1.331   1.408 -1.4731  1.1100 -0.9105
  579TMC3    H1 8643   2.652   1.218   1.090 -1.8082 -0.3102  2.3529
  579TMC3    H2 8644   3.022   1.045   1.100 -2.5721 -2.3213  1.1612
  579TMC3    C7 8645   2.815   1.069   0.964  0.3616 -0.7253  0.9455
  579TMC3    C8 8646   3.126   1.205   1.272  0.3545 -0.6686 -0.2117
  579TMC3    O1 8647   2.918   1.019   0.919 -0.1496  0.4366 -0.2817
  579TMC3    O2 8648   3.206   1.111   1.247 -0.3114 -0.0766 -0.1871
  580TMC3    C1 8649   1.309   0.990  12.427 -0.0819  0.2182 -0.4625
  580TMC3    C2 8650   1.409   1.018  12.514  0.0454  0.1598 -0.8434
  580TMC3    C3 8651   1.474   0.918  12.584  0.0594  0.0961 -0.7149
  580TMC3    C4 8652   1.265   0.862  12.403 -0.4210 -0.0174 -0.4853
  580TMC3    C5 8653   1.342   0.763  12.465 -0.0704  0.1891 -0.1328
  580TMC3    C6 8654   1.439   0.787  12.556 -0.7664  0.1874  0.1236
  580TMC3     C 8655   1.272   1.103  12.342  0.0158  0.1170  0.0297
  580TMC3     O 8656   1.344   1.201  12.337 -0.2716  0.1782 -0.3806
  580TMC3     H 8657   1.446   1.116  12.540 -1.0398  0.6079 -0.9981
  580TMC3    H1 8658   1.199   0.850  12.318  0.9404 -0.6508 -1.4508
  580TMC3    H2 8659   1.502   0.710  12.600  0.1301  1.5146  1.1732
  580TMC3    C7 8660   1.353   0.627  12.409  0.6162  0.1143  0.2906
  580TMC3    C8 8661   1.602   0.939  12.633  0.2652 -1.1794  0.7408
  580TMC3    O1 8662   1.392   0.542  12.491 -0.3335  0.2635 -1.0497
  580TMC3    O2 8663   1.634   1.045  12.686 -0.0813  0.5539 -0.3639
  581MPD2     C 8664   4.243   0.459  14.607 -0.2613  0.0619  0.1422
  581MPD2    C1 8665   4.236   0.482  14.743 -0.8879  0.8190 -0.4912
  581MPD2    C2 8666   4.117   0.537  14.793 -0.0350 -1.1221  0.5434
  581MPD2    C3 8667   4.018   0.590  14.711  0.3378 -0.3461  0.3721
  581MPD2    C4 8668   4.024   0.561  14.581 -0.6449  0.2473 -0.4519
  581MPD2    C5 8669   4.133   0.499  14.526 -0.1391  0.5391  0.2086
  581MPD2     H 8670   4.112   0.540  14.901 -0.3324 -1.7111  0.5461
  581MPD2    H1 8671   3.954   0.600  14.508  1.5703 -0.4733 -2.9440
  581MPD2    H2 8672   4.326   0.404  14.565 -0.6825 -0.4713  0.0043
  581MPD2    H3 8673   4.140   0.479  14.419 -1.8402 -2.4466  0.6553
  581MPD2     N 8674   3.913   0.671  14.761  0.7043  0.4150 -0.0039
  581MPD2    H5 8675   3.851   0.712  14.692  1.9465  1.5114 -0.4795
  581MPD2    N1 8676   4.333   0.427  14.830  0.7960  0.0769 -0.7497
  581MPD2    H7 8677   4.404   0.366  14.792  1.2350 -1.3103  2.2964
  582TMC3    C1 8678   4.399   0.367  15.039  0.1511  0.0229 -0.2263
  582TMC3    C2 8679   4.449   0.415  15.157 -0.0122  0.3246 -0.1665
  582TMC3    C3 8680   4.407   0.365  15.276 -0.0131  0.0730  0.4352
  582TMC3    C4 8681   4.294   0.276  15.047  0.5753 -1.1175 -0.2941
  582TMC3    C5 8682   4.247   0.242  15.174 -0.0078 -0.1568 -0.2169
  582TMC3    C6 8683   4.296   0.288  15.290 -0.2193 -0.5301  0.2713
  582TMC3     C 8684   4.347   0.474  14.957 -0.2814  0.1823  0.4984
  582TMC3     O 8685   4.306   0.579  15.008 -0.0182 -0.1833 -0.1057
  582TMC3     H 8686   4.539   0.474  15.166  0.9790 -0.7093 -3.0503
  582TMC3    H1 8687   4.241   0.241  14.960  2.2420  0.2970 -1.8672
  582TMC3    H2 8688   4.257   0.272  15.390  0.1584 -1.0633  0.3312
  582TMC3    C7 8689   4.100   0.217  15.180  0.6233 -0.6018  0.5776
  582TMC3    C8 8690   4.417   0.455  15.399  0.0892  0.7605 -0.6484
  582TMC3    O1 8691   4.042   0.148  15.092 -0.1790  0.4248  0.3154
  582TMC3    O2 8692   4.311   0.489  15.449 -0.2871  0.0352 -0.4169
  583MPD2     C 8693   4.534   2.170  16.933  0.1634 -0.2857  0.6184
  583MPD2    C1 8694   4.531   2.268  16.837 -0.3967 -0.0984  0.0520
  583MPD2    C2 8695   4.438   2.372  16.849 -0.8319 -0.5305  0.0969
  583MPD2    C3 8696   4.349   2.379  16.958  0.0151  0.1731  0.4037
  583MPD2    C4 8697   4.353   2.278  17.051  0.0632 -0.5503 -0.1240
  583MPD2    C5 8698   4.450   2.184  17.042  0.5811 -0.3370  0.4804
  583MPD2     H 8699   4.428   2.446  16.770  0.5905  0.1534  0.5646
  583MPD2    H1 8700   4.283   2.267  17.133 -0.5527  0.2613 -0.5386
  583MPD2    H2 8701   4.609   2.092  16.930  0.0647 -0.2711 -1.7594
  583MPD2    H3 8702   4.466   2.111  17.121  1.7303 -1.5304 -0.8453
  583MPD2     N 8703   4.258   2.487  16.959  0.2860 -0.6240  0.2056
  583MPD2    H5 8704   4.265   2.547  16.877 -0.4173 -1.9355 -0.8250
  583MPD2    N1 8705   4.612   2.271  16.730 -0.1466  0.0758  0.7231
  583MPD2    H7 8706   4.596   2.354  16.674 -0.3296 -0.0053  0.6540
  584TMC3    C1 8707   4.085   2.619  17.046  0.8988 -0.1161 -0.2302
  584TMC3    C2 8708   4.066   2.674  16.920 -0.1415 -0.4190 -0.8181
  584TMC3    C3 8709   4.008   2.796  16.911  0.0616 -0.0226  0.0574
  584TMC3    C4 8710   4.048   2.688  17.157 -0.4502  0.5495 -0.8659
  584TMC3    C5 8711   3.993   2.811  17.146  0.2332 -0.3936 -0.5029
  584TMC3    C6 8712   3.968   2.869  17.027  0.3159  0.9509  0.5463
  584TMC3     C 8713   4.176   2.507  17.069 -0.1939 -0.7111  0.5272
  584TMC3     O 8714   4.193   2.470  17.184 -0.2380 -0.2084 -0.2697
  584TMC3     H 8715   4.077   2.617  16.828  1.0231 -0.2067 -0.8089
  584TMC3    H1 8716   4.080   2.642  17.250  0.7465  0.2919 -1.4080
  584TMC3    H2 8717   3.927   2.969  17.033 -1.8269  0.1830 -1.0674
  584TMC3    C7 8718   3.963   2.892  17.259 -0.2567  0.3134  0.2218
  584TMC3    C8 8719   4.047   2.866  16.794  0.6474  0.7250  0.9895
  584TMC3    O1 8720   3.949   3.012  17.255  0.0313 -0.4921 -0.4371
  584TMC3    O2 8721   4.068   2.808  16.691  0.1929  0.4485 -0.1986
  585MPD2     C 8722   3.056   1.646   0.316  0.0741  0.0448  0.7700
  585MPD2    C1 8723   3.145   1.652   0.214  0.1611 -0.2539  0.2613
  585MPD2    C2 8724   3.169   1.534   0.144  0.4462  0.2069  0.2252
  585MPD2    C3 8725   3.109   1.413   0.183  0.0448  0.1212 -0.5852
  585MPD2    C4 8726   3.009   1.418   0.278  0.2218  0.1141 -0.7921
  585MPD2    C5 8727   2.987   1.533   0.345 -0.5180 -0.4705  0.5966
  585MPD2     H 8728   3.229   1.538   0.054 -0.0492  2.5026 -0.0194
  585MPD2    H1 8729   2.959   1.324   0.302  0.9563  0.0215  0.3932
  585MPD2    H2 8730   3.021   1.731   0.374 -2.0564 -0.3522  0.0937
  585MPD2    H3 8731   2.906   1.539   0.417 -1.3305 -2.8218 -0.1021
  585MPD2     N 8732   3.135   1.285   0.123  0.0388 -0.9923 -0.0902
  585MPD2    H5 8733   3.086   1.205   0.160 -1.1655 -1.0953 -1.9360
  585MPD2    N1 8734   3.196   1.777   0.183 -0.7464 -0.3672  0.7322
  585MPD2    H7 8735   3.156   1.856   0.232 -2.2124 -0.5181 -0.2235
  586TMC3    C1 8736   3.224   1.118  17.745  0.4302 -0.1523  0.7704
  586TMC3    C2 8737   3.335   1.068  17.681 -0.1202 -0.2209 -0.5529
  586TMC3    C3 8738   3.336   0.929  17.658  0.5195  0.2443 -0.0544
  586TMC3    C4 8739   3.103   1.051   0.005  0.3650  0.3198 -0.1212
  586TMC3    C5 8740   3.111   0.915  17.741  0.4271  0.3322 -0.0094
  586TMC3    C6 8741   3.222   0.859  17.680  0.0179  0.0225 -0.1916
  586TMC3     C 8742   3.232   1.255   0.031  0.1395 -0.2819  1.2462
  586TMC3     O 8743   3.326   1.326  17.749  0.5134  0.1779 -0.0200
  586TMC3     H 8744   3.416   1.132  17.648  1.4542 -2.1275 -0.3501
  586TMC3    H1 8745   3.015   1.107   0.034  0.8751  2.0445 -1.9716
  586TMC3    H2 8746   3.220   0.758  17.641 -0.0434 -0.4102  0.9467
  586TMC3    C7 8747   2.990   0.831  17.734 -0.6588 -0.4129  0.1014
  586TMC3    C8 8748   3.424   0.861  17.565 -0.6823  0.7581  0.9801
  586TMC3    O1 8749   2.990   0.747  17.642 -0.5334  0.4085  0.3594
  586TMC3    O2 8750   3.456   0.745  17.588 -0.1532  1.6287 -0.0519
  587TMC3    C1 8751   0.817   0.196  16.102 -0.5840 -0.8876 -0.3155
  587TMC3    C2 8752   0.810   0.225  16.235 -0.3362 -0.1000  0.6916
  587TMC3    C3 8753   0.902   0.165  16.324 -0.5644  0.5063 -0.6273
  587TMC3    C4 8754   0.915   0.110  16.057 -0.4237  1.1905 -1.0733
  587TMC3    C5 8755   0.988   0.036  16.151  0.7920  0.2206 -0.2900
  587TMC3    C6 8756   0.990   0.068  16.283  0.1279  0.1119  0.2432
  587TMC3     C 8757   0.706   0.217  16.015  0.0234 -0.3977 -0.7287
  587TMC3     O 8758   0.729   0.218  15.895 -0.9468 -0.4124 -0.0851
  587TMC3     H 8759   0.728   0.291  16.262 -0.3423  0.9502 -1.8841
  587TMC3    H1 8760   0.920   0.091  15.950  1.3291 -0.0868 -0.7695
  587TMC3    H2 8761   1.070   0.037  16.349  1.8039  0.5606 -1.6070
  587TMC3    C7 8762   1.084   4.674  16.108  0.0596 -0.0128  0.2327
  587TMC3    C8 8763   0.894   0.191  16.468 -1.0501 -0.1828  0.2859
  587TMC3    O1 8764   1.160   4.627  16.193  0.0491 -0.1901 -0.1528
  587TMC3    O2 8765   0.929   0.112  16.554 -0.3110 -0.5642 -0.9734
  588TMC3    C1 8766   3.171   2.256  10.207  0.0628 -0.0401 -0.1846
  588TMC3    C2 8767   3.185   2.124  10.172  0.7573 -0.2563 -0.3676
  588TMC3    C3 8768   3.261   2.030  10.239  0.1160  0.5842  0.5995
  588TMC3    C4 8769   3.255   2.307  10.306 -0.3721 -0.4377  1.0250
  588TMC3    C5 8770   3.332   2.214  10.378 -0.3205  1.0166 -0.0120
  588TMC3    C6 8771   3.330   2.076  10.350 -0.6879 -0.5610 -0.1822
  588TMC3     C 8772   3.111   2.341  10.103  0.2256  0.3152  0.9943
  588TMC3     O 8773   3.131   2.314   9.987 -0.7669 -0.2089 -0.1417
  588TMC3     H 8774   3.128   2.098  10.084  0.7627  1.5184 -0.9140
  588TMC3    H1 8775   3.253   2.413  10.325 -0.7212 -0.0442 -1.2398
  588TMC3    H2 8776   3.389   2.011  10.413 -1.0425  2.1121  2.9056
  588TMC3    C7 8777   3.430   2.257  10.476  0.0729 -0.5854  0.1990
  588TMC3    C8 8778   3.249   1.892  10.200 -0.0081  0.3455 -0.0773
  588TMC3    O1 8779   3.459   2.185  10.575  0.1343  0.3169  0.8061
  588TMC3    O2 8780   3.199   1.872  10.093 -0.4727  0.6483 -0.1567
  589TMC3    C1 8781   2.217   0.077   1.298 -0.4852 -0.0347 -0.1702
  589TMC3    C2 8782   2.326   0.141   1.356  0.1296 -0.0540  0.1160
  589TMC3    C3 8783   2.441   0.064   1.380  0.0671  0.0956  0.7690
  589TMC3    C4 8784   2.225   4.689   1.264 -0.1511 -0.4391 -0.8983
  589TMC3    C5 8785   2.339   4.615   1.292 -0.2361 -0.5098  0.0666
  589TMC3    C6 8786   2.444   4.667   1.358 -0.1479 -0.1824  0.1320
  589TMC3     C 8787   2.104   0.147   1.270  0.2689 -0.0162 -0.4306
  589TMC3     O 8788   2.036   0.109   1.179  0.6390  0.0037  0.2470
  589TMC3     H 8789   2.325   0.246   1.381 -0.3743 -0.1422  0.4745
  589TMC3    H1 8790   2.146   4.634   1.214  1.1041 -2.0241 -1.1651
  589TMC3    H2 8791   2.521   4.603   1.399  2.8596  2.3432 -1.5311
  589TMC3    C7 8792   2.337   4.475   1.283 -0.5089  0.5396 -0.5166
  589TMC3    C8 8793   2.558   0.143   1.414  0.1308 -0.8964  1.1712
  589TMC3    O1 8794   2.230   4.417   1.282 -0.1500  0.0251 -0.4828
  589TMC3    O2 8795   2.549   0.252   1.455 -0.0338  0.4824  0.0148
  590MPD2     C 8796   1.994   2.820  16.701  0.0071 -0.0423  0.1434
  590MPD2    C1 8797   1.922   2.914  16.630 -0.2244  0.7685  0.0848
  590MPD2    C2 8798   1.989   3.018  16.569  0.3548 -0.8527 -0.0623
  590MPD2    C3 8799   2.126   3.023  16.568 -0.1005 -0.2245  0.2888
  590MPD2    C4 8800   2.195   2.927  16.628 -0.4174  1.0015 -0.4808
  590MPD2    C5 8801   2.130   2.824  16.696  0.2816 -0.6373 -0.3353
  590MPD2     H 8802   1.943   3.095  16.509  1.3650  1.3520  1.9687
  590MPD2    H1 8803   2.303   2.926  16.636 -0.4678  0.3868  0.0729
  590MPD2    H2 8804   1.951   2.734  16.751  0.4822 -0.7902 -0.7382
  590MPD2    H3 8805   2.196   2.758  16.750  1.2645 -1.2576 -2.3143
  590MPD2     N 8806   2.192   3.129  16.493  0.1311 -0.4517  0.0980
  590MPD2    H5 8807   2.127   3.205  16.471 -2.0088 -2.3117 -0.0103
  590MPD2    N1 8808   1.781   2.906  16.626 -0.0094 -0.1618 -0.4977
  590MPD2    H7 8809   1.731   2.827  16.666 -0.5694  0.4319 -0.0277
  591TMC3    C1 8810   2.365   3.261  16.418  0.2429  0.2580 -0.6606
  591TMC3    C2 8811   2.466   3.260  16.331  0.2067  0.1967 -0.6225
  591TMC3    C3 8812   2.471   3.372  16.244  0.2834  0.3193 -0.1870
  591TMC3    C4 8813   2.278   3.362  16.446 -0.5543  0.2362 -0.3778
  591TMC3    C5 8814   2.288   3.472  16.368  0.1460 -0.1878  0.4169
  591TMC3    C6 8815   2.386   3.480  16.265 -0.0515 -0.1182  1.0635
  591TMC3     C 8816   2.330   3.133  16.464  0.0971  0.4480 -0.2709
  591TMC3     O 8817   2.424   3.054  16.483  0.2049  0.0351 -0.0633
  591TMC3     H 8818   2.528   3.173  16.309  2.8105  1.5188  1.4251
  591TMC3    H1 8819   2.206   3.354  16.526 -1.7739 -1.2864 -1.6147
  591TMC3    H2 8820   2.368   3.538  16.175 -1.2762 -1.5541  0.3878
  591TMC3    C7 8821   2.185   3.570  16.366  0.1017  0.3061  0.2944
  591TMC3    C8 8822   2.586   3.395  16.155 -0.2024 -0.1045  0.2553
  591TMC3    O1 8823   2.076   3.542  16.406  0.1085 -0.5305  0.2607
  591TMC3    O2 8824   2.645   3.291  16.120 -0.0603 -0.5651  0.0621
  592MPD2     C 8825   2.629   4.454  11.658 -0.4952 -0.6099 -0.5685
  592MPD2    C1 8826   2.548   4.564  11.663 -0.4343  0.3150 -1.1301
  592MPD2    C2 8827   2.425   4.557  11.740 -0.3076  0.3370 -0.1622
  592MPD2    C3 8828   2.387   4.440  11.805  0.9931 -0.2177 -0.5145
  592MPD2    C4 8829   2.480   4.335  11.805 -0.4543 -0.5256  0.5588
  592MPD2    C5 8830   2.592   4.339  11.729 -0.0819 -0.6892 -0.9422
  592MPD2     H 8831   2.362   4.645  11.738 -1.9241 -0.8546 -1.8878
  592MPD2    H1 8832   2.466   4.246  11.865  0.1602 -1.1249 -0.1802
  592MPD2    H2 8833   2.722   4.451  11.601 -0.0795  1.3842  0.0134
  592MPD2    H3 8834   2.665   4.259  11.729  0.6361 -0.0384 -0.6695
  592MPD2     N 8835   2.258   4.431  11.870 -0.3087 -0.3396  0.0622
  592MPD2    H5 8836   2.218   4.524  11.877  0.2855 -0.0310 -0.6535
  592MPD2    N1 8837   2.601   4.681  11.602 -0.3710 -0.0310  0.1777
  592MPD2    H7 8838   2.685   4.662  11.549 -0.3406 -1.1649  0.6433
  593TMC3    C1 8839   2.646   0.155  11.624  0.1588  0.0992 -0.4731
  593TMC3    C2 8840   2.647   0.195  11.756 -0.0739  0.2010 -0.0070
  593TMC3    C3 8841   2.671   0.327  11.783  0.6424 -0.1460 -0.3301
  593TMC3    C4 8842   2.673   0.241  11.525  0.0428 -0.0282  0.3172
  593TMC3    C5 8843   2.706   0.370  11.561 -0.1818  0.0526 -0.1541
  593TMC3    C6 8844   2.704   0.417  11.685  0.9941 -0.3048 -0.1688
  593TMC3     C 8845   2.544   0.059  11.608 -0.7880  0.1151 -0.0520
  593TMC3     O 8846   2.428   0.084  11.644  0.1290  0.2225 -0.3848
  593TMC3     H 8847   2.588   0.128  11.817 -0.2491 -1.5346 -2.0972
  593TMC3    H1 8848   2.691   0.203  11.425 -0.7150 -1.6800  0.8090
  593TMC3    H2 8849   2.707   0.524  11.699 -0.6694 -0.2310 -0.3939
  593TMC3    C7 8850   2.776   0.447  11.464 -0.1222 -0.0623 -0.3342
  593TMC3    C8 8851   2.621   0.382  11.902  0.0622  0.4662 -0.7297
  593TMC3    O1 8852   2.847   0.533  11.513 -0.2801 -0.7577 -0.1110
  593TMC3    O2 8853   2.532   0.325  11.966  0.7957  0.2702  1.0043
  594MPD2     C 8854   1.106   3.563  14.816 -0.0705  0.3802 -0.2024
  594MPD2    C1 8855   1.013   3.656  14.767 -0.0700  0.2880 -0.2993
  594MPD2    C2 8856   1.056   3.756  14.679  0.1338  0.2264  0.1574
  594MPD2    C3 8857   1.184   3.754  14.632 -0.1772  0.4221 -0.0665
  594MPD2    C4 8858   1.263   3.642  14.646  0.5133 -0.4830  0.3416
  594MPD2    C5 8859   1.223   3.552  14.748  0.5073  0.2270 -0.5553
  594MPD2     H 8860   0.990   3.832  14.638  0.2288  0.9987  1.4214
  594MPD2    H1 8861   1.353   3.630  14.586  0.5831  1.8658 -0.0332
  594MPD2    H2 8862   1.075   3.473  14.868  1.6212  1.4318  2.6065
  594MPD2    H3 8863   1.284   3.466  14.770  1.1190  0.9721  0.6421
  594MPD2     N 8864   1.213   3.865  14.545 -0.6748 -0.4224  0.4488
  594MPD2    H5 8865   1.151   3.945  14.553  0.2440  0.1767  1.6260
  594MPD2    N1 8866   0.875   3.641  14.805  0.4564 -0.3193 -0.0509
  594MPD2    H7 8867   0.845   3.565  14.866  1.0418  0.3590  1.0971
  595TMC3    C1 8868   1.573   4.101  14.392 -0.0783  0.4056  0.8525
  595TMC3    C2 8869   1.470   4.010  14.365 -0.1100  0.3655  1.0626
  595TMC3    C3 8870   1.356   4.015  14.440 -0.7543  0.2241  0.2582
  595TMC3    C4 8871   1.560   4.189  14.498 -0.0659 -0.0276  0.1906
  595TMC3    C5 8872   1.446   4.177  14.577 -0.6809 -0.0722 -0.0088
  595TMC3    C6 8873   1.333   4.108  14.540  0.0228 -0.8076  0.0477
  595TMC3     C 8874   1.692   4.085  14.318 -0.7129  0.3139 -0.2042
  595TMC3     O 8875   1.690   4.032  14.207 -0.5335 -0.0497 -0.2456
  595TMC3     H 8876   1.493   3.928  14.298 -0.6631  0.1164  1.1842
  595TMC3    H1 8877   1.637   4.263  14.515 -0.3949  0.2538  0.4567
  595TMC3    H2 8878   1.250   4.094  14.608  1.2337  1.2527  1.9115
  595TMC3    C7 8879   1.425   4.273  14.688 -0.0881 -0.6864 -0.3666
  595TMC3    C8 8880   1.331   3.873  14.475 -0.8086 -0.0481 -0.2584
  595TMC3    O1 8881   1.313   4.303  14.724 -0.1949  0.8444  0.4345
  595TMC3    O2 8882   1.409   3.785  14.451 -0.1707 -0.1531  0.1849
  596MPD2     C 8883   0.731   2.250  16.895  0.2578 -0.7749  0.3335
  596MPD2    C1 8884   0.726   2.359  16.807  0.2688  0.8489 -0.3358
  596MPD2    C2 8885   0.781   2.339  16.687 -0.5797  0.5754  0.1887
  596MPD2    C3 8886   0.823   2.217  16.640 -0.0890  0.4449  0.3245
  596MPD2    C4 8887   0.807   2.110  16.721  0.1225  0.8376 -0.3474
  596MPD2    C5 8888   0.782   2.130  16.849 -0.0451 -0.3667 -0.2813
  596MPD2     H 8889   0.799   2.422  16.620 -0.1718 -0.5607 -1.1020
  596MPD2    H1 8890   0.824   2.009  16.687 -0.3255  1.3764 -2.1846
  596MPD2    H2 8891   0.705   2.269  16.999 -3.4825 -0.7106 -0.6329
  596MPD2    H3 8892   0.787   2.047  16.918 -0.8372 -1.3381 -1.4118
  596MPD2     N 8893   0.858   2.196  16.502 -0.3634 -0.2283  0.8937
  596MPD2    H5 8894   0.892   2.105  16.474  2.1157 -0.1260  3.5503
  596MPD2    N1 8895   0.673   2.487  16.831 -0.1184 -0.3674 -0.4942
  596MPD2    H7 8896   0.676   2.545  16.748  1.5620 -0.6113 -0.6082
  597TMC3    C1 8897   0.551   2.654  16.925 -0.2191  0.2739  0.1505
  597TMC3    C2 8898   0.598   2.733  16.825 -0.3299  0.1609  0.3197
  597TMC3    C3 8899   0.519   2.847  16.801 -0.5834  0.0502 -0.3039
  597TMC3    C4 8900   0.428   2.676  16.986 -1.0409 -0.4143 -0.3503
  597TMC3    C5 8901   0.363   2.793  16.957 -0.4706  0.7066 -0.2118
  597TMC3    C6 8902   0.407   2.882  16.859 -0.0203 -0.6793 -0.7015
  597TMC3     C 8903   0.617   2.529  16.949 -0.2419 -0.1251 -0.2319
  597TMC3     O 8904   0.590   2.466  17.052  0.2375  0.1836 -0.3014
  597TMC3     H 8905   0.699   2.716  16.788 -1.0012 -1.5406 -0.7198
  597TMC3    H1 8906   0.403   2.613  17.071 -1.4623  1.9457  1.2853
  597TMC3    H2 8907   0.358   2.978  16.846  1.4970  0.0343 -1.1697
  597TMC3    C7 8908   0.232   2.805  17.028  0.4309  0.3651  0.1401
  597TMC3    C8 8909   0.569   2.949  16.713 -0.1255  0.2516 -0.4198
  597TMC3    O1 8910   0.213   2.714  17.108 -0.2153  0.5194  0.0110
  597TMC3    O2 8911   0.511   3.051  16.693  0.3821 -0.3781  0.5811
  598TMC3    C1 8912   3.547   3.617  15.735  0.4264 -0.1758  0.6217
  598TMC3    C2 8913   3.509   3.493  15.770 -0.7935  0.1784 -0.8931
  598TMC3    C3 8914   3.447   3.418  15.678 -0.8107 -0.4381 -0.6731
  598TMC3    C4 8915   3.538   3.652  15.605 -0.1226 -0.1446  0.0917
  598TMC3    C5 8916   3.486   3.572  15.509  0.3775  0.0947 -0.6813
  598TMC3    C6 8917   3.440   3.447  15.546  0.5141 -0.2995  0.3343
  598TMC3     C 8918   3.660   3.670  15.800  0.1230  0.3158  0.4427
  598TMC3     O 8919   3.679   3.787  15.800  0.5063  0.1872  0.1493
  598TMC3     H 8920   3.515   3.461  15.873  1.6749 -2.4089 -1.8071
  598TMC3    H1 8921   3.578   3.749  15.578  1.2817 -0.2190  1.8902
  598TMC3    H2 8922   3.420   3.370  15.473 -2.0106  0.1223  0.5806
  598TMC3    C7 8923   3.448   3.619  15.378 -0.5399 -0.4495 -0.1799
  598TMC3    C8 8924   3.431   3.276  15.720 -0.2774 -0.1478 -0.3847
  598TMC3    O1 8925   3.393   3.540  15.300 -0.2094  0.1329 -0.5783
  598TMC3    O2 8926   3.462   3.255  15.838 -0.2091 -0.5573  0.0028
  599MPD2     C 8927   3.252   1.268  15.895 -0.3086 -0.2849  0.5429
  599MPD2    C1 8928   3.252   1.133  15.908 -0.3465  0.9990  0.5366
  599MPD2    C2 8929   3.141   1.070  15.957 -0.3169  0.2616  0.0475
  599MPD2    C3 8930   3.025   1.135  15.982 -0.0257  0.3559 -0.2556
  599MPD2    C4 8931   3.022   1.276  15.968 -0.3935  0.5992 -0.8196
  599MPD2    C5 8932   3.138   1.339  15.918 -0.7893  0.7882 -0.7539
  599MPD2     H 8933   3.148   0.962  15.968 -0.1824  0.1470 -1.1222
  599MPD2    H1 8934   2.931   1.334  15.978  0.0520  1.0192  0.9235
  599MPD2    H2 8935   3.333   1.331  15.857  0.2645 -0.3013  1.7339
  599MPD2    H3 8936   3.147   1.447  15.912 -1.4321  0.8510 -0.6161
  599MPD2     N 8937   2.915   1.085  16.059  0.1624  0.9980  0.5059
  599MPD2    H5 8938   2.856   1.166  16.072  1.8450  2.3295 -0.1301
  599MPD2    N1 8939   3.370   1.067  15.877  0.1004 -0.1887 -0.0108
  599MPD2    H7 8940   3.453   1.121  15.853  0.3343 -1.1903 -1.4160
  600TMC3    C1 8941   2.817   0.968  16.236  0.0175 -0.2416  0.2887
  600TMC3    C2 8942   2.821   0.849  16.308  0.1562 -0.4364 -0.4032
  600TMC3    C3 8943   2.772   0.845  16.435 -0.1355  0.0148  0.4649
  600TMC3    C4 8944   2.776   1.087  16.304 -0.6997 -0.4810  0.1487
  600TMC3    C5 8945   2.739   1.076  16.438  1.0676 -0.4038  0.0161
  600TMC3    C6 8946   2.733   0.957  16.504  0.0695 -0.6652 -0.2464
  600TMC3     C 8947   2.905   0.962  16.116 -0.4207 -0.9509  0.4038
  600TMC3     O 8948   2.982   0.867  16.098  0.1196 -0.8686  0.1593
  600TMC3     H 8949   2.853   0.757  16.259  0.2005  0.3940 -1.9279
  600TMC3    H1 8950   2.755   1.174  16.243  0.9771 -0.7362 -0.7837
  600TMC3    H2 8951   2.719   0.949  16.611  0.8875  2.3623  0.0948
  600TMC3    C7 8952   2.736   1.206  16.507 -0.3520  0.3985 -0.1702
  600TMC3    C8 8953   2.714   0.721  16.483  0.1054  0.8250 -0.0827
  600TMC3    O1 8954   2.676   1.204  16.618  0.2399  1.2563  0.2648
  600TMC3    O2 8955   2.705   0.702  16.603 -0.4138 -0.7984  0.0050
  601MPD2     C 8956   0.476   0.387  17.689 -0.3735 -0.4446 -0.2059
  601MPD2    C1 8957   0.368   0.307  17.647  0.8700  0.2456 -0.7254
  601MPD2    C2 8958   0.368   0.169  17.674 -0.1273  0.0255  0.1343
  601MPD2    C3 8959   0.474   0.107  17.745  0.5214  0.3013 -0.1317
  601MPD2    C4 8960   0.582   0.187   0.024  0.4440 -0.6303  0.9228
  601MPD2    C5 8961   0.581   0.319  17.748  0.0651  0.2170 -0.2904
  601MPD2     H 8962   0.281   0.112  17.646  0.7570 -1.7566  1.0408
  601MPD2    H1 8963   0.679   0.158   0.064  1.2296  0.3257 -0.2713
  601MPD2    H2 8964   0.492   0.490  17.659 -0.3905 -1.4178 -3.5617
  601MPD2    H3 8965   0.667   0.375   0.028 -0.1995  0.0762  0.5681
  601MPD2     N 8966   0.481   4.713   0.024 -0.4261 -0.2825  0.4504
  601MPD2    H5 8967   0.554   4.680   0.086 -1.0588  1.5003  2.1434
  601MPD2    N1 8968   0.256   0.348  17.559  0.6032 -0.1877  0.0114
  601MPD2    H7 8969   0.193   0.281  17.517  0.0004 -0.3939  1.2622
  602TMC3    C1 8970   0.126   0.500  17.425  0.2787 -0.5346  0.0988
  602TMC3    C2 8971   0.031   0.401  17.406  0.8404  0.2495  0.0995
  602TMC3    C3 8972   4.681   0.414  17.304 -0.2684 -0.2253  0.1645
  602TMC3    C4 8973   0.128   0.615  17.357  0.0425 -0.0477 -0.0250
  602TMC3    C5 8974   0.024   0.635  17.266 -0.3321 -0.1284  0.4062
  602TMC3    C6 8975   4.672   0.530  17.239 -0.4607  0.2006 -0.1728
  602TMC3     C 8976   0.237   0.478  17.516  0.7347  0.4469  0.1165
  602TMC3     O 8977   0.306   0.574  17.545  0.5475  0.1517  0.6148
  602TMC3     H 8978   0.037   0.312  17.468  3.6950 -0.4802 -1.2353
  602TMC3    H1 8979   0.197   0.697  17.368  1.5288 -1.0387 -1.8617
  602TMC3    H2 8980   4.612   0.544  17.150 -1.6750 -0.6370  0.5098
  602TMC3    C7 8981   0.053   0.716  17.152  0.0039  0.3025 -0.3441
  602TMC3    C8 8982   4.682   0.309  17.215 -0.4816  0.0614  0.8549
  602TMC3    O1 8983   4.704   0.781  17.106  0.0652  0.0751 -0.4239
  602TMC3    O2 8984   0.035   0.229  17.233 -0.0571 -0.2155  0.0548
  603TMC3    C1 8985   3.398   4.558  10.964  0.6390 -0.1867  0.2949
  603TMC3    C2 8986   3.383   4.557  11.102  0.5691  0.3721 -1.0890
  603TMC3    C3 8987   3.456   4.653  11.163  0.2670 -0.2127  0.1225
  603TMC3    C4 8988   3.460   4.659  10.889  0.2998  0.0758  1.2224
  603TMC3    C5 8989   3.529   0.017  10.960 -0.4966 -0.3649 -0.5202
  603TMC3    C6 8990   3.534   0.011  11.095 -0.4389  0.0170  0.2779
  603TMC3     C 8991   3.319   4.470  10.883  0.5383 -0.2746  0.1377
  603TMC3     O 8992   3.327   4.483  10.761 -0.1037 -0.3909 -0.4615
  603TMC3     H 8993   3.338   4.479  11.162 -0.8422 -0.4415 -3.1975
  603TMC3    H1 8994   3.473   4.652  10.782  1.8578 -2.5792  1.5729
  603TMC3    H2 8995   3.576   0.097  11.146 -0.2286  0.5933 -0.8600
  603TMC3    C7 8996   3.573   0.130  10.887 -0.3534  0.0105  0.1927
  603TMC3    C8 8997   3.457   4.650  11.310  0.1053  0.3048 -0.2228
  603TMC3    O1 8998   3.640   0.208  10.953 -0.2204 -0.5842  0.0855
  603TMC3    O2 8999   3.432   4.541  11.361 -0.1887  0.8891 -1.4573
  604MPD2     C 9000   4.593   3.609  16.105 -0.0332 -0.0670  0.4376
  604MPD2    C1 9001   4.501   3.512  16.139  0.9277 -0.5141  0.4056
  604MPD2    C2 9002   4.484   3.416  16.038  0.6172 -0.4566  0.1801
  604MPD2    C3 9003   4.542   3.428  15.912 -0.3175 -0.1182  0.1696
  604MPD2    C4 9004   4.624   3.535  15.887  0.1863  0.8432  0.2059
  604MPD2    C5 9005   4.648   3.623  15.982  0.1734 -0.7655 -0.0687
  604MPD2     H 9006   4.411   3.339  16.061 -1.1511  0.9373 -0.7134
  604MPD2    H1 9007   4.671   3.547  15.790 -1.2764  0.3429 -0.5637
  604MPD2    H2 9008   4.613   3.688  16.177 -1.7111 -1.5218  2.5172
  604MPD2    H3 9009   4.713   3.706  15.956 -2.0420  0.2297 -2.4454
  604MPD2     N 9010   4.507   3.335  15.809 -0.3896  0.2415 -0.2747
  604MPD2    H5 9011   4.468   3.244  15.832 -1.7305  0.9683  0.2941
  604MPD2    N1 9012   4.442   3.532  16.266  0.0958 -0.0197  0.0641
  604MPD2    H7 9013   4.473   3.612  16.321  2.2633  0.3562 -1.6815
  605TMC3    C1 9014   4.285   3.508  16.438  0.4110 -0.0362 -0.1095
  605TMC3    C2 9015   4.365   3.581  16.529  0.5898  0.2479 -0.0009
  605TMC3    C3 9016   4.300   3.678  16.597 -0.0227  0.3422  0.3123
  605TMC3    C4 9017   4.151   3.509  16.426 -0.3533 -0.6601 -0.5416
  605TMC3    C5 9018   4.093   3.608  16.503 -0.4441 -0.7354  0.7121
  605TMC3    C6 9019   4.162   3.694  16.585  0.1196  0.7708 -0.5204
  605TMC3     C 9020   4.345   3.448  16.324 -0.4962  0.3085 -0.5679
  605TMC3     O 9021   4.287   3.355  16.270 -0.0058 -0.0726 -0.2255
  605TMC3     H 9022   4.473   3.574  16.532  0.6857  2.6078  2.0349
  605TMC3    H1 9023   4.099   3.450  16.350 -0.3816  1.0749 -1.8717
  605TMC3    H2 9024   4.101   3.778  16.615 -0.3154 -0.6749  2.5835
  605TMC3    C7 9025   3.948   3.639  16.466  0.0248 -0.4527  0.0287
  605TMC3    C8 9026   4.383   3.770  16.680  0.0509 -0.0744  0.4272
  605TMC3    O1 9027   3.902   3.743  16.511 -0.2873 -0.1799  0.0603
  605TMC3    O2 9028   4.486   3.717  16.717 -0.2060 -0.2535 -0.1526
  606TMC3    C1 9029   0.095   2.507  17.577  0.0011 -1.0701 -0.0503
  606TMC3    C2 9030   0.098   2.448  17.703 -0.9413  0.8103  0.4569
  606TMC3    C3 9031   0.189   2.354  17.726  0.0914  0.4882 -0.2522
  606TMC3    C4 9032   0.162   2.452  17.468  0.7321  0.7017  0.1142
  606TMC3    C5 9033   0.248   2.350  17.504  0.5969 -0.0252  0.1365
  606TMC3    C6 9034   0.267   2.297  17.635  0.3428  0.6079  0.2668
  606TMC3     C 9035   0.014   2.624  17.549 -0.2762  0.2070  0.8189
  606TMC3     O 9036   4.701   2.646  17.438  0.4306 -0.0041  0.3582
  606TMC3     H 9037   0.016   2.462   0.018 -0.3893 -0.3428  1.3178
  606TMC3    H1 9038   0.166   2.501  17.371  0.1991 -0.9269 -0.7226
  606TMC3    H2 9039   0.346   2.230  17.669  0.8029  0.0683 -1.8712
  606TMC3    C7 9040   0.337   2.295  17.401 -0.7940 -0.9255  0.2723
  606TMC3    C8 9041   0.228   2.327   0.109 -0.7607  0.3145  0.7115
  606TMC3    O1 9042   0.362   2.352  17.294  0.2680  0.0961  0.1803
  606TMC3    O2 9043   0.307   2.233   0.133  0.1713 -0.0352 -0.4161
  607MPD2     C 9044   2.733   3.995  11.881  0.2799  0.0310  0.2283
  607MPD2    C1 9045   2.750   4.116  11.945 -0.2113 -0.5619  0.7247
  607MPD2    C2 9046   2.667   4.147  12.058 -0.4476 -0.1926 -0.3934
  607MPD2    C3 9047   2.603   4.047  12.119  0.2595 -0.4695 -0.2271
  607MPD2    C4 9048   2.593   3.922  12.059  0.2230  0.2541 -0.0770
  607MPD2    C5 9049   2.648   3.897  11.932  0.4423  0.4213  0.1978
  607MPD2     H 9050   2.671   4.245  12.104  0.7530 -0.8055  0.8099
  607MPD2    H1 9051   2.530   3.844  12.101  0.7643  0.5737  1.3114
  607MPD2    H2 9052   2.783   3.968  11.788 -0.5889 -1.9635  0.3366
  607MPD2    H3 9053   2.623   3.807  11.877 -2.4552  0.8750  0.7637
  607MPD2     N 9054   2.552   4.065  12.245  0.6207  0.4707 -0.6315
  607MPD2    H5 9055   2.571   4.157  12.284  0.7500 -0.6876  2.0312
  607MPD2    N1 9056   2.849   4.208  11.907  0.0111 -0.4787 -0.4192
  607MPD2    H7 9057   2.864   4.288  11.968  2.1028  0.7126 -2.5243
  608TMC3    C1 9058   3.018   4.305  11.806  0.2675  0.2988  0.3203
  608TMC3    C2 9059   3.063   4.352  11.925 -0.7401  0.0717 -0.8176
  608TMC3    C3 9060   3.122   4.481  11.927  0.2490 -0.3339 -0.8943
  608TMC3    C4 9061   3.042   4.373  11.694 -0.2581 -0.0191 -0.6348
  608TMC3    C5 9062   3.112   4.490  11.691  0.1054 -0.5292 -0.5915
  608TMC3    C6 9063   3.146   4.544  11.810  0.0423 -0.6036  0.4741
  608TMC3     C 9064   2.945   4.186  11.809  0.1506  0.5739  1.0403
  608TMC3     O 9065   2.952   4.103  11.722 -0.3712  0.3904  0.0696
  608TMC3     H 9066   3.057   4.293  12.016  1.9463 -0.3157 -0.8808
  608TMC3    H1 9067   3.021   4.334  11.595 -3.4190 -4.2118  1.6616
  608TMC3    H2 9068   3.196   4.640  11.810 -0.9707 -0.0703 -1.3214
  608TMC3    C7 9069   3.084   4.586  11.591 -0.1450 -0.4356  0.6786
  608TMC3    C8 9070   3.050   4.573  12.005 -0.0985  0.1079  0.5081
  608TMC3    O1 9071   3.065   4.547  11.474 -0.1570  0.0372 -0.2843
  608TMC3    O2 9072   3.019   4.685  11.951 -0.2976 -0.0583 -0.2659
  609TMC3    C1 9073   1.081   3.537   9.470  0.2651  0.3098  0.4857
  609TMC3    C2 9074   1.022   3.444   9.385  0.3630  0.7090  0.5752
  609TMC3    C3 9075   1.114   3.385   9.304  0.6067 -0.6114  0.8238
  609TMC3    C4 9076   1.215   3.560   9.479 -0.2457  0.1705  0.7612
  609TMC3    C5 9077   1.297   3.485   9.399  0.4108 -0.7762  0.0354
  609TMC3    C6 9078   1.250   3.401   9.301 -0.0687  0.1503 -0.2690
  609TMC3     C 9079   0.996   3.610   9.559 -0.3320 -0.6646 -0.1854
  609TMC3     O 9080   1.048   3.640   9.666 -0.4371 -0.2065 -0.6032
  609TMC3     H 9081   0.918   3.416   9.383  0.5581  0.1305 -1.2899
  609TMC3    H1 9082   1.251   3.638   9.544 -0.3721  0.9874 -0.1519
  609TMC3    H2 9083   1.313   3.345   9.232 -0.8959 -1.0008 -0.0924
  609TMC3    C7 9084   1.420   3.445   9.463  0.3909 -0.7103  0.2515
  609TMC3    C8 9085   1.061   3.291   9.204  0.4308 -0.4301  1.0923
  609TMC3    O1 9086   1.471   3.519   9.546 -0.0352  0.0588 -0.3645
  609TMC3    O2 9087   1.135   3.197   9.182  0.6502 -0.9169  0.1395
  610TMC3    C1 9088   2.956   4.730  12.435  0.3922 -0.3677 -0.9100
  610TMC3    C2 9089   3.009   0.090  12.357 -0.1697 -0.2037  0.4489
  610TMC3    C3 9090   3.139   0.072  12.323 -0.4224 -1.0946 -1.5043
  610TMC3    C4 9091   3.022   4.617  12.480 -0.5115 -0.2844  0.4431
  610TMC3    C5 9092   3.157   4.613  12.448  0.4635  0.8295  0.4923
  610TMC3    C6 9093   3.212   4.704  12.359 -0.0402 -0.2298 -0.1565
  610TMC3     C 9094   2.821   0.013  12.497 -0.5266  0.0108  0.6593
  610TMC3     O 9095   2.817   4.708  12.608  0.4952  0.3980  0.5652
  610TMC3     H 9096   2.953   0.182  12.343  0.9718  0.6863  1.7098
  610TMC3    H1 9097   2.974   4.533  12.530 -0.7116  0.0209  0.7634
  610TMC3    H2 9098   3.314   4.682  12.330  0.4357  1.7121  0.1072
  610TMC3    C7 9099   3.254   4.545  12.533 -0.2229  0.9940  0.2955
  610TMC3    C8 9100   3.204   0.185  12.269 -0.1662 -0.0360 -0.5087
  610TMC3    O1 9101   3.372   4.574  12.526  0.1681  0.4618 -0.1486
  610TMC3    O2 9102   3.151   0.294  12.277  0.0221  0.5089  0.1921
  611MPD2     C 9103   2.818   4.476  10.532 -0.0923 -0.2210 -0.2129
  611MPD2    C1 9104   2.718   4.573  10.522  0.0426 -1.2654 -0.6364
  611MPD2    C2 9105   2.749   4.698  10.463  0.0391 -0.2488 -0.9023
  611MPD2    C3 9106   2.875   4.715  10.412  0.4241 -0.4253 -0.6999
  611MPD2    C4 9107   2.968   4.616  10.417  0.8860 -0.3521 -0.0643
  611MPD2    C5 9108   2.946   4.496  10.488 -0.2279  0.1835  0.8498
  611MPD2     H 9109   2.679   0.041  10.469  1.5104  0.8706  1.2773
  611MPD2    H1 9110   3.066   4.627  10.370  2.2907  2.3467  3.5067
  611MPD2    H2 9111   2.794   4.377  10.570  4.6192 -1.0237  0.6656
  611MPD2    H3 9112   3.024   4.421  10.493 -0.3335 -0.0210 -0.4262
  611MPD2     N 9113   2.922   0.100  10.361  0.5138 -0.2057  0.1512
  611MPD2    H5 9114   3.018   0.098  10.330  0.3134  1.6008 -0.5393
  611MPD2    N1 9115   2.589   4.541  10.574  0.2763 -0.1377 -0.3478
  611MPD2    H7 9116   2.576   4.455  10.626 -1.0122  0.4309  0.2748
  612TMC3    C1 9117   2.909   0.330  10.293  0.1629  0.3067  0.0912
  612TMC3    C2 9118   3.042   0.338  10.334  0.0711  0.7654  0.1479
  612TMC3    C3 9119   3.105   0.454  10.295  0.2105 -0.3682 -0.2746
  612TMC3    C4 9120   2.844   0.414  10.206 -0.4208  0.6012  0.2183
  612TMC3    C5 9121   2.926   0.513  10.160  0.7143  0.0063 -0.3381
  612TMC3    C6 9122   3.053   0.538  10.203 -0.0406  0.1348 -0.1981
  612TMC3     C 9123   2.839   0.211  10.338  0.3665 -0.1225  0.3822
  612TMC3     O 9124   2.719   0.220  10.356  0.0253 -0.2073 -0.3849
  612TMC3     H 9125   3.069   0.285  10.424 -0.8404 -0.8887 -0.5425
  612TMC3    H1 9126   2.743   0.393  10.174 -0.4337  0.2261  0.5114
  612TMC3    H2 9127   3.110   0.626  10.178  0.3849 -0.1978 -0.4037
  612TMC3    C7 9128   2.875   0.617  10.075 -0.2988  0.8637  0.3863
  612TMC3    C8 9129   3.232   0.485  10.355 -0.2056  1.0331  0.7303
  612TMC3    O1 9130   2.943   0.715  10.082 -0.1438  0.4349 -0.2566
  612TMC3    O2 9131   3.282   0.594  10.326  0.5001  0.2717 -0.2764
  613MPD2     C 9132   1.723   2.238  16.479 -0.4969 -0.3463  0.1289
  613MPD2    C1 9133   1.807   2.175  16.395 -0.5622  0.2158  0.1797
  613MPD2    C2 9134   1.794   2.039  16.376  0.1941  0.5082 -0.2439
  613MPD2    C3 9135   1.686   1.972  16.434  0.6110 -0.8085 -0.1329
  613MPD2    C4 9136   1.599   2.035  16.520  0.2234  0.2802 -0.1187
  613MPD2    C5 9137   1.616   2.169  16.537 -0.1880  0.3967 -0.3326
  613MPD2     H 9138   1.859   1.988  16.305 -1.8272 -0.1780 -1.5857
  613MPD2    H1 9139   1.514   1.989  16.569  0.4470  2.0033  1.8935
  613MPD2    H2 9140   1.737   2.342  16.505 -0.0418 -0.7068  1.3404
  613MPD2    H3 9141   1.558   2.228  16.607 -1.6648  0.2704 -1.4512
  613MPD2     N 9142   1.683   1.833  16.403  0.2342  0.1679 -0.2261
  613MPD2    H5 9143   1.758   1.792  16.347  0.6335 -0.6851  0.9226
  613MPD2    N1 9144   1.898   2.263  16.324  0.3789  0.5572 -0.2350
  613MPD2    H7 9145   1.889   2.361  16.347 -1.6534  0.1633  0.5997
  614TMC3    C1 9146   2.058   2.313  16.143  0.4703  0.0783 -0.4234
  614TMC3    C2 9147   2.153   2.242  16.070 -0.0224 -0.2459 -0.1137
  614TMC3    C3 9148   2.154   2.251  15.931  0.0094 -0.1303  0.1304
  614TMC3    C4 9149   1.970   2.394  16.074  0.0196 -0.3434  0.0647
  614TMC3    C5 9150   1.976   2.399  15.935 -1.1024  0.0721  0.1130
  614TMC3    C6 9151   2.069   2.329  15.866  0.1139  0.3984  0.5996
  614TMC3     C 9152   1.985   2.216  16.226  0.5688 -0.1565 -0.3826
  614TMC3     O 9153   2.022   2.099  16.213  0.1315  0.3690  0.6746
  614TMC3     H 9154   2.218   2.172  16.120 -1.8117  0.3212  2.9674
  614TMC3    H1 9155   1.894   2.454  16.123  0.3126  0.1049 -0.0268
  614TMC3    H2 9156   2.080   2.336  15.759  0.7421  2.0758  0.7649
  614TMC3    C7 9157   1.887   2.492  15.879  0.0161  0.5074 -0.0501
  614TMC3    C8 9158   2.176   2.127  15.867  0.0880  0.8529 -0.1231
  614TMC3    O1 9159   1.831   2.573  15.951  0.5609 -0.0394  0.0658
  614TMC3    O2 9160   2.216   2.115  15.750 -0.1842  0.0194  0.5453
  615MPD2     C 9161   0.972   3.407  16.124 -0.4389 -0.3924 -0.1277
  615MPD2    C1 9162   0.880   3.512  16.133 -0.1507  1.0354  0.2193
  615MPD2    C2 9163   0.814   3.558  16.017 -0.5858  0.4568 -0.8185
  615MPD2    C3 9164   0.841   3.504  15.896 -0.6222 -0.3324 -0.4500
  615MPD2    C4 9165   0.939   3.411  15.891  0.4936 -0.5651  0.5467
  615MPD2    C5 9166   0.990   3.349  16.005  0.1070  0.2193  0.4564
  615MPD2     H 9167   0.735   3.629  16.039 -0.1134  1.0491 -1.0107
  615MPD2    H1 9168   0.955   3.355  15.799  2.0961  0.4065  0.2286
  615MPD2    H2 9169   1.016   3.357  16.210 -0.5671 -1.7157 -0.8326
  615MPD2    H3 9170   1.061   3.267  16.003  0.3007  0.4334 -0.9738
  615MPD2     N 9171   0.776   3.550  15.783 -0.2510 -0.0608 -0.2235
  615MPD2    H5 9172   0.709   3.626  15.795 -1.9782 -1.8189  1.2453
  615MPD2    N1 9173   0.857   3.585  16.247 -0.0693 -0.0667 -0.0505
  615MPD2    H7 9174   0.781   3.652  16.245  1.6318  1.8705 -0.6232
  616TMC3    C1 9175   0.867   3.664  16.467 -0.0402  0.0453  0.1622
  616TMC3    C2 9176   0.955   3.708  16.561 -0.1098  0.4246 -0.4362
  616TMC3    C3 9177   0.910   3.787  16.664  0.2496  0.0577  0.5581
  616TMC3    C4 9178   0.738   3.703  16.462  0.5364 -0.7343 -0.3988
  616TMC3    C5 9179   0.695   3.788  16.566  1.0296  0.2771 -1.1847
  616TMC3    C6 9180   0.778   3.823  16.672 -0.0356 -0.5376  0.5764
  616TMC3     C 9181   0.920   3.570  16.367  0.8495  0.9596 -0.3787
  616TMC3     O 9182   1.026   3.519  16.393  0.2707 -0.2205 -0.1338
  616TMC3     H 9183   1.060   3.680  16.559 -0.3633 -0.5711 -0.0128
  616TMC3    H1 9184   0.660   3.652  16.407 -0.3904  1.1996 -0.8502
  616TMC3    H2 9185   0.741   3.873  16.761  1.0582  0.1767  0.6310
  616TMC3    C7 9186   0.561   3.768  16.598  0.0628 -0.3046  0.0209
  616TMC3    C8 9187   0.998   3.854  16.755  0.3872 -0.3486 -0.3403
  616TMC3    O1 9188   0.532   3.708  16.699  0.2935  0.4136  0.3883
  616TMC3    O2 9189   0.954   3.906  16.859 -0.0190  0.3590 -0.3771
  617MPD2     C 9190   4.142   1.623  13.920  0.6114 -0.2150 -0.2787
  617MPD2    C1 9191   4.096   1.536  14.022  0.3291 -0.9005  0.0876
  617MPD2    C2 9192   3.978   1.570  14.089  0.6904  0.2832  0.2412
  617MPD2    C3 9193   3.893   1.675  14.044 -0.2715 -0.4493 -0.1449
  617MPD2    C4 9194   3.946   1.755  13.939 -0.5620 -0.2509  0.2070
  617MPD2    C5 9195   4.066   1.731  13.882  0.0143  0.0129  0.3975
  617MPD2     H 9196   3.943   1.509  14.172  0.6296  0.5774  0.4309
  617MPD2    H1 9197   3.888   1.838  13.901  1.1861  0.1390 -1.5708
  617MPD2    H2 9198   4.236   1.612  13.869  1.2772  0.7109  0.7447
  617MPD2    H3 9199   4.105   1.772  13.789 -0.5624  1.6742  0.8870
  617MPD2     N 9200   3.764   1.710  14.099  0.0798 -1.3617 -0.3147
  617MPD2    H5 9201   3.701   1.777  14.056 -1.5288 -0.5951  3.2248
  617MPD2    N1 9202   4.167   1.420  14.035 -0.1148 -0.0044 -1.1272
  617MPD2    H7 9203   4.242   1.413  13.967  1.2689 -0.5914  0.4641
  618TMC3    C1 9204   4.191   1.188  14.092 -0.9778  0.7223 -0.1523
  618TMC3    C2 9205   4.121   1.145  13.981 -0.8252  0.3274 -0.1076
  618TMC3    C3 9206   4.184   1.054  13.901  0.1603 -0.0217 -0.0452
  618TMC3    C4 9207   4.329   1.174  14.094 -0.2173 -0.6753 -0.2078
  618TMC3    C5 9208   4.385   1.095  13.997  0.8541  0.1716  0.2611
  618TMC3    C6 9209   4.316   1.032  13.902  0.1514 -0.0400 -1.0276
  618TMC3     C 9210   4.142   1.317  14.131 -1.2754  0.2280  0.1560
  618TMC3     O 9211   4.054   1.307  14.212  0.1634  0.1406  0.7867
  618TMC3     H 9212   4.014   1.164  13.977 -1.0528 -1.4440 -3.0372
  618TMC3    H1 9213   4.397   1.222  14.164 -0.4788  1.3287 -1.3130
  618TMC3    H2 9214   4.368   0.954  13.848 -0.7586 -0.7771 -0.8412
  618TMC3    C7 9215   4.504   1.023  14.027  0.5218  0.1096 -0.2651
  618TMC3    C8 9216   4.123   1.037  13.768 -0.6518 -0.9672  0.3573
  618TMC3    O1 9217   4.491   0.955  14.129 -0.5717  0.1803  0.9227
  618TMC3    O2 9218   4.001   1.043  13.762 -0.5071  0.5170  0.1053
  619MPD2     C 9219   0.770   3.358  13.781  0.5487 -0.4131  0.7358
  619MPD2    C1 9220   0.669   3.420  13.706 -0.0056  0.0950  0.1790
  619MPD2    C2 9221   0.557   3.341  13.667 -0.5839 -0.9702  0.6513
  619MPD2    C3 9222   0.543   3.213  13.712 -1.1980 -0.0582  0.0399
  619MPD2    C4 9223   0.643   3.155  13.788  0.5224 -0.2943 -0.8537
  619MPD2    C5 9224   0.751   3.232  13.825  0.1735 -0.4563 -0.2120
  619MPD2     H 9225   0.475   3.390  13.617 -0.7030 -1.5363  0.2823
  619MPD2    H1 9226   0.618   3.059  13.830 -1.4855  1.1674  1.2643
  619MPD2    H2 9227   0.857   3.411  13.816  0.1043  1.7595 -1.4956
  619MPD2    H3 9228   0.834   3.190  13.880 -0.9684 -0.3889  1.5533
  619MPD2     N 9229   0.413   3.151  13.696 -0.2543 -0.1135 -0.1958
  619MPD2    H5 9230   0.413   3.053  13.720  0.2520  0.7144  3.1204
  619MPD2    N1 9231   0.674   3.552  13.664 -0.0042 -0.2200 -0.3740
  619MPD2    H7 9232   0.593   3.580  13.609 -2.8298  1.0598  4.4061
  620TMC3    C1 9233   0.712   3.776  13.675 -0.0099 -0.1534 -0.1953
  620TMC3    C2 9234   0.653   3.781  13.544  0.1316  0.3894 -0.1347
  620TMC3    C3 9235   0.587   3.894  13.511  0.2845 -0.4402 -0.0943
  620TMC3    C4 9236   0.708   3.873  13.768  0.2231 -0.2852  0.0605
  620TMC3    C5 9237   0.642   3.985  13.726 -0.4645  0.4673  0.6073
  620TMC3    C6 9238   0.604   4.000  13.592 -0.1226  0.4904  0.0049
  620TMC3     C 9239   0.756   3.647  13.722 -0.4468  0.3833  0.3430
  620TMC3     O 9240   0.811   3.640  13.831 -0.3673 -0.1196 -0.0268
  620TMC3     H 9241   0.660   3.705  13.468  0.8694  0.6561 -0.3339
  620TMC3    H1 9242   0.737   3.872  13.873  1.5911 -1.9409 -0.3401
  620TMC3    H2 9243   0.573   4.098  13.559 -0.0673  0.1219 -1.1566
  620TMC3    C7 9244   0.544   4.039  13.818 -0.3702 -0.1396  0.4140
  620TMC3    C8 9245   0.443   3.880  13.492 -0.2867  0.4474  0.1246
  620TMC3    O1 9246   0.587   4.043  13.933  0.8148  0.3280 -0.0783
  620TMC3    O2 9247   0.369   3.972  13.524  0.5369 -0.2972 -0.1628
  621MPD2     C 9248   0.300   3.025  10.311  0.0452  0.2190  0.5256
  621MPD2    C1 9249   0.393   2.939  10.367  0.1857  0.5043  0.1944
  621MPD2    C2 9250   0.519   2.986  10.384  0.3349  0.0391 -0.4749
  621MPD2    C3 9251   0.556   3.113  10.345  0.2839  1.0640  0.1415
  621MPD2    C4 9252   0.463   3.190  10.287 -0.2437 -0.3533 -0.5742
  621MPD2    C5 9253   0.340   3.147  10.258 -0.2889 -0.0031  0.3985
  621MPD2     H 9254   0.592   2.920  10.430 -1.0551 -0.6667  0.7208
  621MPD2    H1 9255   0.489   3.288  10.248  3.0862 -0.7972  0.4589
  621MPD2    H2 9256   0.199   2.991  10.294  0.1809  1.0314 -1.9124
  621MPD2    H3 9257   0.267   3.207  10.205 -2.2944  0.1829  3.3176
  621MPD2     N 9258   0.692   3.153  10.370  0.3165 -0.3367  0.1011
  621MPD2    H5 9259   0.754   3.093  10.424  1.5232  0.8729  0.0838
  621MPD2    N1 9260   0.354   2.813  10.418  0.7080  0.3508  0.1255
  621MPD2    H7 9261   0.430   2.770  10.471 -0.2988 -0.3914  0.9575
  622TMC3    C1 9262   0.218   2.620  10.482  0.3899  0.2741  0.5567
  622TMC3    C2 9263   0.086   2.610  10.530 -0.2128  0.2036  0.1180
  622TMC3    C3 9264   0.049   2.557  10.647  0.3282  0.8419  0.7781
  622TMC3    C4 9265   0.315   2.562  10.565  0.6770 -0.2691 -0.0507
  622TMC3    C5 9266   0.278   2.511  10.692 -0.9741 -0.6829  0.1941
  622TMC3    C6 9267   0.146   2.520  10.736  0.2969  0.8087 -0.1517
  622TMC3     C 9268   0.235   2.746  10.405 -0.4926  0.2713 -0.1046
  622TMC3     O 9269   0.136   2.788  10.349 -0.1706 -0.1908 -0.3048
  622TMC3     H 9270   0.003   2.643  10.469 -0.3976 -1.1781 -0.3667
  622TMC3    H1 9271   0.411   2.545  10.518  0.5668 -0.7781 -0.0907
  622TMC3    H2 9272   0.115   2.477  10.830 -2.6663 -1.4409 -2.1473
  622TMC3    C7 9273   0.374   2.507  10.795  0.3368 -0.0702 -0.4939
  622TMC3    C8 9274   4.672   2.626  10.695 -0.6928 -0.0169  0.0267
  622TMC3    O1 9275   0.344   2.512  10.918 -0.0558  0.1975  0.6301
  622TMC3    O2 9276   4.568   2.561  10.698 -0.3193  0.2717  0.8738
  623MPD2     C 9277   0.313   4.248  16.234 -0.0355 -0.1351 -0.4954
  623MPD2    C1 9278   0.195   4.228  16.304 -0.2480  0.0344  0.2676
  623MPD2    C2 9279   0.206   4.205  16.437  0.3892 -0.2627  0.2009
  623MPD2    C3 9280   0.330   4.206  16.492  0.1329  0.1848  0.1644
  623MPD2    C4 9281   0.442   4.246  16.423 -0.0941  0.0343  0.1018
  623MPD2    C5 9282   0.433   4.273  16.297  0.5276 -0.5093 -0.0090
  623MPD2     H 9283   0.116   4.197  16.496  0.6957 -1.3696  0.5168
  623MPD2    H1 9284   0.534   4.259  16.478  1.3428  3.2910 -3.1114
  623MPD2    H2 9285   0.316   4.264  16.126 -0.5158  1.0799 -0.3336
  623MPD2    H3 9286   0.525   4.307  16.252  1.1611 -2.5705 -0.2777
  623MPD2     N 9287   0.338   4.160  16.627  0.4909  0.3948 -0.4091
  623MPD2    H5 9288   0.250   4.155  16.677  3.2551  1.4276  4.5743
  623MPD2    N1 9289   0.074   4.209  16.236 -0.2556 -0.3195  0.3529
  623MPD2    H7 9290   0.079   4.201  16.135 -1.0292  3.2108  0.0218
  624TMC3    C1 9291   0.417   3.893  16.941 -0.2197 -0.2143  0.2311
  624TMC3    C2 9292   0.275   3.890  16.958 -0.6876 -0.0306  0.1208
  624TMC3    C3 9293   0.207   4.008  16.924 -1.0240 -0.0721 -0.4325
  624TMC3    C4 9294   0.480   3.994  16.873  0.6724 -0.2227  0.1406
  624TMC3    C5 9295   0.404   4.094  16.826 -0.5233 -0.3100 -0.3292
  624TMC3    C6 9296   0.271   4.107  16.858 -0.1461 -0.4440  0.2954
  624TMC3     C 9297   0.495   3.803  17.017 -1.1424  0.4519 -0.1664
  624TMC3     O 9298   0.449   3.694  17.046  1.0000  0.2043 -0.9476
  624TMC3     H 9299   0.221   3.814  17.013 -0.0571  0.3229  1.2447
  624TMC3    H1 9300   0.583   3.984  16.844  1.3916  1.7652  1.9662
  624TMC3    H2 9301   0.207   4.191  16.833  0.1720  0.4610  2.5793
  624TMC3    C7 9302   0.447   4.152  16.701  0.4149 -0.2906  0.6091
  624TMC3    C8 9303   0.059   3.990  16.919  0.4299 -0.5683  0.2269
  624TMC3    O1 9304   0.566   4.152  16.669 -0.0789 -0.0546 -0.0330
  624TMC3    O2 9305   0.024   3.872  16.919  0.9013  0.0936  0.5787
  625MPD2     C 9306   0.084   4.486   0.818  0.1872 -0.4805  0.2699
  625MPD2    C1 9307   0.108   4.574   0.711  0.3002 -0.4062 -0.0012
  625MPD2    C2 9308   0.226   4.636   0.697 -0.3705  0.0554 -0.0901
  625MPD2    C3 9309   0.316   4.619   0.799  0.5442 -0.2161 -0.6328
  625MPD2    C4 9310   0.304   4.528   0.898  0.0054 -0.0811  0.6391
  625MPD2    C5 9311   0.186   4.455   0.906 -0.1876  0.6718 -0.3745
  625MPD2     H 9312   0.238   4.710   0.620  2.4169 -1.3216 -0.9473
  625MPD2    H1 9313   0.383   4.504   0.969  0.4145  1.3082  0.6536
  625MPD2    H2 9314   4.735   4.426   0.838  0.5546 -1.6073 -1.4804
  625MPD2    H3 9315   0.178   4.373   0.977 -0.6343 -0.3795 -1.6308
  625MPD2     N 9316   0.428   4.705   0.798  0.0171  0.3056 -0.0572
  625MPD2    H5 9317   0.452   0.019   0.715  2.2758  1.9909  1.6837
  625MPD2    N1 9318   0.003   4.608   0.616 -0.1088 -0.6174 -0.1404
  625MPD2    H7 9319   0.027   4.665   0.535 -3.2686  0.2800 -0.4117
  626TMC3    C1 9320   4.518   4.656   0.538 -0.2702 -0.1649 -0.9328
  626TMC3    C2 9321   4.552   0.036   0.485  0.0634  0.4672  1.3110
  626TMC3    C3 9322   4.469   0.118   0.416  0.5313  0.6707 -0.1245
  626TMC3    C4 9323   4.388   4.618   0.544 -0.7654 -0.4825  0.1020
  626TMC3    C5 9324   4.299   4.699   0.475  0.1932 -0.0248  0.3925
  626TMC3    C6 9325   4.336   0.079   0.410  0.0348 -0.5006  0.1346
  626TMC3     C 9326   4.609   4.581   0.632  0.4696  0.3868 -0.5108
  626TMC3     O 9327   4.550   4.513   0.715  0.1571 -0.0028 -0.0843
  626TMC3     H 9328   4.653   0.067   0.509  1.7010 -3.6287 -0.1774
  626TMC3    H1 9329   4.349   4.524   0.581 -0.8969 -0.4983 -0.0783
  626TMC3    H2 9330   4.259   0.145   0.371  0.7514 -0.2213 -0.7977
  626TMC3    C7 9331   4.160   4.665   0.481 -0.1538  0.7665  0.4647
  626TMC3    C8 9332   4.492   0.255   0.372  0.1768  0.5603 -0.5467
  626TMC3    O1 9333   4.115   4.573   0.549  0.4171  0.1434  0.1281
  626TMC3    O2 9334   4.419   0.298   0.286  0.3818  0.6846 -0.1709
  627MPD2     C 9335   3.269   0.613  14.558 -0.4246 -0.7895 -0.3696
  627MPD2    C1 9336   3.298   0.578  14.686 -0.6002 -0.4973  0.2904
  627MPD2    C2 9337   3.236   0.469  14.733  0.1240  0.2812 -0.1398
  627MPD2    C3 9338   3.141   0.403  14.657 -0.0784  0.3001 -0.4143
  627MPD2    C4 9339   3.126   0.438  14.525  0.1580 -0.0427  0.0955
  627MPD2    C5 9340   3.194   0.541  14.470 -0.0886  0.3936  0.0472
  627MPD2     H 9341   3.267   0.431  14.829 -1.1241 -0.5248 -0.0533
  627MPD2    H1 9342   3.062   0.382  14.457 -0.9018  0.0684  1.0115
  627MPD2    H2 9343   3.320   0.696  14.510 -1.2906 -0.0859 -0.0733
  627MPD2    H3 9344   3.190   0.563  14.364  1.8799 -1.7551 -0.4827
  627MPD2     N 9345   3.079   0.296  14.721 -0.1750  1.3613  0.0722
  627MPD2    H5 9346   3.111   0.283  14.816 -3.2986 -0.7255  0.8487
  627MPD2    N1 9347   3.399   0.643  14.763  0.5222 -0.2426 -0.5428
  627MPD2    H7 9348   3.439   0.588  14.839 -0.1756 -1.3991 -1.0064
  628TMC3    C1 9349   3.557   0.818  14.822 -0.2683  0.4614 -0.5344
  628TMC3    C2 9350   3.662   0.730  14.829  0.2045  0.3818  0.6341
  628TMC3    C3 9351   3.770   0.778  14.900 -0.4718 -0.2088 -0.5257
  628TMC3    C4 9352   3.560   0.939  14.880  0.9310 -0.1339  0.1183
  628TMC3    C5 9353   3.675   0.977  14.946  0.1639  0.0086 -0.4181
  628TMC3    C6 9354   3.778   0.891  14.968 -1.0699  0.0059 -0.5072
  628TMC3     C 9355   3.437   0.774  14.747  0.5237 -0.4331  0.5016
  628TMC3     O 9356   3.389   0.858  14.672 -0.0752  0.0031  0.2317
  628TMC3     H 9357   3.666   0.630  14.787 -1.1206  1.0996 -1.2367
  628TMC3    H1 9358   3.476   1.002  14.855  0.6374 -1.2120 -1.5986
  628TMC3    H2 9359   3.870   0.915  15.020 -0.0678 -1.1617 -1.7587
  628TMC3    C7 9360   3.721   1.113  14.957 -0.0069  0.2925 -0.3396
  628TMC3    C8 9361   3.893   0.707  14.894  0.1773  0.2048 -1.4933
  628TMC3    O1 9362   3.820   1.129  15.024 -0.4662 -0.0545  0.0766
  628TMC3    O2 9363   3.960   0.675  14.991  0.5684 -0.1355 -0.5016
  629MPD2     C 9364   1.452   3.730  16.962  0.1290 -0.1898 -0.3825
  629MPD2    C1 9365   1.471   3.772  16.835  0.9787  0.4750 -0.2205
  629MPD2    C2 9366   1.362   3.805  16.762 -1.5603  0.1211 -0.1566
  629MPD2    C3 9367   1.237   3.816  16.810  0.5038  1.0574 -0.3980
  629MPD2    C4 9368   1.214   3.786  16.949 -0.4389  0.2994 -0.2799
  629MPD2    C5 9369   1.328   3.752  17.023 -0.2223 -0.4408 -0.1461
  629MPD2     H 9370   1.379   3.817  16.656 -0.4702  0.7505  0.0878
  629MPD2    H1 9371   1.121   3.777  17.004 -0.7617 -1.0380 -1.0582
  629MPD2    H2 9372   1.537   3.703  17.024  0.2199  0.3964 -0.2481
  629MPD2    H3 9373   1.326   3.741  17.130 -2.6547  1.4595  0.0032
  629MPD2     N 9374   1.127   3.827  16.715  0.0430  0.1299  0.8582
  629MPD2    H5 9375   1.149   3.818  16.617  0.7598  0.3075  1.0038
  629MPD2    N1 9376   1.602   3.767  16.788 -0.3398  0.2952 -0.3914
  629MPD2    H7 9377   1.665   3.706  16.838  0.4778 -0.3627 -2.2293
  630TMC3    C1 9378   1.782   3.798  16.629 -0.4593 -0.7860  0.4388
  630TMC3    C2 9379   1.849   3.907  16.587 -0.2010  0.7534  0.0340
  630TMC3    C3 9380   1.989   3.894  16.569 -0.8964  0.9046  0.0669
  630TMC3    C4 9381   1.844   3.688  16.675 -0.2726  0.4893 -0.7427
  630TMC3    C5 9382   1.982   3.688  16.662  0.2237  0.0407  0.1771
  630TMC3    C6 9383   2.058   3.791  16.617  0.5727  0.1008 -0.1955
  630TMC3     C 9384   1.644   3.824  16.671  0.1982 -0.5743 -0.4899
  630TMC3     O 9385   1.590   3.916  16.604 -0.6330 -0.8905  0.4363
  630TMC3     H 9386   1.794   3.998  16.563 -2.7893 -0.3368  1.8988
  630TMC3    H1 9387   1.789   3.598  16.698  0.3653  0.0911 -0.7748
  630TMC3    H2 9388   2.166   3.778  16.622  0.7817  1.9964  0.2822
  630TMC3    C7 9389   2.048   3.606  16.764 -0.0152 -0.4122 -1.0643
  630TMC3    C8 9390   2.067   4.010  16.533 -0.0470  0.1296 -0.3036
  630TMC3    O1 9391   2.162   3.644  16.792  0.1115  0.0657 -1.1159
  630TMC3    O2 9392   2.185   4.024  16.565 -0.4097  0.0683 -0.4514
  631MPD2     C 9393   4.734   4.057  15.627  0.1669  0.6589  0.5732
  631MPD2    C1 9394   0.102   4.123  15.575  0.1585 -0.4210 -0.3859
  631MPD2    C2 9395   0.209   4.040  15.537  0.1491 -0.0412 -0.0707
  631MPD2    C3 9396   0.211   3.907  15.566  0.0222  0.2699 -0.0670
  631MPD2    C4 9397   0.103   3.855  15.633 -0.2436  0.6742 -0.1207
  631MPD2    C5 9398   4.731   3.926  15.658  0.0400 -0.0924  0.4675
  631MPD2     H 9399   0.291   4.082  15.481 -0.2273  1.9363  0.8500
  631MPD2    H1 9400   0.090   3.752  15.664 -0.1660  0.9491  0.8344
  631MPD2    H2 9401   4.652   4.118  15.661  1.3200  2.6318 -0.1813
  631MPD2    H3 9402   4.646   3.883  15.710  0.6801 -1.2016  0.6153
  631MPD2     N 9403   0.328   3.837  15.525 -0.4740  0.7002 -0.2993
  631MPD2    H5 9404   0.393   3.883  15.462  2.1309 -2.5071  0.0388
  631MPD2    N1 9405   0.091   4.265  15.549 -0.5369 -0.2185  0.2628
  631MPD2    H7 9406   4.738   4.308  15.547 -1.2286 -1.7148  0.3736
  632TMC3    C1 9407   0.192   4.469  15.465 -0.0191 -0.7637 -0.2033
  632TMC3    C2 9408   0.091   4.561  15.477 -0.1973 -0.1986  0.1795
  632TMC3    C3 9409   0.104   4.688  15.433 -0.2971  0.6835 -0.4202
  632TMC3    C4 9410   0.307   4.498  15.394 -0.0166  0.4715 -0.0481
  632TMC3    C5 9411   0.305   4.626  15.333 -0.5126 -0.5576 -0.4908
  632TMC3    C6 9412   0.215   4.727  15.364  0.0629  0.5473  0.2810
  632TMC3     C 9413   0.206   4.340  15.540 -0.6018  0.4679 -0.0543
  632TMC3     O 9414   0.323   4.317  15.572 -0.3237  0.3114 -0.6569
  632TMC3     H 9415   0.006   4.539  15.541 -0.5647  2.2872  0.5650
  632TMC3    H1 9416   0.382   4.426  15.363 -0.8454 -0.6032  0.4211
  632TMC3    H2 9417   0.234   0.087  15.327  1.9793  0.4875  1.1046
  632TMC3    C7 9418   0.367   4.642  15.203 -1.2759  0.3407  0.3557
  632TMC3    C8 9419   0.001   0.045  15.456 -0.5581  0.0989 -0.6640
  632TMC3    O1 9420   0.307   4.711  15.126  0.0745  0.3381  0.1014
  632TMC3    O2 9421   0.033   0.163  15.458  0.1240 -0.2459 -0.2040
  633MPD2     C 9422   0.077   2.046  17.469  0.1803 -0.2554  0.2694
  633MPD2    C1 9423   0.100   1.971  17.354  0.4450 -0.6223  0.2143
  633MPD2    C2 9424   0.131   1.834  17.368  0.4028 -0.0945 -0.1613
  633MPD2    C3 9425   0.145   1.779  17.494 -0.1218 -0.3527 -0.3921
  633MPD2    C4 9426   0.121   1.857  17.607 -0.7358 -0.0683  1.0932
  633MPD2    C5 9427   0.089   1.987  17.593  1.5618  0.1002  0.6070
  633MPD2     H 9428   0.147   1.785  17.273  1.7813  1.2046 -0.5890
  633MPD2    H1 9429   0.134   1.820  17.708 -1.9677 -1.3220  0.7900
  633MPD2    H2 9430   0.060   2.153  17.470  1.8537 -0.0041  1.3993
  633MPD2    H3 9431   0.057   2.035  17.685  3.4077 -0.9692  1.8092
  633MPD2     N 9432   0.190   1.658  17.521  0.7284  0.3059  0.2026
  633MPD2    H5 9433   0.239   1.643  17.608 -0.1868  0.9136  0.8118
  633MPD2    N1 9434   0.100   2.023  17.222 -0.2701 -0.4836 -0.2800
  633MPD2    H7 9435   0.125   1.958  17.148  2.2112  0.6866 -0.4696
  634TMC3    C1 9436   0.128   2.206  17.074 -0.2646  0.6153 -0.9218
  634TMC3    C2 9437   0.208   2.128  16.995  0.4377 -0.0915 -0.4728
  634TMC3    C3 9438   0.282   2.185  16.898  0.1212 -0.3307  0.6618
  634TMC3    C4 9439   0.116   2.341  17.055 -0.4272  0.5931 -0.1925
  634TMC3    C5 9440   0.188   2.393  16.947  0.2936  0.2931  0.3437
  634TMC3    C6 9441   0.273   2.319  16.873  0.5336  0.3176 -0.4717
  634TMC3     C 9442   0.077   2.156  17.198 -0.9568 -0.4069 -0.4555
  634TMC3     O 9443   0.013   2.230  17.270  0.1445  0.6357 -0.0041
  634TMC3     H 9444   0.235   2.024  17.008  1.7746  0.4265  0.8691
  634TMC3    H1 9445   0.054   2.406  17.116 -0.7987 -1.1568  1.2859
  634TMC3    H2 9446   0.358   2.371  16.830  1.0964 -0.8149 -0.7247
  634TMC3    C7 9447   0.123   2.486  16.862 -0.1157  0.0008  0.5852
  634TMC3    C8 9448   0.330   2.103  16.780  0.1222 -0.0165  0.5230
  634TMC3    O1 9449   0.189   2.520  16.762  0.1323  0.3082 -0.0920
  634TMC3    O2 9450   0.295   1.983  16.788  0.2367  0.1464 -0.0916
  635TMC3    C1 9451   4.492   3.735   0.189 -0.4633  0.8281  0.8522
  635TMC3    C2 9452   4.581   3.649   0.229  0.1263  0.1701 -0.8857
  635TMC3    C3 9453   4.538   3.529   0.269 -0.3543  0.3690 -0.3626
  635TMC3    C4 9454   4.354   3.714   0.219 -0.3633 -0.4082 -0.7943
  635TMC3    C5 9455   4.315   3.597   0.271 -1.0922 -0.2333 -0.2704
  635TMC3    C6 9456   4.404   3.495   0.279 -0.1320 -0.1685  0.0556
  635TMC3     C 9457   4.546   3.868   0.157 -0.1818  0.1922 -0.3750
  635TMC3     O 9458   4.659   3.884   0.188 -0.1730  0.5462 -0.5001
  635TMC3     H 9459   4.685   3.677   0.217  0.6417 -0.8383  1.2555
  635TMC3    H1 9460   4.278   3.791   0.208  0.8730  1.0784  0.9690
  635TMC3    H2 9461   4.380   3.400   0.325  1.5985 -1.4743 -1.7355
  635TMC3    C7 9462   4.185   3.590   0.332 -0.0904  0.1881  0.5724
  635TMC3    C8 9463   4.629   3.426   0.324 -0.1740 -0.0475 -0.2894
  635TMC3    O1 9464   4.128   3.699   0.348 -0.0263  0.3737  0.1825
  635TMC3    O2 9465   4.592   3.310   0.322  0.4217  0.2709  0.4434
  636MPD2     C 9466   1.619   1.953  15.699 -0.6665  0.0620 -0.4267
  636MPD2    C1 9467   1.562   2.002  15.817  0.1548 -0.3804 -0.7345
  636MPD2    C2 9468   1.532   1.920  15.924 -0.5187 -0.0125 -0.2393
  636MPD2    C3 9469   1.550   1.784  15.906  0.3319  0.8406 -0.4535
  636MPD2    C4 9470   1.602   1.730  15.791  0.0448  0.5492  0.2302
  636MPD2    C5 9471   1.643   1.813  15.694  0.2965  0.0111  0.3600
  636MPD2     H 9472   1.489   1.956  16.017  1.0991  0.1233  0.4595
  636MPD2    H1 9473   1.609   1.623  15.772 -1.5719  0.7542 -1.4501
  636MPD2    H2 9474   1.651   2.009  15.612  0.4686  0.8661  0.4958
  636MPD2    H3 9475   1.685   1.773  15.603  0.4854 -0.5650  0.6981
  636MPD2     N 9476   1.517   1.703  16.021 -0.1716  0.7448  0.3788
  636MPD2    H5 9477   1.499   1.755  16.107  2.9248  2.3808  0.0436
  636MPD2    N1 9478   1.546   2.143  15.832  0.0838  0.8421  0.0581
  636MPD2    H7 9479   1.545   2.171  15.930  0.0848  1.0698 -0.0064
  637TMC3    C1 9480   1.564   1.522  16.154 -0.1135 -0.4734 -0.3182
  637TMC3    C2 9481   1.515   1.601  16.255  0.3555 -0.0125  0.3204
  637TMC3    C3 9482   1.609   1.630  16.349 -0.1256  0.0445 -0.5975
  637TMC3    C4 9483   1.700   1.480  16.144 -0.4938 -0.1540 -0.2324
  637TMC3    C5 9484   1.786   1.535  16.235 -0.2702 -0.5530 -0.0811
  637TMC3    C6 9485   1.740   1.606  16.345 -0.0631  0.5556 -0.6960
  637TMC3     C 9486   1.521   1.566  16.023  0.3952  0.1297 -0.0751
  637TMC3     O 9487   1.550   1.488  15.933 -0.3487  0.5577 -0.6078
  637TMC3     H 9488   1.415   1.641  16.259  0.2993  0.0662 -1.7583
  637TMC3    H1 9489   1.719   1.420  16.056 -1.3978  1.0656 -1.2709
  637TMC3    H2 9490   1.804   1.617  16.432 -1.9125 -0.5814  0.8000
  637TMC3    C7 9491   1.870   1.637  16.178 -0.3840 -0.1863  0.6541
  637TMC3    C8 9492   1.578   1.744  16.426 -0.2514  0.0154  0.2880
  637TMC3    O1 9493   1.905   1.726  16.259 -0.5354  0.6162 -0.3577
  637TMC3    O2 9494   1.462   1.768  16.465  0.3227 -0.1073  0.3890
  638MPD2     C 9495   1.042   1.223  14.784 -0.1522  0.1832  0.8826
  638MPD2    C1 9496   1.095   1.104  14.750 -0.3537  0.4494 -0.7090
  638MPD2    C2 9497   1.042   0.992  14.816  0.2936  0.3448  0.1292
  638MPD2    C3 9498   0.957   1.001  14.918 -0.3195 -0.5457 -0.2549
  638MPD2    C4 9499   0.909   1.124  14.952  0.4623 -0.0175 -0.9197
  638MPD2    C5 9500   0.945   1.230  14.877  0.2079 -0.0782  0.1951
  638MPD2     H 9501   1.074   0.897  14.776 -2.0084 -0.3321 -0.0929
  638MPD2    H1 9502   0.836   1.126  15.033  0.4900  1.7546 -0.9401
  638MPD2    H2 9503   1.073   1.318  14.741 -2.9657 -0.6503 -2.8841
  638MPD2    H3 9504   0.913   1.329  14.908 -2.2202 -0.0141 -2.4910
  638MPD2     N 9505   0.936   0.884  14.991  0.1106 -0.2553 -0.5761
  638MPD2    H5 9506   0.994   0.811  14.952 -0.2370 -0.9674  0.2563
  638MPD2    N1 9507   1.203   1.102  14.665  0.3160  0.1323  0.9930
  638MPD2    H7 9508   1.244   1.192  14.643  0.3554  0.0287  0.6374
  639TMC3    C1 9509   0.856   0.739  15.132 -0.5701  0.5035 -0.1984
  639TMC3    C2 9510   0.744   0.665  15.158 -0.1680  0.6226  0.2433
  639TMC3    C3 9511   0.758   0.545  15.218 -0.4397 -0.3243  0.2927
  639TMC3    C4 9512   0.985   0.695  15.163 -0.3055 -0.3276  0.5085
  639TMC3    C5 9513   0.992   0.574  15.229 -0.6720  0.0929 -0.3818
  639TMC3    C6 9514   0.882   0.500  15.260  0.6603  0.0820 -0.4126
  639TMC3     C 9515   0.835   0.868  15.086 -0.3716 -0.3860 -0.2749
  639TMC3     O 9516   0.744   0.940  15.125  0.3767 -0.3145  0.8011
  639TMC3     H 9517   0.644   0.704  15.146 -0.5461 -0.0474  1.1665
  639TMC3    H1 9518   1.077   0.751  15.149  0.3794 -1.8050 -0.9931
  639TMC3    H2 9519   0.884   0.397  15.293  0.3564 -0.1421 -1.0805
  639TMC3    C7 9520   1.120   0.521  15.270  0.2563 -0.2425 -0.0235
  639TMC3    C8 9521   0.689   0.443  15.141 -0.7123 -0.5619 -0.4397
  639TMC3    O1 9522   1.130   0.469  15.382 -0.3939  0.1908 -0.1004
  639TMC3    O2 9523   0.756   0.364  15.079 -0.4895 -0.5271 -0.3536
  640MPD2     C 9524   1.458   4.622  10.434  0.1162  0.2652  0.9558
  640MPD2    C1 9525   1.545   4.634  10.329  0.2717  0.7653  0.5388
  640MPD2    C2 9526   1.592   0.021  10.291 -0.3742 -0.2538 -0.1789
  640MPD2    C3 9527   1.543   0.136  10.347  0.5256 -0.0574  0.4745
  640MPD2    C4 9528   1.459   0.123  10.449  0.0135 -0.2996  0.3033
  640MPD2    C5 9529   1.422   0.001  10.496  0.0136  0.0612 -0.5198
  640MPD2     H 9530   1.659   0.027  10.207  0.3882 -2.3304  0.2891
  640MPD2    H1 9531   1.410   0.213  10.483 -0.9068 -0.0953 -1.5950
  640MPD2    H2 9532   1.412   4.532  10.473 -0.7316  0.1188 -0.3722
  640MPD2    H3 9533   1.345   4.733  10.571 -0.5051 -0.5305 -1.1118
  640MPD2     N 9534   1.582   0.265  10.307  0.2162  0.2493  0.1676
  640MPD2    H5 9535   1.540   0.338  10.363 -0.7822  0.1956 -0.5042
  640MPD2    N1 9536   1.568   4.513  10.255 -0.1436  0.1769  0.5484
  640MPD2    H7 9537   1.523   4.426  10.280  0.6652 -0.5076 -0.3644
  641TMC3    C1 9538   1.634   4.384  10.080  0.6376  0.2015 -0.0110
  641TMC3    C2 9539   1.739   4.301  10.068  0.1616 -0.2683  0.3361
  641TMC3    C3 9540   1.714   4.191   9.994  0.0297  0.3137  0.6074
  641TMC3    C4 9541   1.515   4.370  10.027 -0.5481 -0.4606 -0.2989
  641TMC3    C5 9542   1.488   4.261   9.959  0.4045 -0.0240  0.7757
  641TMC3    C6 9543   1.590   4.171   9.940  0.4849  0.5216  0.0879
  641TMC3     C 9544   1.650   4.506  10.151  0.0294  0.5441 -0.0075
  641TMC3     O 9545   1.738   4.573  10.103  0.0367  0.5932  0.8337
  641TMC3     H 9546   1.837   4.329  10.103 -0.1290 -1.3029  1.9276
  641TMC3    H1 9547   1.438   4.441  10.053 -0.0406 -0.7275  1.9716
  641TMC3    H2 9548   1.570   4.075   9.893 -0.3453  0.6093  0.2607
  641TMC3    C7 9549   1.367   4.242   9.871 -0.5123 -0.2982 -0.9385
  641TMC3    C8 9550   1.820   4.099   9.976 -0.4752 -0.1151 -0.0265
  641TMC3    O1 9551   1.357   4.132   9.818  0.5199  0.9378 -0.0238
  641TMC3    O2 9552   1.813   4.016   9.888  0.3376 -0.5438 -0.3126
  642TMC3    C1 9553   2.165   0.551  12.682  0.0815 -0.3172 -0.2816
  642TMC3    C2 9554   2.297   0.525  12.675 -0.0570 -0.1505 -0.0571
  642TMC3    C3 9555   2.356   0.467  12.565 -0.4914  0.5560  0.5389
  642TMC3    C4 9556   2.085   0.511  12.577  0.0872 -0.6927 -0.0424
  642TMC3    C5 9557   2.144   0.456  12.459 -0.4623 -0.1953  0.0873
  642TMC3    C6 9558   2.278   0.433  12.453 -0.1397 -0.9249  0.2285
  642TMC3     C 9559   2.123   0.642  12.786 -0.2907 -0.0481  0.2898
  642TMC3     O 9560   2.206   0.707  12.844 -0.3079  0.3907 -0.2258
  642TMC3     H 9561   2.354   0.555  12.763 -1.1417 -0.3744  0.7258
  642TMC3    H1 9562   1.977   0.513  12.578  0.0787 -1.5510  0.4900
  642TMC3    H2 9563   2.325   0.399  12.362 -2.1598 -1.5145 -0.5914
  642TMC3    C7 9564   2.069   0.353  12.388  0.0411  0.0682 -0.8894
  642TMC3    C8 9565   2.498   0.437  12.568  0.1537  0.0467  0.4928
  642TMC3    O1 9566   2.094   0.331  12.271 -0.7010  0.6901  0.6694
  642TMC3    O2 9567   2.551   0.432  12.461 -0.2947 -0.7079 -0.2195
  643TMC3    C1 9568   1.627   4.478   0.091  0.1158 -0.1101  0.9474
  643TMC3    C2 9569   1.540   4.526  17.747 -0.4668 -0.1550 -0.0543
  643TMC3    C3 9570   1.546   4.465  17.625  0.9301 -0.9145  0.2077
  643TMC3    C4 9571   1.736   4.393   0.059 -0.0656 -0.1354 -0.7421
  643TMC3    C5 9572   1.744   4.345  17.687 -0.5971 -0.9331  0.1257
  643TMC3    C6 9573   1.641   4.360  17.603 -0.2348  0.1772 -0.2837
  643TMC3     C 9574   1.641   4.565   0.202  0.3544 -0.2805  0.2190
  643TMC3     O 9575   1.574   4.667   0.191 -0.0300 -0.2677 -0.2470
  643TMC3     H 9576   1.465   4.602   0.011  0.5643  0.2276  2.4462
  643TMC3    H1 9577   1.817   4.366   0.125 -1.1906  1.3947  1.2444
  643TMC3    H2 9578   1.650   4.335  17.498  0.5646 -2.8937  0.5148
  643TMC3    C7 9579   1.872   4.376  17.631  0.0943 -0.4403 -0.1195
  643TMC3    C8 9580   1.508   4.557  17.517 -0.4832 -0.6978  0.1833
  643TMC3    O1 9581   1.924   4.474  17.680  0.0228  0.6445  0.2903
  643TMC3    O2 9582   1.436   4.509  17.426  0.3694 -0.0009  0.5384
  644MPD2     C 9583   1.111   0.057   9.400 -0.3314  0.2606  0.8457
  644MPD2    C1 9584   1.203   0.068   9.505 -0.3797  0.0367  0.4252
  644MPD2    C2 9585   1.221   0.198   9.560  0.2088  0.2631  0.1587
  644MPD2    C3 9586   1.165   0.310   9.505  0.7103 -0.9575  0.2323
  644MPD2    C4 9587   1.081   0.296   9.390  0.0475  0.2181 -0.0326
  644MPD2    C5 9588   1.053   0.169   9.349 -0.7006 -0.4346 -0.0113
  644MPD2     H 9589   1.270   0.216   9.655 -1.4677 -0.0692  1.0888
  644MPD2    H1 9590   1.029   0.379   9.344  0.8826  0.5194 -0.4377
  644MPD2    H2 9591   1.086   4.702   9.353 -2.1098  1.4150 -0.5545
  644MPD2    H3 9592   0.990   0.164   9.261  0.1866 -1.3538 -0.6077
  644MPD2     N 9593   1.192   0.437   9.563  0.1173 -0.3852  0.1824
  644MPD2    H5 9594   1.242   0.436   9.651  2.3454 -0.3498 -1.0995
  644MPD2    N1 9595   1.266   4.688   9.549 -0.0426 -0.5703  0.0338
  644MPD2    H7 9596   1.248   4.607   9.491 -2.1350  0.6184 -0.9916
  645TMC3    C1 9597   1.226   0.683   9.572  0.1041 -0.3008  0.2819
  645TMC3    C2 9598   1.256   0.797   9.491  0.4531 -0.4920  0.0949
  645TMC3    C3 9599   1.297   0.905   9.560  0.6157 -0.1348 -0.0414
  645TMC3    C4 9600   1.241   0.675   9.710  0.0579 -0.3320  0.2697
  645TMC3    C5 9601   1.297   0.785   9.766 -0.0178 -0.6248  0.1805
  645TMC3    C6 9602   1.326   0.900   9.698  0.1157 -0.5595 -0.3816
  645TMC3     C 9603   1.187   0.564   9.498 -0.1783  0.4224 -0.1027
  645TMC3     O 9604   1.176   0.574   9.374  0.3660  0.3439 -0.1903
  645TMC3     H 9605   1.249   0.793   9.383  0.1218  1.1839  0.0564
  645TMC3    H1 9606   1.188   0.596   9.763 -0.2282 -0.5522 -0.3489
  645TMC3    H2 9607   1.369   0.980   9.757 -1.3454 -0.8959  1.1444
  645TMC3    C7 9608   1.325   0.802   9.913 -0.4472 -0.3806 -0.3448
  645TMC3    C8 9609   1.297   1.045   9.502  0.0406  0.2398  0.3730
  645TMC3    O1 9610   1.340   0.912   9.962 -0.3887 -0.7030  0.2730
  645TMC3    O2 9611   1.326   1.142   9.570  0.8229  0.2839 -0.8714
  646MPD2     C 9612   1.173   4.548  14.587  0.0479 -0.1414 -0.0699
  646MPD2    C1 9613   1.072   4.542  14.684 -0.5358 -0.4502 -0.0155
  646MPD2    C2 9614   0.948   4.609  14.654 -0.4192 -0.2334 -0.2479
  646MPD2    C3 9615   0.931   4.675  14.536  0.3569  0.2593  0.2386
  646MPD2    C4 9616   1.030   4.676  14.444 -0.3053 -0.4602 -0.6280
  646MPD2    C5 9617   1.149   4.614  14.468  0.0372  0.0019 -0.4280
  646MPD2     H 9618   0.881   4.623  14.738  0.4834  0.2952  0.3785
  646MPD2    H1 9619   1.028   4.727  14.349 -0.6543  0.8796  0.1036
  646MPD2    H2 9620   1.271   4.505  14.603  0.8920  2.2388  1.2346
  646MPD2    H3 9621   1.233   4.620  14.400  0.8452  0.6306  0.6321
  646MPD2     N 9622   0.806   0.004  14.518  0.1023 -0.0761 -0.0453
  646MPD2    H5 9623   0.753   0.034  14.599 -0.2180 -2.7978  0.7750
  646MPD2    N1 9624   1.101   4.467  14.799 -0.1205  1.0417  0.4792
  646MPD2    H7 9625   1.180   4.403  14.797 -0.3583  0.8700 -3.3500
  647TMC3    C1 9626   1.087   4.411  15.028  0.3168  0.2256  0.2277
  647TMC3    C2 9627   1.007   4.423  15.145 -0.3944 -0.1868  0.4212
  647TMC3    C3 9628   1.041   4.350  15.253 -0.0692  0.6896  0.8816
  647TMC3    C4 9629   1.175   4.305  15.015 -0.5177  0.3213 -0.3457
  647TMC3    C5 9630   1.202   4.242  15.134  0.4957  0.5885  0.2070
  647TMC3    C6 9631   1.145   4.270  15.254 -0.0101 -0.5379 -0.1165
  647TMC3     C 9632   1.033   4.486  14.917  0.1091  0.3294 -0.0445
  647TMC3     O 9633   0.960   4.577  14.946 -0.3760 -0.4686  0.1073
  647TMC3     H 9634   0.911   4.474  15.146  0.1869  0.9201 -0.3274
  647TMC3    H1 9635   1.220   4.278  14.921 -3.2673 -0.3894 -1.4549
  647TMC3    H2 9636   1.170   4.216  15.345  0.7442  3.0175  1.7563
  647TMC3    C7 9637   1.331   4.186  15.147  0.6396  0.5090 -0.3380
  647TMC3    C8 9638   0.965   4.371  15.376 -0.3621  0.0118 -0.6036
  647TMC3    O1 9639   1.370   4.169  15.262  0.1629  0.0500  0.1616
  647TMC3    O2 9640   0.903   4.476  15.390 -0.1811  0.8656 -1.0415
  648TMC3    C1 9641   0.912   2.252  16.266 -0.4608 -0.5547 -0.7748
  648TMC3    C2 9642   0.966   2.127  16.258  0.0464  0.6281 -0.0658
  648TMC3    C3 9643   0.980   2.081  16.129  0.4446 -0.0003 -0.4504
  648TMC3    C4 9644   0.866   2.326  16.156 -0.7560  0.1828  0.4434
  648TMC3    C5 9645   0.868   2.261  16.026  0.0986 -0.0733  0.7340
  648TMC3    C6 9646   0.935   2.144  16.016 -0.7063  0.6848 -0.3357
  648TMC3     C 9647   0.855   2.288  16.396  0.0920  1.6167  0.2041
  648TMC3     O 9648   0.816   2.403  16.402 -0.4132 -0.6878  0.5660
  648TMC3     H 9649   0.989   2.069  16.347  2.8161  0.3953 -0.9344
  648TMC3    H1 9650   0.833   2.429  16.161 -0.5988  0.0741  3.4847
  648TMC3    H2 9651   0.920   2.094  15.921 -0.8496  1.5054 -0.7387
  648TMC3    C7 9652   0.759   2.294  15.933  0.1827  0.4697 -0.1990
  648TMC3    C8 9653   1.051   1.961  16.125  0.8419 -0.3098  0.3379
  648TMC3    O1 9654   0.762   2.253  15.820 -0.0481 -0.4759  1.0401
  648TMC3    O2 9655   1.104   1.909  16.226 -0.1563 -0.0865 -0.3198
  649TMC3    C1 9656   4.212   3.261  12.754 -0.2390  0.3598 -0.5635
  649TMC3    C2 9657   4.346   3.271  12.745  0.0303 -0.1004  0.5193
  649TMC3    C3 9658   4.411   3.214  12.847 -0.5792  0.0313  0.4676
  649TMC3    C4 9659   4.144   3.215  12.868  0.5534 -0.2388 -0.2272
  649TMC3    C5 9660   4.215   3.162  12.971 -0.4542 -0.2544 -0.1499
  649TMC3    C6 9661   4.357   3.148  12.965 -0.3646  0.0997 -0.3512
  649TMC3     C 9662   4.139   3.307  12.635 -0.0082 -0.4045 -0.9912
  649TMC3     O 9663   4.040   3.378  12.658  0.1624 -0.7661 -0.1420
  649TMC3     H 9664   4.406   3.300  12.659 -0.1564 -0.1856  0.3610
  649TMC3    H1 9665   4.036   3.227  12.860  0.6249  0.4732 -0.1690
  649TMC3    H2 9666   4.421   3.106  13.042 -1.9407 -1.7027 -0.0183
  649TMC3    C7 9667   4.138   3.115  13.079  0.0760 -0.0756  0.3755
  649TMC3    C8 9668   4.557   3.211  12.841  0.4636  0.2985 -0.2865
  649TMC3    O1 9669   4.025   3.165  13.094 -0.1277  0.7960 -0.3592
  649TMC3    O2 9670   4.610   3.126  12.910 -0.3819  0.2833 -0.5028
  650TMC3    C1 9671   1.464   4.463  12.470 -0.8807  0.6549 -0.3483
  650TMC3    C2 9672   1.416   4.510  12.589 -0.1885  0.4286 -0.0262
  650TMC3    C3 9673   1.339   4.621  12.578  0.0317 -0.4774 -0.0089
  650TMC3    C4 9674   1.442   4.527  12.343  0.0572 -0.3976 -0.4825
  650TMC3    C5 9675   1.368   4.643  12.344 -0.0443  0.4571 -0.2330
  650TMC3    C6 9676   1.307   4.681  12.455 -0.3226  1.1544 -1.3401
  650TMC3     C 9677   1.537   4.346  12.490 -0.7812  0.9248  0.0051
  650TMC3     O 9678   1.504   4.291  12.595 -0.6375  0.1080 -0.0018
  650TMC3     H 9679   1.443   4.485  12.691  4.0131 -1.5258 -1.6355
  650TMC3    H1 9680   1.493   4.508  12.249 -0.0609 -0.2094 -0.5846
  650TMC3    H2 9681   1.243   0.029  12.456  1.4401  2.4236  0.7203
  650TMC3    C7 9682   1.365   4.734  12.225 -0.4149  0.4628  0.1602
  650TMC3    C8 9683   1.289   4.696  12.694  0.4632  0.3403 -0.4953
  650TMC3    O1 9684   1.385   4.686  12.113  0.5167 -0.1024 -0.0059
  650TMC3    O2 9685   1.370   0.005  12.771 -0.6454 -0.6648  0.2775
  651MPD2     C 9686   0.444   1.893  10.216  0.1863  0.5418  0.2328
  651MPD2    C1 9687   0.443   1.859  10.351 -1.2648  0.4662  0.0495
  651MPD2    C2 9688   0.572   1.859  10.415 -0.0613 -0.0661  0.3747
  651MPD2    C3 9689   0.687   1.887  10.346 -0.8189  0.0989 -0.8815
  651MPD2    C4 9690   0.677   1.911  10.210 -0.0670 -0.1245 -0.7785
  651MPD2    C5 9691   0.555   1.919  10.149  0.2718  0.6510 -0.1593
  651MPD2     H 9692   0.572   1.838  10.521  1.3987 -0.8864  0.2102
  651MPD2    H1 9693   0.760   1.932  10.144  1.0194 -3.0836 -0.3282
  651MPD2    H2 9694   0.352   1.891  10.159  0.9873 -2.8362 -0.9266
  651MPD2    H3 9695   0.546   1.944  10.044 -0.4780  1.2162  0.0358
  651MPD2     N 9696   0.808   1.895  10.421 -0.4826  0.1070  0.6911
  651MPD2    H5 9697   0.800   1.884  10.522 -4.4245  0.4808  0.4057
  651MPD2    N1 9698   0.318   1.830  10.412 -0.7734  0.4702  0.4955
  651MPD2    H7 9699   0.236   1.861  10.360 -0.5869  3.7591  2.1811
  652TMC3    C1 9700   1.257   1.914  10.510 -0.1423  0.4122 -0.7202
  652TMC3    C2 9701   1.157   1.884  10.421 -0.3027  0.3380  0.0042
  652TMC3    C3 9702   1.037   1.918  10.466 -0.3317  0.8415 -0.3273
  652TMC3    C4 9703   1.236   1.986  10.626  0.8263  0.0661 -0.2363
  652TMC3    C5 9704   1.110   2.009  10.659 -0.7977  0.5287  0.0262
  652TMC3    C6 9705   1.005   1.972  10.588  0.5780  0.8323  0.3119
  652TMC3     C 9706   1.393   1.858  10.508 -0.4346  0.2997 -0.0599
  652TMC3     O 9707   1.463   1.871  10.606 -0.0455 -0.7203 -0.3635
  652TMC3     H 9708   1.176   1.834  10.326 -0.7324  1.4203 -0.6437
  652TMC3    H1 9709   1.314   2.005  10.698  0.7221  2.6544 -0.8038
  652TMC3    H2 9710   0.907   2.014  10.608  0.0996  1.2317 -2.9799
  652TMC3    C7 9711   1.076   2.076  10.787 -0.6194  0.5787 -0.0006
  652TMC3    C8 9712   0.935   1.906  10.365 -0.2447  0.1427 -0.2529
  652TMC3    O1 9713   0.965   2.059  10.838  0.1307 -0.1352 -0.4832
  652TMC3    O2 9714   0.975   1.921  10.251 -0.0626 -0.2616  0.0983
  653MPD2     C 9715   4.466   2.143  17.420 -0.5270 -0.6940 -0.1531
  653MPD2    C1 9716   4.345   2.208  17.393  0.3294  0.5886 -0.1125
  653MPD2    C2 9717   4.243   2.145  17.326 -0.2534 -0.1549 -0.1248
  653MPD2    C3 9718   4.255   2.011  17.290  0.5201  0.1237 -0.2792
  653MPD2    C4 9719   4.370   1.948  17.321 -0.3083  0.8895 -0.1322
  653MPD2    C5 9720   4.480   2.011  17.374 -0.0380 -0.7092  0.2416
  653MPD2     H 9721   4.149   2.196  17.307  0.5502  1.6552  0.7425
  653MPD2    H1 9722   4.398   1.849  17.284  0.4482 -0.3386  3.7295
  653MPD2    H2 9723   4.549   2.207  17.450 -1.9171  0.0920  1.9703
  653MPD2    H3 9724   4.580   1.972  17.359 -0.1344 -1.1034  0.6147
  653MPD2     N 9725   4.143   1.944  17.242 -0.3304  0.0300 -0.2839
  653MPD2    H5 9726   4.066   2.006  17.218 -0.5274 -0.6248 -1.3520
  653MPD2    N1 9727   4.327   2.346  17.429  0.5308  0.4116 -0.2557
  653MPD2    H7 9728   4.265   2.400  17.370 -0.7578 -1.8872 -1.0263
  654TMC3    C1 9729   4.013   1.763  17.166  0.2164 -0.6645  0.5938
  654TMC3    C2 9730   3.953   1.825  17.062  0.1588 -0.1023  0.4040
  654TMC3    C3 9731   3.863   1.758  16.982  0.5314 -0.2092  0.4350
  654TMC3    C4 9732   3.981   1.635  17.194 -0.1831  1.3417 -0.1174
  654TMC3    C5 9733   3.891   1.569  17.120  0.0401  0.0520  0.5009
  654TMC3    C6 9734   3.829   1.628  17.015  0.5654  0.1093  0.1802
  654TMC3     C 9735   4.130   1.808  17.241 -0.5680 -0.4306 -0.5807
  654TMC3     O 9736   4.197   1.725  17.292 -0.0806  0.8948  0.1452
  654TMC3     H 9737   3.964   1.932  17.051  0.9860 -0.2127  0.1051
  654TMC3    H1 9738   4.027   1.594  17.283 -1.9193 -0.2454  0.0343
  654TMC3    H2 9739   3.757   1.568  16.960  0.8114 -0.3230  0.3238
  654TMC3    C7 9740   3.846   1.439  17.157 -0.1698  0.2711 -0.2679
  654TMC3    C8 9741   3.793   1.833  16.879 -0.8056  0.5604  0.3168
  654TMC3    O1 9742   3.737   1.391  17.121 -0.0560 -0.1288  0.2809
  654TMC3    O2 9743   3.775   1.951  16.903  0.1117 -0.4568  0.3299
  655MPD2     C 9744   1.142   2.338  15.866  0.6650 -0.5783 -0.5404
  655MPD2    C1 9745   1.094   2.421  15.759 -0.2814  0.9090 -0.2143
  655MPD2    C2 9746   1.111   2.376  15.638 -0.7675  1.0732 -0.1412
  655MPD2    C3 9747   1.165   2.251  15.610  0.6013 -0.6727 -0.5604
  655MPD2    C4 9748   1.201   2.162  15.712  0.0415  0.5647 -0.7418
  655MPD2    C5 9749   1.194   2.214  15.839 -0.5724  0.4259 -0.0866
  655MPD2     H 9750   1.081   2.440  15.556  0.1767  0.5620 -0.8785
  655MPD2    H1 9751   1.234   2.061  15.691  0.9448  1.0137 -1.4811
  655MPD2    H2 9752   1.148   2.377  15.967 -1.4602 -3.6409  0.7388
  655MPD2    H3 9753   1.234   2.161  15.924  1.1128  0.8807 -0.5829
  655MPD2     N 9754   1.192   2.194  15.478  0.4182 -0.3908 -0.4486
  655MPD2    H5 9755   1.237   2.105  15.462 -0.2530 -0.5450 -1.4450
  655MPD2    N1 9756   1.019   2.539  15.792  0.3438 -0.5800  0.3603
  655MPD2    H7 9757   0.985   2.576  15.704  2.5623 -0.8121 -0.5850
  656TMC3    C1 9758   0.875   2.677  15.938 -0.3851  0.2586  0.0220
  656TMC3    C2 9759   0.828   2.690  16.066 -0.0709  0.8474 -0.7325
  656TMC3    C3 9760   0.706   2.756  16.076  0.2688 -0.6577  0.0854
  656TMC3    C4 9761   0.812   2.723  15.822  0.2532 -0.4047 -0.0470
  656TMC3    C5 9762   0.696   2.797  15.848  0.0409  0.1230 -0.5365
  656TMC3    C6 9763   0.635   2.810  15.976 -0.5062 -0.1663  0.0419
  656TMC3     C 9764   0.995   2.597  15.922 -0.2927 -0.1912 -0.0753
  656TMC3     O 9765   1.045   2.556  16.024  0.6455 -0.3958  0.2343
  656TMC3     H 9766   0.871   2.639  16.152 -1.0353  0.3367 -0.5599
  656TMC3    H1 9767   0.871   2.734  15.731 -0.0435  0.7364 -0.1018
  656TMC3    H2 9768   0.547   2.873  15.981 -0.3993 -0.2433  2.8220
  656TMC3    C7 9769   0.643   2.848  15.724 -0.5942  0.6049  0.4784
  656TMC3    C8 9770   0.631   2.720  16.195 -0.2387  0.3926 -0.3300
  656TMC3    O1 9771   0.726   2.865  15.634 -0.5337 -0.3754  0.3847
  656TMC3    O2 9772   0.660   2.613  16.247 -0.1333 -0.3786  0.3458
  657TMC3    C1 9773   4.395   1.957  14.806 -0.8078  0.2277  0.1126
  657TMC3    C2 9774   4.413   1.985  14.944 -0.0943 -0.3587 -0.5717
  657TMC3    C3 9775   4.362   2.110  14.976  0.1912 -0.3356 -0.0911
  657TMC3    C4 9776   4.335   2.047  14.716 -0.0124  0.5604  0.5202
  657TMC3    C5 9777   4.294   2.174  14.754 -0.0699 -0.3082  0.6141
  657TMC3    C6 9778   4.308   2.205  14.888  0.7525  0.4423 -0.0009
  657TMC3     C 9779   4.465   1.841  14.743  0.3774 -0.7971  0.3688
  657TMC3     O 9780   4.447   1.820  14.626  0.1908 -0.6286  0.5283
  657TMC3     H 9781   4.436   1.909  15.018 -3.8310 -0.4676  0.5050
  657TMC3    H1 9782   4.340   2.018  14.612  0.3884  1.3792  0.3130
  657TMC3    H2 9783   4.285   2.305  14.923  0.1310 -0.1699  1.3341
  657TMC3    C7 9784   4.201   2.249  14.661  0.2192  0.0414  0.2203
  657TMC3    C8 9785   4.357   2.151  15.112 -0.0491  0.7453  0.5072
  657TMC3    O1 9786   4.197   2.197  14.548  0.0352  0.0859  0.9254
  657TMC3    O2 9787   4.287   2.250  15.134  0.1312 -0.3278  0.1667
  658MPD2     C 9788   1.336   2.124  14.568  0.4784 -0.8692  0.3363
  658MPD2    C1 9789   1.263   2.193  14.656  0.4356  0.2396 -0.4459
  658MPD2    C2 9790   1.171   2.298  14.613  0.4696  0.0135  0.2492
  658MPD2    C3 9791   1.173   2.331  14.477  0.2124  0.1669  0.3984
  658MPD2    C4 9792   1.254   2.261  14.388  0.2709 -0.5541  0.3663
  658MPD2    C5 9793   1.330   2.156  14.434 -0.6139 -0.5300  0.4076
  658MPD2     H 9794   1.099   2.351  14.674  2.9483  3.9019 -0.1712
  658MPD2    H1 9795   1.248   2.282  14.282  1.9846  0.9344  0.5795
  658MPD2    H2 9796   1.405   2.042  14.585  0.1008 -0.6302  3.1334
  658MPD2    H3 9797   1.396   2.102  14.367  2.0120  1.0053  1.7816
  658MPD2     N 9798   1.104   2.444  14.439  0.3677 -0.0725  0.2091
  658MPD2    H5 9799   1.041   2.481  14.510  2.2548  0.3621  1.6441
  658MPD2    N1 9800   1.271   2.151  14.788  0.8499 -0.1547 -0.9632
  658MPD2    H7 9801   1.313   2.060  14.803 -0.7726 -0.5690  1.0608
  659TMC3    C1 9802   1.222   2.171  15.016  0.2222  0.4604  0.6510
  659TMC3    C2 9803   1.230   2.242  15.128 -0.4043  0.6633 -0.0506
  659TMC3    C3 9804   1.179   2.183  15.248  0.1119  0.1081  0.2352
  659TMC3    C4 9805   1.144   2.057  15.008  0.3503  0.3012  0.3702
  659TMC3    C5 9806   1.084   2.006  15.119  0.7310  0.7575 -0.3970
  659TMC3    C6 9807   1.104   2.070  15.242  0.6108 -0.0391  0.1838
  659TMC3     C 9808   1.244   2.241  14.897 -0.3302 -0.6971  0.3749
  659TMC3     O 9809   1.201   2.357  14.894 -0.3402  0.2229  0.3016
  659TMC3     H 9810   1.285   2.334  15.113  0.9450  0.0424  1.1490
  659TMC3    H1 9811   1.136   2.003  14.914  0.9895  1.5478 -0.4175
  659TMC3    H2 9812   1.059   2.032  15.333  0.5164 -2.6719 -0.9541
  659TMC3    C7 9813   0.949   1.953  15.107  1.1863  0.5945  0.5417
  659TMC3    C8 9814   1.159   2.266  15.360 -0.2841 -0.1599  0.1806
  659TMC3    O1 9815   0.866   1.967  15.198  0.0983 -0.1992 -0.4084
  659TMC3    O2 9816   1.133   2.385  15.342 -0.6035  0.0770  0.4252
  660MPD2     C 9817   3.188   1.395  12.809  0.5150  0.3148 -0.3372
  660MPD2    C1 9818   3.144   1.270  12.768 -0.2747 -0.8910 -0.4972
  660MPD2    C2 9819   3.131   1.171  12.867 -0.1776  0.1233  0.1123
  660MPD2    C3 9820   3.147   1.206  13.001  0.0102 -1.0944 -0.1805
  660MPD2    C4 9821   3.193   1.329  13.035 -0.1748 -0.6766  0.7189
  660MPD2    C5 9822   3.212   1.426  12.942 -0.6832  0.1618  0.1052
  660MPD2     H 9823   3.094   1.073  12.837  1.8231 -1.1214  1.7784
  660MPD2    H1 9824   3.208   1.351  13.140  2.0070  2.5161 -0.2678
  660MPD2    H2 9825   3.194   1.481  12.743  1.4686  1.0920  0.7469
  660MPD2    H3 9826   3.254   1.524  12.963 -1.2098  0.3551  0.2378
  660MPD2     N 9827   3.114   1.117  13.109 -0.2005 -0.1137  0.4708
  660MPD2    H5 9828   3.130   1.157  13.200  1.2331 -1.0985  0.6480
  660MPD2    N1 9829   3.120   1.252  12.631  0.5880 -0.5284 -0.0155
  660MPD2    H7 9830   3.151   1.327  12.570 -0.1041  0.5598  0.9561
  661TMC3    C1 9831   3.053   1.139  12.429 -0.3209 -0.3727  0.5411
  661TMC3    C2 9832   3.128   1.230  12.360  0.0019  0.8124 -0.2740
  661TMC3    C3 9833   3.150   1.192  12.227  0.1546  0.4978  0.1947
  661TMC3    C4 9834   2.992   1.032  12.370  0.2792  0.3248 -0.2100
  661TMC3    C5 9835   3.003   1.009  12.237 -0.5836 -0.5178 -0.7365
  661TMC3    C6 9836   3.088   1.086  12.162 -0.0228  0.1275  0.6300
  661TMC3     C 9837   3.065   1.135  12.575 -0.5182 -0.4039  0.6664
  661TMC3     O 9838   3.013   1.036  12.632 -0.0805  0.1643  0.1400
  661TMC3     H 9839   3.155   1.325  12.405  2.5636 -0.9392  1.8892
  661TMC3    H1 9840   2.930   0.973  12.436  0.4911  0.3501  0.0076
  661TMC3    H2 9841   3.079   1.093  12.054 -0.0815  2.2488  0.7748
  661TMC3    C7 9842   2.936   0.893  12.176 -0.0667 -0.4384 -0.6970
  661TMC3    C8 9843   3.232   1.271  12.141  0.6432  0.4173 -0.6280
  661TMC3    O1 9844   2.960   0.874  12.056  0.3851 -0.4842 -0.0766
  661TMC3    O2 9845   3.230   1.241  12.019  0.3997 -0.4907  0.6263
  662MPD2     C 9846   3.563   0.802  17.079  0.4696 -0.7831 -0.2399
  662MPD2    C1 9847   3.564   0.708  17.177  0.1240 -0.0759 -0.5527
  662MPD2    C2 9848   3.515   0.747  17.296 -0.0629  0.0883 -0.1984
  662MPD2    C3 9849   3.465   0.870  17.316  0.2417 -0.4677 -0.6032
  662MPD2    C4 9850   3.461   0.962  17.212 -0.7229 -0.1933 -0.4265
  662MPD2    C5 9851   3.511   0.926  17.091  0.2573 -0.2360  0.6161
  662MPD2     H 9852   3.502   0.677  17.378 -0.5293  0.1881 -0.1858
  662MPD2    H1 9853   3.434   1.066  17.227  1.7824  0.6465 -1.7661
  662MPD2    H2 9854   3.595   0.781  16.978  1.1715  2.2773 -0.6649
  662MPD2    H3 9855   3.501   0.996  17.009  4.5120 -1.0600 -0.5956
  662MPD2     N 9856   3.425   0.923  17.441 -0.1996 -0.4869  0.5538
  662MPD2    H5 9857   3.381   1.014  17.434  1.1961  0.0670 -1.3437
  662MPD2    N1 9858   3.604   0.574  17.164  0.2786  0.9653 -0.4565
  662MPD2    H7 9859   3.612   0.519  17.249 -1.7424  3.6314  1.4985
  663TMC3    C1 9860   3.698   0.376  17.085 -0.5996 -0.1633 -0.0357
  663TMC3    C2 9861   3.754   0.350  17.201  0.3906  0.8516  0.7030
  663TMC3    C3 9862   3.842   0.242  17.211  0.4389  0.7199 -0.4298
  663TMC3    C4 9863   3.705   0.285  16.983  0.1091  0.1311  0.1869
  663TMC3    C5 9864   3.783   0.172  16.999  0.3901 -0.3293 -0.1528
  663TMC3    C6 9865   3.857   0.148  17.108 -0.6827  0.0870  0.9024
  663TMC3     C 9866   3.655   0.510  17.052  0.0731  0.1743 -0.6287
  663TMC3     O 9867   3.646   0.557  16.941 -0.1488 -0.5096  0.2311
  663TMC3     H 9868   3.763   0.424  17.280 -0.5839  0.8039  0.8690
  663TMC3    H1 9869   3.679   0.312  16.881 -0.8309  0.3275  0.4815
  663TMC3    H2 9870   3.927   0.065  17.116 -0.6494 -0.0456 -0.7548
  663TMC3    C7 9871   3.768   0.069  16.901  0.1069 -0.0989 -0.0671
  663TMC3    C8 9872   3.876   0.175  17.334  0.6409  0.6289 -0.0354
  663TMC3    O1 9873   3.711   0.106  16.800  0.8635  0.6915 -0.1957
  663TMC3    O2 9874   3.970   0.095  17.328 -0.1610 -0.5435 -0.3608
  664MPD2     C 9875   1.845   3.614  17.699 -0.2678  0.4620 -0.2628
  664MPD2    C1 9876   1.973   3.628  17.737 -0.1898 -0.2198  0.0350
  664MPD2    C2 9877   2.017   3.582   0.101 -0.8167 -0.2194 -0.0468
  664MPD2    C3 9878   1.932   3.528   0.195 -0.0262 -0.0241 -0.7195
  664MPD2    C4 9879   1.799   3.515   0.159  0.5732  0.0053  0.6501
  664MPD2    C5 9880   1.761   3.544   0.033 -0.5432 -0.0372  0.1117
  664MPD2     H 9881   2.122   3.571   0.124 -0.5428  0.0381 -1.1692
  664MPD2    H1 9882   1.727   3.474   0.229 -0.1306 -2.1670 -1.3530
  664MPD2    H2 9883   1.811   3.649  17.602  1.0926 -1.3985 -1.4221
  664MPD2    H3 9884   1.658   3.530   0.001 -1.0076  2.2817  0.6037
  664MPD2     N 9885   1.982   3.512   0.332  0.2763 -0.0098  0.3188
  664MPD2    H5 9886   2.073   3.551   0.352 -1.0746  2.3818  1.8485
  664MPD2    N1 9887   2.068   3.683  17.642  0.2612 -0.0636 -0.0878
  664MPD2    H7 9888   2.166   3.668  17.665 -0.0206 -2.5472 -0.4877
  665TMC3    C1 9889   1.921   3.528   0.564 -0.4336  0.3028  0.5735
  665TMC3    C2 9890   1.864   3.456   0.665  0.1561 -0.0948  0.3082
  665TMC3    C3 9891   1.815   3.525   0.770 -0.0279 -0.1188 -0.4274
  665TMC3    C4 9892   1.939   3.660   0.571 -0.2722 -0.2735  0.2201
  665TMC3    C5 9893   1.900   3.725   0.687 -0.0070  0.0112  0.4510
  665TMC3    C6 9894   1.840   3.654   0.786 -0.1557  0.2506 -0.8345
  665TMC3     C 9895   1.903   3.470   0.440 -0.0618  0.6080 -0.1623
  665TMC3     O 9896   1.819   3.379   0.440 -0.0348 -0.8468  0.3644
  665TMC3     H 9897   1.865   3.348   0.666 -1.8047 -0.1072  0.2418
  665TMC3    H1 9898   1.996   3.708   0.492 -1.1008 -0.7360 -0.6487
  665TMC3    H2 9899   1.799   3.706   0.872  2.4368  0.6937  0.1090
  665TMC3    C7 9900   1.973   3.848   0.716 -0.3839 -1.1470  0.5096
  665TMC3    C8 9901   1.716   3.462   0.863 -0.0326  0.2425 -0.3374
  665TMC3    O1 9902   2.076   3.860   0.654 -0.0018  1.0116 -0.0068
  665TMC3    O2 9903   1.684   3.527   0.958 -0.1293 -0.9009 -0.2081
  666TMC3    C1 9904   0.874   3.296  10.380 -0.1953 -0.7400 -0.6060
  666TMC3    C2 9905   0.948   3.197  10.445 -0.2962  0.3135  0.3804
  666TMC3    C3 9906   1.083   3.224  10.465 -1.1684 -0.0875  0.4145
  666TMC3    C4 9907   0.926   3.420  10.363  0.5213 -0.6756  0.0393
  666TMC3    C5 9908   1.060   3.440  10.384  0.4875  0.1767 -0.7224
  666TMC3    C6 9909   1.144   3.342  10.423 -0.5759  0.0290 -0.5642
  666TMC3     C 9910   0.747   3.272  10.327  0.3649  0.2443  0.6097
  666TMC3     O 9911   0.695   3.358  10.250 -0.3965  0.1448 -0.4692
  666TMC3     H 9912   0.919   3.095  10.471 -0.7467 -0.1639 -2.0298
  666TMC3    H1 9913   0.869   3.505  10.327  0.6204 -0.5667  0.1405
  666TMC3    H2 9914   1.236   3.376  10.469 -1.4383  0.8860  0.5250
  666TMC3    C7 9915   1.093   3.568  10.448  0.2325  0.0911  1.0504
  666TMC3    C8 9916   1.164   3.127  10.537  0.0358 -0.7449  0.1161
  666TMC3    O1 9917   1.000   3.618  10.514 -0.5638 -0.5601 -0.5670
  666TMC3    O2 9918   1.109   3.032  10.597  0.5218  0.4003  0.4230
  667MPD2     C 9919   3.026   3.542  15.018  0.5817  0.1782  0.4539
  667MPD2    C1 9920   2.917   3.538  15.114 -0.0430 -0.6115 -0.4470
  667MPD2    C2 9921   2.847   3.426  15.116  0.1105  0.3998 -0.6436
  667MPD2    C3 9922   2.872   3.318  15.033 -0.1976  0.8311 -0.2146
  667MPD2    C4 9923   2.979   3.326  14.946 -0.6994 -0.4179 -0.0615
  667MPD2    C5 9924   3.059   3.439  14.938  0.5555  0.4382  0.0073
  667MPD2     H 9925   2.761   3.432  15.181 -0.3736 -0.7546 -1.1687
  667MPD2    H1 9926   3.009   3.236  14.892 -0.9205 -0.3708 -0.2635
  667MPD2    H2 9927   3.097   3.624  15.015  1.7148 -0.7690  1.2724
  667MPD2    H3 9928   3.153   3.447  14.886 -0.0490 -1.6672 -1.3944
  667MPD2     N 9929   2.799   3.198  15.029 -0.2158  0.6913  0.8451
  667MPD2    H5 9930   2.834   3.120  14.974 -2.4849  0.8127 -0.7735
  667MPD2    N1 9931   2.883   3.647  15.202 -0.2702  0.1412 -0.4496
  667MPD2    H7 9932   2.814   3.629  15.274  0.2716 -1.4956 -0.3160
  668TMC3    C1 9933   2.920   3.869  15.289 -0.1362  0.6541 -0.7862
  668TMC3    C2 9934   2.986   3.986  15.270  0.1650 -1.2902 -0.6048
  668TMC3    C3 9935   2.973   4.080  15.368 -0.1899  0.3962 -0.2495
  668TMC3    C4 9936   2.831   3.844  15.389 -0.5860  0.2392  0.1935
  668TMC3    C5 9937   2.818   3.944  15.483  0.9995 -0.0565 -0.0250
  668TMC3    C6 9938   2.887   4.060  15.474  0.2009 -0.0506  0.3899
  668TMC3     C 9939   2.947   3.772  15.187 -0.3150  0.6182 -0.1092
  668TMC3     O 9940   2.998   3.815  15.082 -0.5383 -0.0037  0.2263
  668TMC3     H 9941   3.074   3.988  15.207 -0.7308  0.2071 -1.8191
  668TMC3    H1 9942   2.774   3.752  15.396  1.1219 -0.9144 -1.3111
  668TMC3    H2 9943   2.859   4.151  15.526  2.1392  0.8717 -0.1887
  668TMC3    C7 9944   2.734   3.942  15.600 -0.1103  0.8553  0.6904
  668TMC3    C8 9945   3.011   4.213  15.346 -0.5317 -0.4595 -0.1416
  668TMC3    O1 9946   2.771   4.007  15.700 -0.0041  0.1468  0.3121
  668TMC3    O2 9947   3.048   4.280  15.441  0.1704 -0.7106  0.7101
  669TMC3    C1 9948   0.486   3.563  14.948  0.3220 -0.0370 -0.5187
  669TMC3    C2 9949   0.377   3.609  14.886  0.4830  0.5584  0.0302
  669TMC3    C3 9950   0.404   3.683  14.777 -0.0523 -0.4172 -0.3296
  669TMC3    C4 9951   0.619   3.578  14.911  0.7190 -0.3225  0.2513
  669TMC3    C5 9952   0.639   3.650  14.795 -0.3942 -0.6063 -0.0127
  669TMC3    C6 9953   0.536   3.712  14.732  0.1939 -0.9134 -0.1004
  669TMC3     C 9954   0.471   3.514  15.091 -0.2390  0.0104 -0.2875
  669TMC3     O 9955   0.572   3.463  15.143 -0.2485 -0.3655  0.5233
  669TMC3     H 9956   0.276   3.580  14.910  0.3542  0.9655 -0.0163
  669TMC3    H1 9957   0.697   3.540  14.976  0.0490 -1.4912  0.3752
  669TMC3    H2 9958   0.555   3.744  14.630  2.0968 -2.3715 -0.1965
  669TMC3    C7 9959   0.765   3.706  14.749  0.1122  0.5961  0.1830
  669TMC3    C8 9960   0.298   3.738  14.694  0.6321 -0.1661  0.2770
  669TMC3    O1 9961   0.759   3.790  14.662 -0.0420  0.5084  0.1658
  669TMC3    O2 9962   0.191   3.678  14.683  0.1955 -0.0193 -0.1051
  670MPD2     C 9963   3.634   1.326  13.788  0.7100 -0.1953 -0.0511
  670MPD2    C1 9964   3.763   1.336  13.825 -0.2760  0.1474 -0.5476
  670MPD2    C2 9965   3.782   1.323  13.966  0.1152  0.0771 -0.3768
  670MPD2    C3 9966   3.682   1.314  14.058  0.3961 -0.2394  0.0625
  670MPD2    C4 9967   3.555   1.317  14.007 -0.0722  0.5076 -0.3399
  670MPD2    C5 9968   3.528   1.317  13.875  0.2736  0.2386  0.9929
  670MPD2     H 9969   3.881   1.343  14.005  0.4841  0.2112 -1.3808
  670MPD2    H1 9970   3.465   1.301  14.066 -0.7022 -2.0452 -1.9713
  670MPD2    H2 9971   3.607   1.338  13.684 -0.4608 -0.4828  0.2289
  670MPD2    H3 9972   3.430   1.326  13.830 -0.3073 -2.0598  1.8580
  670MPD2     N 9973   3.709   1.303  14.197  0.0621  0.0157 -0.2343
  670MPD2    H5 9974   3.806   1.305  14.227 -0.2176  0.1365  0.6509
  670MPD2    N1 9975   3.869   1.364  13.742 -0.2727  0.2078  0.8509
  670MPD2    H7 9976   3.953   1.398  13.786 -1.0801  0.3581  2.2714
  671TMC3    C1 9977   3.682   1.226  14.408  0.1264 -0.4556  0.2390
  671TMC3    C2 9978   3.788   1.275  14.466 -0.4141 -0.0229 -0.3299
  671TMC3    C3 9979   3.849   1.196  14.566  0.2416  0.1002 -0.1581
  671TMC3    C4 9980   3.638   1.097  14.430 -0.4707 -0.2374  0.3061
  671TMC3    C5 9981   3.710   1.019  14.516 -0.9209 -0.8605  0.1836
  671TMC3    C6 9982   3.815   1.063  14.583 -0.1693 -0.0872  0.9009
  671TMC3     C 9983   3.612   1.291  14.299 -0.6928  0.0086 -0.3383
  671TMC3     O 9984   3.497   1.258  14.290 -0.3102  0.4886  0.2537
  671TMC3     H 9985   3.818   1.378  14.452 -1.1287  0.3133  0.6289
  671TMC3    H1 9986   3.564   1.056  14.363  0.0399 -0.2466 -0.2533
  671TMC3    H2 9987   3.874   0.991  14.638  1.7522 -0.0400 -1.1182
  671TMC3    C7 9988   3.698   0.874  14.495  0.0858 -0.6492  0.3385
  671TMC3    C8 9989   3.943   1.255  14.652  0.3560 -0.7380 -0.0914
  671TMC3    O1 9990   3.781   0.812  14.559  0.5266  0.2513  0.3710
  671TMC3    O2 9991   4.016   1.332  14.594  0.7203 -0.3050  0.1452
  672MPD2     C 9992   4.583   2.041   0.094  0.9121  0.0755  0.0065
  672MPD2    C1 9993   4.593   1.969   0.213 -0.1123 -0.2614  0.2107
  672MPD2    C2 9994   4.650   2.037   0.320 -0.0655  0.0297 -0.0698
  672MPD2    C3 9995   4.695   2.167   0.315  0.6273 -0.4684 -0.4665
  672MPD2    C4 9996   4.671   2.242   0.206 -0.1325  0.2709 -0.5370
  672MPD2    C5 9997   4.618   2.176   0.100  0.1805 -0.2925  0.1593
  672MPD2     H 9998   4.644   1.985   0.415  0.7221  3.4575  1.8277
  672MPD2    H1 9999   4.689   2.349   0.208 -1.5681  0.5220 -1.0952
  672MPD2    H210000   4.539   1.998   0.005  2.0863 -0.0305 -0.5301
  672MPD2    H310001   4.586   2.244   0.021 -1.8384 -1.9097 -0.4181
  672MPD2     N10002   0.020   2.232   0.419 -0.1181 -0.4771  0.6391
  672MPD2    H510003   0.041   2.330   0.404 -0.7194 -0.7980 -2.3366
  672MPD2    N110004   4.531   1.841   0.238  0.2307  1.3145  0.0039
  672MPD2    H710005   4.532   1.803   0.332 -2.1836  2.7974  0.6264
  673TMC3    C110006   4.349   1.690   0.227 -0.2432 -0.4941  0.3417
  673TMC3    C210007   4.408   1.583   0.290  0.2171  0.2164  0.1086
  673TMC3    C310008   4.323   1.489   0.335 -0.5383  0.2411 -0.0816
  673TMC3    C410009   4.215   1.702   0.209  0.4303  0.6011 -0.5373
  673TMC3    C510010   4.138   1.603   0.261  0.0312 -0.1395 -0.0809
  673TMC3    C610011   4.184   1.490   0.320 -0.1798  0.2901 -0.0623
  673TMC3     C10012   4.437   1.783   0.151 -0.4610 -0.2448 -0.4636
  673TMC3     O10013   4.387   1.839   0.056  0.3108 -0.0341 -0.3901
  673TMC3     H10014   4.516   1.576   0.298  0.3135  0.8576 -0.6667
  673TMC3    H110015   4.173   1.787   0.156 -0.3546 -0.4329 -1.5867
  673TMC3    H210016   4.117   1.408   0.347  0.1532 -0.4486 -1.5055
  673TMC3    C710017   3.998   1.637   0.288 -0.0313 -0.4867 -0.5735
  673TMC3    C810018   4.365   1.369   0.408  0.5301 -1.1186 -0.2562
  673TMC3    O110019   3.915   1.545   0.294 -0.1256 -0.5593 -0.1356
  673TMC3    O210020   4.277   1.281   0.417 -0.4164 -0.2099 -0.0169
  674MPD2     C10021   4.136   1.955  17.614 -0.0456 -0.3197 -0.0681
  674MPD2    C110022   4.067   1.842  17.646 -0.4374 -0.1442 -0.0748
  674MPD2    C210023   3.929   1.857  17.670 -0.1749  0.4857  0.0864
  674MPD2    C310024   3.862   1.977  17.680 -0.2384 -0.8543  0.3863
  674MPD2    C410025   3.933   2.094  17.645  0.0731 -0.3147  0.6127
  674MPD2    C510026   4.065   2.072  17.609  0.0691  0.2914  0.0070
  674MPD2     H10027   3.864   1.772  17.687  2.0634 -0.6521  2.7324
  674MPD2    H110028   3.895   2.195  17.650  0.8895 -0.0660  1.6540
  674MPD2    H210029   4.241   1.960  17.589 -0.1407  0.8751 -0.2299
  674MPD2    H310030   4.120   2.161  17.580  0.2607  0.5182  1.0844
  674MPD2     N10031   3.726   1.973  17.723  0.5551 -0.1664 -0.2686
  674MPD2    H510032   3.699   1.878  17.744 -1.8806  0.3518 -1.1273
  674MPD2    N110033   4.139   1.719  17.653  0.7483  0.1233 -0.6419
  674MPD2    H710034   4.239   1.714  17.639  0.5906 -0.4302 -1.5338
  675TMC3    C110035   4.184   1.486  17.691 -0.2723  0.0497  0.1671
  675TMC3    C210036   4.152   1.361  17.741 -0.0005 -0.7875  0.2821
  675TMC3    C310037   4.249   1.269  17.750 -0.4116 -0.1856  0.8055
  675TMC3    C410038   4.310   1.501  17.641 -0.3683  0.0113  0.0988
  675TMC3    C510039   4.407   1.407  17.651  0.8045  0.7124  0.2118
  675TMC3    C610040   4.378   1.287  17.706  0.2743 -0.2686  0.2247
  675TMC3     C10041   4.086   1.590  17.681 -0.4199  0.3763  0.0490
  675TMC3     O10042   3.972   1.561  17.713  0.4845 -0.3032  0.2162
  675TMC3     H10043   4.054   1.351   0.031 -0.9056  2.1936 -1.0070
  675TMC3    H110044   4.341   1.590  17.587 -2.1822  1.0027  0.7025
  675TMC3    H210045   4.444   1.201  17.697  3.5520  2.1316  1.0427
  675TMC3    C710046   4.534   1.459  17.690 -0.8163 -0.1629  0.7586
  675TMC3    C810047   4.240   1.169   0.096 -0.7562  0.3886 -0.6201
  675TMC3    O110048   4.533   1.581  17.712 -0.2124 -0.5282  0.0710
  675TMC3    O210049   4.347   1.149   0.151  0.2741 -0.4218 -0.3797
  676MPD2     C10050   1.814   4.573  11.159 -0.1700  0.1219 -0.3322
  676MPD2    C110051   1.675   4.586  11.146 -0.2232  0.0500  0.5271
  676MPD2    C210052   1.612   4.486  11.083  0.6237 -0.5822 -0.5620
  676MPD2    C310053   1.683   4.379  11.038  0.2415  0.8133  0.1488
  676MPD2    C410054   1.817   4.367  11.047  0.2280 -0.0277 -0.3360
  676MPD2    C510055   1.886   4.470  11.101 -0.8901 -0.1308  0.5898
  676MPD2     H10056   1.506   4.493  11.064  0.4959  0.9892  0.8017
  676MPD2    H110057   1.871   4.280  11.011  0.9018 -0.0900  0.8213
  676MPD2    H210058   1.874   4.650  11.206  0.0159  1.1168 -2.1740
  676MPD2    H310059   1.994   4.456  11.106 -0.8852  0.2325  1.5087
  676MPD2     N10060   1.623   4.258  10.988 -0.1798 -0.0838  0.0048
  676MPD2    H510061   1.683   4.176  10.981 -0.0105  0.0039  0.4625
  676MPD2    N110062   1.606   4.697  11.196  0.4382 -0.8301 -0.3370
  676MPD2    H710063   1.506   4.682  11.194  0.2900  0.4450 -3.0890
  677TMC3    C110064   1.549   0.166  11.285 -0.1846  1.2436  0.4055
  677TMC3    C210065   1.427   0.125  11.240 -0.3489 -0.1936 -0.1785
  677TMC3    C310066   1.342   0.094  11.341 -0.2227  1.3056  0.2145
  677TMC3    C410067   1.577   0.210  11.410 -0.5127 -0.2202 -0.2689
  677TMC3    C510068   1.482   0.200  11.504  0.5948 -0.2534 -0.6474
  677TMC3    C610069   1.365   0.136  11.470 -0.3375  0.1648  0.0513
  677TMC3     C10070   1.657   0.082  11.237  0.1216 -0.1855 -0.2993
  677TMC3     O10071   1.772   0.121  11.253 -0.0363  0.1496 -0.0243
  677TMC3     H10072   1.411   0.087  11.140 -1.5672 -1.2741  0.4324
  677TMC3    H110073   1.681   0.227  11.436 -0.9964  1.1267  0.8014
  677TMC3    H210074   1.284   0.128  11.541 -0.6066 -0.4500 -0.3202
  677TMC3    C710075   1.516   0.178  11.645  0.2631  0.4649  0.5913
  677TMC3    C810076   1.323   4.690  11.334  0.6731  0.0089 -0.6034
  677TMC3    O110077   1.438   0.100  11.695 -0.4181 -0.4022  0.0682
  677TMC3    O210078   1.328   4.637  11.222  0.7979  0.2167  0.2964
  678MPD2     C10079   3.070   0.136   1.498  0.3096  0.6129 -0.0100
  678MPD2    C110080   3.037   0.035   1.409  0.1316 -0.5932  0.0812
  678MPD2    C210081   2.904   0.013   1.378 -0.2227 -0.6910 -0.5500
  678MPD2    C310082   2.802   0.096   1.420 -0.9062  0.2164 -0.0841
  678MPD2    C410083   2.835   0.204   1.502  0.3181 -0.5167  0.0876
  678MPD2    C510084   2.968   0.223   1.534  0.1432 -0.1600 -0.8308
  678MPD2     H10085   2.871   4.674   1.311  1.2572 -2.0412  0.3103
  678MPD2    H110086   2.761   0.264   1.553  1.6674  0.5042  0.8489
  678MPD2    H210087   3.168   0.164   1.534  0.6969  0.6301 -1.0624
  678MPD2    H310088   2.991   0.315   1.586 -2.5869  1.1610 -1.9644
  678MPD2     N10089   2.665   0.068   1.385  0.2394  0.5222  0.4617
  678MPD2    H510090   2.650   4.728   1.323 -0.6309  0.8213  0.2998
  678MPD2    N110091   3.126   4.677   1.353  0.7046  0.2332 -0.3007
  678MPD2    H710092   3.088   4.617   1.280 -1.0176  0.1205  0.6991
  679TMC3    C110093   3.462   4.390   1.267  0.0213  0.2526  0.5981
  679TMC3    C210094   3.414   4.485   1.349 -0.0565  0.0312 -0.0222
  679TMC3    C310095   3.310   4.562   1.300  0.1295 -0.5216 -0.3459
  679TMC3    C410096   3.420   4.372   1.137 -0.3058  0.5277  0.1631
  679TMC3    C510097   3.319   4.452   1.095 -0.0628 -1.0229 -1.0179
  679TMC3    C610098   3.257   4.547   1.172  0.7189 -0.1243  0.3808
  679TMC3     C10099   3.596   4.346   1.299  0.6721 -0.1900 -0.7508
  679TMC3     O10100   3.681   4.345   1.210  0.7897  0.0683 -0.0840
  679TMC3     H10101   3.454   4.502   1.448 -0.1216  0.0842 -0.0052
  679TMC3    H110102   3.475   4.307   1.071 -2.1638 -0.0443 -0.8048
  679TMC3    H210103   3.176   4.611   1.139  0.5519 -1.6101 -2.1000
  679TMC3    C710104   3.265   4.428   0.963 -0.5098  0.1679 -0.6184
  679TMC3    C810105   3.255   4.657   1.387  0.4053  0.2032  0.5159
  679TMC3    O110106   3.173   4.504   0.932 -0.0544  0.0649  0.2762
  679TMC3    O210107   3.319   4.701   1.484  0.1563  0.4157  0.4700
  680MPD2     C10108   3.347   3.375  13.466  0.9608  0.0912 -0.1734
  680MPD2    C110109   3.435   3.347  13.573 -0.8981  1.1089 -0.4801
  680MPD2    C210110   3.477   3.458  13.654  0.6745  0.2254 -0.0651
  680MPD2    C310111   3.438   3.585  13.625  0.1235  0.5084  0.1070
  680MPD2    C410112   3.352   3.608  13.521  0.0191  0.6225  0.1646
  680MPD2    C510113   3.303   3.504  13.445 -0.0707  0.3341 -0.2412
  680MPD2     H10114   3.539   3.437  13.741  1.8920 -2.4712 -1.5578
  680MPD2    H110115   3.319   3.705  13.486  0.0886 -0.2737 -2.3554
  680MPD2    H210116   3.314   3.295  13.401  0.0863  0.9833 -0.8180
  680MPD2    H310117   3.241   3.516  13.357 -0.5792  0.1081  0.0876
  680MPD2     N10118   3.490   3.695  13.697 -0.8715 -0.2347  0.0428
  680MPD2    H510119   3.464   3.788  13.667 -0.9963  0.2853  1.7941
  680MPD2    N110120   3.471   3.218  13.615 -0.7371  0.0561 -0.0426
  680MPD2    H710121   3.536   3.200  13.691  0.3254 -0.1766 -1.0057
  681TMC3    C110122   3.491   2.974  13.607  0.2554  0.1609 -0.5151
  681TMC3    C210123   3.424   2.875  13.667  0.2135  0.6969 -0.1742
  681TMC3    C310124   3.491   2.775  13.730 -0.1557  0.8369  0.7602
  681TMC3    C410125   3.623   2.980  13.588  0.4476  0.2226  0.2122
  681TMC3    C510126   3.684   2.870  13.630  0.0979 -0.3503 -0.2173
  681TMC3    C610127   3.626   2.774  13.712  0.3209 -0.3777 -0.6518
  681TMC3     C10128   3.418   3.097  13.563  0.4330 -0.4496 -0.2574
  681TMC3     O10129   3.311   3.082  13.501 -0.4182 -0.9242  0.3135
  681TMC3     H10130   3.319   2.878  13.692  0.4249 -1.3961  0.9892
  681TMC3    H110131   3.658   3.048  13.511  1.1106  3.2258  3.1772
  681TMC3    H210132   3.687   2.690  13.743  1.1087 -0.2224 -1.7701
  681TMC3    C710133   3.807   2.837  13.568  0.1369  0.6644  0.6014
  681TMC3    C810134   3.431   2.731  13.859 -0.7621 -0.8393 -0.3950
  681TMC3    O110135   3.841   2.719  13.568  0.2156  0.6748 -0.1995
  681TMC3    O210136   3.311   2.720  13.866 -0.3494  0.2096 -0.2079
  682MPD2     C10137   0.871   0.066  10.693 -0.1437  0.4703  0.0738
  682MPD2    C110138   0.827   4.716  10.784 -0.0690  0.3998 -0.0755
  682MPD2    C210139   0.764   0.023  10.902  0.6388 -0.7664  0.3974
  682MPD2    C310140   0.773   0.151  10.943  0.8112 -0.5568  0.2733
  682MPD2    C410141   0.826   0.245  10.853 -0.1098  0.2273 -0.7418
  682MPD2    C510142   0.849   0.202  10.722  0.3797 -0.0097 -0.3144
  682MPD2     H10143   0.715   4.690  10.965  2.1540 -1.8267  0.3640
  682MPD2    H110144   0.819   0.351  10.873 -2.0555 -0.4658  2.2428
  682MPD2    H210145   0.890   0.047  10.588 -0.2130 -1.4060  0.4042
  682MPD2    H310146   0.879   0.264  10.638  4.0943  0.7155  1.5531
  682MPD2     N10147   0.739   0.191  11.071  0.0265 -0.0756 -0.4572
  682MPD2    H510148   0.746   0.292  11.081 -0.0236 -0.1792  0.5549
  682MPD2    N110149   0.829   4.574  10.771 -0.6709 -0.0042 -0.2544
  682MPD2    H710150   0.812   4.512  10.849 -0.1679  2.7051  2.0260
  683TMC3    C110151   0.634   0.350  11.431 -0.5650 -0.0013  0.0601
  683TMC3    C210152   0.531   0.294  11.504 -0.2299  0.0036 -0.6047
  683TMC3    C310153   0.464   0.187  11.457 -0.1173  0.2337 -0.6644
  683TMC3    C410154   0.678   0.294  11.316 -0.3237  0.2765 -0.2795
  683TMC3    C510155   0.610   0.185  11.274  0.3831  0.5225 -0.0123
  683TMC3    C610156   0.509   0.131  11.341 -0.0568  0.1371 -0.2867
  683TMC3     C10157   0.714   0.452  11.482  0.1021  0.7693  0.1452
  683TMC3     O10158   0.781   0.518  11.406 -0.1838 -0.8925  0.4344
  683TMC3     H10159   0.484   0.353  11.582  0.2078 -0.1022 -0.2528
  683TMC3    H110160   0.772   0.326  11.272 -0.4575 -0.5920 -1.1975
  683TMC3    H210161   0.449   0.049  11.304 -1.4763  0.6282  0.9299
  683TMC3    C710162   0.673   0.114  11.165  0.4634  0.0159 -0.6170
  683TMC3    C810163   0.330   0.153  11.488 -0.3968  0.3052  0.6302
  683TMC3    O110164   0.652   4.734  11.166 -0.4157 -0.2461  0.3970
  683TMC3    O210165   0.255   0.247  11.511 -0.1983 -0.3675  0.2187
  684MPD2     C10166   4.024   4.026  16.413 -0.7075  0.2356  0.4850
  684MPD2    C110167   4.139   4.094  16.429 -0.3183  0.0650 -0.3641
  684MPD2    C210168   4.133   4.232  16.466  0.0864  0.9786  0.0832
  684MPD2    C310169   4.018   4.297  16.482  0.2170 -0.0075 -0.4188
  684MPD2    C410170   3.900   4.225  16.467 -0.2853  0.4554 -0.1086
  684MPD2    C510171   3.904   4.094  16.429 -0.0579 -0.4621  0.4346
  684MPD2     H10172   4.229   4.280  16.481 -0.6576  2.8176 -0.9699
  684MPD2    H110173   3.802   4.272  16.474  0.3189  1.8976 -1.5215
  684MPD2    H210174   4.022   3.925  16.374  1.3697 -0.0761  1.1564
  684MPD2    H310175   3.814   4.039  16.406 -1.7270  1.2660  2.7676
  684MPD2     N10176   4.009   4.439  16.488  0.3137  0.5064 -0.1059
  684MPD2    H510177   3.922   4.484  16.463  0.3902  0.2687 -0.8265
  684MPD2    N110178   4.268   4.049  16.404 -0.1288 -0.7145  0.0081
  684MPD2    H710179   4.343   4.114  16.427 -0.6183 -0.4136  0.7224
  685TMC3    C110180   4.428   3.971  16.252 -0.1691 -0.0113  0.0854
  685TMC3    C210181   4.417   3.962  16.111  0.7007 -0.5514  0.2006
  685TMC3    C310182   4.495   4.046  16.034  0.1217 -0.3505 -0.4192
  685TMC3    C410183   4.517   4.051  16.309 -0.2417 -0.7031  0.3606
  685TMC3    C510184   4.597   4.119  16.224  0.0260 -0.3890  1.2298
  685TMC3    C610185   4.581   4.128  16.089  0.3941 -0.3110  0.6798
  685TMC3     C10186   4.297   3.946  16.320  0.1068  0.2248 -0.5669
  685TMC3     O10187   4.241   3.842  16.285  0.5674 -0.6073  0.0207
  685TMC3     H10188   4.357   3.887  16.060 -0.2657 -1.6417  2.9342
  685TMC3    H110189   4.534   4.032  16.414  3.4764  2.1459  0.2999
  685TMC3    H210190   4.640   4.201  16.034 -0.7727 -0.8954 -1.3396
  685TMC3    C710191   4.693   4.192  16.303 -0.2326 -0.1151  0.1594
  685TMC3    C810192   4.431   4.106  15.924  0.0751  0.3793  0.0832
  685TMC3    O110193   4.658   4.224  16.414  0.5337  0.1977  0.2254
  685TMC3    O210194   4.499   4.184  15.861 -0.2509  0.3255 -0.0919
  686MPD2     C10195   0.586   4.201  15.490  0.4283  0.0938  0.2998
  686MPD2    C110196   0.619   4.081  15.546  0.0662 -0.2308  0.2415
  686MPD2    C210197   0.678   3.977  15.473  0.3684  0.3009  0.5513
  686MPD2    C310198   0.683   3.998  15.335 -0.1244  0.4145  0.3981
  686MPD2    C410199   0.646   4.116  15.282  0.5041  0.2976 -0.0815
  686MPD2    C510200   0.595   4.217  15.356 -0.2462 -0.0537 -0.4250
  686MPD2     H10201   0.718   3.893  15.530  2.2422  0.5810 -0.3336
  686MPD2    H110202   0.647   4.129  15.174 -1.6201  1.4522  0.0420
  686MPD2    H210203   0.562   4.290  15.547  1.4540  0.5984 -0.0705
  686MPD2    H310204   0.555   4.307  15.311  0.1442  0.5448  0.4321
  686MPD2     N10205   0.724   3.906  15.243  0.0545 -0.3870  0.5157
  686MPD2    H510206   0.748   3.944  15.152  0.2611  1.1771  1.2286
  686MPD2    N110207   0.596   4.068  15.682 -0.0492 -0.5584  0.3229
  686MPD2    H710208   0.554   4.146  15.731  0.2004 -0.1643 -0.0955
  687TMC3    C110209   0.662   3.693  15.369  0.3921  0.4691 -0.6261
  687TMC3    C210210   0.538   3.737  15.408 -0.3446  0.2070  1.0390
  687TMC3    C310211   0.501   3.689  15.529  0.6278  0.4044 -0.3241
  687TMC3    C410212   0.740   3.611  15.441 -0.5006  0.5585  0.2365
  687TMC3    C510213   0.698   3.579  15.565  0.2118 -0.7556 -0.3339
  687TMC3    C610214   0.573   3.608  15.614 -0.0673 -0.0662 -0.5047
  687TMC3     C10215   0.746   3.771  15.268  0.2854 -0.3668  0.8138
  687TMC3     O10216   0.816   3.701  15.199  0.4051 -0.4876 -0.9754
  687TMC3     H10217   0.465   3.780  15.340 -0.7977 -0.9541  0.7805
  687TMC3    H110218   0.834   3.571  15.405 -0.9678 -0.7003  0.4134
  687TMC3    H210219   0.527   3.580  15.708  0.8266  0.4600  0.0825
  687TMC3    C710220   0.807   3.526  15.652 -0.4666 -0.2348  0.7241
  687TMC3    C810221   0.367   3.719  15.584 -0.6840 -0.1563  0.0196
  687TMC3    O110222   0.901   3.468  15.592 -0.5137  0.4306 -0.3425
  687TMC3    O210223   0.332   3.680  15.696 -0.6414  0.1059  0.4538
  688MPD2     C10224   4.482   2.967  17.069  0.4554 -0.5839  0.4060
  688MPD2    C110225   4.554   2.877  17.153  0.0118  0.8096  0.2075
  688MPD2    C210226   4.689   2.847  17.128 -0.1260 -0.5894  0.3925
  688MPD2    C310227   0.015   2.916  17.025 -0.2738 -0.2614  0.3583
  688MPD2    C410228   4.682   3.013  16.953 -0.0031 -0.3727  0.4155
  688MPD2    C510229   4.552   3.040  16.972  0.4361 -0.3093 -0.2054
  688MPD2     H10230   0.004   2.772  17.185 -0.0205 -0.8423 -0.0385
  688MPD2    H110231   4.727   3.068  16.871  1.1251  1.0483  2.0130
  688MPD2    H210232   4.374   2.966  17.056  0.6576 -0.1500 -1.3339
  688MPD2    H310233   4.504   3.103  16.898  1.0461  0.2673 -0.1074
  688MPD2     N10234   0.151   2.908  16.986 -0.2527  0.7916  0.6767
  688MPD2    H510235   0.183   2.974  16.916  1.4507 -0.9557 -0.1939
  688MPD2    N110236   4.491   2.810  17.267 -0.2185 -0.2417  0.0273
  688MPD2    H710237   4.548   2.748  17.324 -0.7360 -0.1904  0.6035
  689TMC3    C110238   4.321   2.753  17.423 -0.2374  0.2262  0.4550
  689TMC3    C210239   4.242   2.801  17.516 -0.3870  0.3174  0.6549
  689TMC3    C310240   4.220   2.720  17.630 -0.2964  0.7788 -0.4338
  689TMC3    C410241   4.380   2.629  17.439  0.0339  0.8027  0.0889
  689TMC3    C510242   4.350   2.548  17.544  0.3015 -0.1020  0.5499
  689TMC3    C610243   4.266   2.592  17.641 -0.4633 -0.4288  0.1630
  689TMC3     C10244   4.353   2.831  17.302 -0.6513  0.2242  0.2120
  689TMC3     O10245   4.263   2.900  17.259  0.9599 -0.1899 -0.0223
  689TMC3     H10246   4.224   2.907  17.523  1.7129  0.9207 -2.9120
  689TMC3    H110247   4.462   2.600  17.374 -0.1396 -0.6578  0.5047
  689TMC3    H210248   4.238   2.525  17.721 -0.5580 -0.0057  0.4849
  689TMC3    C710249   4.386   2.409  17.532  0.3313  0.1385  0.5144
  689TMC3    C810250   4.180   2.791  17.750  0.5142 -0.5758 -0.2201
  689TMC3    O110251   4.453   2.365  17.623 -0.0056  0.0424  0.1124
  689TMC3    O210252   4.202   2.911  17.748 -0.2806  0.2434  0.2389
  690MPD2     C10253   1.357   0.059  15.757  1.1268 -0.0564  0.5074
  690MPD2    C110254   1.471   0.023  15.818 -0.1227 -0.1088 -0.2803
  690MPD2    C210255   1.591   4.737  15.744 -0.7338 -0.2038  0.2986
  690MPD2    C310256   1.582   4.736  15.605  0.0578  0.1966  0.0196
  690MPD2    C410257   1.459   0.030  15.547  0.1985  0.3443 -0.7069
  690MPD2    C510258   1.354   0.075  15.624 -0.0056 -0.1401 -0.5677
  690MPD2     H10259   1.685   4.715  15.794 -0.2050 -1.0052 -1.0341
  690MPD2    H110260   1.450   0.024  15.439  0.5335 -2.6482 -0.5736
  690MPD2    H210261   1.260   0.080  15.801  0.8929 -0.6858  0.2932
  690MPD2    H310262   1.258   0.106  15.586 -1.0279 -0.2883  1.9443
  690MPD2     N10263   1.700   4.693  15.531  0.7185 -0.4676  0.5728
  690MPD2    H510264   1.786   4.670  15.579  2.2864  1.3031 -1.3611
  690MPD2    N110265   1.481   0.045  15.955  0.1663  0.2463  0.2117
  690MPD2    H710266   1.562   0.012  16.007 -1.8680  1.1089  4.0025
  691TMC3    C110267   1.435   0.113  16.169  0.0297  1.2638 -0.0344
  691TMC3    C210268   1.412   0.229  16.232 -0.2638  0.3715  0.7689
  691TMC3    C310269   1.392   0.230  16.365  0.2985  0.6353  0.3843
  691TMC3    C410270   1.417   0.003  16.242 -0.7570  0.0369 -0.7118
  691TMC3    C510271   1.404   0.007  16.378 -0.5436  0.8032 -0.2695
  691TMC3    C610272   1.395   0.121  16.444 -0.6918  0.4055 -0.8585
  691TMC3     C10273   1.388   0.108  16.037 -0.4343 -0.2694 -0.3020
  691TMC3     O10274   1.298   0.188  16.016  0.0925  0.5169 -0.6713
  691TMC3     H10275   1.424   0.320  16.175 -1.4044  0.3321  0.4593
  691TMC3    H110276   1.428   4.650  16.187  3.7148  0.9062 -1.2736
  691TMC3    H210277   1.357   0.120  16.545 -0.0761  0.6919 -0.6299
  691TMC3    C710278   1.395   4.634  16.459  0.1896  0.2739  0.4704
  691TMC3    C810279   1.299   0.325  16.421 -0.1655 -0.6299  0.3600
  691TMC3    O110280   1.437   4.642  16.573  0.3487  0.1470  0.1849
  691TMC3    O210281   1.315   0.356  16.539  0.4344  0.0719 -0.2058
  692TMC3    C110282   3.496   0.875  15.824  0.1057  0.4820  1.0844
  692TMC3    C210283   3.607   0.929  15.887  0.2335  0.4523 -0.3818
  692TMC3    C310284   3.704   0.850  15.940  0.7210 -0.0149  0.3907
  692TMC3    C410285   3.485   0.742  15.819  0.3191 -0.0819  0.1484
  692TMC3    C510286   3.576   0.659  15.884 -0.0741 -0.0870 -0.1816
  692TMC3    C610287   3.676   0.718  15.962  0.2954 -0.8524 -0.3686
  692TMC3     C10288   3.368   0.930  15.845  0.1777 -0.3796 -0.4093
  692TMC3     O10289   3.277   0.855  15.818 -0.8567  0.4718 -0.0599
  692TMC3     H10290   3.617   1.034  15.863  1.5792  0.6113  0.9406
  692TMC3    H110291   3.400   0.691  15.777  1.1306  0.5304 -2.2464
  692TMC3    H210292   3.757   0.661  16.005 -0.5436 -0.0487  2.2956
  692TMC3    C710293   3.566   0.514  15.872  0.3726 -0.1388 -0.3984
  692TMC3    C810294   3.762   0.918  16.061  0.8186  0.3687 -0.4902
  692TMC3    O110295   3.485   0.480  15.787 -0.5183  0.2181  0.2620
  692TMC3    O210296   3.849   0.863  16.126  0.0370 -0.9615  0.1030
  693MPD2     C10297   2.868   3.538  10.531  0.0646 -0.0302  0.5359
  693MPD2    C110298   2.809   3.425  10.575  0.1495 -0.5714  0.6763
  693MPD2    C210299   2.880   3.332  10.644 -0.5476  0.4775  0.1193
  693MPD2    C310300   3.008   3.349  10.690 -0.2383 -0.2071 -0.0616
  693MPD2    C410301   3.065   3.464  10.655 -0.4240  0.2084 -0.1603
  693MPD2    C510302   2.999   3.552  10.570  0.4288 -0.3661 -0.2967
  693MPD2     H10303   2.825   3.244  10.676 -2.2355  0.7045 -2.1154
  693MPD2    H110304   3.163   3.489  10.695 -1.2386  1.0353  1.3334
  693MPD2    H210305   2.809   3.621  10.496 -1.2370 -1.3723 -0.4472
  693MPD2    H310306   3.053   3.643  10.547 -0.4160  0.3769  0.6880
  693MPD2     N10307   3.072   3.267  10.791  0.4955  0.6096  0.6373
  693MPD2    H510308   3.006   3.193  10.815 -0.7520  1.4824 -0.0732
  693MPD2    N110309   2.672   3.410  10.550 -0.3652  0.3158  0.0663
  693MPD2    H710310   2.621   3.495  10.525  0.1531  0.0741 -1.8558
  694TMC3    C110311   2.459   3.335  10.587  0.1952 -0.9930 -0.1570
  694TMC3    C210312   2.371   3.233  10.577 -0.3596 -0.0789 -0.2499
  694TMC3    C310313   2.302   3.196  10.691  0.3031  0.2081 -0.3442
  694TMC3    C410314   2.465   3.413  10.701 -0.4374  0.5310 -0.7792
  694TMC3    C510315   2.399   3.365  10.812 -0.1124  0.7763 -0.0752
  694TMC3    C610316   2.319   3.258  10.809  0.1091  0.0743  0.0471
  694TMC3     C10317   2.595   3.296  10.568  0.4000 -0.9689  0.3260
  694TMC3     O10318   2.618   3.176  10.588 -0.0710  0.1593  0.2456
  694TMC3     H10319   2.390   3.154  10.506  0.9250  0.6828 -0.7570
  694TMC3    H110320   2.531   3.498  10.715 -0.3938  0.3430  0.2164
  694TMC3    H210321   2.261   3.234  10.897  0.5551 -1.5366 -0.0946
  694TMC3    C710322   2.458   3.407  10.943 -0.0150 -0.1714  0.1302
  694TMC3    C810323   2.187   3.108  10.682 -0.1682  0.6825  0.8072
  694TMC3    O110324   2.512   3.518  10.957  0.4095 -0.6035  0.0184
  694TMC3    O210325   2.133   3.081  10.789  0.3481 -0.2676 -0.2379
  695MPD2     C10326   4.009   0.709  13.673 -0.1853  0.0466 -0.2982
  695MPD2    C110327   3.954   0.706  13.799  0.2368 -0.4311  0.3633
  695MPD2    C210328   3.814   0.686  13.817  0.6072 -0.2972  0.3277
  695MPD2    C310329   3.736   0.664  13.708  0.1337  0.9886 -0.6862
  695MPD2    C410330   3.791   0.649  13.577 -0.3372  0.3874  0.0004
  695MPD2    C510331   3.922   0.692  13.567 -0.3382 -0.6565  0.2753
  695MPD2     H10332   3.764   0.683  13.914 -0.2976 -1.0728 -0.1631
  695MPD2    H110333   3.722   0.631  13.495  2.4874  0.4933 -2.3981
  695MPD2    H210334   4.113   0.718  13.647 -0.0825  2.2529  0.9470
  695MPD2    H310335   3.965   0.691  13.468  1.7368 -2.6947  1.1726
  695MPD2     N10336   3.597   0.685  13.729  0.0238 -0.2020 -1.0763
  695MPD2    H510337   3.566   0.705  13.824 -1.0375 -0.3053 -1.3965
  695MPD2    N110338   4.032   0.706  13.918 -0.1993 -0.1385  0.3089
  695MPD2    H710339   3.983   0.689  14.005  1.9570 -0.2592  1.5065
  696TMC3    C110340   3.375   0.722  13.700  0.8118 -0.4342  0.1255
  696TMC3    C210341   3.349   0.658  13.821  0.0793 -0.1713 -0.5719
  696TMC3    C310342   3.262   0.721  13.910 -0.5223 -0.2426  0.1588
  696TMC3    C410343   3.323   0.846  13.675  0.2135 -0.2549  0.1965
  696TMC3    C510344   3.234   0.903  13.760  0.2149 -0.8103  0.4209
  696TMC3    C610345   3.210   0.847  13.878  0.1003 -0.6272  0.7999
  696TMC3     C10346   3.502   0.695  13.636  0.4606  0.2151  0.1210
  696TMC3     O10347   3.501   0.723  13.516 -0.5278 -0.2642 -0.7545
  696TMC3     H10348   3.396   0.562  13.839 -0.5167 -0.2802  0.4196
  696TMC3    H110349   3.340   0.899  13.582 -2.2454 -1.5536 -0.9686
  696TMC3    H210350   3.138   0.892  13.947 -0.9848 -0.9596 -0.1196
  696TMC3    C710351   3.193   1.033  13.722  0.5642  0.0169 -0.8647
  696TMC3    C810352   3.281   0.699  14.051  0.6369 -0.1812 -0.4129
  696TMC3    O110353   3.191   1.067  13.604  0.1003  0.2595 -0.5364
  696TMC3    O210354   3.244   0.786  14.130  0.4985  0.1710 -0.1833
  697MPD2     C10355   3.604   2.502  15.810  0.8488  0.2073  0.4784
  697MPD2    C110356   3.528   2.518  15.692 -0.2524  0.0458  0.3116
  697MPD2    C210357   3.538   2.629  15.610  0.0355  0.0544 -0.5884
  697MPD2    C310358   3.630   2.726  15.649 -0.4679 -0.1791  0.3895
  697MPD2    C410359   3.706   2.717  15.764 -0.3418  0.4072  0.1778
  697MPD2    C510360   3.692   2.604  15.840  0.4865 -0.2086  0.3387
  697MPD2     H10361   3.480   2.635  15.518  1.1062  1.3514 -1.1795
  697MPD2    H110362   3.775   2.795  15.793 -0.6198  1.4072 -1.8774
  697MPD2    H210363   3.597   2.412  15.870 -3.6469  0.3447  0.1762
  697MPD2    H310364   3.743   2.588  15.935 -0.2160 -1.3435  0.5203
  697MPD2     N10365   3.628   2.846  15.573  0.1302  0.2214 -0.0553
  697MPD2    H510366   3.543   2.854  15.518  0.0094  1.0771  0.2626
  697MPD2    N110367   3.421   2.431  15.668 -0.2520  1.2198  0.1945
  697MPD2    H710368   3.370   2.457  15.583 -2.1526 -1.2612  0.5806
  698TMC3    C110369   3.653   3.067  15.514  0.4035  0.0647 -0.9095
  698TMC3    C210370   3.733   3.179  15.516 -0.2445  0.0267  0.4761
  698TMC3    C310371   3.733   3.281  15.413  0.2491  0.2124 -0.1784
  698TMC3    C410372   3.574   3.049  15.405  0.6701 -0.1526 -0.3855
  698TMC3    C510373   3.582   3.143  15.304  0.4131  0.3199  0.4201
  698TMC3    C610374   3.654   3.266  15.306 -0.0415 -0.4461  0.1052
  698TMC3     C10375   3.704   2.957  15.595  0.8525 -0.2449  0.9127
  698TMC3     O10376   3.814   2.960  15.649 -0.0327  0.4186  0.1720
  698TMC3     H10377   3.809   3.191  15.592 -0.1676 -1.7588  0.6761
  698TMC3    H110378   3.502   2.969  15.393  1.2818 -0.7539 -0.0681
  698TMC3    H210379   3.639   3.340  15.228  0.0364 -1.3477 -0.7594
  698TMC3    C710380   3.530   3.092  15.184  0.5454  0.0198  1.0168
  698TMC3    C810381   3.804   3.406  15.435  0.7717  0.3946 -0.3667
  698TMC3    O110382   3.437   3.009  15.190  1.1792  0.5072  0.3133
  698TMC3    O210383   3.859   3.417  15.540  0.3050 -0.2822  0.3308
  699TMC3    C110384   3.027   0.923  13.219 -0.0398  0.7663 -0.4724
  699TMC3    C210385   3.058   0.792  13.238  0.2602  0.2618  0.0504
  699TMC3    C310386   3.036   0.741  13.364  0.4365 -0.3202  0.5239
  699TMC3    C410387   2.971   1.003  13.315  0.2956 -0.3154  0.2021
  699TMC3    C510388   2.950   0.946  13.435 -0.3110  0.6378  0.1044
  699TMC3    C610389   2.983   0.814  13.471  0.4591 -0.3408 -0.1858
  699TMC3     C10390   3.090   0.982  13.102  0.3138  0.4854  0.7849
  699TMC3     O10391   3.102   0.911  13.005  0.2214 -0.1830  0.4621
  699TMC3     H10392   3.128   0.740  13.174  0.9815  0.2009  0.8993
  699TMC3    H110393   2.936   1.103  13.292 -0.1005 -0.3997  0.4384
  699TMC3    H210394   2.945   0.777  13.565  0.8589  0.6320  0.3581
  699TMC3    C710395   2.869   1.021  13.535  0.3632  0.5836 -0.0101
  699TMC3    C810396   3.026   0.594  13.392  0.7149 -0.3130  0.4385
  699TMC3    O110397   2.858   0.959  13.643 -0.3460  0.2761 -0.2583
  699TMC3    O210398   2.982   0.569  13.498 -0.4099 -0.1846 -0.2117
  700TMC3    C110399   2.473   2.795  17.171  0.5830  0.1226  0.0103
  700TMC3    C210400   2.575   2.733  17.101 -0.0669 -0.0751 -0.3163
  700TMC3    C310401   2.700   2.729  17.163 -0.2833  0.1470  0.0824
  700TMC3    C410402   2.497   2.861  17.289 -0.0528  0.6934 -1.0272
  700TMC3    C510403   2.626   2.855  17.345 -0.0985  0.3213  0.3479
  700TMC3    C610404   2.723   2.787  17.286 -0.2441  0.2072  0.0573
  700TMC3     C10405   2.399   2.894  17.090  0.2854 -0.2346  0.2084
  700TMC3     O10406   2.309   2.957  17.143  0.5629 -0.6164  0.6649
  700TMC3     H10407   2.547   2.676  17.014  1.4717 -3.6989  1.5507
  700TMC3    H110408   2.413   2.917  17.327 -1.1465 -1.4373 -0.2540
  700TMC3    H210409   2.822   2.784  17.330 -0.1701  3.1014  0.1436
  700TMC3    C710410   2.685   2.974  17.404  0.3890 -0.4953 -0.3523
  700TMC3    C810411   2.811   2.680  17.085 -0.0404  0.5021  0.4399
  700TMC3    O110412   2.797   2.972  17.454  0.8249  0.3656  0.2548
  700TMC3    O210413   2.791   2.658  16.968  0.1562 -0.3128  0.3677
  701TMC3    C110414   2.630   2.164  15.998 -0.6019  0.0889  0.3507
  701TMC3    C210415   2.685   2.086  15.901  0.1036  0.0806 -0.5502
  701TMC3    C310416   2.743   2.149  15.797 -0.4896  0.3622 -0.5606
  701TMC3    C410417   2.630   2.300  15.991 -0.5556  0.0674  0.1997
  701TMC3    C510418   2.690   2.352  15.883 -0.1113  0.7994  0.0864
  701TMC3    C610419   2.750   2.281  15.785 -0.4901  0.0482  0.2323
  701TMC3     C10420   2.551   2.102  16.106 -0.0858  0.3089  0.1560
  701TMC3     O10421   2.552   2.160  16.214 -0.5211 -0.5782 -0.1499
  701TMC3     H10422   2.693   1.978  15.900  0.1933  0.0892 -0.9432
  701TMC3    H110423   2.561   2.356  16.052  1.3399  3.2483 -0.5284
  701TMC3    H210424   2.787   2.329  15.695  1.9431 -0.2214  1.0913
  701TMC3    C710425   2.661   2.484  15.845 -0.5200  0.4522 -0.2662
  701TMC3    C810426   2.791   2.072  15.686  0.0082 -0.0284 -0.1642
  701TMC3    O110427   2.667   2.507  15.724 -0.0747 -0.5947  0.2214
  701TMC3    O210428   2.890   2.121  15.633 -0.2109 -0.5536 -0.0358
  702MPD2     C10429   2.016   3.873  10.638  0.2207 -0.3295  1.1004
  702MPD2    C110430   1.972   3.955  10.736  0.6267  0.6095 -0.3597
  702MPD2    C210431   2.047   4.061  10.775 -0.5326 -0.2589  0.1919
  702MPD2    C310432   2.164   4.099  10.718  0.3797  0.5450 -0.1587
  702MPD2    C410433   2.218   4.011  10.626  0.0424 -0.7875 -0.3398
  702MPD2    C510434   2.145   3.895  10.589 -0.1833 -0.4239 -0.3964
  702MPD2     H10435   1.999   4.123  10.850  2.9000  2.2128  0.3527
  702MPD2    H110436   2.316   4.016  10.580  0.7730 -1.4042  1.1494
  702MPD2    H210437   1.961   3.787  10.602 -1.6592  1.2062  0.2910
  702MPD2    H310438   2.178   3.827  10.511  1.6147  0.2890 -0.2721
  702MPD2     N10439   2.244   4.213  10.735  0.0031  0.5884  0.1795
  702MPD2    H510440   2.313   4.236  10.664  2.3726  0.8294  2.5789
  702MPD2    N110441   1.839   3.955  10.790  0.0469 -0.4852  0.4752
  702MPD2    H710442   1.820   4.020  10.866  0.9797 -0.1179  0.3967
  703TMC3    C110443   2.236   4.443  10.786 -0.1675 -0.4124 -0.2537
  703TMC3    C210444   2.127   4.529  10.785  0.5295  0.1484  0.4400
  703TMC3    C310445   2.139   4.639  10.706 -0.1066  0.0976  0.1195
  703TMC3    C410446   2.347   4.459  10.706  0.0555  0.7000 -0.5125
  703TMC3    C510447   2.366   4.586  10.655  0.6439 -0.2124 -0.1188
  703TMC3    C610448   2.258   4.667  10.644 -0.0036 -0.4081 -0.1659
  703TMC3     C10449   2.199   4.305  10.826  0.0105 -1.0280  0.3573
  703TMC3     O10450   2.139   4.289  10.929  0.6198 -0.0813 -0.0485
  703TMC3     H10451   2.047   4.512  10.856 -0.2042 -0.9951 -0.6494
  703TMC3    H110452   2.426   4.387  10.725 -0.9175  0.0606  1.0707
  703TMC3    H210453   2.258   0.024  10.595 -0.2294 -0.4538 -0.2549
  703TMC3    C710454   2.483   4.629  10.575 -0.4295 -0.5364 -0.2636
  703TMC3    C810455   2.061   0.018  10.740 -0.7070  0.0160  0.8005
  703TMC3    O110456   2.468   4.734  10.510  0.0865  0.2163 -0.1182
  703TMC3    O210457   2.113   0.123  10.765  0.0812  0.0826  0.1087
  704TMC3    C110458   4.182   2.530  12.561 -0.2258  0.8588 -0.2301
  704TMC3    C210459   4.251   2.500  12.443  0.0685 -1.3192 -0.4725
  704TMC3    C310460   4.369   2.425  12.449  0.3435 -0.1703 -0.3980
  704TMC3    C410461   4.225   2.478  12.676 -0.1196 -0.1703 -0.4884
  704TMC3    C510462   4.347   2.414  12.686 -0.2387 -0.0974 -0.7719
  704TMC3    C610463   4.420   2.379  12.572 -0.2325 -1.0204 -0.5905
  704TMC3     C10464   4.049   2.585  12.558 -0.1594 -0.7438 -0.2739
  704TMC3     O10465   3.991   2.593  12.663 -0.4072 -0.2499  0.7099
  704TMC3     H10466   4.222   2.535  12.344 -1.8206  2.5192  1.4243
  704TMC3    H110467   4.163   2.473  12.765  3.4992 -0.9595  2.0241
  704TMC3    H210468   4.503   2.309  12.573 -0.1780 -0.8683  3.1435
  704TMC3    C710469   4.334   2.301  12.766 -0.2717 -0.1246 -0.7105
  704TMC3    C810470   4.404   2.355  12.325  0.3182  0.1970  0.7664
  704TMC3    O110471   4.250   2.221  12.732 -0.3503 -0.2037 -0.0297
  704TMC3    O210472   4.312   2.358  12.249  0.2825  0.3081  0.7710
  705MPD2     C10473   3.931   0.362  16.467 -0.0917 -0.6390 -0.5212
  705MPD2    C110474   3.934   0.499  16.485  0.7669 -0.0071 -0.3238
  705MPD2    C210475   3.832   0.568  16.544 -0.3195  0.3481  0.6495
  705MPD2    C310476   3.726   0.495  16.592 -0.6812  0.7053  0.1719
  705MPD2    C410477   3.718   0.359  16.572 -0.5298  0.2650 -0.1477
  705MPD2    C510478   3.822   0.298  16.506  0.0384  0.5876 -0.6236
  705MPD2     H10479   3.832   0.676  16.558  1.7542  0.9161 -3.6785
  705MPD2    H110480   3.629   0.303  16.596  1.5985 -3.0051  0.0898
  705MPD2    H210481   4.009   0.306  16.418 -1.2946 -0.7422 -2.3289
  705MPD2    H310482   3.827   0.191  16.493 -0.1331  0.4098  0.8049
  705MPD2     N10483   3.610   0.555  16.646 -0.3373  0.5463 -0.4064
  705MPD2    H510484   3.542   0.487  16.679  1.4374 -0.1809  1.7820
  705MPD2    N110485   4.043   0.585  16.441  0.0003 -0.7662  0.7630
  705MPD2    H710486   4.027   0.684  16.458  1.1771 -0.7587  1.8393
  706TMC3    C110487   4.342   0.652  16.099  0.3343  0.7684 -0.5680
  706TMC3    C210488   4.262   0.751  16.052  0.0443 -0.4124  0.6417
  706TMC3    C310489   4.159   0.795  16.130  0.5911  0.7088  0.1972
  706TMC3    C410490   4.328   0.605  16.228  0.4936  0.3605  0.2016
  706TMC3    C510491   4.225   0.646  16.301 -0.2159 -0.1641 -0.1566
  706TMC3    C610492   4.145   0.750  16.258 -0.9228 -0.7391  0.2915
  706TMC3     C10493   4.458   0.617  16.021  0.4589 -0.2602 -0.0192
  706TMC3     O10494   4.562   0.598  16.084 -0.7201  0.0415 -0.3438
  706TMC3     H10495   4.280   0.789  15.953 -1.0291 -0.1510  0.5457
  706TMC3    H110496   4.380   0.515  16.258 -0.1603 -0.7805 -2.0662
  706TMC3    H210497   4.088   0.811  16.327  2.3031 -1.4948  3.5794
  706TMC3    C710498   4.160   0.540  16.378  0.4404 -0.6202  0.4110
  706TMC3    C810499   4.148   0.939  16.104  0.3738  0.6344  0.1526
  706TMC3    O110500   4.204   0.427  16.364 -0.0815 -0.5583 -0.0013
  706TMC3    O210501   4.151   0.974  15.985  0.0573 -0.0112 -0.0424
  707TMC3    C110502   0.838   4.423   0.437  0.2757 -0.1300 -0.2380
  707TMC3    C210503   0.801   4.293   0.434  0.8686 -0.1889  0.2726
  707TMC3    C310504   0.753   4.237   0.314  0.6333 -1.2655 -0.2163
  707TMC3    C410505   0.820   4.502   0.320 -0.2711  0.3425 -0.8024
  707TMC3    C510506   0.777   4.440   0.206  0.3369 -0.2820 -0.3132
  707TMC3    C610507   0.728   4.314   0.198  0.5719  0.0728  0.0959
  707TMC3     C10508   0.948   4.445   0.524 -0.0695  0.2052  0.1565
  707TMC3     O10509   0.940   4.385   0.631  0.1082  0.0321  0.4064
  707TMC3     H10510   0.826   4.232   0.520  0.6690  0.2982  0.6780
  707TMC3    H110511   0.854   4.605   0.323 -0.3696  0.3323  0.6539
  707TMC3    H210512   0.692   4.266   0.108  0.2090  0.6981 -0.0895
  707TMC3    C710513   0.776   4.534   0.095  0.2261  0.8808  0.4301
  707TMC3    C810514   0.762   4.088   0.292  0.5569 -0.2698 -0.0932
  707TMC3    O110515   0.745   4.647   0.125  0.3473  0.2059  0.1804
  707TMC3    O210516   0.755   4.043   0.182  0.4106  0.2286  0.1020
  708MPD2     C10517   2.688   3.287  13.989  0.2196  0.1728  0.9861
  708MPD2    C110518   2.560   3.236  13.980 -0.9294 -0.3560 -0.0046
  708MPD2    C210519   2.497   3.200  14.105  1.2471 -0.2649 -0.1362
  708MPD2    C310520   2.555   3.218  14.225 -0.1524  0.8005  0.3674
  708MPD2    C410521   2.683   3.269  14.227  0.9568  0.3328 -0.6124
  708MPD2    C510522   2.750   3.297  14.109 -0.3613  0.6159 -0.1360
  708MPD2     H10523   2.406   3.141  14.096  1.8485 -1.3811  1.2605
  708MPD2    H110524   2.742   3.284  14.317 -2.0601 -2.1028  1.7856
  708MPD2    H210525   2.752   3.310  13.905 -0.3163  0.1100  0.5615
  708MPD2    H310526   2.851   3.334  14.120 -0.9101  3.3816 -4.5845
  708MPD2     N10527   2.493   3.191  14.350 -0.1352 -0.5336 -0.3565
  708MPD2    H510528   2.534   3.222  14.437  1.3806 -0.1421 -1.2206
  708MPD2    N110529   2.512   3.212  13.849  0.2165  0.3185 -0.2665
  708MPD2    H710530   2.572   3.244  13.774 -0.7409  1.9791 -0.3372
  709TMC3    C110531   2.344   3.195  13.696 -1.4518 -0.7961 -0.3453
  709TMC3    C210532   2.381   3.309  13.629  0.6442  0.3011  0.3900
  709TMC3    C310533   2.281   3.369  13.557  0.3222  0.5749 -0.5720
  709TMC3    C410534   2.220   3.142  13.681 -0.2816  0.2526 -0.2792
  709TMC3    C510535   2.119   3.223  13.625 -0.2407  0.2152 -0.1604
  709TMC3    C610536   2.150   3.333  13.550 -0.1153  0.5736 -0.0019
  709TMC3     C10537   2.384   3.168  13.830 -0.1756 -0.1387 -0.0317
  709TMC3     O10538   2.297   3.122  13.901 -0.2033  0.0277  0.4278
  709TMC3     H10539   2.487   3.328  13.621  0.4378  1.1810 -0.2388
  709TMC3    H110540   2.196   3.046  13.724 -2.4709  0.5898 -0.7475
  709TMC3    H210541   2.075   3.399  13.509 -2.3565 -1.9573  0.0778
  709TMC3    C710542   1.997   3.251  13.708  0.0423 -0.7482 -0.4798
  709TMC3    C810543   2.328   3.463  13.465  0.5270 -0.3430 -0.4707
  709TMC3    O110544   1.910   3.319  13.653  0.5232 -0.0255  0.8247
  709TMC3    O210545   2.433   3.515  13.485 -0.6034 -0.3045 -0.7314
  710TMC3    C110546   3.105   0.168   0.248  0.2582 -0.3093  0.2508
  710TMC3    C210547   3.189   0.157   0.141  0.6370  0.4318  0.4022
  710TMC3    C310548   3.293   0.070   0.151 -0.0877 -0.7428  0.6940
  710TMC3    C410549   3.105   0.083   0.349 -0.5336 -0.2939  0.7057
  710TMC3    C510550   3.198   4.727   0.357  0.1551  0.1785  0.1427
  710TMC3    C610551   3.309   4.727   0.264 -0.4047  0.7863  0.1605
  710TMC3     C10552   2.996   0.263   0.231  0.3539 -0.4753 -0.1045
  710TMC3     O10553   2.955   0.274   0.115 -0.8236  0.4339 -0.2747
  710TMC3     H10554   3.178   0.220   0.053 -1.2236  0.6912  0.8179
  710TMC3    H110555   3.016   0.068   0.410 -0.3773 -1.3548  0.6718
  710TMC3    H210556   3.368   4.636   0.259 -1.5935 -0.0909  1.7581
  710TMC3    C710557   3.196   4.629   0.464  0.4757  1.1124 -0.1196
  710TMC3    C810558   3.393   0.077   0.042 -0.0705 -0.7665 -0.6513
  710TMC3    O110559   3.150   4.667   0.573  0.0011  0.0102  0.2926
  710TMC3    O210560   3.360   0.140  17.701 -0.0025 -0.5126  0.4542
  711TMC3    C110561   2.871   1.381  14.918 -0.1498 -0.1748 -0.1637
  711TMC3    C210562   2.864   1.435  15.047 -0.7592 -0.0894  0.5028
  711TMC3    C310563   2.980   1.477  15.112 -0.0251  0.4892 -0.3519
  711TMC3    C410564   2.989   1.382  14.850  0.8462  0.2678 -0.1513
  711TMC3    C510565   3.103   1.429  14.912  0.4912 -1.0447 -0.4519
  711TMC3    C610566   3.096   1.478  15.041  0.6760  0.4485 -0.1359
  711TMC3     C10567   2.804   1.253  14.900  0.4874 -0.2090  0.1074
  711TMC3     O10568   2.806   1.210  14.785 -0.2709  0.4008  0.2515
  711TMC3     H10569   2.772   1.423  15.103 -0.1235 -1.5055  1.2595
  711TMC3    H110570   2.985   1.346  14.748 -0.5918  1.9205 -0.6655
  711TMC3    H210571   3.188   1.518  15.080  0.3085 -0.0118  1.1893
  711TMC3    C710572   3.212   1.334  14.899 -0.0332  0.0308 -0.2052
  711TMC3    C810573   2.996   1.404  15.237  0.0045  0.5548 -0.0052
  711TMC3    O110574   3.321   1.358  14.947 -0.4506 -0.4266  0.5520
  711TMC3    O210575   2.909   1.319  15.261 -0.0012  0.1436 -0.3843
  712MPD2     C10576   0.231   2.415  13.996 -0.3145  0.7892 -0.0908
  712MPD2    C110577   0.114   2.442  13.931 -0.1178  0.0501 -0.3867
  712MPD2    C210578   0.108   2.549  13.836  0.7380 -0.4745 -0.5600
  712MPD2    C310579   0.223   2.609  13.796  0.4485  0.4436  0.7235
  712MPD2    C410580   0.343   2.575  13.858  0.5757  0.0960  0.1652
  712MPD2    C510581   0.340   2.482  13.957 -0.1151  0.0037 -0.3610
  712MPD2     H10582   0.009   2.561  13.795  1.4556  1.5454 -1.7019
  712MPD2    H110583   0.435   2.625  13.829  0.4219  0.8393  0.9511
  712MPD2    H210584   0.244   2.328  14.060  1.9553  0.3545 -1.1715
  712MPD2    H310585   0.429   2.453  14.010  0.2491  1.4507 -0.1744
  712MPD2     N10586   0.218   2.722  13.710  0.1547  0.3537 -0.5543
  712MPD2    H510587   0.308   2.764  13.687  2.3848 -2.2042  3.4579
  712MPD2    N110588   4.733   2.364  13.942  0.1489 -0.8203  0.0616
  712MPD2    H710589   4.651   2.389  13.888  0.1195  1.1397  1.0206
  713TMC3    C110590   0.124   2.896  13.585  0.8421 -0.2587 -0.8275
  713TMC3    C210591   0.216   2.982  13.640  0.2402  0.0517  0.9878
  713TMC3    C310592   0.205   3.109  13.597 -0.7104  0.6705 -0.2322
  713TMC3    C410593   0.014   2.941  13.508  0.7846 -0.2754 -0.1294
  713TMC3    C510594   0.006   3.070  13.481  0.0579 -0.2824  0.2064
  713TMC3    C610595   0.103   3.156  13.527  0.5109 -0.6082 -0.0842
  713TMC3     C10596   0.105   2.766  13.637 -0.0915  0.5689 -0.3932
  713TMC3     O10597   0.012   2.701  13.592 -0.0642 -0.4694 -0.1661
  713TMC3     H10598   0.292   2.955  13.712 -0.9922 -0.4161  2.1285
  713TMC3    H110599   4.685   2.866  13.469 -0.4394  0.4789  0.5634
  713TMC3    H210600   0.101   3.260  13.499  2.2646 -0.5001  0.1522
  713TMC3    C710601   4.632   3.116  13.402 -0.3722 -0.3487 -0.8244
  713TMC3    C810602   0.298   3.210  13.651  0.0940 -0.2029  0.1728
  713TMC3    O110603   4.520   3.068  13.422 -0.0896 -0.5009 -0.2338
  713TMC3    O210604   0.258   3.324  13.642  0.0315  0.2830 -0.5762
  714MPD2     C10605   1.936   1.244   0.900  0.2198  0.0360 -0.0082
  714MPD2    C110606   1.858   1.134   0.904  0.9119 -0.2926 -0.6107
  714MPD2    C210607   1.734   1.134   0.840  0.4829 -0.7309 -0.0006
  714MPD2    C310608   1.692   1.250   0.780 -0.5867  0.5915 -0.1616
  714MPD2    C410609   1.764   1.363   0.779 -0.0927  0.3076 -0.3322
  714MPD2    C510610   1.887   1.359   0.837  0.1603  0.0132  0.0358
  714MPD2     H10611   1.664   1.051   0.841  0.7627 -0.9659 -0.0780
  714MPD2    H110612   1.737   1.450   0.720 -0.6099  2.0372  2.4788
  714MPD2    H210613   2.035   1.245   0.943 -0.2449 -0.3587  1.0558
  714MPD2    H310614   1.948   1.447   0.820  1.8706 -0.9756  1.0246
  714MPD2     N10615   1.563   1.243   0.728 -0.8790  0.3048 -0.4930
  714MPD2    H510616   1.507   1.160   0.744  0.4028 -0.9854 -2.6495
  714MPD2    N110617   1.910   1.018   0.967 -0.0546 -0.5961 -0.5908
  714MPD2    H710618   1.999   1.025   1.015  0.4247  1.7268 -1.8448
  715TMC3    C110619   1.918   0.799   1.052 -0.2074  0.3192 -0.8395
  715TMC3    C210620   1.973   0.680   1.007  0.4534 -0.6873 -0.0388
  715TMC3    C310621   2.042   0.604   1.097  0.4388  0.1040  0.6330
  715TMC3    C410622   1.941   0.840   1.177 -0.3876 -0.2461 -0.8445
  715TMC3    C510623   2.013   0.763   1.263  0.7573  0.3727  0.8088
  715TMC3    C610624   2.081   0.651   1.224 -0.4314  0.2313  0.8880
  715TMC3     C10625   1.862   0.891   0.948 -0.9078  0.2968 -0.0737
  715TMC3     O10626   1.781   0.854   0.863 -0.3025  0.0673 -0.2695
  715TMC3     H10627   1.937   0.648   0.910  0.6626 -1.5141  0.1641
  715TMC3    H110628   1.905   0.939   1.203 -0.3736 -0.1626 -1.1418
  715TMC3    H210629   2.138   0.598   1.299  1.6706 -0.6281 -1.3456
  715TMC3    C710630   2.050   0.824   1.389 -0.4507 -0.3666 -0.1848
  715TMC3    C810631   2.110   0.482   1.049 -0.1744  0.1467  0.5723
  715TMC3    O110632   2.159   0.800   1.428 -0.3086 -0.6684  0.2217
  715TMC3    O210633   2.057   0.424   0.956  0.2595 -0.0903 -0.0954
  716MPD2     C10634   2.116   4.042  10.205  0.6348 -0.2468  0.2308
  716MPD2    C110635   2.018   4.017  10.106  0.1349 -0.4120  0.3444
  716MPD2    C210636   2.036   3.903  10.029  0.1242  0.4138 -0.4092
  716MPD2    C310637   2.142   3.811  10.051 -0.7227 -0.3689 -0.3993
  716MPD2    C410638   2.239   3.836  10.148  0.4550 -0.2730  0.1858
  716MPD2    C510639   2.221   3.951  10.227  0.2927  0.1891  0.1790
  716MPD2     H10640   1.966   3.887   9.948 -0.8301 -0.1120  0.5281
  716MPD2    H110641   2.318   3.767  10.173  0.5326 -0.9905 -2.0527
  716MPD2    H210642   2.115   4.138  10.254  2.7301 -1.0226  1.7878
  716MPD2    H310643   2.288   3.968  10.310  2.5627  0.5163 -1.7245
  716MPD2     N10644   2.147   3.696   9.967  0.1263  0.3618 -0.3188
  716MPD2    H510645   2.075   3.702   9.896 -0.2735 -2.2438 -0.1452
  716MPD2    N110646   1.910   4.108  10.083  0.2506  0.2933  0.3639
  716MPD2    H710647   1.894   4.191  10.139 -0.2365  0.5496 -0.1609
  717TMC3    C110648   2.200   3.483   9.880  0.3379 -0.9814 -0.4012
  717TMC3    C210649   2.088   3.493   9.807  0.0235 -0.2314  0.6053
  717TMC3    C310650   2.071   3.403   9.706  0.4280 -0.2278  0.2569
  717TMC3    C410651   2.300   3.389   9.852  0.1167  0.2726  0.3573
  717TMC3    C510652   2.284   3.316   9.733  0.0500 -0.2676  0.1892
  717TMC3    C610653   2.165   3.314   9.667  0.0944  0.1657  0.2380
  717TMC3     C10654   2.225   3.585   9.982 -0.8565  0.0478 -0.4457
  717TMC3     O10655   2.318   3.566  10.060 -0.2141  0.0403 -0.0127
  717TMC3     H10656   2.002   3.545   9.846  0.3987  1.0770 -0.3375
  717TMC3    H110657   2.392   3.377   9.907  0.1551  0.3439  0.3096
  717TMC3    H210658   2.154   3.255   9.577 -0.0675  1.4227 -0.5690
  717TMC3    C710659   2.386   3.216   9.699  0.1453  0.0145  0.1438
  717TMC3    C810660   1.940   3.406   9.628  0.3576  0.0856  0.1038
  717TMC3    O110661   2.360   3.129   9.619  0.2901  0.3694 -0.2271
  717TMC3    O210662   1.871   3.503   9.631 -0.3425 -0.3012  0.5121
  718MPD2     C10663   1.437   2.670  13.312  0.4765  0.7623  0.9399
  718MPD2    C110664   1.422   2.704  13.181  1.0423  0.2121 -0.6138
  718MPD2    C210665   1.406   2.600  13.098  0.2402 -0.8419 -0.3392
  718MPD2    C310666   1.409   2.461  13.136 -0.1535  0.1315 -0.0717
  718MPD2    C410667   1.414   2.430  13.270  0.2149 -0.6210 -0.1622
  718MPD2    C510668   1.428   2.535  13.352  0.3997  0.0653 -1.1671
  718MPD2     H10669   1.402   2.615  12.991 -1.7126  1.3507  0.0227
  718MPD2    H110670   1.405   2.336  13.323 -1.4449  0.5476  1.5961
  718MPD2    H210671   1.441   2.747  13.389 -1.1546  0.7464  1.0321
  718MPD2    H310672   1.427   2.525  13.460  0.9814 -0.6167 -1.2286
  718MPD2     N10673   1.399   2.369  13.031 -0.2203  0.3462 -0.6795
  718MPD2    H510674   1.369   2.411  12.944 -0.1354 -0.1312 -0.9349
  718MPD2    N110675   1.426   2.841  13.140 -0.4369 -0.5167 -0.4739
  718MPD2    H710676   1.453   2.906  13.213 -0.1189 -1.9085  0.6581
  719TMC3    C110677   1.394   3.025  12.985 -0.2406  0.1196 -0.3672
  719TMC3    C210678   1.277   3.045  12.914  0.2586 -0.6361 -0.2275
  719TMC3    C310679   1.288   3.118  12.795  0.6874  0.3941 -0.5209
  719TMC3    C410680   1.513   3.084  12.950  0.0887  0.0803  0.5086
  719TMC3    C510681   1.513   3.168  12.837  0.4315  0.3359 -0.4223
  719TMC3    C610682   1.401   3.179  12.756  0.1187  0.4241 -0.0120
  719TMC3     C10683   1.402   2.885  13.010 -0.4993 -0.3490 -0.5902
  719TMC3     O10684   1.363   2.818  12.916 -0.1966 -0.1671 -0.3304
  719TMC3     H10685   1.192   2.982  12.938 -0.6984  0.6105 -0.3856
  719TMC3    H110686   1.601   3.024  12.970 -0.2933 -0.2803  1.0960
  719TMC3    H210687   1.402   3.239  12.665 -2.5038  0.0294 -0.2919
  719TMC3    C710688   1.638   3.206  12.774 -0.1085  0.4799 -0.0409
  719TMC3    C810689   1.231   3.042  12.687  0.7856 -0.1137 -0.6738
  719TMC3    O110690   1.631   3.235  12.661 -0.1648 -0.2987  0.2453
  719TMC3    O210691   1.191   3.096  12.584  0.2076 -0.7408  0.0283
  720MPD2     C10692   4.409   4.451  14.104 -0.1825  0.8207  0.1011
  720MPD2    C110693   4.495   4.507  14.013 -0.0124  0.8004  0.0056
  720MPD2    C210694   4.624   4.532  14.046  0.0631 -0.0612  0.7566
  720MPD2    C310695   4.675   4.480  14.167 -0.6102 -0.3519 -0.0199
  720MPD2    C410696   4.589   4.415  14.252  0.1473 -0.3980 -0.0753
  720MPD2    C510697   4.461   4.399  14.225 -0.0835  1.1324 -0.0382
  720MPD2     H10698   4.688   4.599  13.989 -0.5007  0.2919  0.5400
  720MPD2    H110699   4.630   4.374  14.344 -0.5711 -0.7443  0.0836
  720MPD2    H210700   4.303   4.442  14.082  0.0558  0.7384 -1.0346
  720MPD2    H310701   4.385   4.350  14.285  1.6524 -1.7409 -0.1932
  720MPD2     N10702   0.069   4.505  14.202  0.2207 -0.5298 -0.6958
  720MPD2    H510703   0.115   4.547  14.122  1.2812  0.3043  0.3458
  720MPD2    N110704   4.445   4.579  13.895 -0.0923 -0.1143  0.2482
  720MPD2    H710705   4.514   4.631  13.842 -0.2452  0.3928  0.5450
  721TMC3    C110706   0.278   4.490  14.321  0.2608 -0.6231  0.4398
  721TMC3    C210707   0.335   4.486  14.443  0.2793  0.5272  0.6831
  721TMC3    C310708   0.469   4.482  14.449 -0.6580 -1.0860  0.6565
  721TMC3    C410709   0.347   4.504  14.205 -0.3895  0.1811 -0.6658
  721TMC3    C510710   0.481   4.502  14.211 -0.4188  0.2701 -0.3338
  721TMC3    C610711   0.539   4.506  14.336 -0.2609 -0.2632 -0.1547
  721TMC3     C10712   0.131   4.473  14.323 -0.5977 -0.7278 -0.9292
  721TMC3     O10713   0.081   4.447  14.430  0.0697  0.1857  0.1802
  721TMC3     H10714   0.278   4.467  14.533  1.7180  0.2455  1.5470
  721TMC3    H110715   0.296   4.506  14.109  2.6064 -0.6194 -2.2716
  721TMC3    H210716   0.647   4.500  14.345  0.0462  1.4485 -2.6661
  721TMC3    C710717   0.571   4.484  14.100 -0.1889 -0.2442 -0.0016
  721TMC3    C810718   0.545   4.472  14.571  0.1032  0.8876 -0.1416
  721TMC3    O110719   0.685   4.439  14.121  0.5344 -0.2971  0.5774
  721TMC3    O210720   0.665   4.445  14.561  0.3361 -0.0321 -0.1188
  722MPD2     C10721   3.651   3.026  13.259  0.0439  0.4902  0.1636
  722MPD2    C110722   3.583   3.146  13.245  0.2881 -0.0690 -0.3742
  722MPD2    C210723   3.455   3.159  13.195 -0.1385  1.0243  0.0861
  722MPD2    C310724   3.384   3.046  13.161 -0.1817  0.0915 -0.6503
  722MPD2    C410725   3.448   2.927  13.181  0.2430 -0.0525 -0.4151
  722MPD2    C510726   3.581   2.920  13.217  0.1214  0.6169  0.8556
  722MPD2     H10727   3.412   3.258  13.202  2.3756  2.0274  1.5068
  722MPD2    H110728   3.393   2.835  13.167  1.5102 -1.2556  2.4913
  722MPD2    H210729   3.752   3.003  13.292 -0.5194 -1.3305  0.6453
  722MPD2    H310730   3.622   2.822  13.240 -0.3745  0.2721  0.2913
  722MPD2     N10731   3.246   3.054  13.120  0.0179  0.5182 -0.5840
  722MPD2    H510732   3.229   3.152  13.097 -2.3402  0.2938  0.1223
  722MPD2    N110733   3.651   3.270  13.265  0.2061 -0.1038  0.1154
  722MPD2    H710734   3.617   3.358  13.227 -0.1282 -1.1112 -1.9074
  723TMC3    C110735   3.018   2.997  13.060  0.0452 -0.9944  0.4871
  723TMC3    C210736   2.921   2.904  13.030 -0.1345 -0.1949 -0.2266
  723TMC3    C310737   2.790   2.940  13.002 -0.4159 -0.1404  0.0545
  723TMC3    C410738   2.984   3.133  13.070 -0.2393  0.2894  0.3006
  723TMC3    C510739   2.850   3.163  13.049  0.5489  0.1821 -0.8087
  723TMC3    C610740   2.751   3.072  13.008  0.3451  0.5661 -0.4089
  723TMC3     C10741   3.154   2.952  13.111  0.0735 -0.6404  0.4078
  723TMC3     O10742   3.165   2.834  13.134  0.3747 -0.0597 -0.0299
  723TMC3     H10743   2.950   2.800  13.021  0.3564  0.1669 -2.9252
  723TMC3    H110744   3.062   3.204  13.095  0.8274 -0.3625 -1.1637
  723TMC3    H210745   2.645   3.090  12.991 -0.4671 -0.7661  3.1264
  723TMC3    C710746   2.802   3.297  13.093  0.2182  0.6424  0.2644
  723TMC3    C810747   2.687   2.838  13.002 -0.6371 -0.0178  0.1800
  723TMC3    O110748   2.687   3.323  13.061  0.3699 -0.3000 -0.3978
  723TMC3    O210749   2.577   2.869  13.034  0.0373 -0.1873  0.1840
  724TMC3    C110750   3.505   1.694   9.893 -0.1533  0.0560  0.2361
  724TMC3    C210751   3.499   1.828   9.927 -0.3455  0.2386  0.3111
  724TMC3    C310752   3.611   1.881   9.993 -0.1486 -0.1255 -0.2716
  724TMC3    C410753   3.616   1.620   9.917 -0.6046  0.7368  0.6330
  724TMC3    C510754   3.723   1.675   9.979 -0.0454  0.3429 -0.1645
  724TMC3    C610755   3.725   1.809  10.010 -0.1915 -0.0976 -0.2332
  724TMC3     C10756   3.389   1.630   9.851  0.3381 -0.0843  0.2859
  724TMC3     O10757   3.398   1.511   9.836  0.2666 -0.3008  0.2592
  724TMC3     H10758   3.423   1.891   9.882 -0.0839  0.1045 -0.3013
  724TMC3    H110759   3.616   1.512   9.916 -0.1413  0.7443  0.2719
  724TMC3    H210760   3.819   1.857  10.036 -0.9310  1.2858 -0.0740
  724TMC3    C710761   3.827   1.588  10.036 -0.4601  0.2458 -0.4306
  724TMC3    C810762   3.599   2.025  10.028 -0.0639  0.1562 -0.0123
  724TMC3    O110763   3.785   1.479  10.073 -0.4805  0.3594 -0.0238
  724TMC3    O210764   3.509   2.090   9.979 -0.3085 -0.1352  0.1432
  725TMC3    C110765   0.709   4.436  12.554 -0.1817 -0.1841 -0.0850
  725TMC3    C210766   0.605   4.486  12.483 -0.6555 -0.4164  0.4005
  725TMC3    C310767   0.573   4.429  12.365  0.5461 -0.3495 -0.2221
  725TMC3    C410768   0.748   4.308  12.531  0.3713 -0.1371 -0.6566
  725TMC3    C510769   0.696   4.239  12.430  0.3157 -0.2076 -0.3978
  725TMC3    C610770   0.605   4.296  12.344 -0.3319 -0.0243 -0.4689
  725TMC3     C10771   0.740   4.495  12.678  0.1484  0.3987 -0.0397
  725TMC3     O10772   0.689   4.606  12.691 -0.4886  0.3880 -0.4203
  725TMC3     H10773   0.564   4.580  12.517  0.0102 -0.1703  0.5249
  725TMC3    H110774   0.842   4.280  12.579 -1.3459 -0.3063  2.5978
  725TMC3    H210775   0.565   4.245  12.257  0.5280 -0.8088 -0.3940
  725TMC3    C710776   0.767   4.117  12.396  0.4819 -0.1599 -0.4561
  725TMC3    C810777   0.433   4.451  12.330  0.8784 -0.1697 -0.4647
  725TMC3    O110778   0.766   4.085  12.281  0.1679 -0.3198  0.6355
  725TMC3    O210779   0.362   4.353  12.306  0.0813  0.1814 -0.7196
  726MPD2     C10780   3.069   1.051  10.397  1.4104  0.5016 -0.1882
  726MPD2    C110781   3.000   1.153  10.461  0.3963 -0.1492 -0.6726
  726MPD2    C210782   2.971   1.142  10.592  0.6085 -0.2980 -0.1652
  726MPD2    C310783   3.010   1.029  10.664  0.0656 -0.4924  0.6364
  726MPD2    C410784   3.087   0.931  10.603 -0.2047  0.1432 -0.0326
  726MPD2    C510785   3.115   0.944  10.470  0.0761  0.2401 -0.1438
  726MPD2     H10786   2.928   1.228  10.641 -0.3875 -0.7460 -0.2474
  726MPD2    H110787   3.109   0.835  10.649 -3.1683 -2.1568 -3.4757
  726MPD2    H210788   3.092   1.054  10.291  2.3186  0.2892  0.0008
  726MPD2    H310789   3.161   0.858  10.423  0.8838  0.1167  0.8743
  726MPD2     N10790   2.964   1.026  10.794 -0.1404  0.4836 -0.0593
  726MPD2    H510791   2.904   1.103  10.823 -0.7981 -0.5002  1.2249
  726MPD2    N110792   2.950   1.269  10.388 -0.6768 -0.2287 -0.2438
  726MPD2    H710793   2.911   1.339  10.451 -3.3800 -1.6758 -0.3038
  727TMC3    C110794   2.931   1.436  10.231 -0.1661  0.6584 -0.1952
  727TMC3    C210795   2.961   1.532  10.321  0.8925  0.1983 -0.3182
  727TMC3    C310796   2.911   1.663  10.304 -0.2120  0.1386 -0.6684
  727TMC3    C410797   2.846   1.459  10.127 -0.7694 -0.5559  0.0645
  727TMC3    C510798   2.782   1.579  10.122  0.6077  0.1598 -0.2009
  727TMC3    C610799   2.819   1.682  10.202 -0.0399 -0.5636  0.2857
  727TMC3     C10800   2.972   1.299  10.261  0.2768  0.1944  0.3191
  727TMC3     O10801   2.989   1.221  10.170 -0.2929  0.1374  0.2139
  727TMC3     H10802   3.029   1.516  10.404  0.6834 -0.5452 -0.2956
  727TMC3    H110803   2.807   1.378  10.066  2.2381 -2.9602  1.3369
  727TMC3    H210804   2.755   1.769  10.207  0.8297  0.0809  0.1055
  727TMC3    C710805   2.667   1.596  10.038 -0.2386 -0.5800  0.0717
  727TMC3    C810806   2.965   1.773  10.381  0.1478 -0.4883  0.1090
  727TMC3    O110807   2.613   1.499   9.990 -0.0242 -0.2501 -0.5811
  727TMC3    O210808   3.012   1.753  10.495  0.2562 -0.0807  0.3593
  728TMC3    C110809   1.852   4.682  15.349  0.4674 -0.2473 -0.2170
  728TMC3    C210810   1.948   4.698  15.443  0.1323 -0.2912 -0.1083
  728TMC3    C310811   2.075   4.704  15.400 -0.6248 -0.8346  0.0873
  728TMC3    C410812   1.877   4.649  15.214 -0.5080 -0.0527  0.6683
  728TMC3    C510813   2.010   4.669  15.178 -0.5796 -1.0108 -0.9463
  728TMC3    C610814   2.110   4.696  15.268 -0.5215 -0.1741 -0.1796
  728TMC3     C10815   1.715   4.697  15.394 -0.0195 -0.2645 -0.4472
  728TMC3     O10816   1.640   4.728  15.304  0.0449 -0.2133  0.4223
  728TMC3     H10817   1.925   4.727  15.545 -0.3835 -0.5256 -0.1528
  728TMC3    H110818   1.802   4.652  15.136 -0.2866  2.2297  0.5272
  728TMC3    H210819   2.213   4.708  15.237 -0.0536 -0.8313  1.1407
  728TMC3    C710820   2.038   4.666  15.037  0.4863 -0.8822 -0.1189
  728TMC3    C810821   2.182   4.735  15.499  0.2621 -0.2130 -0.0215
  728TMC3    O110822   1.965   4.600  14.966  0.3902 -0.1564 -0.3233
  728TMC3    O210823   2.135   0.030  15.605  0.2699  0.8613  0.3228
  729MPD2     C10824   0.031   1.515  16.737 -1.0037 -0.6829  0.3805
  729MPD2    C110825   0.154   1.457  16.735  0.3437  0.4364 -0.0293
  729MPD2    C210826   0.221   1.414  16.846 -0.2114 -0.0073 -0.2672
  729MPD2    C310827   0.151   1.424  16.967  0.2982  0.8307  0.6266
  729MPD2    C410828   0.032   1.490  16.974  0.3971 -0.5679  0.6901
  729MPD2    C510829   4.710   1.531  16.857 -0.1957  0.1152  0.2175
  729MPD2     H10830   0.318   1.364  16.843 -1.0577 -1.8097  2.1252
  729MPD2    H110831   4.720   1.501  17.068  0.4858 -1.9436  0.9117
  729MPD2    H210832   4.718   1.552  16.650 -2.0496  2.0921  2.1864
  729MPD2    H310833   4.614   1.581  16.864  0.1433  0.4750  2.4388
  729MPD2     N10834   0.205   1.392  17.090  0.7061 -0.0089  0.1495
  729MPD2    H510835   0.157   1.424  17.174 -0.6060 -1.4658 -0.0493
  729MPD2    N110836   0.208   1.449  16.609 -0.5178  0.3015 -0.7717
  729MPD2    H710837   0.151   1.486  16.533  0.8595  1.7008 -1.1134
  730TMC3    C110838   0.365   1.337  17.251  0.3630  0.0364  0.1376
  730TMC3    C210839   0.483   1.407  17.251  0.2252 -0.4713 -0.2264
  730TMC3    C310840   0.497   1.496  17.355 -0.6123  0.5869  0.0413
  730TMC3    C410841   0.257   1.362  17.328  0.4837 -0.1267  0.1998
  730TMC3    C510842   0.273   1.454  17.434 -0.6817  0.1427 -0.5308
  730TMC3    C610843   0.403   1.511  17.455 -0.5295  0.9582 -0.1175
  730TMC3     C10844   0.330   1.330  17.111  0.4823  0.5843 -0.0312
  730TMC3     O10845   0.416   1.289  17.036  0.2899 -0.3237  0.0074
  730TMC3     H10846   0.551   1.401  17.167  0.8147 -3.9389  0.4855
  730TMC3    H110847   0.171   1.297  17.315 -1.1611  1.2762  4.0705
  730TMC3    H210848   0.435   1.564  17.544  3.0590 -0.3181 -0.6221
  730TMC3    C710849   0.175   1.558  17.428  1.0517 -1.2894  0.3370
  730TMC3    C810850   0.559   1.621  17.303 -0.8339  0.6492  0.2922
  730TMC3    O110851   0.108   1.556  17.324  0.4233 -0.4702  0.1772
  730TMC3    O210852   0.593   1.617  17.186 -0.0553  0.2933 -0.6206
  731MPD2     C10853   0.450   3.916  12.128  0.2574 -0.5713 -0.4993
  731MPD2    C110854   0.386   4.039  12.127  0.4620 -0.2048  0.0122
  731MPD2    C210855   0.264   4.050  12.191  0.2284  0.4938  0.2527
  731MPD2    C310856   0.208   3.942  12.256  0.5482  0.7266 -0.0416
  731MPD2    C410857   0.273   3.823  12.262  0.1067 -0.1337 -0.3886
  731MPD2    C510858   0.390   3.813  12.194  0.5063 -0.1013  0.1384
  731MPD2     H10859   0.221   4.148  12.208 -0.2802  0.5340 -1.2621
  731MPD2    H110860   0.234   3.735  12.311  3.5648 -0.4426  1.7613
  731MPD2    H210861   0.540   3.908  12.068  0.5950  0.1601 -0.0840
  731MPD2    H310862   0.432   3.713  12.203 -0.1013 -0.3405  0.3228
  731MPD2     N10863   0.086   3.954  12.323 -0.1040  0.6752  0.9126
  731MPD2    H510864   0.050   3.874  12.372 -1.6004  1.6443  1.3803
  731MPD2    N110865   0.435   4.148  12.046 -0.4869 -0.7250  0.3322
  731MPD2    H710866   0.526   4.138  12.002 -0.0057  0.8206  0.9956
  732TMC3    C110867   0.440   4.360  11.942 -0.1478 -0.9976  0.4753
  732TMC3    C210868   0.375   4.483  11.942  0.5673 -0.0400 -0.1622
  732TMC3    C310869   0.435   4.586  11.877 -0.3703 -0.3275  0.0182
  732TMC3    C410870   0.555   4.333  11.877 -0.2327  0.3758  0.3101
  732TMC3    C510871   0.606   4.438  11.797 -0.1500 -0.1505  0.3560
  732TMC3    C610872   0.550   4.563  11.804  0.0906  0.4678 -0.4580
  732TMC3     C10873   0.365   4.260  12.019 -0.5459 -0.2388  0.1972
  732TMC3     O10874   0.248   4.286  12.032  0.3378  0.0637  0.2766
  732TMC3     H10875   0.286   4.491  12.003  1.8539 -2.7701  2.0368
  732TMC3    H110876   0.594   4.235  11.854  0.6295  0.3600  1.8259
  732TMC3    H210877   0.593   4.647  11.750  1.1274  1.8497  2.5391
  732TMC3    C710878   0.745   4.439  11.752  0.0271 -0.1482 -0.7862
  732TMC3    C810879   0.367   4.709  11.854  0.2805 -0.6267  0.3105
  732TMC3    O110880   0.790   4.550  11.727 -0.1699  0.6011 -0.1078
  732TMC3    O210881   0.417   0.066  11.801  0.1914  0.6062 -0.1291
  733TMC3    C110882   1.125   2.081  12.857 -0.3301 -0.4451  0.2270
  733TMC3    C210883   1.226   2.092  12.943 -0.0957  0.1662  0.1144
  733TMC3    C310884   1.329   2.173  12.915  0.1938  0.1447 -0.7581
  733TMC3    C410885   1.107   2.144  12.742 -0.4138 -0.1684  0.5543
  733TMC3    C510886   1.212   2.224  12.715  0.3755 -1.6559 -0.0035
  733TMC3    C610887   1.318   2.247  12.803 -0.0821  0.0062  0.8104
  733TMC3     C10888   0.993   2.031  12.904 -0.8131  0.7439  0.0937
  733TMC3     O10889   0.902   2.092  12.853 -0.3338  0.2427  0.3925
  733TMC3     H10890   1.204   2.065  13.046  1.6959 -0.4837  0.3242
  733TMC3    H110891   1.025   2.134  12.672 -0.0575  0.9530 -0.0101
  733TMC3    H210892   1.401   2.311  12.775 -0.5338  0.2570  0.0701
  733TMC3    C710893   1.200   2.320  12.607 -0.1388  0.2725 -0.6831
  733TMC3    C810894   1.390   2.233  13.035  0.4133  0.3523 -0.4236
  733TMC3    O110895   1.149   2.288  12.503 -0.5573  0.6635  0.4058
  733TMC3    O210896   1.413   2.157  13.128  0.4001  0.4779 -0.4372
  734MPD2     C10897   2.577   4.541  12.192  0.0446 -0.3987 -0.1603
  734MPD2    C110898   2.661   4.474  12.276  0.5318  0.2940  0.5985
  734MPD2    C210899   2.799   4.466  12.250  0.0787  0.2144 -0.2557
  734MPD2    C310900   2.845   4.533  12.136  0.3368  0.7932  0.4080
  734MPD2    C410901   2.753   4.603  12.055  0.2537  0.2499  0.3063
  734MPD2    C510902   2.622   4.610  12.088 -0.1224 -0.9933  0.5193
  734MPD2     H10903   2.862   4.397  12.306 -2.1307 -0.5653  1.2626
  734MPD2    H110904   2.789   4.644  11.962  0.2115 -0.3321  0.0365
  734MPD2    H210905   2.474   4.554  12.224  0.0100 -0.3793 -0.2797
  734MPD2    H310906   2.561   4.668  12.021  1.7705 -0.6004 -0.8707
  734MPD2     N10907   2.983   4.515  12.112  0.0564 -0.3128 -0.0008
  734MPD2    H510908   3.016   4.439  12.169 -2.0301  0.3785  2.1177
  734MPD2    N110909   2.598   4.412  12.388  0.0215 -0.5788  0.3190
  734MPD2    H710910   2.500   4.426  12.409  0.3794  1.4698  0.6559
  735TMC3    C110911   2.578   4.232  12.544 -0.1736 -0.2688  0.4246
  735TMC3    C210912   2.492   4.163  12.460  0.4599 -0.1652  0.4702
  735TMC3    C310913   2.485   4.022  12.460  0.0583 -0.6304  0.3856
  735TMC3    C410914   2.646   4.152  12.632  0.2073  0.3453 -0.5050
  735TMC3    C510915   2.647   4.016  12.632 -0.4783 -0.2466  0.4573
  735TMC3    C610916   2.565   3.949  12.548  0.2553  0.2407  0.3712
  735TMC3     C10917   2.665   4.333  12.475 -0.3284  0.5059  0.1266
  735TMC3     O10918   2.786   4.319  12.494 -0.5198  0.0672  0.0659
  735TMC3     H10919   2.425   4.223  12.399 -0.1621 -1.9109 -0.5390
  735TMC3    H110920   2.710   4.209  12.698 -3.2606 -0.9326  3.9808
  735TMC3    H210921   2.578   3.842  12.539 -0.5516  0.3427 -2.2172
  735TMC3    C710922   2.775   3.966  12.664 -1.1691  0.3684 -0.2502
  735TMC3    C810923   2.492   3.964  12.325 -0.1617  0.3476 -0.7911
  735TMC3    O110924   2.786   3.851  12.707  0.9042 -0.3517  0.1850
  735TMC3    O210925   2.459   3.848  12.303 -0.4733  0.0722 -0.0080
  736MPD2     C10926   3.076   3.912  12.622 -0.3015 -0.3193 -0.4164
  736MPD2    C110927   3.007   4.023  12.567  0.9614  0.2956  0.1986
  736MPD2    C210928   3.069   4.116  12.482  0.0058  0.6734 -0.6614
  736MPD2    C310929   3.204   4.102  12.449 -0.1506  0.8183  0.7599
  736MPD2    C410930   3.271   3.993  12.494 -0.2013 -0.7235 -0.0637
  736MPD2    C510931   3.208   3.909  12.582  0.2702 -0.2035 -0.1561
  736MPD2     H10932   3.008   4.195  12.440  0.3665  1.3874  0.1570
  736MPD2    H110933   3.375   3.974  12.473 -0.4180 -2.0232  0.0528
  736MPD2    H210934   3.033   3.827  12.673  0.7967  0.2753  1.5068
  736MPD2    H310935   3.261   3.830  12.634  1.5627  0.2340 -0.7999
  736MPD2     N10936   3.274   4.185  12.358  0.2434 -0.0556 -0.2589
  736MPD2    H510937   3.374   4.174  12.352  0.1962 -0.4955 -0.2870
  736MPD2    N110938   2.867   4.048  12.596  0.3017 -0.0475 -0.6854
  736MPD2    H710939   2.828   4.127  12.546  2.2314  1.0290 -0.4842
  737TMC3    C110940   3.337   4.304  12.178  0.8470 -0.1793 -1.0687
  737TMC3    C210941   3.354   4.431  12.124  0.3042  1.1213 -0.4232
  737TMC3    C310942   3.449   4.443  12.024  0.4582 -0.4438  0.0216
  737TMC3    C410943   3.396   4.193  12.119 -0.1034  0.3894  0.1411
  737TMC3    C510944   3.489   4.215  12.025  0.4018 -0.2431 -0.1899
  737TMC3    C610945   3.523   4.342  11.975  0.3073 -0.9717  0.2865
  737TMC3     C10946   3.230   4.282  12.274  0.3078  0.5021 -0.9665
  737TMC3     O10947   3.122   4.337  12.266 -0.5084  0.1467 -0.5707
  737TMC3     H10948   3.301   4.514  12.168  1.1057  1.6171 -0.4014
  737TMC3    H110949   3.371   4.091  12.144  1.3783 -0.5824 -2.2764
  737TMC3    H210950   3.586   4.353  11.887  0.5519 -0.2336  0.5579
  737TMC3    C710951   3.549   4.099  11.957  0.9219 -0.1857 -0.2507
  737TMC3    C810952   3.457   4.575  11.966 -0.0350  0.0849 -0.2233
  737TMC3    O110953   3.527   3.992  12.011 -0.7911 -0.1601 -0.2682
  737TMC3    O210954   3.391   4.659  12.026  0.0234 -0.4891  0.1710
  738MPD2     C10955   3.880   3.688  15.468 -0.2074  0.0330  0.0151
  738MPD2    C110956   3.851   3.629  15.347  0.4835  0.6720  0.2347
  738MPD2    C210957   3.880   3.700  15.237  0.1158 -0.7637 -0.8352
  738MPD2    C310958   3.937   3.831  15.244  0.6142 -0.1368 -0.0639
  738MPD2    C410959   3.975   3.872  15.368 -0.0269  0.1799  0.4393
  738MPD2    C510960   3.952   3.803  15.480 -0.2651  0.1756 -0.0796
  738MPD2     H10961   3.865   3.652  15.141  0.8132  1.2828 -1.9625
  738MPD2    H110962   4.030   3.961  15.395 -1.7197  2.6779 -4.3392
  738MPD2    H210963   3.850   3.641  15.561  1.1221 -3.3667 -1.2771
  738MPD2    H310964   3.978   3.839  15.579  2.4719  0.1436 -0.7631
  738MPD2     N10965   3.971   3.905  15.138  0.3810 -0.1604  0.0711
  738MPD2    H510966   4.037   3.980  15.155  2.7658 -2.0833 -0.8130
  738MPD2    N110967   3.794   3.503  15.337  0.0888  0.2255  0.7709
  738MPD2    H710968   3.753   3.469  15.251 -1.3455 -0.2798  1.6383
  739TMC3    C110969   4.026   3.970  14.930 -0.5988 -0.3257  0.0880
  739TMC3    C210970   3.966   4.019  14.821 -0.2215 -0.5418  1.4518
  739TMC3    C310971   4.047   4.087  14.730 -0.1250  0.4770 -0.5828
  739TMC3    C410972   4.153   3.985  14.962  0.2279 -0.6210  0.1747
  739TMC3    C510973   4.223   4.074  14.884  0.3623 -0.9448 -0.1510
  739TMC3    C610974   4.170   4.127  14.767 -0.4603  0.4724 -0.7211
  739TMC3     C10975   3.951   3.873  15.006  0.7159 -0.4455  0.2760
  739TMC3     O10976   3.855   3.810  14.961 -0.0030 -0.7707  1.1473
  739TMC3     H10977   3.878   3.966  14.786 -0.8864  0.6852  1.2618
  739TMC3    H110978   4.201   3.926  15.038 -0.8824 -1.2677  0.3743
  739TMC3    H210979   4.230   4.201  14.714 -0.1801 -0.4749 -1.7418
  739TMC3    C710980   4.349   4.128  14.919 -0.2549  0.3616 -0.3661
  739TMC3    C810981   4.033   4.045  14.589 -0.6345 -1.0854  0.1572
  739TMC3    O110982   4.364   4.248  14.902 -0.1102  0.1356 -0.3550
  739TMC3    O210983   3.925   4.001  14.549  1.6898 -0.0091 -0.8690
  740TMC3    C110984   4.127   0.050  14.407  0.2562  0.1869 -0.0292
  740TMC3    C210985   4.168   0.056  14.540 -0.4392 -0.0215 -0.7617
  740TMC3    C310986   4.294   0.112  14.558 -0.2754  0.4932 -0.0579
  740TMC3    C410987   4.202   0.101  14.304  0.0617 -0.2012 -0.4975
  740TMC3    C510988   4.325   0.145  14.334  0.0715  0.8372 -0.6722
  740TMC3    C610989   4.380   0.153  14.455  0.2811  0.2393 -0.0176
  740TMC3     C10990   3.986   0.014  14.374 -0.4615 -0.0305  0.0816
  740TMC3     O10991   3.949   4.738  14.260  0.3670 -0.4556 -0.2085
  740TMC3     H10992   4.117   4.737  14.616  2.3103 -1.3919  0.0213
  740TMC3    H110993   4.175   0.085  14.201  2.8373 -1.4868 -1.0235
  740TMC3    H210994   4.476   0.198  14.477  1.1569  0.3661 -4.1338
  740TMC3    C710995   4.406   0.176  14.218 -0.3359  0.1276 -0.4640
  740TMC3    C810996   4.333   0.102  14.699 -0.3646  0.0820 -0.3808
  740TMC3    O110997   4.525   0.159  14.236 -0.2399  0.2483  0.1228
  740TMC3    O210998   4.244   0.075  14.777 -0.0148 -0.7171 -0.3507
  741TMC3    C110999   3.715   4.247  14.103  0.7943 -0.5367 -0.5304
  741TMC3    C211000   3.648   4.165  14.183  0.1512 -0.0285  0.8474
  741TMC3    C311001   3.676   4.148  14.319  0.0523 -0.4884  0.6596
  741TMC3    C411002   3.811   4.322  14.162 -0.1479  0.5086 -0.0984
  741TMC3    C511003   3.846   4.306  14.295  0.5116  0.3201  0.2617
  741TMC3    C611004   3.777   4.221  14.378  0.5239  0.0549 -0.3651
  741TMC3     C11005   3.691   4.251  13.955  0.5677  0.0701  0.2408
  741TMC3     O11006   3.602   4.183  13.903 -0.3534 -0.1256  0.3620
  741TMC3     H11007   3.561   4.117  14.139  0.5801 -0.2868  0.2946
  741TMC3    H111008   3.880   4.382  14.103  2.1703 -0.7706  1.3311
  741TMC3    H211009   3.813   4.196  14.477  2.1062 -0.6455 -1.1195
  741TMC3    C711010   3.974   4.364  14.338  0.3327  0.4622 -0.4731
  741TMC3    C811011   3.580   4.084  14.405 -0.4808 -0.4031 -0.6602
  741TMC3    O111012   4.057   4.369  14.247 -0.1064 -0.2017  0.1874
  741TMC3    O211013   3.465   4.097  14.373 -0.0291  0.4564 -0.1148
  742TMC3    C111014   3.942   2.405  15.666  0.8457 -0.4381 -0.5766
  742TMC3    C211015   3.883   2.413  15.544  0.4357 -0.4469 -0.2442
  742TMC3    C311016   3.964   2.469  15.443 -0.1415  0.4243 -0.0219
  742TMC3    C411017   4.053   2.486  15.690 -0.0386 -0.4261 -0.5715
  742TMC3    C511018   4.122   2.551  15.589  0.6103 -0.4937  0.0830
  742TMC3    C611019   4.084   2.531  15.460 -0.8350  0.3559  0.5924
  742TMC3     C11020   3.910   2.312  15.767  0.2770 -0.6039  0.1626
  742TMC3     O11021   3.976   2.315  15.870  0.2088 -0.5903 -0.3483
  742TMC3     H11022   3.819   2.334  15.507 -0.6038  0.5596 -0.6059
  742TMC3    H111023   4.091   2.493  15.792 -0.7664 -3.6705 -0.0695
  742TMC3    H211024   4.143   2.571  15.377 -2.0393 -0.2036 -0.5279
  742TMC3    C711025   4.246   2.615  15.625  0.1743  0.4340  0.1698
  742TMC3    C811026   3.914   2.475  15.318 -0.4460  0.6946  0.3789
  742TMC3    O111027   4.268   2.623  15.748  0.1454 -0.1853  0.1561
  742TMC3    O211028   3.987   2.443  15.226  0.1745  0.1551  0.0575
  743MPD2     C11029   0.756   3.992   1.498  0.6020  0.0558 -0.6197
  743MPD2    C111030   0.876   3.936   1.470 -0.5921  0.5710 -0.1794
  743MPD2    C211031   0.987   3.966   1.552  0.3920 -0.8593  0.0288
  743MPD2    C311032   0.978   4.055   1.662 -0.3782  0.8379 -1.2128
  743MPD2    C411033   0.847   4.099   1.694 -0.3458  0.3582  0.0975
  743MPD2    C511034   0.746   4.077   1.608 -0.1883 -0.4312 -0.2109
  743MPD2     H11035   1.083   3.916   1.549  0.4791 -0.7130  0.3316
  743MPD2    H111036   0.837   4.163   1.781  1.1266  0.0542  0.4866
  743MPD2    H211037   0.670   3.963   1.439 -0.8722  0.8205  1.1395
  743MPD2    H311038   0.651   4.125   1.629 -1.3237 -3.6465  1.9745
  743MPD2     N11039   1.096   4.088   1.733 -0.3677 -0.1180  0.5035
  743MPD2    H511040   1.174   4.030   1.702  1.7219  2.4316  0.9905
  743MPD2    N111041   0.890   3.854   1.356  0.2120  0.4776  0.1373
  743MPD2    H711042   0.808   3.838   1.298  1.9498 -2.2398 -1.5507
  744TMC3    C111043   1.002   3.693   1.204 -0.5999 -0.1898  1.1664
  744TMC3    C211044   0.935   3.745   1.095 -0.4056  0.5297 -0.0349
  744TMC3    C311045   0.969   3.685   0.974  0.0382 -0.0748  0.5260
  744TMC3    C411046   1.095   3.597   1.194 -0.1522  0.4866 -0.0324
  744TMC3    C511047   1.114   3.536   1.076 -0.0584 -0.0055 -0.6657
  744TMC3    C611048   1.061   3.584   0.958 -0.4232 -0.0660  0.0814
  744TMC3     C11049   1.009   3.779   1.325 -0.4336  0.4155 -0.0620
  744TMC3     O11050   1.099   3.754   1.405  0.7758 -0.1633  0.8671
  744TMC3     H11051   0.861   3.823   1.104 -2.2309 -1.0165 -1.6337
  744TMC3    H111052   1.137   3.550   1.281 -0.4231  0.5605  0.1390
  744TMC3    H211053   1.068   3.537   0.861 -0.0547 -2.1627  1.1314
  744TMC3    C711054   1.232   3.465   1.064 -0.4888  0.3300  0.0218
  744TMC3    C811055   0.901   3.743   0.857 -0.0467  0.6205 -0.4989
  744TMC3    O111056   1.328   3.520   1.113 -0.1815  0.3903  0.9128
  744TMC3    O211057   0.846   3.846   0.882  0.3425 -0.3996  0.0933
  745TMC3    C111058   4.579   2.210  14.040 -0.0708 -0.5272  0.1395
  745TMC3    C211059   4.469   2.286  14.008  0.6342  0.8930 -0.0424
  745TMC3    C311060   4.366   2.217  13.955 -0.4382 -0.3802 -0.7208
  745TMC3    C411061   4.582   2.073  14.023  0.0837 -0.2598 -0.2385
  745TMC3    C511062   4.469   2.007  13.977 -0.0644 -0.0973  0.1579
  745TMC3    C611063   4.360   2.078  13.949 -0.0934 -0.3159  0.6061
  745TMC3     C11064   4.717   2.268  14.041 -0.1248 -0.3135  0.4735
  745TMC3     O11065   0.051   2.239  14.135 -0.0399 -0.1427 -0.3115
  745TMC3     H11066   4.462   2.391  14.036  0.8300  0.8264  0.2599
  745TMC3    H111067   4.676   2.023  14.043  0.8222  0.1750 -2.6468
  745TMC3    H211068   4.276   2.018  13.915  0.6793  0.9803 -3.4960
  745TMC3    C711069   4.500   1.907  13.875 -0.0097  0.6300  0.0166
  745TMC3    C811070   4.258   2.295  13.900 -0.4314 -0.5727  0.3151
  745TMC3    O111071   4.413   1.823  13.858 -0.2322  0.3411 -0.1058
  745TMC3    O211072   4.143   2.258  13.909  0.0615  0.1662  0.5639
  746TMC3    C111073   1.476   4.099  10.887  0.0979  0.3431 -0.0459
  746TMC3    C211074   1.591   4.061  10.823  0.1627  0.0539 -0.4660
  746TMC3    C311075   1.606   3.923  10.798 -0.6600 -0.5812 -0.7139
  746TMC3    C411076   1.380   4.011  10.925  0.0940 -0.2069  0.1222
  746TMC3    C511077   1.398   3.879  10.899  0.0502 -0.4715 -0.1913
  746TMC3    C611078   1.511   3.834  10.840 -0.7259 -0.6179  0.1011
  746TMC3     C11079   1.490   4.230  10.953  0.3871  0.0240 -0.4075
  746TMC3     O11080   1.393   4.292  10.997  0.5396 -0.4205 -0.6230
  746TMC3     H11081   1.654   4.135  10.774  0.3375  0.2530  0.0607
  746TMC3    H111082   1.306   4.040  10.998 -0.6804  0.1230 -0.8034
  746TMC3    H211083   1.513   3.730  10.810 -2.7651 -1.3529  2.5147
  746TMC3    C711084   1.318   3.791  10.983 -0.0832 -0.3918 -0.5010
  746TMC3    C811085   1.736   3.870  10.747  0.6534  0.7663  0.0960
  746TMC3    O111086   1.202   3.823  10.999 -1.0110 -0.1682  0.3111
  746TMC3    O211087   1.737   3.762  10.691 -0.0593  0.2705  0.2703
  747TMC3    C111088   3.953   4.073  10.993 -1.0396  0.9015 -0.4299
  747TMC3    C211089   3.935   3.983  11.095 -0.4357  0.1221 -0.3580
  747TMC3    C311090   3.950   4.029  11.221 -0.1379 -0.7925  0.0473
  747TMC3    C411091   4.000   4.201  11.021 -0.2506  0.0486 -0.3828
  747TMC3    C511092   4.021   4.233  11.147 -0.3006 -0.0742  0.4620
  747TMC3    C611093   3.999   4.149  11.252  0.3659 -0.9083 -0.2518
  747TMC3     C11094   3.945   4.040  10.853  0.8528 -0.0892  0.5272
  747TMC3     O11095   3.932   4.120  10.764 -0.0840  0.3172  0.0490
  747TMC3     H11096   3.904   3.879  11.086  2.5799 -0.9658  1.9512
  747TMC3    H111097   4.028   4.266  10.939 -0.6049 -1.6031 -1.7979
  747TMC3    H211098   4.000   4.191  11.352 -1.3042 -0.1832 -0.5536
  747TMC3    C711099   4.057   4.369  11.183  0.1819  0.2685 -0.1976
  747TMC3    C811100   3.891   3.953  11.329  0.5786 -0.2540  0.9499
  747TMC3    O111101   4.006   4.452  11.109 -1.0732 -0.0439  0.1465
  747TMC3    O211102   3.888   3.831  11.324 -0.6252  0.4993  0.1930
  748MPD2     C11103   0.349   0.642   0.987 -0.4143  0.1604 -0.5365
  748MPD2    C111104   0.379   0.514   1.037  0.0635 -0.0869 -0.9450
  748MPD2    C211105   0.514   0.476   1.061  0.0936 -0.2000  0.1225
  748MPD2    C311106   0.616   0.568   1.035 -0.0683 -0.2408 -0.0483
  748MPD2    C411107   0.579   0.692   0.980  0.2531 -0.6285 -0.5628
  748MPD2    C511108   0.453   0.733   0.972  0.0156 -0.8820  0.5315
  748MPD2     H11109   0.544   0.379   1.099 -0.4124  0.7158  2.8921
  748MPD2    H111110   0.654   0.766   0.957 -1.7363  0.9315 -2.0600
  748MPD2    H211111   0.246   0.674   0.975 -0.7826  0.1278  2.5910
  748MPD2    H311112   0.427   0.836   0.947  2.1283 -0.7511 -1.1514
  748MPD2     N11113   0.749   0.536   1.057  0.0986 -0.0835 -0.0639
  748MPD2    H511114   0.770   0.460   1.121  1.3907  0.4255  0.1223
  748MPD2    N111115   0.279   0.410   1.049  0.2312  0.0002 -0.6249
  748MPD2    H711116   0.186   0.443   1.024  0.5681  1.9645  0.7795
  749TMC3    C111117   0.981   0.578   1.037 -0.4704 -0.1696 -0.0857
  749TMC3    C211118   0.996   0.519   1.158  0.0069 -0.0358 -0.3042
  749TMC3    C311119   1.106   0.457   1.193  0.0250 -0.6584 -0.8933
  749TMC3    C411120   1.093   0.594   0.955 -0.6124 -0.5425 -0.5299
  749TMC3    C511121   1.207   0.539   0.999 -0.3984 -0.2904 -0.1300
  749TMC3    C611122   1.216   0.462   1.113  0.4238  0.4603 -0.3408
  749TMC3     C11123   0.848   0.593   0.983  0.3789  0.1911 -0.5394
  749TMC3     O11124   0.837   0.659   0.882  0.4761 -0.0650  0.0240
  749TMC3     H11125   0.912   0.533   1.226  1.6180 -1.1353  1.8893
  749TMC3    H111126   1.080   0.656   0.867  1.4592  1.6529  0.7297
  749TMC3    H211127   1.310   0.429   1.157  1.2143  1.2979 -1.3879
  749TMC3    C711128   1.319   0.546   0.906  0.2686 -0.4002 -0.0945
  749TMC3    C811129   1.110   0.391   1.319  0.5490 -0.6578  0.3452
  749TMC3    O111130   1.308   0.623   0.810  0.2512  0.3140 -0.4976
  749TMC3    O211131   1.053   0.442   1.414 -0.8297  0.0419 -0.6442
  750MPD2     C11132   1.843   1.420  11.476  0.0998  0.2482  0.3121
  750MPD2    C111133   1.706   1.391  11.470  0.4334 -0.0540 -0.4006
  750MPD2    C211134   1.654   1.296  11.374 -0.2821 -0.5465 -0.7990
  750MPD2    C311135   1.755   1.223  11.309 -0.1937 -0.3549 -0.8543
  750MPD2    C411136   1.881   1.262  11.311  0.0127 -0.1668 -0.0043
  750MPD2    C511137   1.925   1.358  11.394 -0.1158  0.5453 -0.6619
  750MPD2     H11138   1.549   1.269  11.379  0.1729 -1.9947  1.0692
  750MPD2    H111139   1.960   1.217  11.252 -0.3487  0.1641 -0.7277
  750MPD2    H211140   1.881   1.493  11.547 -0.0233  0.5782  0.0392
  750MPD2    H311141   2.032   1.379  11.391  0.0756  0.1295  2.8086
  750MPD2     N11142   1.734   1.103  11.246 -0.0102 -0.4582 -0.3144
  750MPD2    H511143   1.804   1.059  11.187 -0.3081 -1.2161 -0.1123
  750MPD2    N111144   1.625   1.456  11.571 -0.3991  0.6809 -0.0250
  750MPD2    H711145   1.672   1.530  11.622  0.2575 -0.5857  1.1729
  751TMC3    C111146   1.622   0.912  11.180  0.6378 -0.2879  0.2633
  751TMC3    C211147   1.555   0.804  11.240 -0.3973 -0.2236  0.3285
  751TMC3    C311148   1.582   0.678  11.193 -0.7044 -0.3498  0.1818
  751TMC3    C411149   1.709   0.896  11.074 -0.1405 -0.2826 -0.7484
  751TMC3    C511150   1.726   0.767  11.030  0.2024  0.0438 -0.4288
  751TMC3    C611151   1.679   0.657  11.099 -0.0161  0.7829 -0.6880
  751TMC3     C11152   1.617   1.031  11.258  0.4029  0.0510  0.5089
  751TMC3     O11153   1.514   1.050  11.321 -0.0476  0.6776 -0.4823
  751TMC3     H11154   1.488   0.809  11.324 -1.0905  0.8738 -0.2870
  751TMC3    H111155   1.734   0.984  11.016  2.4904 -1.6410 -1.6626
  751TMC3    H211156   1.720   0.561  11.072 -1.2190 -0.2941  1.3578
  751TMC3    C711157   1.768   0.756  10.897 -0.2185  0.3457 -0.0607
  751TMC3    C811158   1.478   0.579  11.178 -0.3754  0.0773 -0.2693
  751TMC3    O111159   1.859   0.826  10.857 -0.0998  0.6068 -0.5665
  751TMC3    O211160   1.493   0.498  11.087 -0.4817 -0.6042  0.0111
  752TMC3    C111161   0.890   1.031  17.104 -0.3833 -0.6196  0.3753
  752TMC3    C211162   0.863   0.950  17.215  0.1723  0.1175 -0.2281
  752TMC3    C311163   0.821   1.015  17.326 -0.4418 -0.1257  0.0677
  752TMC3    C411164   0.889   1.164  17.103  0.4483  0.6927  0.1820
  752TMC3    C511165   0.842   1.222  17.221  0.0759 -0.0420  0.2153
  752TMC3    C611166   0.811   1.151  17.334  0.0351  0.0320  0.4339
  752TMC3     C11167   0.900   0.967  16.980  0.3366  0.6730 -0.4808
  752TMC3     O11168   0.937   0.851  16.965  0.1798 -0.7287 -0.3290
  752TMC3     H11169   0.870   0.842  17.204 -0.7188 -0.1728  2.0662
  752TMC3    H111170   0.933   1.227  17.027  0.1231  1.2150  0.4272
  752TMC3    H211171   0.791   1.197  17.430  1.0582  0.0502  0.6376
  752TMC3    C711172   0.869   1.363  17.235  0.3559 -0.4226 -0.3891
  752TMC3    C811173   0.787   0.950  17.454 -0.0227  0.2503  0.1093
  752TMC3    O111174   0.896   1.395  17.348  0.3867  0.4650  0.2020
  752TMC3    O211175   0.727   1.014  17.536  0.0379  0.3718  0.5597
  753TMC3    C111176   2.958   2.129  13.698  0.4831 -0.4387 -0.3088
  753TMC3    C211177   3.061   2.092  13.781  0.0517 -0.3527  0.3649
  753TMC3    C311178   3.068   1.960  13.819 -0.6217 -0.4625 -0.1262
  753TMC3    C411179   2.860   2.041  13.652  0.5712 -0.0886 -0.9032
  753TMC3    C511180   2.885   1.908  13.678 -0.2629 -0.0359 -0.1527
  753TMC3    C611181   2.977   1.872  13.772 -0.5281 -0.2640 -0.4645
  753TMC3     C11182   2.957   2.253  13.630 -0.1901 -0.2776 -0.4869
  753TMC3     O11183   2.856   2.296  13.585 -0.2351 -0.8387 -0.0506
  753TMC3     H11184   3.144   2.160  13.797  0.4732 -0.7885  0.0309
  753TMC3    H111185   2.796   2.073  13.570 -0.5488  3.3950  1.3369
  753TMC3    H211186   2.983   1.774  13.820  0.8302 -0.4743 -1.0544
  753TMC3    C711187   2.837   1.808  13.583 -0.8704  0.3339  0.0942
  753TMC3    C811188   3.137   1.941  13.942 -0.2108  0.5590  0.3146
  753TMC3    O111189   2.876   1.694  13.578 -0.0220  0.4568  0.1265
  753TMC3    O211190   3.201   1.837  13.960 -0.2323 -0.4389  0.0550
  754MPD2     C11191   1.409   0.870  13.291 -0.1508 -0.4870  0.5892
  754MPD2    C111192   1.427   0.739  13.249  0.4374 -0.4620  0.2184
  754MPD2    C211193   1.320   0.658  13.205  0.1647  0.3691  0.1663
  754MPD2    C311194   1.193   0.707  13.218 -0.3625 -0.2430 -0.0789
  754MPD2    C411195   1.171   0.838  13.251 -0.4915  0.5294  0.2686
  754MPD2    C511196   1.277   0.920  13.281  0.1217  0.2493 -0.1718
  754MPD2     H11197   1.348   0.558  13.174 -2.8837 -0.1953 -0.7988
  754MPD2    H111198   1.070   0.878  13.258 -0.2397  1.3451 -0.6235
  754MPD2    H211199   1.485   0.930  13.340  1.2393 -1.9417  0.1905
  754MPD2    H311200   1.269   1.025  13.304 -0.3803  0.8113 -2.8756
  754MPD2     N11201   1.081   0.622  13.209 -0.3973  0.3612 -0.2004
  754MPD2    H511202   0.994   0.667  13.234 -1.2551 -0.8933 -0.9295
  754MPD2    N111203   1.566   0.699  13.260 -0.1655 -0.7115 -0.0170
  754MPD2    H711204   1.625   0.782  13.267 -0.6893 -0.3261 -0.1485
  755MPD2     C11205   0.138   0.660  12.891 -0.0400 -0.5016 -0.5305
  755MPD2    C111206   0.216   0.730  12.974  0.1792 -0.5229  0.7117
  755MPD2    C211207   0.333   0.682  13.023 -0.0962  0.3549 -0.4109
  755MPD2    C311208   0.383   0.558  12.976 -0.3290  0.6780 -0.5082
  755MPD2    C411209   0.301   0.485  12.896  0.3159 -0.6388 -0.4863
  755MPD2    C511210   0.181   0.532  12.861  0.6696  0.0889 -0.4445
  755MPD2     H11211   0.392   0.730  13.100  1.1915 -3.2643  0.8922
  755MPD2    H111212   0.339   0.399  12.841  1.0917 -0.0440 -0.8803
  755MPD2    H211213   0.034   0.687  12.876 -0.0975  0.1261  1.0370
  755MPD2    H311214   0.122   0.464  12.799  1.7323 -0.0316 -1.3173
  755MPD2     N11215   0.513   0.505  12.994 -0.0664 -0.2007 -0.3821
  755MPD2    H511216   0.525   0.413  12.953 -0.6464  0.2318 -1.5071
  755MPD2    N111217   0.171   0.856  13.026 -0.3919 -0.5039  0.2734
  755MPD2    H711218   0.239   0.901  13.085 -1.6265  0.8856  0.6417
  756MPD2     C11219   1.638   1.570   9.799 -0.2687  0.3817  0.6266
  756MPD2    C111220   1.516   1.541   9.861 -0.8053 -0.8659  0.0773
  756MPD2    C211221   1.401   1.561   9.787  0.4714  0.2235  1.1060
  756MPD2    C311222   1.405   1.610   9.658 -0.1022 -0.1811 -0.2118
  756MPD2    C411223   1.528   1.623   9.594  0.1995 -0.5909  0.2414
  756MPD2    C511224   1.645   1.604   9.671 -0.4500 -0.5283 -0.3299
  756MPD2     H11225   1.304   1.552   9.835 -0.3274 -2.6358 -1.0310
  756MPD2    H111226   1.537   1.665   9.495 -0.4038 -3.3843 -0.9895
  756MPD2    H211227   1.726   1.583   9.861 -0.2456 -1.6390  1.0489
  756MPD2    H311228   1.741   1.622   9.626 -0.0129  0.6827  1.0946
  756MPD2     N11229   1.285   1.611   9.591  0.4430  0.1041  0.3097
  756MPD2    H511230   1.204   1.561   9.628  0.2307  0.9766  1.0378
  756MPD2    N111231   1.503   1.505   9.993  0.3743  0.0664  0.3385
  756MPD2    H711232   1.411   1.505  10.036 -0.8714  0.0415 -2.3409
  757MPD2     C11233   0.906   0.870   9.523  0.5391  0.3548 -0.6465
  757MPD2    C111234   0.953   0.941   9.631  0.3930  0.4630 -0.2585
  757MPD2    C211235   0.975   1.080   9.605  0.0305  0.0687  0.4927
  757MPD2    C311236   0.943   1.137   9.484 -0.1542  0.1915 -0.2372
  757MPD2    C411237   0.891   1.061   9.381  0.6666 -0.2411 -0.2105
  757MPD2    C511238   0.877   0.926   9.400 -0.2268  0.0532 -0.3504
  757MPD2     H11239   1.000   1.150   9.684 -1.0853  2.9926 -1.7490
  757MPD2    H111240   0.877   1.102   9.282 -1.6379 -0.2509  0.1040
  757MPD2    H211241   0.885   0.765   9.537 -0.7106  0.3237 -2.7857
  757MPD2    H311242   0.829   0.862   9.327 -0.2824 -0.7029  0.3520
  757MPD2     N11243   0.971   1.276   9.472 -0.4208 -0.8639  0.0177
  757MPD2    H511244   1.026   1.315   9.549 -0.2205 -2.0074  0.4570
  757MPD2    N111245   0.944   0.878   9.757  0.4694 -0.1226 -0.5296
  757MPD2    H711246   0.930   0.778   9.747 -2.7590  0.2350  0.4343
  758MPD2     C11247   1.392   0.685  15.820  0.0511 -0.1611  0.2371
  758MPD2    C111248   1.476   0.616  15.904 -0.0633  0.1788 -0.3092
  758MPD2    C211249   1.477   0.661  16.035  0.0838  0.1079  0.7127
  758MPD2    C311250   1.396   0.755  16.084  0.0853 -0.3845  0.3620
  758MPD2    C411251   1.316   0.825  15.990  0.2325  0.5542  0.1900
  758MPD2    C511252   1.318   0.793  15.859  0.1334 -0.4765 -0.0335
  758MPD2     H11253   1.537   0.597  16.099 -2.1642 -3.0337 -0.3242
  758MPD2    H111254   1.272   0.922  16.012 -0.8543  0.4687 -1.5696
  758MPD2    H211255   1.375   0.652  15.719  1.9832  0.2732 -0.2228
  758MPD2    H311256   1.264   0.848  15.783 -1.2024  0.1732  1.3883
  758MPD2     N11257   1.383   0.786  16.223  0.1269  0.2724  0.0390
  758MPD2    H511258   1.319   0.861  16.247 -1.6038 -0.5194 -2.1067
  758MPD2    N111259   1.551   0.505  15.867  0.2430  0.1173 -0.3738
  758MPD2    H711260   1.596   0.457  15.944 -0.6713 -2.3908 -1.3971
  759MPD2     C11261   0.398   3.875  10.665 -0.0366 -0.0287  0.0256
  759MPD2    C111262   0.376   3.831  10.534 -0.0788 -0.2643 -0.7133
  759MPD2    C211263   0.440   3.894  10.426 -0.1824  0.3046  1.1376
  759MPD2    C311264   0.541   3.981  10.450 -0.1356 -0.7501 -0.2877
  759MPD2    C411265   0.548   4.042  10.574  0.7615  0.6822 -0.4245
  759MPD2    C511266   0.480   3.982  10.679 -0.1239 -0.0581 -0.2274
  759MPD2     H11267   0.420   3.874  10.322  1.4245  0.3272  0.8293
  759MPD2    H111268   0.603   4.133  10.592  2.0542 -0.0763 -0.5572
  759MPD2    H211269   0.338   3.845  10.751 -1.9991 -0.1671 -1.3799
  759MPD2    H311270   0.476   4.013  10.783  0.7693 -1.9700  0.3904
  759MPD2     N11271   0.612   4.030  10.338 -0.6480 -0.2132  0.0617
  759MPD2    H511272   0.578   3.984  10.254  0.5894 -0.2274 -0.4241
  759MPD2    N111273   0.281   3.727  10.503  0.6286 -0.5615 -0.2311
  759MPD2    H711274   0.269   3.694  10.408  1.8713 -2.1584  0.1607
  760MPD2     C11275   4.280   1.047  11.924 -0.0692 -0.1647 -0.5421
  760MPD2    C111276   4.397   1.091  11.980  0.3380 -0.2828  0.4618
  760MPD2    C211277   4.488   1.003  12.030  0.2841 -0.4259 -0.0766
  760MPD2    C311278   4.474   0.866  12.020  0.0126  0.3618  0.0305
  760MPD2    C411279   4.349   0.819  11.966 -0.6363  0.4936  0.3318
  760MPD2    C511280   4.258   0.912  11.924 -0.1310  0.0993 -0.1281
  760MPD2     H11281   4.580   1.048  12.064  0.3121  0.8491 -1.8596
  760MPD2    H111282   4.330   0.714  11.947  0.7886 -0.3755  3.6231
  760MPD2    H211283   4.203   1.112  11.884 -0.2290 -0.7219 -1.1521
  760MPD2    H311284   4.164   0.876  11.885  0.3885 -0.4573 -0.8678
  760MPD2     N11285   4.582   0.777  12.048  0.0217  0.2146  0.2562
  760MPD2    H511286   4.565   0.680  12.022  1.9114  0.1987 -0.8849
  760MPD2    N111287   4.438   1.225  11.988  0.3529 -0.1728 -0.4203
  760MPD2    H711288   4.521   1.246  12.044  0.1143  0.2382 -0.2213
  761MPD2     C11289   1.050   0.330  11.342  0.1628 -0.0767  0.1530
  761MPD2    C111290   1.124   0.319  11.221  0.2018 -1.1689  0.9052
  761MPD2    C211291   1.228   0.406  11.193 -0.2127 -0.4496 -0.0283
  761MPD2    C311292   1.261   0.508  11.288  0.2099 -0.0209  0.1287
  761MPD2    C411293   1.189   0.511  11.408  0.2495 -0.3720 -0.9253
  761MPD2    C511294   1.082   0.432  11.434  0.3280 -0.2819  0.2980
  761MPD2     H11295   1.280   0.402  11.098  2.1856  0.7691  1.2165
  761MPD2    H111296   1.208   0.575  11.493 -1.2890 -1.1123 -0.0329
  761MPD2    H211297   0.977   0.252  11.362  1.6856 -1.0354  2.0083
  761MPD2    H311298   1.031   0.431  11.529 -0.5078  0.1254 -0.1454
  761MPD2     N11299   1.374   0.591  11.272  0.4663  0.0187  0.0353
  761MPD2    H511300   1.394   0.649  11.352  0.8225  2.5101 -1.8588
  761MPD2    N111301   1.098   0.213  11.129  0.7697  0.0187  0.0585
  761MPD2    H711302   1.028   0.145  11.156 -0.0029  0.0602 -1.8503
  762MPD2     C11303   1.628   0.218  10.939  0.0481 -0.1909  0.0933
  762MPD2    C111304   1.602   0.091  10.884  0.2315  0.2807 -0.6214
  762MPD2    C211305   1.705   0.018  10.840 -0.3747  0.5782 -0.0899
  762MPD2    C311306   1.835   0.064  10.838 -0.0970 -0.0271 -0.0035
  762MPD2    C411307   1.860   0.187  10.892  0.4781 -0.4392  0.6713
  762MPD2    C511308   1.758   0.262  10.942  0.0393  0.2447  0.2752
  762MPD2     H11309   1.687   4.660  10.796 -2.8289  0.3020  1.5678
  762MPD2    H111310   1.960   0.229  10.895  0.4032 -0.1927 -0.3635
  762MPD2    H211311   1.550   0.281  10.981  1.1128  0.3906  1.1811
  762MPD2    H311312   1.770   0.362  10.983  0.2797  0.0978  0.5645
  762MPD2     N11313   1.925   4.726  10.762 -0.3635 -0.0510 -0.1878
  762MPD2    H511314   1.893   4.641  10.717  1.4578 -1.0542  0.4023
  762MPD2    N111315   1.468   0.053  10.875  0.3696 -0.2384  0.3057
  762MPD2    H711316   1.403   0.124  10.908 -1.9346 -1.7917 -0.8830
  763MPD2     C11317   3.444   0.798  16.256  0.0049  0.3045  0.6993
  763MPD2    C111318   3.314   0.824  16.220  0.2582 -0.0888  0.5155
  763MPD2    C211319   3.266   0.954  16.257 -0.6121  0.4928  0.1098
  763MPD2    C311320   3.336   1.041  16.340  0.4460 -0.2157  0.2577
  763MPD2    C411321   3.459   1.004  16.381 -0.3005 -0.1857  0.2508
  763MPD2    C511322   3.511   0.883  16.348 -0.0302 -0.6408  0.6734
  763MPD2     H11323   3.167   0.984  16.226 -0.4890 -1.5282 -2.3111
  763MPD2    H111324   3.515   1.063  16.452  0.1688  0.9241 -1.0448
  763MPD2    H211325   3.490   0.702  16.234  2.3521  1.4494  0.5696
  763MPD2    H311326   3.617   0.871  16.369  0.2793 -1.6381 -1.3821
  763MPD2     N11327   3.293   1.169  16.382  0.1927  0.2559 -0.0583
  763MPD2    H511328   3.365   1.221  16.432  0.1615  0.3415 -0.1013
  763MPD2    N111329   3.234   0.744  16.135  0.2378  0.2151  0.2685
  763MPD2    H711330   3.142   0.780  16.111  0.9973  1.1620 -1.2384
  764MPD2     C11331   1.235   2.514  17.702 -0.1255  0.4774 -0.5893
  764MPD2    C111332   1.099   2.487  17.699 -0.2361 -0.0864 -0.3001
  764MPD2    C211333   1.027   2.479   0.059  0.1180  0.3793 -0.1690
  764MPD2    C311334   1.083   2.496   0.181 -0.2044 -0.0308 -0.4314
  764MPD2    C411335   1.217   2.531   0.185  0.5132 -0.1531 -0.7003
  764MPD2    C511336   1.290   2.535   0.071 -0.3112 -0.5513  0.3911
  764MPD2     H11337   0.920   2.473   0.043  0.2348 -0.5549 -0.5802
  764MPD2    H111338   1.265   2.537   0.282  0.0428 -1.4436 -0.3806
  764MPD2    H211339   1.301   2.513  17.616  2.1814 -0.4116  1.1913
  764MPD2    H311340   1.396   2.554   0.066 -0.7020  0.7151 -2.7962
  764MPD2     N11341   1.004   2.455   0.299  0.7790 -0.1339 -0.5873
  764MPD2    H511342   0.909   2.424   0.285  0.8154 -0.3589 -0.3264
  764MPD2    N111343   1.035   2.451  17.580  0.1241 -0.3900  0.1106
  764MPD2    H711344   0.935   2.438  17.576  0.2152 -0.8166 -0.8200
  765MPD2     C11345   0.946   0.692  16.317 -0.1616  0.8955 -0.6170
  765MPD2    C111346   0.980   0.618  16.200 -0.3163 -0.0555 -0.3417
  765MPD2    C211347   1.078   0.526  16.206 -0.5650 -0.9890 -0.1368
  765MPD2    C311348   1.147   0.498  16.322 -0.1279 -0.1196  0.7204
  765MPD2    C411349   1.123   0.574  16.437 -0.0038 -0.0009  0.0145
  765MPD2    C511350   1.021   0.658  16.430 -0.1604 -0.2005 -0.6894
  765MPD2     H11351   1.101   0.463  16.120  1.2382  2.0799 -1.8855
  765MPD2    H111352   1.173   0.574  16.533 -0.3544 -0.2045  0.1970
  765MPD2    H211353   0.863   0.761  16.327 -1.2863 -0.5353 -0.0938
  765MPD2    H311354   1.011   0.708  16.526 -0.6938  0.0892 -0.8896
  765MPD2     N11355   1.226   0.378  16.319 -0.1505  0.0601  0.4900
  765MPD2    H511356   1.240   0.331  16.230 -1.7399  1.9575 -0.7739
  765MPD2    N111357   0.910   0.637  16.077 -0.8414 -0.1168 -0.0993
  765MPD2    H711358   0.843   0.713  16.082 -0.4083  0.4160 -2.2764
  766MPD2     C11359   0.488   0.294  15.481 -0.5921 -0.3686  0.8621
  766MPD2    C111360   0.611   0.308  15.532 -0.5297 -0.2726 -0.0822
  766MPD2    C211361   0.710   0.238  15.470 -0.0453 -0.1149 -0.6979
  766MPD2    C311362   0.695   0.162  15.359  0.3443 -0.9852 -0.5718
  766MPD2    C411363   0.571   0.154  15.301 -0.1111  0.0355  0.1456
  766MPD2    C511364   0.470   0.225  15.364  0.2046  0.2691 -0.1299
  766MPD2     H11365   0.809   0.254  15.513 -0.9094  1.2933  0.7452
  766MPD2    H111366   0.553   0.091  15.215 -1.5882  0.7815 -0.0915
  766MPD2    H211367   0.399   0.343  15.518 -1.1931 -1.0340  0.3161
  766MPD2    H311368   0.372   0.227  15.318 -0.4187  1.2382  1.2652
  766MPD2     N11369   0.804   0.098  15.299  0.2130  0.7833  0.0033
  766MPD2    H511370   0.791   0.073  15.202 -1.3373 -2.1291  0.9669
  766MPD2    N111371   0.637   0.397  15.640  0.0251  0.4714  0.2183
  766MPD2    H711372   0.723   0.387  15.692 -0.1486 -1.5609  0.0954
  767MPD2     C11373   0.318   0.429  15.093  0.3264 -0.2318 -0.3167
  767MPD2    C111374   0.452   0.405  15.059  0.1095  0.2900  0.5453
  767MPD2    C211375   0.482   0.331  14.948  0.1473 -0.1306  0.2777
  767MPD2    C311376   0.376   0.290  14.866 -0.1737  0.0690 -0.5565
  767MPD2    C411377   0.244   0.327  14.885 -0.2919  0.1869 -0.0869
  767MPD2    C511378   0.218   0.398  15.001  0.0996 -0.1743  0.3733
  767MPD2     H11379   0.587   0.309  14.932  0.4999  0.9431  1.0164
  767MPD2    H111380   0.162   0.292  14.823 -1.5784  1.0997  1.1221
  767MPD2    H211381   0.284   0.482  15.181  1.6983 -0.6423  0.4650
  767MPD2    H311382   0.124   0.449  15.019 -1.5245 -3.3801  0.8394
  767MPD2     N11383   0.422   0.217  14.746  0.6834 -0.2080 -0.0383
  767MPD2    H511384   0.522   0.204  14.740  0.6298 -0.5844 -0.1158
  767MPD2    N111385   0.550   0.464  15.141 -0.2111 -0.4346  0.2518
  767MPD2    H711386   0.514   0.517  15.219 -1.1917 -1.7519  0.6989
  768MPD2     C11387   1.277   3.435  10.742  0.1658  0.7789  0.3852
  768MPD2    C111388   1.267   3.381  10.869  0.2287 -0.3086 -0.3988
  768MPD2    C211389   1.380   3.357  10.943 -0.2580 -0.2615 -0.5790
  768MPD2    C311390   1.506   3.387  10.891  0.8188 -0.0718  0.0166
  768MPD2    C411391   1.508   3.462  10.780  0.5145 -0.3172 -0.0597
  768MPD2    C511392   1.402   3.484  10.705 -0.0003 -0.0066 -0.1042
  768MPD2     H11393   1.355   3.335  11.046  0.4411  0.9270 -0.1534
  768MPD2    H111394   1.605   3.493  10.743  0.7293 -0.5228  0.3216
  768MPD2    H211395   1.189   3.465  10.686 -0.6157 -0.0330  1.1766
  768MPD2    H311396   1.409   3.542  10.614 -1.5277 -0.1329 -0.3064
  768MPD2     N11397   1.625   3.372  10.970 -0.1690  0.3239  0.6257
  768MPD2    H511398   1.710   3.420  10.944 -0.4547 -0.4534 -1.7845
  768MPD2    N111399   1.147   3.340  10.925 -0.1183 -0.6484 -0.1792
  768MPD2    H711400   1.155   3.301  11.018  0.3849  2.2144  0.9640
  769MPD2     C11401   2.754   1.712  15.330  0.0325 -0.5214 -0.0063
  769MPD2    C111402   2.638   1.705  15.401  0.1456 -0.0848 -0.5863
  769MPD2    C211403   2.632   1.787  15.518  0.7323 -0.6186 -0.8926
  769MPD2    C311404   2.730   1.881  15.543 -0.2446 -0.6965 -0.0512
  769MPD2    C411405   2.842   1.883  15.465 -0.2001  0.3864 -0.0258
  769MPD2    C511406   2.855   1.791  15.367  0.1942  0.0555  0.2551
  769MPD2     H11407   2.542   1.790  15.578  1.2917 -2.5213  0.0468
  769MPD2    H111408   2.923   1.953  15.476 -1.0718  1.8021 -2.6277
  769MPD2    H211409   2.759   1.656  15.237  2.5518 -0.7778  0.2702
  769MPD2    H311410   2.941   1.791  15.302  0.1495 -1.5284  0.1796
  769MPD2     N11411   2.704   1.975  15.652  0.1435  0.3421 -0.3246
  769MPD2    H511412   2.617   1.955  15.701  0.9268 -3.3378 -0.4265
  769MPD2    N111413   2.537   1.620  15.357 -0.6367  0.6384 -0.1644
  769MPD2    H711414   2.558   1.563  15.276 -0.2685  0.6702 -0.0936
  770MPD2     C11415   2.416   0.713  14.999  0.2723 -0.3227 -0.0366
  770MPD2    C111416   2.293   0.768  14.982  0.2409 -1.0274  0.6769
  770MPD2    C211417   2.265   0.897  15.017  0.1014  0.0329 -0.7511
  770MPD2    C311418   2.359   0.959  15.095 -0.5534 -0.3424 -0.6551
  770MPD2    C411419   2.487   0.900  15.114 -0.0264  0.1884 -0.1732
  770MPD2    C511420   2.520   0.775  15.071  0.3417  0.6489 -0.5170
  770MPD2     H11421   2.173   0.947  14.990 -0.4443 -0.9893 -0.7733
  770MPD2    H111422   2.570   0.950  15.163 -0.0263 -0.7250  0.7795
  770MPD2    H211423   2.427   0.611  14.964  0.6109 -0.5994  0.8698
  770MPD2    H311424   2.615   0.728  15.096  0.7679  2.3725  1.0551
  770MPD2     N11425   2.321   1.089  15.133 -0.9190  0.2546  0.2863
  770MPD2    H511426   2.235   1.128  15.098 -0.0332  1.3945 -0.5982
  770MPD2    N111427   2.205   0.690  14.900  0.2313 -0.0503 -0.4306
  770MPD2    H711428   2.236   0.602  14.861 -0.2401 -1.0705  1.5302
  771MPD2     C11429   3.163   4.447  14.073  0.1703  0.3722 -0.3944
  771MPD2    C111430   3.041   4.397  14.031 -0.6627 -0.2739  0.5887
  771MPD2    C211431   3.027   4.264  14.021  0.0343  0.0172 -0.0872
  771MPD2    C311432   3.131   4.175  14.036  0.7115 -0.6413  0.0050
  771MPD2    C411433   3.254   4.221  14.080  0.1234 -0.8493 -0.1107
  771MPD2    C511434   3.270   4.358  14.084 -0.0920  0.6130  0.3811
  771MPD2     H11435   2.931   4.238  13.979 -0.9973  0.7028  1.8320
  771MPD2    H111436   3.344   4.163  14.092 -0.1666 -0.9557  1.6592
  771MPD2    H211437   3.168   4.555  14.080  2.1038  0.2661 -0.3232
  771MPD2    H311438   3.368   4.401  14.097  0.3543 -0.7190  1.3916
  771MPD2     N11439   3.113   4.043  13.990  0.4387  0.0039 -0.0809
  771MPD2    H511440   3.021   4.024  13.950  0.3790  1.0586 -0.4557
  771MPD2    N111441   2.930   4.477  13.987  0.2887 -0.0898  0.2567
  771MPD2    H711442   2.837   4.436  13.983 -0.8183  2.5267 -0.3734
  772MPD2     C11443   2.286   4.327  13.767  0.8650 -0.0210  0.7091
  772MPD2    C111444   2.350   4.405  13.853 -0.4186 -0.2667  0.3828
  772MPD2    C211445   2.281   4.444  13.965 -1.1126  0.4343  1.1570
  772MPD2    C311446   2.149   4.398  13.980 -0.2750 -0.2226  0.0711
  772MPD2    C411447   2.085   4.309  13.899 -0.0060 -0.7048 -0.0043
  772MPD2    C511448   2.160   4.281  13.784  0.3063 -1.0389 -0.3367
  772MPD2     H11449   2.327   4.522  14.025  0.8896  0.1544 -0.0130
  772MPD2    H111450   1.982   4.277  13.913 -1.0576  2.0190 -1.3160
  772MPD2    H211451   2.327   4.293  13.672  1.5246  0.2878  0.8854
  772MPD2    H311452   2.123   4.202  13.719 -1.6873  0.5798 -1.1500
  772MPD2     N11453   2.062   4.452  14.081 -0.3845 -0.1745  0.1731
  772MPD2    H511454   1.969   4.410  14.082  0.1103 -1.2623  0.7905
  772MPD2    N111455   2.471   4.470  13.831 -0.2719 -0.3502 -0.6172
  772MPD2    H711456   2.495   4.533  13.907 -1.3524 -0.3410 -0.2822
  773MPD2     C11457   1.933   0.443   0.213 -0.2046 -0.1043  0.0249
  773MPD2    C111458   1.987   0.406   0.091 -0.0183 -1.1053  0.7409
  773MPD2    C211459   2.039   0.275   0.080  0.0132 -0.0279 -0.4629
  773MPD2    C311460   2.045   0.187   0.186  0.4774  0.0544 -0.1813
  773MPD2    C411461   1.985   0.229   0.304 -0.2635 -0.2310 -0.1982
  773MPD2    C511462   1.932   0.353   0.322  0.6187  0.0585  0.3042
  773MPD2     H11463   2.071   0.242  17.738  4.2044 -1.8274  1.4972
  773MPD2    H111464   1.990   0.162   0.389 -1.0413 -1.3030 -1.0016
  773MPD2    H211465   1.885   0.539   0.233 -1.6832 -0.5638 -1.3565
  773MPD2    H311466   1.889   0.379   0.418  3.5852  3.2708  0.7462
  773MPD2     N11467   2.088   0.056   0.178 -0.6618 -0.5532 -0.5213
  773MPD2    H511468   2.124   0.027   0.088 -0.1349  1.6815 -1.0099
  773MPD2    N111469   1.980   0.487  17.735 -0.0410  0.1011 -0.1521
  773MPD2    H711470   2.027   0.468  17.647 -1.7703 -1.4280 -0.7442
  774MPD2     C11471   1.648   4.331  13.247 -0.0025 -0.8105 -0.3881
  774MPD2    C111472   1.520   4.362  13.288  0.5329  0.2576  0.1215
  774MPD2    C211473   1.479   4.496  13.285  0.2389  0.8155  0.5422
  774MPD2    C311474   1.575   4.597  13.258  0.9561  0.2254  0.5066
  774MPD2    C411475   1.696   4.564  13.205  0.1541 -0.0034 -0.0343
  774MPD2    C511476   1.731   4.432  13.199 -0.2826 -0.1737  0.4031
  774MPD2     H11477   1.384   4.522  13.329 -0.8144  0.0346 -1.2374
  774MPD2    H111478   1.757   4.637  13.153  1.2585 -0.5132  0.5569
  774MPD2    H211479   1.677   4.227  13.236 -1.2862 -1.3339  1.2663
  774MPD2    H311480   1.829   4.410  13.158  1.0693  0.1265  3.4295
  774MPD2     N11481   1.537   4.733  13.263 -0.1484 -0.6640  0.6949
  774MPD2    H511482   1.443   0.017  13.291  0.3762  2.1486  0.0649
  774MPD2    N111483   1.439   4.258  13.332 -0.0604 -0.0972  0.4048
  774MPD2    H711484   1.487   4.186  13.384 -0.9999  0.2697  1.7835
  775MPD2     C11485   2.791   1.543  15.874 -0.1403 -0.2080  0.0409
  775MPD2    C111486   2.817   1.651  15.950 -0.2751  0.9213 -0.1242
  775MPD2    C211487   2.901   1.744  15.896  0.6230  0.4279  0.2877
  775MPD2    C311488   2.980   1.711  15.784  0.3457 -0.4569 -0.5187
  775MPD2    C411489   2.959   1.601  15.706  0.9968 -0.6184  0.1729
  775MPD2    C511490   2.853   1.524  15.751 -0.7208 -0.4164 -0.2064
  775MPD2     H11491   2.936   1.822  15.962 -1.9266  0.8950  1.0738
  775MPD2    H111492   3.004   1.589  15.608  0.4160  1.7371 -0.3667
  775MPD2    H211493   2.714   1.471  15.900 -1.5002  0.9219 -0.8234
  775MPD2    H311494   2.834   1.429  15.702  2.0688 -1.0647 -0.0069
  775MPD2     N11495   3.078   1.800  15.730  0.1739  0.0455 -0.0395
  775MPD2    H511496   3.112   1.781  15.636  0.9788  1.7147 -0.0870
  775MPD2    N111497   2.743   1.668  16.071  0.2135 -0.4387 -0.0574
  775MPD2    H711498   2.678   1.593  16.093  0.1598 -0.8097 -1.5018
  776MPD2     C11499   1.232   2.094  11.525  0.6589  0.2351  0.2394
  776MPD2    C111500   1.346   2.027  11.569  0.3336 -0.2946  0.0570
  776MPD2    C211501   1.463   2.046  11.505  0.3600 -0.8925 -0.4073
  776MPD2    C311502   1.479   2.141  11.408  0.0570 -0.0262  0.1637
  776MPD2    C411503   1.363   2.205  11.361  0.3794  0.0278 -0.5477
  776MPD2    C511504   1.243   2.174  11.418  0.2175 -0.2752 -0.4284
  776MPD2     H11505   1.552   1.992  11.535  0.4847 -0.1938  0.4802
  776MPD2    H111506   1.366   2.286  11.289 -0.2002  0.7572  0.2454
  776MPD2    H211507   1.133   2.082  11.566  0.5611 -1.6947 -0.5598
  776MPD2    H311508   1.147   2.215  11.389 -0.3836 -2.4215 -1.4783
  776MPD2     N11509   1.604   2.167  11.338  0.4292 -0.1473  0.9694
  776MPD2    H511510   1.594   2.223  11.253 -1.3370 -0.3999  1.0186
  776MPD2    N111511   1.326   1.935  11.680  0.2515  0.9180  0.3183
  776MPD2    H711512   1.231   1.923  11.711  0.5377  1.5095  1.4371
  777MPD2     C11513   2.154   4.204   1.022  0.2684 -0.0978 -0.4553
  777MPD2    C111514   2.017   4.207   1.033  0.3062 -0.0938  0.2895
  777MPD2    C211515   1.940   4.118   0.965  0.0484  0.0062 -0.3617
  777MPD2    C311516   1.999   4.028   0.882 -0.3362 -0.0201 -0.1731
  777MPD2    C411517   2.132   4.022   0.873 -0.5922  0.4085 -0.6788
  777MPD2    C511518   2.208   4.111   0.940 -0.0449  0.0667 -0.3482
  777MPD2     H11519   1.832   4.124   0.968  0.0442  0.5148 -1.4987
  777MPD2    H111520   2.185   3.936   0.834 -0.6231  0.6376 -1.2229
  777MPD2    H211521   2.207   4.292   1.058 -0.8038  0.9234 -1.3753
  777MPD2    H311522   2.317   4.112   0.934 -0.0335 -2.5550 -0.7023
  777MPD2     N11523   1.923   3.930   0.815 -0.3789  0.2792  0.8961
  777MPD2    H511524   1.831   3.916   0.857 -0.8951  0.5854 -0.1426
  777MPD2    N111525   1.962   4.300   1.126 -0.4736  0.7123  0.0982
  777MPD2    H711526   2.027   4.349   1.186  1.1307  0.2839 -1.2919
  778MPD2     C11527   3.082   4.479  15.224  0.1095  0.5163  0.6136
  778MPD2    C111528   3.051   4.365  15.154  0.7584 -0.1970  0.3979
  778MPD2    C211529   3.052   4.365  15.017  0.1823 -0.0950 -0.0336
  778MPD2    C311530   3.100   4.472  14.944  0.8373  0.9371  0.1099
  778MPD2    C411531   3.141   4.581  15.018  0.6302  0.4538  0.1131
  778MPD2    C511532   3.125   4.588  15.155  0.6159  0.7303 -0.0438
  778MPD2     H11533   3.014   4.281  14.961 -0.0388 -0.3959  0.5730
  778MPD2    H111534   3.161   4.674  14.966 -0.6066  0.6120 -0.0745
  778MPD2    H211535   3.063   4.501  15.328  0.1259  0.0144  0.7250
  778MPD2    H311536   3.134   4.684  15.204 -1.2561 -0.3252  2.4078
  778MPD2     N11537   3.099   4.469  14.805 -0.4462 -0.5077 -0.0888
  778MPD2    H511538   3.045   4.391  14.769  2.2289 -2.3574 -0.0861
  778MPD2    N111539   3.011   4.241  15.212 -0.2623  0.6786  0.0433
  778MPD2    H711540   2.988   4.162  15.153  1.5954  0.5139 -0.4562
  779MPD2     C11541   2.724   3.005  14.624 -0.1236  0.2721 -0.0885
  779MPD2    C111542   2.858   3.041  14.615  0.0874  0.5374  0.3227
  779MPD2    C211543   2.894   3.174  14.622  0.3676 -0.6229  0.1548
  779MPD2    C311544   2.800   3.273  14.615 -0.2424 -0.2517  0.6164
  779MPD2    C411545   2.665   3.239  14.626 -0.1462 -0.4440  0.7964
  779MPD2    C511546   2.633   3.106  14.634 -0.5573 -0.4495 -0.8789
  779MPD2     H11547   3.000   3.198  14.612 -0.0185  0.1751 -2.0827
  779MPD2    H111548   2.595   3.321  14.630 -1.9864 -1.8669 -1.8079
  779MPD2    H211549   2.686   2.904  14.634  1.1052  0.1980  4.0589
  779MPD2    H311550   2.529   3.080  14.652 -0.0516 -0.0564  2.6181
  779MPD2     N11551   2.843   3.408  14.602  0.3360  0.3907 -0.6703
  779MPD2    H511552   2.941   3.420  14.624  0.1462 -0.6783  0.8228
  779MPD2    N111553   2.961   2.949  14.607  0.5790  0.6640 -0.3433
  779MPD2    H711554   3.057   2.984  14.605  0.7684 -0.0863 -4.1362
  780MPD2     C11555   2.921   2.867   0.653  0.3691 -0.0284  0.2358
  780MPD2    C111556   2.846   2.959   0.718 -0.0915  1.5334 -0.9558
  780MPD2    C211557   2.779   3.056   0.645  0.0939  0.2296  0.4912
  780MPD2    C311558   2.781   3.064   0.509 -0.7774 -0.1458  0.2278
  780MPD2    C411559   2.870   2.980   0.445  0.1545 -0.2350 -0.1350
  780MPD2    C511560   2.924   2.880   0.514  0.2474 -0.0861  0.2433
  780MPD2     H11561   2.713   3.132   0.687  0.9196 -0.1654  2.4943
  780MPD2    H111562   2.892   2.992   0.340  1.3161 -1.4249 -0.0260
  780MPD2    H211563   2.995   2.809   0.707 -0.2034 -1.3757 -0.4293
  780MPD2    H311564   2.992   2.818   0.457  2.7376  2.7159  0.1974
  780MPD2     N11565   2.702   3.155   0.440 -0.3335 -0.0761  0.0834
  780MPD2    H511566   2.662   3.231   0.494 -0.7750  0.1120 -0.5055
  780MPD2    N111567   2.839   2.943   0.862 -0.4803 -0.8943  0.1260
  780MPD2    H711568   2.879   2.858   0.901 -0.5200 -1.1094 -0.3091
  781MPD2     C11569   3.784   0.773  12.088 -0.0585 -0.2137 -0.0613
  781MPD2    C111570   3.842   0.641  12.083 -0.2025  0.1752  0.2163
  781MPD2    C211571   3.871   0.589  11.955  0.7312  0.4406  0.1004
  781MPD2    C311572   3.828   0.651  11.837  0.6753  0.6401  0.2087
  781MPD2    C411573   3.769   0.774  11.848 -0.1201 -0.2681  0.1648
  781MPD2    C511574   3.745   0.832  11.969  0.4133 -0.6445 -0.2684
  781MPD2     H11575   3.908   0.487  11.953 -0.0982  0.1229  0.9112
  781MPD2    H111576   3.746   0.831  11.758 -1.9498  1.1606  1.5485
  781MPD2    H211577   3.751   0.826  12.176 -0.5150 -1.4841  0.5282
  781MPD2    H311578   3.695   0.927  11.981  1.0207 -0.5085  1.2651
  781MPD2     N11579   3.840   0.597  11.700 -0.4845 -0.2968  0.2302
  781MPD2    H511580   3.784   0.643  11.629 -1.8922 -0.8112  0.9849
  781MPD2    N111581   3.872   0.566  12.203  0.4050 -0.4854 -0.0121
  781MPD2    H711582   3.905   0.471  12.192 -1.1673 -0.9774 -0.5825
  782MPD2     C11583   2.123   0.963  10.710  0.7503 -0.2484  0.2334
  782MPD2    C111584   2.241   0.926  10.641  0.8088 -0.2445  0.8115
  782MPD2    C211585   2.362   0.925  10.706  0.0763 -1.0185  0.0887
  782MPD2    C311586   2.370   0.958  10.843  0.2490  0.6247 -0.1947
  782MPD2    C411587   2.256   0.999  10.906  0.1495 -0.1195  0.3401
  782MPD2    C511588   2.139   1.007  10.838 -0.2264 -0.1850 -0.5261
  782MPD2     H11589   2.452   0.892  10.655 -0.4513 -0.8576 -0.9339
  782MPD2    H111590   2.252   1.034  11.008 -1.0955 -0.1592  0.2971
  782MPD2    H211591   2.021   0.966  10.673  0.3776 -0.9619  1.1901
  782MPD2    H311592   2.057   1.056  10.888  0.8821 -0.3671  1.4923
  782MPD2     N11593   2.493   0.946  10.916  0.4157 -0.0305  0.0834
  782MPD2    H511594   2.567   0.905  10.861  0.1322  0.9668 -1.0362
  782MPD2    N111595   2.223   0.874  10.513  0.0833 -0.2864  0.0663
  782MPD2    H711596   2.136   0.834  10.481  1.0123 -1.5284 -0.8851
  783MPD2     C11597   1.667   0.463  10.707  0.1187 -0.1350 -0.2601
  783MPD2    C111598   1.740   0.578  10.727  0.3624 -0.0034  0.1136
  783MPD2    C211599   1.845   0.608  10.644 -0.0270  0.2561  0.8100
  783MPD2    C311600   1.891   0.523  10.547 -0.4985  0.4800  0.0262
  783MPD2    C411601   1.823   0.403  10.533  0.0012 -0.7132  0.1332
  783MPD2    C511602   1.710   0.376  10.609 -0.6395  0.2670 -0.3259
  783MPD2     H11603   1.900   0.700  10.660  0.0989  0.3702 -0.2868
  783MPD2    H111604   1.836   0.332  10.452  1.6098  0.6575 -0.8217
  783MPD2    H211605   1.579   0.444  10.767 -0.5783  0.3684 -1.1328
  783MPD2    H311606   1.648   0.288  10.594 -1.1794  0.8901 -1.7801
  783MPD2     N11607   2.002   0.558  10.466  0.4749 -0.3486  0.0656
  783MPD2    H511608   2.034   0.653  10.483  0.5767 -0.0065 -2.1264
  783MPD2    N111609   1.702   0.653  10.839  0.3176 -0.5453  0.6331
  783MPD2    H711610   1.616   0.639  10.890 -0.4222  2.0656  0.0970
  784MPD2     C11611   4.691   1.059   0.636 -0.5608  0.3590  0.3155
  784MPD2    C111612   4.739   1.186   0.653 -0.0393  1.4149 -0.0462
  784MPD2    C211613   4.670   1.283   0.586  0.3455  0.1318  0.5343
  784MPD2    C311614   4.557   1.258   0.510 -0.0493  0.1554 -0.2203
  784MPD2    C411615   4.512   1.123   0.511  0.3097 -0.1034  0.3089
  784MPD2    C511616   4.574   1.023   0.573  0.4387 -1.2734  0.2036
  784MPD2     H11617   4.707   1.384   0.598 -0.2056  0.2256  1.4025
  784MPD2    H111618   4.416   1.109   0.462  0.5182  2.6627 -0.9176
  784MPD2    H211619   0.001   0.974   0.682 -0.9383 -0.3747 -0.6181
  784MPD2    H311620   4.542   0.921   0.556 -0.8804 -0.9698  0.8693
  784MPD2     N11621   4.494   1.365   0.442  0.0534  0.4938  0.0703
  784MPD2    H511622   4.547   1.452   0.438 -1.1001  1.1951 -0.0562
  784MPD2    N111623   0.108   1.224   0.734  0.1581 -0.6791 -0.2733
  784MPD2    H711624   0.134   1.322   0.727  2.4785 -1.3571 -1.0387
  785MPD2     C11625   0.130   3.849  11.181 -0.8897 -0.3033  0.8604
  785MPD2    C111626   0.028   3.942  11.172  0.4852  0.2643 -0.3720
  785MPD2    C211627   4.657   3.911  11.096  0.5485  0.3282 -0.1382
  785MPD2    C311628   4.654   3.798  11.018  0.4660 -0.3992  0.1753
  785MPD2    C411629   0.013   3.696  11.031 -0.1737 -0.2831  0.7454
  785MPD2    C511630   0.118   3.732  11.113 -0.7870 -0.1429 -0.8786
  785MPD2     H11631   4.575   3.982  11.085 -0.3853 -0.6216  0.7199
  785MPD2    H111632   0.009   3.602  10.977 -0.1640  0.4770 -0.5669
  785MPD2    H211633   0.222   3.859  11.237  0.2419 -0.3684 -0.9894
  785MPD2    H311634   0.204   3.667  11.128  0.0417  1.0140 -0.6302
  785MPD2     N11635   4.533   3.785  10.946 -0.0388 -0.5724  0.2333
  785MPD2    H511636   4.472   3.866  10.950  0.2974 -0.2553 -1.1890
  785MPD2    N111637   0.034   4.062  11.246  0.5926  0.1308  0.3956
  785MPD2    H711638   4.701   4.131  11.233  0.8144  0.1003 -0.9780
  786MPD2     C11639   3.561   2.550  14.973 -0.6411 -0.0610 -0.4539
  786MPD2    C111640   3.666   2.461  14.974 -0.5178  0.4109 -0.5244
  786MPD2    C211641   3.732   2.447  15.092  0.5203 -0.3003  0.6572
  786MPD2    C311642   3.694   2.509  15.209 -0.0901  0.3933 -0.3381
  786MPD2    C411643   3.582   2.590  15.207  0.0540 -0.8513 -0.2126
  786MPD2    C511644   3.510   2.602  15.089  0.7027 -0.6419  0.1052
  786MPD2     H11645   3.818   2.381  15.096  0.3152 -0.6818 -1.1369
  786MPD2    H111646   3.551   2.651  15.291 -1.3728 -1.0141 -0.6280
  786MPD2    H211647   3.505   2.572  14.883  0.6631  1.3265 -0.9192
  786MPD2    H311648   3.427   2.672  15.078  1.1716 -0.0874  0.1058
  786MPD2     N11649   3.779   2.499  15.324  0.2795  0.4067 -0.3121
  786MPD2    H511650   3.745   2.529  15.415  0.9382  0.7222 -0.1701
  786MPD2    N111651   3.720   2.405  14.860  1.0504  0.1781 -0.3501
  786MPD2    H711652   3.807   2.353  14.871  1.2242  0.6591  0.5257
  787MPD2     C11653   4.069   1.950  15.044 -0.1027 -0.0682 -0.5161
  787MPD2    C111654   4.048   1.911  14.916 -0.7325  0.8011  0.2480
  787MPD2    C211655   4.096   1.791  14.863  0.0425 -0.2679 -0.3999
  787MPD2    C311656   4.171   1.710  14.949 -0.1424  0.4139 -0.0341
  787MPD2    C411657   4.202   1.754  15.077  0.3931 -0.4849  0.1589
  787MPD2    C511658   4.137   1.863  15.125 -0.7580 -0.3449 -0.3552
  787MPD2     H11659   4.086   1.762  14.759 -1.2114 -2.1725  0.2459
  787MPD2    H111660   4.245   1.694  15.156 -0.4487 -1.0909  0.1545
  787MPD2    H211661   4.033   2.043  15.087 -0.6048 -1.3378  1.8209
  787MPD2    H311662   4.163   1.900  15.224  0.0746  2.2033 -1.5201
  787MPD2     N11663   4.218   1.589  14.894  0.0273  0.3078  0.3233
  787MPD2    H511664   4.204   1.567  14.796 -0.1835 -1.5312  0.7644
  787MPD2    N111665   3.984   2.005  14.836 -0.5173  0.4645  0.0471
  787MPD2    H711666   3.963   2.091  14.886 -0.2644 -0.0739  1.0704
  788MPD2     C11667   0.421   0.685   0.595 -0.5018 -0.7336  0.0628
  788MPD2    C111668   0.547   0.673   0.662 -0.1334 -0.0742 -0.1774
  788MPD2    C211669   0.619   0.791   0.681 -0.0542  0.6118 -0.1384
  788MPD2    C311670   0.560   0.919   0.656 -0.3839  0.3845  0.4582
  788MPD2    C411671   0.434   0.927   0.602 -0.0449  0.3643 -0.0930
  788MPD2    C511672   0.366   0.815   0.573 -0.4510  0.0937  0.7651
  788MPD2     H11673   0.715   0.785   0.730  1.1258 -0.7584 -2.6007
  788MPD2    H111674   0.389   1.023   0.581  0.3322  0.5127 -0.2091
  788MPD2    H211675   0.375   0.597   0.552 -0.6857 -1.9291  2.6890
  788MPD2    H311676   0.263   0.822   0.537 -0.6376  0.7354  1.4414
  788MPD2     N11677   0.625   1.044   0.667  0.0582  0.0139 -0.0216
  788MPD2    H511678   0.572   1.125   0.638  3.9281  1.9914 -1.5736
  788MPD2    N111679   0.604   0.551   0.691  0.5614 -0.2696 -0.1217
  788MPD2    H711680   0.689   0.557   0.747  1.0379 -4.1441 -0.3855
  789MPD2     C11681   0.935   0.344  16.704  0.5962  0.4803  0.6648
  789MPD2    C111682   0.841   0.379  16.609  0.0969 -0.4925  0.3403
  789MPD2    C211683   0.756   0.489  16.627  0.7056  0.5569 -0.0120
  789MPD2    C311684   0.768   0.567  16.740 -0.4785  0.4306  0.4032
  789MPD2    C411685   0.866   0.537  16.833  0.2389 -0.1141 -0.0098
  789MPD2    C511686   0.951   0.433  16.810  0.3356  0.5457 -0.6900
  789MPD2     H11687   0.676   0.517  16.559  1.4911  0.1508 -1.1093
  789MPD2    H111688   0.893   0.601  16.915 -1.5271  0.8610 -0.1805
  789MPD2    H211689   1.013   0.271  16.685  0.3752 -0.2404  2.6165
  789MPD2    H311690   1.022   0.414  16.890 -1.9486  2.4477  1.7876
  789MPD2     N11691   0.688   0.685  16.768  0.7935  0.2342 -0.8689
  789MPD2    H511692   0.713   0.751  16.841  0.4232 -0.5654 -0.0225
  789MPD2    N111693   0.824   0.308  16.488  0.0435  0.6475  0.6224
  789MPD2    H711694   0.772   0.348  16.411  0.2645 -0.7553 -0.2523
  790MPD2     C11695   2.139   2.558  13.230 -0.1790 -0.0372 -0.2287
  790MPD2    C111696   2.156   2.452  13.315 -0.0155  0.4759  0.7472
  790MPD2    C211697   2.089   2.334  13.297 -0.1575 -0.8445  0.7742
  790MPD2    C311698   2.012   2.318  13.184 -0.0935 -0.8205  0.0764
  790MPD2    C411699   2.014   2.424  13.090 -0.3225  0.2931  0.2695
  790MPD2    C511700   2.079   2.541  13.110 -0.3794 -0.1114  0.4041
  790MPD2     H11701   2.099   2.260  13.375  1.2212 -1.0458  0.4127
  790MPD2    H111702   1.949   2.424  13.004 -1.4680 -0.7960  1.1447
  790MPD2    H211703   2.191   2.649  13.257 -1.6752  0.6047  0.4589
  790MPD2    H311704   2.072   2.622  13.039 -0.9428 -0.5320 -0.0139
  790MPD2     N11705   1.953   2.197  13.162 -0.1285  0.0949 -0.1388
  790MPD2    H511706   1.980   2.124  13.227  2.7257  0.9487 -0.3510
  790MPD2    N111707   2.240   2.468  13.429 -0.2043  0.4269 -0.4155
  790MPD2    H711708   2.271   2.564  13.442 -1.8887  0.6761  1.8254
  791MPD2     C11709   1.391   1.934  12.607  0.3471 -0.8673 -0.1811
  791MPD2    C111710   1.402   1.867  12.722 -0.2625 -0.9221  0.4908
  791MPD2    C211711   1.290   1.793  12.760  0.4563  0.1360  0.3255
  791MPD2    C311712   1.175   1.788  12.689  0.4005  0.1512 -0.2159
  791MPD2    C411713   1.165   1.857  12.575  0.3575 -0.3290  0.4239
  791MPD2    C511714   1.270   1.931  12.533  0.5564 -0.3052 -0.0743
  791MPD2     H11715   1.302   1.730  12.847  1.0973 -0.1626  0.0175
  791MPD2    H111716   1.075   1.846  12.515 -0.1954 -0.8243  1.3467
  791MPD2    H211717   1.465   2.007  12.576  1.4908 -1.7954  0.3653
  791MPD2    H311718   1.266   1.983  12.438 -1.2857  1.3448  0.9054
  791MPD2     N11719   1.068   1.719  12.752 -0.0443  0.3097 -0.0439
  791MPD2    H511720   1.092   1.667  12.836  1.9738 -1.9380 -1.9963
  791MPD2    N111721   1.523   1.876  12.799 -0.3698 -0.4572 -0.5573
  791MPD2    H711722   1.597   1.923  12.747 -0.2097 -0.1030 -0.0107
  792MPD2     C11723   1.942   1.715  11.305  0.2924  0.5866 -0.0929
  792MPD2    C111724   1.868   1.726  11.192  0.0840 -0.1471 -0.0579
  792MPD2    C211725   1.728   1.748  11.195  0.2241 -0.1886  0.4131
  792MPD2    C311726   1.665   1.774  11.311  0.1747 -0.0357  0.3733
  792MPD2    C411727   1.740   1.768  11.428 -0.3000 -0.1241 -0.0438
  792MPD2    C511728   1.874   1.735  11.421  0.1050  1.1315  0.3669
  792MPD2     H11729   1.677   1.752  11.100  1.2389  1.6940 -0.0521
  792MPD2    H111730   1.701   1.782  11.529 -1.3150  2.0503 -0.7364
  792MPD2    H211731   2.050   1.713  11.312  0.1284 -0.9418  2.1897
  792MPD2    H311732   1.943   1.728  11.504 -0.8785 -0.2085  1.0690
  792MPD2     N11733   1.526   1.785  11.325  0.2119  0.4613  0.2501
  792MPD2    H511734   1.487   1.819  11.412 -1.3293 -0.4480 -0.0836
  792MPD2    N111735   1.946   1.720  11.073  0.4295 -0.5973  0.0006
  792MPD2    H711736   2.039   1.684  11.086  0.3377 -0.4210  1.1767
  793MPD2     C11737   1.045   1.562  10.595  1.0036 -0.0245 -0.1601
  793MPD2    C111738   1.173   1.577  10.642 -0.3413  0.2172 -0.2184
  793MPD2    C211739   1.195   1.631  10.768  0.0045 -0.0674 -0.4564
  793MPD2    C311740   1.086   1.664  10.842 -0.0645  0.3097  0.2329
  793MPD2    C411741   0.957   1.643  10.790  0.0224 -0.4957  0.1953
  793MPD2    C511742   0.936   1.597  10.662 -0.0948 -0.4333 -0.0766
  793MPD2     H11743   1.294   1.656  10.805  0.4408 -0.1300 -1.5881
  793MPD2    H111744   0.868   1.672  10.845  1.1920  1.1123  1.2293
  793MPD2    H211745   1.026   1.520  10.496 -1.7054 -0.4464  0.5281
  793MPD2    H311746   0.835   1.584  10.626  0.2631 -0.7422 -0.9642
  793MPD2     N11747   1.116   1.727  10.965  0.7343 -0.1154 -0.0771
  793MPD2    H511748   1.212   1.751  10.985 -0.3817  0.7168  4.1578
  793MPD2    N111749   1.287   1.541  10.581  0.1885  1.2647  0.2221
  793MPD2    H711750   1.372   1.548  10.636  0.0162  1.6191  0.4450
  794MPD2     C11751   1.555   1.200  17.489  0.0506 -0.1863 -0.5125
  794MPD2    C111752   1.606   1.126  17.383 -0.5082 -0.6965  0.1302
  794MPD2    C211753   1.586   1.187  17.256  0.1538  0.1303  0.7709
  794MPD2    C311754   1.544   1.319  17.244 -0.3436 -0.6340  0.7275
  794MPD2    C411755   1.508   1.386  17.359  0.5096  0.3263  0.0586
  794MPD2    C511756   1.506   1.322  17.481  0.1082 -0.0563  0.5865
  794MPD2     H11757   1.623   1.136  17.168 -0.1175 -0.1207  0.8038
  794MPD2    H111758   1.461   1.483  17.367  1.1318  0.7728 -1.8285
  794MPD2    H211759   1.581   1.153  17.584  0.3250 -0.3599 -0.6726
  794MPD2    H311760   1.475   1.381  17.567 -1.0798  2.1526 -1.3483
  794MPD2     N11761   1.522   1.387  17.121 -0.2611 -0.0180  0.1782
  794MPD2    H511762   1.487   1.482  17.126  1.1779  0.4646  1.0143
  794MPD2    N111763   1.668   0.995  17.386 -0.4396  0.6151  0.8565
  794MPD2    H711764   1.701   0.955  17.299  0.5054 -1.1452  2.0453
  795MPD2     C11765   4.438   3.469  13.095 -0.0334 -0.4267 -0.0125
  795MPD2    C111766   4.378   3.395  13.196 -0.3493  0.1217  0.3712
  795MPD2    C211767   4.460   3.304  13.265  0.0292  0.0180  0.3850
  795MPD2    C311768   4.589   3.280  13.232  0.5851  0.2410 -0.0401
  795MPD2    C411769   4.646   3.362  13.136  1.0341  0.1442 -0.0047
  795MPD2    C511770   4.568   3.452  13.064  0.6665  0.1532 -0.0225
  795MPD2     H11771   4.408   3.251  13.344  0.6136 -0.6690  0.3045
  795MPD2    H111772   0.006   3.334  13.103  0.7121  0.3050 -1.1046
  795MPD2    H211773   4.385   3.537  13.030 -0.8355 -2.8964 -1.9238
  795MPD2    H311774   4.602   3.495  12.971 -2.8634 -0.7754 -1.7129
  795MPD2     N11775   4.677   3.211  13.315  0.1422  0.6156 -0.0802
  795MPD2    H511776   0.034   3.234  13.295  0.2781 -0.6907 -0.9135
  795MPD2    N111777   4.248   3.422  13.241  0.0003  0.4205  0.1187
  795MPD2    H711778   4.214   3.373  13.323 -0.9444 -0.7449 -0.9641
  796MPD2     C11779   3.686   0.021  15.967 -0.2672  0.3544  0.3607
  796MPD2    C111780   3.766   0.104  16.046  0.2162  0.2373  0.8297
  796MPD2    C211781   3.748   0.245  16.037 -0.0690  0.3126 -0.3782
  796MPD2    C311782   3.665   0.299  15.938  0.1590  0.1870  0.6163
  796MPD2    C411783   3.600   0.219  15.844  0.1857 -0.6975 -0.3405
  796MPD2    C511784   3.614   0.083  15.866  0.7674  0.3084  0.8324
  796MPD2     H11785   3.805   0.308  16.103 -0.1647 -2.3912  2.2748
  796MPD2    H111786   3.533   0.259  15.768 -0.3731 -1.6235 -0.3370
  796MPD2    H211787   3.707   4.655  15.972 -0.8925  0.2852  1.4994
  796MPD2    H311788   3.565   0.013  15.800  2.1776  3.1129 -3.1822
  796MPD2     N11789   3.652   0.436  15.945 -0.2083 -0.2059 -0.5795
  796MPD2    H511790   3.703   0.487  16.016  0.4307  0.4320 -1.4923
  796MPD2    N111791   3.861   0.043  16.131  0.4216  0.2274 -0.0220
  796MPD2    H711792   3.858   4.683  16.150 -2.1504  0.7359  2.2182
  797MPD2     C11793   0.111   0.715  16.856  0.7075 -0.0191 -0.1787
  797MPD2    C111794   0.187   0.658  16.955 -0.6921  0.5741  0.4381
  797MPD2    C211795   0.293   0.581  16.913  0.4780 -0.1580 -0.2100
  797MPD2    C311796   0.311   0.546  16.779  0.3236  0.4591 -0.2833
  797MPD2    C411797   0.236   0.613  16.682 -0.5823 -0.5949  0.6669
  797MPD2    C511798   0.136   0.702  16.724 -0.4023 -0.0876  0.1581
  797MPD2     H11799   0.338   0.517  16.989  2.1251  0.7399 -0.4461
  797MPD2    H111800   0.243   0.588  16.577  0.5382  0.8985  0.3862
  797MPD2    H211801   0.023   0.771  16.888 -0.4784 -0.6356 -2.3588
  797MPD2    H311802   0.060   0.730  16.652 -0.2399 -0.8474 -0.3082
  797MPD2     N11803   0.394   0.444  16.732  0.1876  0.2185 -1.0650
  797MPD2    H511804   0.380   0.419  16.635  1.0839  1.0283 -1.4045
  797MPD2    N111805   0.164   0.663  17.096 -1.1090  0.0235  0.3489
  797MPD2    H711806   0.229   0.610  17.152  0.8246  2.0146 -0.0160
  798MPD2     C11807   4.638   0.112  16.751  0.3350 -0.7723  0.2759
  798MPD2    C111808   0.005   0.110  16.840 -0.1199 -0.0893  0.3012
  798MPD2    C211809   4.727   0.184  16.956  0.0145  0.0377  0.0269
  798MPD2    C311810   4.608   0.244  16.989 -0.7608 -0.2547  0.0458
  798MPD2    C411811   4.518   0.263  16.890 -0.4659 -0.1885  0.2447
  798MPD2    C511812   4.535   0.193  16.777 -0.0054 -0.0926  0.6907
  798MPD2     H11813   0.075   0.201  17.017 -0.9832  1.1079  1.1683
  798MPD2    H111814   4.427   0.321  16.903 -0.2482  0.1777  0.1539
  798MPD2    H211815   4.630   0.046  16.664 -0.7134 -2.3145  1.5403
  798MPD2    H311816   4.460   0.212  16.701  0.4044  2.2862  0.8734
  798MPD2     N11817   4.589   0.320  17.112  0.1941 -0.0627  0.1812
  798MPD2    H511818   4.505   0.375  17.124 -1.3623 -2.5750  0.9686
  798MPD2    N111819   0.124   0.047  16.794  0.2755 -0.1130  0.3268
  798MPD2    H711820   0.113   4.737  16.706 -0.9444  2.0826 -0.7644
  799MPD2     C11821   3.784   1.410  14.928 -0.8032  0.4265 -0.4141
  799MPD2    C111822   3.693   1.340  14.855 -0.5250 -0.0724 -0.0446
  799MPD2    C211823   3.621   1.408  14.756  0.7785  0.3160 -0.9686
  799MPD2    C311824   3.646   1.544  14.730  0.0594  0.1507 -0.2885
  799MPD2    C411825   3.744   1.605  14.796 -0.0659  0.2420 -0.8855
  799MPD2    C511826   3.818   1.540  14.895 -0.2031  0.0677 -0.2761
  799MPD2     H11827   3.542   1.355  14.703 -0.3278  0.7300  0.2517
  799MPD2    H111828   3.762   1.709  14.771 -0.1876  0.8878  1.6741
  799MPD2    H211829   3.838   1.370  15.013  0.0865  1.4529 -0.5006
  799MPD2    H311830   3.887   1.592  14.961 -3.0109 -0.1637  2.8526
  799MPD2     N11831   3.578   1.616  14.627  0.2062  0.3892  0.3982
  799MPD2    H511832   3.600   1.714  14.618 -3.2120  0.8503 -2.9584
  799MPD2    N111833   3.662   1.209  14.877  0.1118  0.8408 -0.1853
  799MPD2    H711834   3.591   1.176  14.812  0.3382  0.6743 -0.3470
  800MPD2     C11835   4.144   2.793  13.833 -0.3398 -0.3685  0.8555
  800MPD2    C111836   4.278   2.771  13.832  0.0041 -0.0455 -0.5300
  800MPD2    C211837   4.335   2.646  13.828  0.0873  0.2214 -0.0753
  800MPD2    C311838   4.248   2.540  13.847  0.1140  0.2200 -0.4724
  800MPD2    C411839   4.111   2.555  13.873  0.5247 -0.0484  0.7587
  800MPD2    C511840   4.063   2.682  13.850  0.1528  0.6560  0.1125
  800MPD2     H11841   4.440   2.626  13.806 -0.0652 -0.1668 -0.4571
  800MPD2    H111842   4.043   2.476  13.902  0.3946  0.1885  1.1010
  800MPD2    H211843   4.097   2.891  13.827  1.0922  0.3024  0.5516
  800MPD2    H311844   3.955   2.691  13.862  0.4355  2.7943  1.1150
  800MPD2     N11845   4.313   2.414  13.864 -0.0084  0.1298  0.2991
  800MPD2    H511846   4.414   2.420  13.853  0.2166 -3.7063  0.1596
  800MPD2    N111847   4.356   2.891  13.819  0.3964 -0.6889  0.3521
  800MPD2    H711848   4.301   2.977  13.815  1.6515  0.1600  1.3101
  801MPD2     C11849   4.304   3.591  13.996 -0.6655 -0.1108  0.1100
  801MPD2    C111850   4.268   3.457  14.009 -0.6458  0.0688 -0.2378
  801MPD2    C211851   4.152   3.430  14.082  0.0600 -0.1057  0.8455
  801MPD2    C311852   4.079   3.535  14.134 -0.2380 -0.5572 -0.2762
  801MPD2    C411853   4.120   3.663  14.133  0.2834 -0.0609  0.3026
  801MPD2    C511854   4.236   3.695  14.063 -0.5075 -0.3291 -0.3292
  801MPD2     H11855   4.120   3.326  14.084 -0.0665 -0.0412  1.8746
  801MPD2    H111856   4.081   3.744  14.194  3.2471  1.7614 -0.2228
  801MPD2    H211857   4.389   3.631  13.942 -1.7602  0.0116 -1.5083
  801MPD2    H311858   4.279   3.794  14.065 -0.0277 -0.5468  0.0684
  801MPD2     N11859   3.970   3.511  14.225  0.0529  0.3285  0.5000
  801MPD2    H511860   3.925   3.592  14.268 -0.0644 -0.4990  1.9359
  801MPD2    N111861   4.352   3.353  13.958 -0.4507 -0.0781  0.1552
  801MPD2    H711862   4.310   3.261  13.965 -1.2384  0.1887 -1.0593
  802MPD2     C11863   3.273   4.075  17.714 -0.1507 -0.1600 -0.2321
  802MPD2    C111864   3.254   3.989   0.064  0.4531 -0.2407 -0.0286
  802MPD2    C211865   3.316   3.864   0.059  0.3787  0.9745 -0.3132
  802MPD2    C311866   3.400   3.835  17.708 -0.3155  0.9392 -0.5439
  802MPD2    C411867   3.408   3.916  17.594 -0.2484 -0.2560  0.1098
  802MPD2    C511868   3.333   4.033  17.595 -0.3712  0.2993 -0.7760
  802MPD2     H11869   3.305   3.797   0.144  0.3638 -0.0108 -1.0906
  802MPD2    H111870   3.456   3.889  17.501 -2.0219  0.9014 -1.1309
  802MPD2    H211871   3.216   4.167  17.699  1.9696  1.1568 -0.2021
  802MPD2    H311872   3.326   4.102  17.512 -0.0869  2.5821  1.0907
  802MPD2     N11873   3.473   3.709  17.703  0.2115  0.9754  0.1756
  802MPD2    H511874   3.528   3.693  17.619  3.1287 -0.3740  2.3089
  802MPD2    N111875   3.178   4.032   0.182 -0.0761 -0.2006 -0.2415
  802MPD2    H711876   3.177   3.966   0.258 -1.5875  0.4101  0.2618
  803MPD2     C11877   4.153   1.395  12.136 -0.0658  0.8877 -0.2338
  803MPD2    C111878   4.157   1.524  12.188  0.0695  0.7202 -0.5436
  803MPD2    C211879   4.178   1.535  12.321 -0.0401  0.2319 -0.2018
  803MPD2    C311880   4.193   1.420  12.399  0.7892  0.3605  0.7545
  803MPD2    C411881   4.188   1.295  12.343 -0.5207 -0.5053  0.5309
  803MPD2    C511882   4.168   1.278  12.209 -0.8639  0.6883 -0.6957
  803MPD2     H11883   4.187   1.635  12.362  0.3522 -0.3073  1.0029
  803MPD2    H111884   4.209   1.206  12.401  1.5928 -1.1254 -1.1989
  803MPD2    H211885   4.152   1.379  12.028 -1.6865  0.2507 -0.1177
  803MPD2    H311886   4.160   1.182  12.160  0.8382  0.9511 -1.4883
  803MPD2     N11887   4.221   1.425  12.535  0.2780 -0.0004  0.5587
  803MPD2    H511888   4.259   1.338  12.572  1.6825  0.2577 -0.2465
  803MPD2    N111889   4.157   1.634  12.103  0.0784  0.4155 -0.1015
  803MPD2    H711890   4.213   1.714  12.132  1.2566 -0.9273  1.2980
  804MPD2     C11891   4.208   3.064  16.633  0.4552  0.6794 -0.2389
  804MPD2    C111892   4.170   3.077  16.761  0.8013 -0.1700  0.2195
  804MPD2    C211893   4.227   3.184  16.831 -0.3703  0.6524  0.5133
  804MPD2    C311894   4.322   3.277  16.779  0.8292  0.5426 -0.1005
  804MPD2    C411895   4.356   3.256  16.650 -0.1438  0.1357 -0.3381
  804MPD2    C511896   4.295   3.156  16.579  0.4418 -0.4813  0.8749
  804MPD2     H11897   4.199   3.193  16.936 -0.0014 -1.3083  0.7859
  804MPD2    H111898   4.439   3.305  16.600  0.7643 -0.3411  0.7083
  804MPD2    H211899   4.175   2.997  16.555  0.4526  1.1655 -0.6530
  804MPD2    H311900   4.315   3.137  16.474 -0.0221  0.9506  0.5311
  804MPD2     N11901   4.376   3.371  16.867 -0.2685 -0.1982  0.8294
  804MPD2    H511902   4.327   3.386  16.954 -2.4731  1.2067 -0.6326
  804MPD2    N111903   4.093   2.990  16.831 -0.1528 -0.2607  0.3248
  804MPD2    H711904   4.079   3.018  16.928 -1.3562 -0.5052  0.2212
  805MPD2     C11905   3.126   1.214  15.427 -0.1861 -0.0838  0.5101
  805MPD2    C111906   3.169   1.341  15.398 -0.1203 -0.2958  0.9447
  805MPD2    C211907   3.286   1.385  15.450 -0.4261  0.0973  0.6078
  805MPD2    C311908   3.351   1.318  15.551 -0.4662 -0.5992  0.3016
  805MPD2    C411909   3.302   1.189  15.576 -0.8554 -0.0524 -0.3790
  805MPD2    C511910   3.191   1.140  15.516 -0.9826  0.5896  0.2874
  805MPD2     H11911   3.328   1.482  15.424  0.4256 -0.7471 -1.2011
  805MPD2    H111912   3.354   1.129  15.649  0.2848  0.4083 -0.8055
  805MPD2    H211913   3.036   1.169  15.388 -0.6719  1.4481 -0.1508
  805MPD2    H311914   3.168   1.037  15.537  2.3010 -0.9144 -3.4831
  805MPD2     N11915   3.460   1.372  15.606 -1.2710 -0.0385  0.4235
  805MPD2    H511916   3.458   1.473  15.591 -0.2137 -0.1870 -0.7771
  805MPD2    N111917   3.114   1.430  15.307  0.1790  0.3057 -0.0238
  805MPD2    H711918   3.172   1.510  15.286 -0.7763  0.6630 -1.2800
  806MPD2     C11919   4.060   0.772   0.363  0.0952 -0.4307 -0.3384
  806MPD2    C111920   3.959   0.826   0.283  0.0622  0.4822  0.0927
  806MPD2    C211921   3.974   0.942   0.208  0.6702 -0.0433 -0.3367
  806MPD2    C311922   4.100   1.004   0.203  0.5279  0.3972  0.2703
  806MPD2    C411923   4.198   0.946   0.276 -0.6946  0.0918  0.3506
  806MPD2    C511924   4.185   0.837   0.357  0.1844 -0.1424  0.1402
  806MPD2     H11925   3.899   0.982   0.141  1.0431  1.5120  0.1835
  806MPD2    H111926   4.293   0.995   0.290 -1.4686  1.8169 -0.2856
  806MPD2    H211927   4.049   0.678   0.417  1.2249 -0.3784 -0.0283
  806MPD2    H311928   4.272   0.804   0.414  0.2642  1.2463  0.8262
  806MPD2     N11929   4.115   1.114   0.114 -0.5959 -0.4937  0.2428
  806MPD2    H511930   4.038   1.160   0.066  0.9077  2.3619  0.5720
  806MPD2    N111931   3.846   0.739   0.276 -0.5100  0.1355  0.0377
  806MPD2    H711932   3.844   0.654   0.331  0.8775  0.4091  0.5319
  807MPD2     C11933   3.106   0.678   0.382 -0.0637  0.3564 -0.1461
  807MPD2    C111934   3.242   0.693   0.413  0.7478  0.2341  0.3584
  807MPD2    C211935   3.282   0.731   0.540 -0.0776 -0.8046  0.3923
  807MPD2    C311936   3.192   0.749   0.644  0.1846  0.4037 -0.9912
  807MPD2    C411937   3.058   0.725   0.615 -0.5222 -0.5329 -0.2834
  807MPD2    C511938   3.014   0.691   0.485 -0.3777  0.3801 -0.3669
  807MPD2     H11939   3.388   0.746   0.560 -0.1157 -1.8933  1.3688
  807MPD2    H111940   2.977   0.730   0.686 -0.8622 -1.0216 -0.6369
  807MPD2    H211941   3.071   0.652   0.282 -0.0077 -0.0260 -0.0643
  807MPD2    H311942   2.911   0.692   0.454 -0.3521 -2.0377 -0.5030
  807MPD2     N11943   3.237   0.790   0.776 -0.4313 -0.3863 -0.3752
  807MPD2    H511944   3.336   0.813   0.783 -1.0510  1.7909  1.0490
  807MPD2    N111945   3.333   0.662   0.311 -0.0364  0.5427  0.0681
  807MPD2    H711946   3.432   0.666   0.332  0.0495 -0.1772 -0.1854
  808MPD2     C11947   4.703   2.256  10.340  0.2921 -0.4501  0.2287
  808MPD2    C111948   4.634   2.375  10.322  0.2744 -0.8018 -0.4223
  808MPD2    C211949   4.689   2.475  10.241  0.0881  0.1747  0.6593
  808MPD2    C311950   0.069   2.453  10.181 -1.1725  0.1061  0.2070
  808MPD2    C411951   0.138   2.337  10.198  0.1273  0.0132  0.6068
  808MPD2    C511952   0.089   2.241  10.282 -0.2311 -0.2030 -0.5776
  808MPD2     H11953   4.639   2.570  10.229 -1.5908 -0.6132  1.3491
  808MPD2    H111954   0.240   2.319  10.166  0.3727 -1.0201  1.9860
  808MPD2    H211955   4.669   2.173  10.401 -0.9972 -1.0134 -1.2712
  808MPD2    H311956   0.144   2.149  10.300 -0.6940 -0.1447  1.1496
  808MPD2     N11957   0.141   2.541  10.103  0.1675  0.6697 -0.2118
  808MPD2    H511958   0.240   2.532  10.084 -0.4035  0.0380 -2.7602
  808MPD2    N111959   4.506   2.401  10.379 -0.4012  0.2754 -0.5010
  808MPD2    H711960   4.469   2.495  10.379  0.4565  0.6156 -1.0496
  809MPD2     C11961   1.004   3.086  10.051  0.0592 -0.2440  0.2867
  809MPD2    C111962   0.939   3.004  10.140 -0.3292 -0.4788 -0.5092
  809MPD2    C211963   0.808   2.971  10.129 -0.4720 -0.0672 -0.1761
  809MPD2    C311964   0.736   3.003  10.010  0.2939 -0.3732 -0.4869
  809MPD2    C411965   0.798   3.101   9.928  0.3348  0.6104 -0.4274
  809MPD2    C511966   0.924   3.136   9.953  0.0381  0.5640 -0.0472
  809MPD2     H11967   0.773   2.893  10.196  2.4246 -0.1771  1.2135
  809MPD2    H111968   0.744   3.139   9.841  0.1663 -0.2547 -0.7029
  809MPD2    H211969   1.112   3.097  10.042  0.1695 -2.2019 -0.8135
  809MPD2    H311970   0.968   3.210   9.888 -0.3365 -0.3129 -1.3102
  809MPD2     N11971   0.605   2.966   9.984  0.4042  0.2298  0.0174
  809MPD2    H511972   0.570   3.001   9.896  1.4000 -2.2855 -1.3728
  809MPD2    N111973   1.006   2.937  10.241 -0.1687  0.4108 -0.0962
  809MPD2    H711974   0.954   2.883  10.310 -0.9809 -1.4408 -2.1386
  810MPD2     C11975   3.795   1.668  11.142 -0.3395  0.3756  0.2460
  810MPD2    C111976   3.698   1.655  11.046 -0.2018  0.4614 -0.8788
  810MPD2    C211977   3.595   1.746  11.035  0.4602  0.7830 -0.6917
  810MPD2    C311978   3.596   1.856  11.118 -0.7863  0.2450  0.2285
  810MPD2    C411979   3.693   1.864  11.216 -0.0660 -0.5468 -0.5578
  810MPD2    C511980   3.789   1.768  11.225  0.1791 -0.6697  0.4449
  810MPD2     H11981   3.521   1.728  10.958 -0.2426  1.4658 -0.1720
  810MPD2    H111982   3.701   1.945  11.287  0.6775  1.1397 -2.5964
  810MPD2    H211983   3.876   1.598  11.152 -0.6030  0.1028  0.4687
  810MPD2    H311984   3.863   1.773  11.304  0.3044  0.1138  0.2786
  810MPD2     N11985   3.504   1.961  11.097  0.5613  0.1521  0.0345
  810MPD2    H511986   3.500   2.044  11.156  1.0429  1.1766 -1.3821
  810MPD2    N111987   3.695   1.548  10.963 -0.6229  0.4332  0.3796
  810MPD2    H711988   3.616   1.552  10.899 -0.3245 -2.3252 -0.1634
  811MPD2     C11989   3.314   1.382  10.273 -0.2234  0.5671  0.0677
  811MPD2    C111990   3.360   1.455  10.385 -0.6047 -0.5309  0.4989
  811MPD2    C211991   3.343   1.593  10.387  0.0286  0.6208 -0.1562
  811MPD2    C311992   3.301   1.666  10.278  0.1280 -0.3936 -0.3466
  811MPD2    C411993   3.272   1.590  10.163 -0.2658  0.1550 -0.0957
  811MPD2    C511994   3.275   1.453  10.163  0.6159 -0.2482 -0.2020
  811MPD2     H11995   3.366   1.645  10.479 -0.6057 -0.9129  0.8685
  811MPD2    H111996   3.234   1.634  10.071 -1.2234  1.0574  0.7365
  811MPD2    H211997   3.308   1.274  10.260 -0.6954  0.5903  0.0770
  811MPD2    H311998   3.226   1.402  10.082 -0.3902 -0.2079  0.3790
  811MPD2     N11999   3.302   1.807  10.288 -0.3262  0.1615  1.1458
  811MPD2    H512000   3.327   1.840  10.380  1.1143 -0.5094  1.0011
  811MPD2    N112001   3.411   1.381  10.496  0.0694  0.2930 -0.2770
  811MPD2    H712002   3.393   1.281  10.489  1.5990  0.0864 -1.1481
  812MPD2     C12003   2.748   1.488  12.109 -0.0862  0.0474 -0.0491
  812MPD2    C112004   2.728   1.603  12.189 -0.6011 -0.3784 -0.1367
  812MPD2    C212005   2.729   1.591  12.334  0.2665  0.2367  0.3000
  812MPD2    C312006   2.756   1.469  12.389  0.7075  0.6284 -0.3018
  812MPD2    C412007   2.787   1.359  12.307  0.3914  1.0081  0.4349
  812MPD2    C512008   2.778   1.368  12.174  0.1732 -0.3372 -0.1296
  812MPD2     H12009   2.700   1.674  12.398  2.2393 -0.9826  2.7381
  812MPD2    H112010   2.812   1.263  12.350  0.1320  0.6997 -0.1047
  812MPD2    H212011   2.739   1.500  12.002 -0.7816  0.4395  0.0543
  812MPD2    H312012   2.785   1.277  12.115 -2.5915 -0.4647 -0.2434
  812MPD2     N12013   2.755   1.461  12.531  0.3138  0.0358  0.1471
  812MPD2    H512014   2.731   1.541  12.588 -1.6756  0.1198 -0.8145
  812MPD2    N112015   2.711   1.728  12.128  0.3222  0.0411  0.2357
  812MPD2    H712016   2.729   1.734  12.028  0.3874  0.2670  0.2607
  813MPD2     C12017   1.149   3.440  12.791  0.4478  0.8561  0.3663
  813MPD2    C112018   1.239   3.500  12.876  1.0014 -0.3623  0.3119
  813MPD2    C212019   1.197   3.544  13.002 -0.2405  0.3965  0.1579
  813MPD2    C312020   1.066   3.534  13.036 -0.4421 -0.3991  0.3235
  813MPD2    C412021   0.972   3.471  12.958  0.1034  0.4879  0.5887
  813MPD2    C512022   1.019   3.424  12.840  0.0795 -0.0578 -0.0896
  813MPD2     H12023   1.259   3.610  13.062  2.2046 -0.5804 -1.2780
  813MPD2    H112024   0.864   3.478  12.970  0.1951  0.3311  1.5493
  813MPD2    H212025   1.173   3.400  12.694  1.2684  2.4711 -0.0942
  813MPD2    H312026   0.946   3.386  12.769 -2.3485  2.4090  1.0843
  813MPD2     N12027   1.022   3.592  13.154 -0.1335  0.4216  0.3695
  813MPD2    H512028   1.092   3.649  13.199  0.4201  1.1185 -1.3737
  813MPD2    N112029   1.370   3.527  12.834 -0.1753 -0.2095 -0.5335
  813MPD2    H712030   1.386   3.535  12.734 -1.3316 -0.0297 -0.7126
  814MPD2     C12031   1.790   4.676  12.384 -0.0155 -0.0866 -0.4106
  814MPD2    C112032   1.874   4.716  12.291 -0.1453  0.0704  0.7102
  814MPD2    C212033   1.932   0.096  12.317 -0.6633 -0.3874 -0.1082
  814MPD2    C312034   1.926   0.156  12.441  0.5047 -0.8571 -0.3904
  814MPD2    C412035   1.851   0.101  12.541 -0.5406  0.3071 -0.1550
  814MPD2    C512036   1.770   4.734  12.503 -0.0579  0.6005 -0.3274
  814MPD2     H12037   1.986   0.137  12.231 -0.8533  1.6336  0.7463
  814MPD2    H112038   1.845   0.147  12.639  0.1979 -1.9611  0.9573
  814MPD2    H212039   1.736   4.583  12.368  1.8156 -1.4661  1.3476
  814MPD2    H312040   1.701   4.696  12.577 -1.8693  2.3943 -1.0944
  814MPD2     N12041   1.990   0.278  12.477 -0.1525 -0.3332 -0.2585
  814MPD2    H512042   1.983   0.298  12.576 -0.5696  3.1269 -0.9873
  814MPD2    N112043   1.882   4.654  12.165 -0.4200 -0.1609  0.1355
  814MPD2    H712044   1.953   4.686  12.100 -1.3545 -1.8738 -1.7254
  815MPD2     C12045   2.878   3.094  11.943  0.3676 -0.3684  0.0255
  815MPD2    C112046   2.765   3.039  11.896 -0.0613 -0.8285 -0.3825
  815MPD2    C212047   2.647   3.090  11.955  0.6740 -0.6138  0.1617
  815MPD2    C312048   2.645   3.206  12.034  0.3815 -0.0846  0.1097
  815MPD2    C412049   2.766   3.257  12.078  0.0300  0.2428 -0.1887
  815MPD2    C512050   2.878   3.195  12.034 -0.0747 -0.1412  0.1359
  815MPD2     H12051   2.553   3.041  11.933  0.0504  1.1408 -1.0732
  815MPD2    H112052   2.772   3.349  12.135 -0.2033  0.8463 -1.1300
  815MPD2    H212053   2.974   3.053  11.913  0.8269  0.5161  0.3097
  815MPD2    H312054   2.971   3.230  12.079  0.6523 -1.0058 -0.6986
  815MPD2     N12055   2.523   3.255  12.074  0.2561 -0.2081 -0.3919
  815MPD2    H512056   2.444   3.193  12.055  0.7462 -0.5686 -1.2617
  815MPD2    N112057   2.763   2.924  11.811  0.1730  0.2164 -0.3093
  815MPD2    H712058   2.850   2.872  11.800 -1.6476 -2.8619 -0.2887
  816MPD2     C12059   3.056   2.429  17.188 -0.2220 -0.0840 -0.5619
  816MPD2    C112060   3.006   2.537  17.109 -0.6303  0.1195 -0.0888
  816MPD2    C212061   3.051   2.549  16.976  0.5463  0.2830  0.0073
  816MPD2    C312062   3.126   2.446  16.920 -0.1176  0.0008  0.4339
  816MPD2    C412063   3.158   2.338  17.003 -0.4402 -0.1603 -0.3991
  816MPD2    C512064   3.132   2.337  17.133 -0.3127  0.5982  0.5195
  816MPD2     H12065   3.023   2.636  16.918  0.5128 -0.1525 -0.6412
  816MPD2    H112066   3.204   2.248  16.964 -0.0769  0.1201 -0.6216
  816MPD2    H212067   3.032   2.420  17.294 -0.4729  0.2751 -0.5893
  816MPD2    H312068   3.158   2.252  17.196 -0.1461  1.9198  2.2523
  816MPD2     N12069   3.171   2.451  16.785 -0.0900 -0.0154 -0.0122
  816MPD2    H512070   3.132   2.528  16.732 -0.3311 -0.2466 -0.1727
  816MPD2    N112071   2.911   2.619  17.167 -0.4747 -0.3795  0.2668
  816MPD2    H712072   2.907   2.606  17.268  3.5008 -1.5186  0.2864
  817MPD2     C12073   2.213   4.286   9.943 -0.8342  0.2728  0.2811
  817MPD2    C112074   2.178   4.203   9.831 -0.0038  0.3363 -0.0632
  817MPD2    C212075   2.058   4.232   9.764  0.4752 -0.2597 -0.8857
  817MPD2    C312076   1.975   4.338   9.807 -0.2216  0.4063 -0.0157
  817MPD2    C412077   2.021   4.424   9.907  0.6109  0.4182  0.0767
  817MPD2    C512078   2.144   4.402   9.960 -0.2620 -0.0337  0.0548
  817MPD2     H12079   2.024   4.171   9.682 -0.2158 -0.8202 -0.1867
  817MPD2    H112080   1.962   4.510   9.934  0.4814  0.1446  0.6626
  817MPD2    H212081   2.308   4.268   9.993  0.7200  0.6014 -2.5273
  817MPD2    H312082   2.178   4.475  10.032  0.0762  0.5446 -0.6947
  817MPD2     N12083   1.852   4.362   9.736  0.0963 -0.7830  0.1861
  817MPD2    H512084   1.827   4.293   9.666  0.5037  0.8079 -1.5431
  817MPD2    N112085   2.242   4.081   9.806 -0.3219  0.0215  0.0069
  817MPD2    H712086   2.194   4.024   9.737  1.6689 -0.8842 -0.6352
  818MPD2     C12087   1.398   3.963  10.534  0.1975 -0.0494  0.3314
  818MPD2    C112088   1.263   3.950  10.551  0.0634 -0.2511 -0.2469
  818MPD2    C212089   1.209   3.827  10.517  0.1372 -0.2763 -0.2872
  818MPD2    C312090   1.287   3.731  10.458  0.6569 -0.6007  0.1901
  818MPD2    C412091   1.421   3.758  10.437  0.3045  0.3277  0.0072
  818MPD2    C512092   1.479   3.875  10.469 -0.2376 -0.5782 -0.2898
  818MPD2     H12093   1.103   3.812  10.533 -0.0347  0.7605 -0.4441
  818MPD2    H112094   1.484   3.678  10.401  0.3626  1.3874 -2.2643
  818MPD2    H212095   1.454   4.053  10.558 -0.8056  0.6313  0.0926
  818MPD2    H312096   1.581   3.903  10.448 -0.1275  1.8932  3.5276
  818MPD2     N12097   1.229   3.604  10.426 -0.2338  0.2041  0.6333
  818MPD2    H512098   1.296   3.539  10.388  0.2361  2.2885 -2.1265
  818MPD2    N112099   1.177   4.053  10.603 -0.4505  0.0464  0.3049
  818MPD2    H712100   1.080   4.028  10.620  0.1660 -1.5717  1.4036
  819MPD2     C12101   3.991   1.360  15.564 -0.5939  0.2279  0.3112
  819MPD2    C112102   3.971   1.236  15.622  0.6644  0.5002 -0.1935
  819MPD2    C212103   4.036   1.205  15.743 -0.1410 -0.6421  0.4644
  819MPD2    C312104   4.151   1.276  15.780 -0.0979  0.0227 -0.2881
  819MPD2    C412105   4.178   1.399  15.723 -0.4316 -0.0675 -0.0340
  819MPD2    C512106   4.094   1.433  15.620 -0.2782 -0.0948 -0.5642
  819MPD2     H12107   4.020   1.110  15.792 -1.2438 -0.4521  0.4549
  819MPD2    H112108   4.261   1.464  15.747  0.5786 -1.0367 -0.9211
  819MPD2    H212109   3.937   1.396  15.478 -0.4398  2.8939  1.3275
  819MPD2    H312110   4.101   1.532  15.577 -1.4921 -0.3222 -1.2833
  819MPD2     N12111   4.231   1.215  15.874 -0.5621  0.0265  0.1811
  819MPD2    H512112   4.208   1.118  15.894  2.1044 -0.7708 -0.6465
  819MPD2    N112113   3.867   1.160  15.565  0.1013 -0.0541  0.0053
  819MPD2    H712114   3.836   1.185  15.472 -0.2191  0.4600  0.2534
  820MPD2     C12115   3.150   0.979  14.876  0.1680  0.3956  0.5401
  820MPD2    C112116   3.215   1.095  14.918  0.7159  0.1282 -0.5681
  820MPD2    C212117   3.295   1.086  15.032  0.4480  0.2236  0.0442
  820MPD2    C312118   3.336   0.959  15.079 -0.0498 -0.0314 -0.3931
  820MPD2    C412119   3.276   0.847  15.030 -0.8669  0.0984  0.3530
  820MPD2    C512120   3.179   0.855  14.935 -0.0960 -0.5223  0.0391
  820MPD2     H12121   3.324   1.178  15.080  0.1949  1.2721 -1.7872
  820MPD2    H112122   3.310   0.751  15.067  4.6394  0.9155 -2.4838
  820MPD2    H212123   3.074   0.988  14.800 -0.2997 -0.1195  0.9499
  820MPD2    H312124   3.124   0.772  14.892  0.9020 -0.8522 -0.6147
  820MPD2     N12125   3.427   0.939  15.184 -0.0015 -0.2353 -0.1636
  820MPD2    H512126   3.433   0.843  15.215 -2.6249 -0.0060  1.0976
  820MPD2    N112127   3.166   1.208  14.865 -0.1393 -0.7770  0.3325
  820MPD2    H712128   3.085   1.200  14.804 -0.2793 -1.3815  0.5966
  821MPD2     C12129   4.594   1.725  13.658 -0.2586  0.4373  0.2084
  821MPD2    C112130   4.637   1.854  13.675 -0.2341 -0.4742 -0.5159
  821MPD2    C212131   4.713   1.921  13.581  0.3637  0.1900 -0.4235
  821MPD2    C312132   0.005   1.857  13.466 -0.1762 -0.9533  0.0860
  821MPD2    C412133   4.710   1.726  13.446 -0.5474  0.2039  0.3876
  821MPD2    C512134   4.628   1.663  13.539 -0.2273  0.7653 -0.6586
  821MPD2     H12135   4.737   2.025  13.596  1.0010 -0.2123  1.3152
  821MPD2    H112136   4.734   1.666  13.359 -1.2269 -2.7131  2.2072
  821MPD2    H212137   4.534   1.669  13.728  0.8337 -1.6848 -0.5318
  821MPD2    H312138   4.592   1.563  13.517 -0.2914  0.5880  0.2425
  821MPD2     N12139   0.069   1.929  13.362 -0.0703 -0.0354  0.2179
  821MPD2    H512140   0.106   1.883  13.280  0.1258 -0.8133  0.7349
  821MPD2    N112141   4.601   1.935  13.787 -0.4889  0.1981 -0.2645
  821MPD2    H712142   4.640   2.029  13.792  0.9934 -0.5323  1.8450
  822MPD2     C12143   0.527   2.435  15.796 -1.4469 -1.0067  0.8553
  822MPD2    C112144   0.551   2.430  15.935 -1.0799 -0.0505  0.1542
  822MPD2    C212145   0.464   2.512  16.011 -0.4116  0.0322 -0.1011
  822MPD2    C312146   0.358   2.578  15.957 -0.6896  0.1976  0.7471
  822MPD2    C412147   0.343   2.593  15.817  0.2713 -0.2215 -0.0499
  822MPD2    C512148   0.432   2.520  15.742  0.0231 -0.2382  0.1586
  822MPD2     H12149   0.480   2.506  16.118 -2.8031  1.5534  0.3460
  822MPD2    H112150   0.269   2.656  15.769 -2.6244 -2.2904  1.7493
  822MPD2    H212151   0.592   2.383  15.727  0.4232  1.1984  0.9186
  822MPD2    H312152   0.419   2.511  15.635 -0.7490 -1.8002  0.3845
  822MPD2     N12153   0.278   2.655  16.050 -0.4462 -0.3176  0.3956
  822MPD2    H512154   0.280   2.629  16.148  0.9471  1.2271  0.7799
  822MPD2    N112155   0.658   2.362  15.999  0.2576 -0.2671  0.0251
  822MPD2    H712156   0.663   2.380  16.098  1.1559  1.7914 -0.3888
  823MPD2     C12157   4.469   2.768  16.715 -0.0684  0.3946  0.5302
  823MPD2    C112158   4.578   2.726  16.645 -0.2185 -0.1364 -0.1263
  823MPD2    C212159   4.672   2.651  16.708 -0.4830 -0.6202 -0.4108
  823MPD2    C312160   4.646   2.611  16.838 -0.1844  0.2577  0.7955
  823MPD2    C412161   4.534   2.652  16.905  0.3330  0.4522  0.0659
  823MPD2    C512162   4.450   2.741  16.849  0.1227 -0.3865 -0.0406
  823MPD2     H12163   0.020   2.608  16.661  0.4885  1.9537 -0.9270
  823MPD2    H112164   4.522   2.623  17.009 -0.5504 -1.6810 -0.6307
  823MPD2    H212165   4.402   2.839  16.669  0.6723  1.4945  1.1607
  823MPD2    H312166   4.365   2.789  16.898  0.9254  0.2781  0.6964
  823MPD2     N12167   0.001   2.531  16.909  0.3445  0.2700  0.2854
  823MPD2    H512168   4.715   2.500  17.003  2.0083 -0.4078  0.5136
  823MPD2    N112169   4.581   2.752  16.509  0.3529  1.0150 -0.3930
  823MPD2    H712170   4.529   2.829  16.468  0.3897  0.9567 -0.5472
  824MPD2     C12171   1.169   1.696  16.046 -0.4456  0.4692  0.1086
  824MPD2    C112172   1.111   1.786  15.957 -0.5019  0.0999  0.0374
  824MPD2    C212173   1.082   1.753  15.827 -0.0791  0.1967 -0.0793
  824MPD2    C312174   1.110   1.625  15.779  0.1687 -0.2627 -0.6970
  824MPD2    C412175   1.164   1.535  15.868  0.0512  0.8179  0.3819
  824MPD2    C512176   1.192   1.570  16.004  0.0597  0.3160  0.2166
  824MPD2     H12177   1.045   1.830  15.760  0.6566 -0.0177 -0.7237
  824MPD2    H112178   1.204   1.442  15.828 -2.0126  0.0929  0.0088
  824MPD2    H212179   1.212   1.720  16.143 -1.5029 -3.0172  1.4370
  824MPD2    H312180   1.239   1.493  16.065  2.4237  1.0316 -0.7125
  824MPD2     N12181   1.093   1.606  15.638  0.2312  0.0106  0.5968
  824MPD2    H512182   1.060   1.688  15.588 -0.8808  0.9973  2.9384
  824MPD2    N112183   1.062   1.913  15.991  0.2104  0.3610 -0.6137
  824MPD2    H712184   1.015   1.960  15.913 -0.5884 -2.0348 -1.5689
  825MPD2     C12185   1.343   1.695  14.807 -0.1081 -0.7282 -0.9901
  825MPD2    C112186   1.339   1.746  14.932 -0.1702  0.3512  0.2281
  825MPD2    C212187   1.424   1.852  14.962 -0.0818 -0.5610 -0.2354
  825MPD2    C312188   1.508   1.915  14.869 -0.1377  0.2508  0.0771
  825MPD2    C412189   1.505   1.859  14.740 -0.2992  0.2162 -0.1528
  825MPD2    C512190   1.429   1.748  14.710  0.0590 -0.2338  0.5892
  825MPD2     H12191   1.433   1.890  15.063  0.1318 -0.1026 -0.4284
  825MPD2    H112192   1.569   1.898  14.662 -0.9256 -0.4423 -1.0050
  825MPD2    H212193   1.285   1.609  14.776 -1.7880  0.2855 -0.6979
  825MPD2    H312194   1.421   1.716  14.606 -3.2987 -0.0678  0.8072
  825MPD2     N12195   1.593   2.030  14.891 -0.4033 -0.0208 -0.3288
  825MPD2    H512196   1.654   2.062  14.816  0.3101 -0.7580 -0.0531
  825MPD2    N112197   1.262   1.673  15.021  0.0773 -0.6787 -0.9309
  825MPD2    H712198   1.203   1.600  14.980  0.0981 -1.1424 -0.1346
  826MPD2     C12199   0.843   1.247  13.953 -0.1370  0.6177  0.3277
  826MPD2    C112200   0.718   1.244  13.891  0.7140  0.0978  0.7376
  826MPD2    C212201   0.629   1.347  13.907 -0.0396  0.0564  0.5307
  826MPD2    C312202   0.669   1.463  13.968 -0.5573  0.6750  0.3015
  826MPD2    C412203   0.787   1.457  14.033 -0.0438  0.3041 -0.3134
  826MPD2    C512204   0.879   1.354  14.023 -0.5896  0.6209 -0.2901
  826MPD2     H12205   0.532   1.345  13.858  0.4167  2.5974 -0.4998
  826MPD2    H112206   0.830   1.546  14.078  1.7380 -0.0961 -1.2165
  826MPD2    H212207   0.921   1.175  13.932  2.1307  2.9863  0.6234
  826MPD2    H312208   0.980   1.362  14.064  1.0656  0.0290 -4.2458
  826MPD2     N12209   0.597   1.585  13.983  0.1087  0.4980  0.2813
  826MPD2    H512210   0.644   1.656  14.038 -0.0479 -0.7589  2.0235
  826MPD2    N112211   0.695   1.130  13.805  0.0012  0.1444  0.7303
  826MPD2    H712212   0.764   1.056  13.797 -0.8240 -0.5383 -0.1117
  827MPD2     C12213   1.611   2.240  10.300 -0.6520 -0.2910  0.6083
  827MPD2    C112214   1.530   2.265  10.405  0.1481  0.4279  0.2776
  827MPD2    C212215   1.396   2.275  10.388 -0.5631 -0.8006 -0.3137
  827MPD2    C312216   1.340   2.240  10.273  0.1777  0.4355 -0.1241
  827MPD2    C412217   1.419   2.199  10.164  0.0722 -0.2525  0.0651
  827MPD2    C512218   1.556   2.200  10.177 -0.4573 -0.6297 -0.4137
  827MPD2     H12219   1.327   2.307  10.465  1.0236  2.2811 -0.1611
  827MPD2    H112220   1.370   2.160  10.076 -0.2230  0.9601 -0.2982
  827MPD2    H212221   1.718   2.240  10.311 -0.7234  0.4845  1.2601
  827MPD2    H312222   1.623   2.168  10.097  1.1371 -1.2308  1.1686
  827MPD2     N12223   1.192   2.250  10.263 -0.1640 -0.0755  0.0522
  827MPD2    H512224   1.148   2.273  10.351  2.3112  0.8358  1.0679
  827MPD2    N112225   1.591   2.304  10.529 -0.0388  0.2112  0.3378
  827MPD2    H712226   1.692   2.314  10.529 -0.1129  0.9600 -0.4752
  828MPD2     C12227   0.015   2.629  12.320 -0.5300  0.3068  0.1467
  828MPD2    C112228   4.628   2.664  12.271  0.7997 -0.1489 -0.4036
  828MPD2    C212229   4.595   2.633  12.137 -0.5893 -0.3623 -0.1840
  828MPD2    C312230   4.690   2.564  12.054  0.7476  0.0261 -0.1966
  828MPD2    C412231   0.067   2.530  12.113  0.0936 -0.0937  0.1307
  828MPD2    C512232   0.104   2.564  12.241 -0.8842  0.0728  0.7749
  828MPD2     H12233   4.496   2.648  12.096  0.4538  1.1795 -2.1639
  828MPD2    H112234   0.142   2.476  12.056  1.3031  0.8890  0.7812
  828MPD2    H212235   0.040   2.654  12.423  1.7137 -0.5737 -0.1751
  828MPD2    H312236   0.198   2.537  12.288 -0.6137  0.4022  0.4268
  828MPD2     N12237   4.677   2.533  11.912  0.0184 -0.1611  0.0656
  828MPD2    H512238   0.018   2.489  11.870 -1.0596 -1.2096 -0.8724
  828MPD2    N112239   4.539   2.740  12.344  0.8109  0.1550 -0.0248
  828MPD2    H712240   4.461   2.775  12.289  1.2381  0.4209 -0.4623
  829MPD2     C12241   3.936   3.124  11.952  0.3648 -0.0805  0.2211
  829MPD2    C112242   3.866   3.105  12.067  0.0063 -0.3566 -0.7102
  829MPD2    C212243   3.939   3.063  12.183  0.4167 -0.4834 -0.0213
  829MPD2    C312244   4.078   3.040  12.175  0.2729 -0.5707 -0.9150
  829MPD2    C412245   4.142   3.061  12.060  0.3910  0.7411  0.7558
  829MPD2    C512246   4.069   3.100  11.951 -0.5703 -0.3116  0.5478
  829MPD2     H12247   3.879   3.048  12.272 -1.0586 -0.6362 -1.0399
  829MPD2    H112248   4.250   3.050  12.049  0.2089 -0.8627  0.5815
  829MPD2    H212249   3.884   3.141  11.858  1.2948  2.8779  0.2230
  829MPD2    H312250   4.119   3.116  11.856 -1.1954  0.0273  0.2790
  829MPD2     N12251   4.157   2.997  12.289 -0.0795  0.2828 -0.0533
  829MPD2    H512252   4.248   2.965  12.261  0.0409 -0.7978  1.6013
  829MPD2    N112253   3.731   3.124  12.055  0.5117 -0.0113 -0.2763
  829MPD2    H712254   3.701   3.137  11.959 -0.6792 -0.4254  0.0396
  830MPD2     C12255   0.251   0.828  15.891  0.7290  0.4644  0.0176
  830MPD2    C112256   0.132   0.869  15.819  0.4561  0.2364  0.5375
  830MPD2    C212257   0.128   0.901  15.687  0.8404 -0.3677 -0.2889
  830MPD2    C312258   0.247   0.904  15.621 -0.5997  0.2700 -0.3976
  830MPD2    C412259   0.363   0.871  15.688  0.2017 -0.1379  0.3904
  830MPD2    C512260   0.366   0.837  15.814  0.2512  0.1555  0.0160
  830MPD2     H12261   0.039   0.923  15.630  0.2750  1.6785  1.3896
  830MPD2    H112262   0.458   0.873  15.636  0.0160 -0.7646  0.0260
  830MPD2    H212263   0.262   0.807  15.997 -0.0847 -0.5321 -0.1012
  830MPD2    H312264   0.462   0.822  15.862  0.4289 -0.1265 -0.4262
  830MPD2     N12265   0.256   0.955  15.495  0.1039  0.0126  0.1650
  830MPD2    H512266   0.345   0.952  15.446 -0.1919 -0.6468 -0.3414
  830MPD2    N112267   0.018   0.888  15.903  0.1031 -0.4924 -0.2953
  830MPD2    H712268   0.031   0.881  16.004 -0.3116  2.6648 -0.0242
  831MPD2     C12269   0.382   2.892  16.395  0.7696 -0.0976  0.0793
  831MPD2    C112270   0.437   2.787  16.330 -0.2478 -0.7761  0.7990
  831MPD2    C212271   0.392   2.662  16.357 -0.1750 -0.0277  0.4099
  831MPD2    C312272   0.303   2.640  16.458  0.6773  0.3599 -0.1986
  831MPD2    C412273   0.258   2.747  16.530 -0.1686  0.5613 -0.6827
  831MPD2    C512274   0.292   2.871  16.495 -0.0051 -0.1630 -0.1458
  831MPD2     H12275   0.431   2.580  16.298  3.3353 -0.0048  2.6560
  831MPD2    H112276   0.182   2.737  16.607 -1.4880 -2.9719 -2.4644
  831MPD2    H212277   0.414   2.994  16.374 -0.1793  0.4615  1.3398
  831MPD2    H312278   0.243   2.950  16.551  0.4029  0.0065 -0.0291
  831MPD2     N12279   0.258   2.514  16.486 -0.1068 -0.6153 -0.5068
  831MPD2    H512280   0.204   2.489  16.568 -0.9411 -0.1555 -0.9183
  831MPD2    N112281   0.534   2.811  16.230 -0.3910  0.4790  0.4035
  831MPD2    H712282   0.547   2.909  16.206  0.2126  0.4050  0.4242
  832MPD2     C12283   3.462   3.378  17.083  0.2119  0.4203 -0.0697
  832MPD2    C112284   3.426   3.493  17.025 -0.4512 -0.1938  0.1210
  832MPD2    C212285   3.362   3.494  16.902 -0.2139  0.2609 -0.9710
  832MPD2    C312286   3.329   3.374  16.845 -0.3657  0.2085  1.0582
  832MPD2    C412287   3.364   3.255  16.907  0.8347 -0.8590 -0.8192
  832MPD2    C512288   3.440   3.258  17.016 -0.8902 -0.2127 -0.2907
  832MPD2     H12289   3.315   3.588  16.874  0.3196 -0.4789 -4.3808
  832MPD2    H112290   3.330   3.164  16.859 -0.6739  0.2740 -1.9224
  832MPD2    H212291   3.528   3.370  17.169  0.5224 -1.0256 -0.4370
  832MPD2    H312292   3.483   3.172  17.066  0.8127  0.4018 -0.7117
  832MPD2     N12293   3.248   3.372  16.729 -0.0826 -0.8628 -0.9326
  832MPD2    H512294   3.235   3.287  16.676  2.0166 -1.9245  0.2562
  832MPD2    N112295   3.461   3.615  17.091  0.7134  0.0623 -0.2426
  832MPD2    H712296   3.507   3.609  17.181  0.0205 -1.7640 -0.0267
  833MPD2     C12297   0.217   0.223  12.525 -0.5424  0.1410  0.3215
  833MPD2    C112298   0.224   0.360  12.503  0.6869  0.7598  0.0751
  833MPD2    C212299   0.350   0.413  12.484 -0.3712 -0.0233  0.3753
  833MPD2    C312300   0.466   0.337  12.467  0.0002  0.1721  0.1905
  833MPD2    C412301   0.461   0.201  12.487  0.1904  0.2456  0.3825
  833MPD2    C512302   0.333   0.147  12.517  0.0511 -0.2182 -0.2373
  833MPD2     H12303   0.356   0.519  12.459 -3.4218 -0.5413 -2.6276
  833MPD2    H112304   0.547   0.135  12.480  1.4872  2.0694 -0.7801
  833MPD2    H212305   0.121   0.179  12.550  0.7848 -4.1288 -1.9823
  833MPD2    H312306   0.326   0.040  12.534 -1.3226 -0.2198 -0.8608
  833MPD2     N12307   0.582   0.408  12.457  0.3918 -0.2517  0.0161
  833MPD2    H512308   0.580   0.506  12.484 -0.1173 -0.8245  2.0797
  833MPD2    N112309   0.102   0.441  12.517 -0.1146  0.2599 -0.0399
  833MPD2    H712310   0.018   0.393  12.547  0.6578 -1.1114 -0.0887
  834MPD2     C12311   0.867   0.632  11.654 -0.1384 -0.2236  0.3713
  834MPD2    C112312   0.799   0.520  11.700 -0.6041  0.0117 -0.3459
  834MPD2    C212313   0.800   0.498  11.833 -0.4984  0.1077 -0.1636
  834MPD2    C312314   0.882   0.576  11.915  0.6303 -0.4147  0.1274
  834MPD2    C412315   0.975   0.661  11.867 -0.0080 -0.4444 -0.3676
  834MPD2    C512316   0.957   0.704  11.734 -0.1177  0.9810 -0.6989
  834MPD2     H12317   0.750   0.411  11.873  1.0534 -0.6866  0.0653
  834MPD2    H112318   1.042   0.721  11.928  0.5263 -0.8677 -0.5310
  834MPD2    H212319   0.858   0.657  11.549  0.5484 -0.2541  0.3043
  834MPD2    H312320   1.020   0.778  11.688  0.2637  1.0200 -0.1085
  834MPD2     N12321   0.875   0.559  12.054 -0.0258  0.3447 -0.1702
  834MPD2    H512322   0.806   0.490  12.082 -0.0289  1.5343  2.7117
  834MPD2    N112323   0.715   0.444  11.617 -0.7213  0.0479  0.2751
  834MPD2    H712324   0.668   0.364  11.657  1.0985 -0.0348  2.2232
  835MPD2     C12325   0.260   2.772  11.018  0.0686  0.4638 -0.4677
  835MPD2    C112326   0.194   2.811  11.134  0.1286  0.3857 -0.1503
  835MPD2    C212327   0.269   2.842  11.242  0.4117 -0.3574  0.3473
  835MPD2    C312328   0.406   2.836  11.233  0.0094 -0.5913  0.4769
  835MPD2    C412329   0.465   2.804  11.114  0.6353  0.0481  0.3958
  835MPD2    C512330   0.397   2.772  11.005  0.0925  0.0062 -0.3402
  835MPD2     H12331   0.217   2.869  11.333 -2.7754  0.1910 -1.6259
  835MPD2    H112332   0.573   2.794  11.105  0.9295  1.0023  2.8490
  835MPD2    H212333   0.202   2.752  10.929 -1.4657  0.8174  0.4562
  835MPD2    H312334   0.448   2.741  10.915  0.9705  0.2778  0.0691
  835MPD2     N12335   0.491   2.868  11.342  0.4093  0.1603  0.5616
  835MPD2    H512336   0.591   2.857  11.330  0.4152 -1.1601  1.7796
  835MPD2    N112337   0.051   2.797  11.144  0.5841 -0.1289 -0.2166
  835MPD2    H712338   0.010   2.833  11.229  2.1907  0.5428  0.2795
  836MPD2     C12339   0.749   3.120  12.202 -0.2735 -0.1632  0.2430
  836MPD2    C112340   0.648   3.062  12.131  0.8762  0.1152  0.4107
  836MPD2    C212341   0.533   3.019  12.196  0.1899  0.4072 -0.3456
  836MPD2    C312342   0.508   3.048  12.325  0.1279  0.5850 -0.2490
  836MPD2    C412343   0.606   3.106  12.394  0.6472  0.3505 -0.1150
  836MPD2    C512344   0.724   3.147  12.334 -0.2043 -0.0143 -0.0123
  836MPD2     H12345   0.465   2.958  12.137  0.4921 -0.1776 -0.0823
  836MPD2    H112346   0.593   3.136  12.497 -0.1399 -0.0201 -0.1080
  836MPD2    H212347   0.834   3.159  12.149 -0.1765 -0.5164  0.1359
  836MPD2    H312348   0.797   3.203  12.393 -0.3908  0.8570 -0.6141
  836MPD2     N12349   0.388   3.018  12.393 -0.1099  0.1512  0.0487
  836MPD2    H512350   0.382   3.053  12.488  1.0291 -4.3681  1.8035
  836MPD2    N112351   0.672   3.050  11.992  0.4695  0.0971 -0.9906
  836MPD2    H712352   0.767   3.066  11.960 -0.0199  1.3620 -1.8197
  837MPD2     C12353   3.535   2.468  10.683  0.1882 -0.0269  0.3517
  837MPD2    C112354   3.500   2.489  10.552 -0.7519  0.3921  0.0966
  837MPD2    C212355   3.508   2.611  10.502 -0.1531 -0.3135 -0.1859
  837MPD2    C312356   3.525   2.724  10.582 -0.3548  0.1047 -0.7028
  837MPD2    C412357   3.540   2.701  10.718 -0.6011 -1.1081  0.3581
  837MPD2    C512358   3.564   2.573  10.762  0.1868 -0.1812  0.8054
  837MPD2     H12359   3.480   2.635  10.400 -0.7364 -1.6838 -0.3497
  837MPD2    H112360   3.560   2.782  10.788 -0.4061  1.1931 -2.3883
  837MPD2    H212361   3.530   2.369  10.726  1.4567 -1.1929 -2.1938
  837MPD2    H312362   3.603   2.559  10.862  0.0315 -0.0772  0.8821
  837MPD2     N12363   3.478   2.846  10.527  0.0810  0.2578  0.3113
  837MPD2    H512364   3.465   2.852  10.427 -1.8262 -0.2245  0.5330
  837MPD2    N112365   3.452   2.394  10.460 -0.4334  0.1281  0.3583
  837MPD2    H712366   3.414   2.427  10.372  2.5635  2.0326 -0.2111
  838MPD2     C12367   2.091   0.931  12.470 -0.2643  0.9334 -0.0180
  838MPD2    C112368   2.014   0.848  12.394  0.4798  0.4114  0.1606
  838MPD2    C212369   1.889   0.812  12.435 -0.5629  0.0254  0.3072
  838MPD2    C312370   1.826   0.874  12.538  0.1889  0.1878 -1.1055
  838MPD2    C412371   1.899   0.958  12.612  0.5868  0.0989  0.4204
  838MPD2    C512372   2.029   0.990  12.574  0.3190 -0.5567  0.0497
  838MPD2     H12373   1.833   0.740  12.376  1.2163  0.2342 -1.6170
  838MPD2    H112374   1.866   1.013  12.699  0.3462 -1.5167  1.3494
  838MPD2    H212375   2.187   0.975  12.447  0.5417 -0.5705  0.3965
  838MPD2    H312376   2.086   1.059  12.635 -0.2178 -1.2835  1.3939
  838MPD2     N12377   1.680   0.864  12.548 -0.3176 -0.5769 -0.0654
  838MPD2    H512378   1.636   0.802  12.480 -1.3842 -0.2512  0.3277
  838MPD2    N112379   2.064   0.783  12.279 -0.0996  0.3879 -0.1432
  838MPD2    H712380   2.000   0.726  12.224 -1.0729  0.4052  0.9785
  839MPD2     C12381   1.606   0.195  11.931  0.2152 -0.0113  0.5966
  839MPD2    C112382   1.669   0.255  11.823  0.0210  0.1113 -0.4657
  839MPD2    C212383   1.788   0.322  11.854  0.1304 -0.2745  0.0252
  839MPD2    C312384   1.845   0.332  11.979  0.4798 -0.3774 -0.3198
  839MPD2    C412385   1.784   0.270  12.089  0.7453 -0.2937  0.3780
  839MPD2    C512386   1.661   0.204  12.058  0.1284 -0.3436  0.3099
  839MPD2     H12387   1.824   0.390  11.776 -1.6828  0.4217 -0.1996
  839MPD2    H112388   1.814   0.286  12.192  2.7706 -2.4073  0.1313
  839MPD2    H212389   1.508   0.149  11.927  1.4576 -2.4579 -1.4443
  839MPD2    H312390   1.606   0.167  12.144 -0.0431  2.0555  1.2289
  839MPD2     N12391   1.959   0.411  12.004 -0.1426  0.3411  0.6843
  839MPD2    H512392   1.999   0.410  12.098 -1.1572 -0.8376  1.1118
  839MPD2    N112393   1.617   0.255  11.697 -0.0193 -0.7513  0.3930
  839MPD2    H712394   1.668   0.314  11.632  1.1527 -0.6907  1.3599
  840MPD2     C12395   1.836   2.846  10.409 -0.4722 -0.8677 -0.0392
  840MPD2    C112396   1.882   2.826  10.537  0.1376 -0.2621  0.5834
  840MPD2    C212397   1.979   2.912  10.583  0.2341  0.9006  0.9188
  840MPD2    C312398   2.038   3.014  10.505 -0.3254 -0.6795 -0.0897
  840MPD2    C412399   1.995   3.025  10.376 -0.4177  0.5302 -0.2917
  840MPD2    C512400   1.891   2.939  10.333 -0.0062 -0.0674 -0.0535
  840MPD2     H12401   2.019   2.886  10.680 -1.8901 -0.1023  1.5280
  840MPD2    H112402   2.035   3.103  10.312 -1.0725  1.5848  0.5911
  840MPD2    H212403   1.758   2.783  10.368 -0.5409 -2.0197  1.8495
  840MPD2    H312404   1.857   2.942  10.230  2.6985  0.3596 -0.9464
  840MPD2     N12405   2.136   3.097  10.552  0.3602 -0.3177 -0.3173
  840MPD2    H512406   2.180   3.150  10.477  1.0567  1.3503  1.2482
  840MPD2    N112407   1.820   2.728  10.617 -0.0351 -0.0870  0.1756
  840MPD2    H712408   1.730   2.695  10.583  0.0262 -0.4420  0.3577
  841MPD2     C12409   2.768   2.244  15.081 -0.2990 -0.2754  0.0528
  841MPD2    C112410   2.644   2.251  15.012 -0.4329 -0.1665 -0.1617
  841MPD2    C212411   2.595   2.373  14.971 -0.3591  0.2517 -0.0287
  841MPD2    C312412   2.673   2.485  14.996  1.0731  0.4139  0.2226
  841MPD2    C412413   2.797   2.483  15.058  0.3396  0.1388  0.1977
  841MPD2    C512414   2.841   2.364  15.102  0.3346 -0.9876  0.2420
  841MPD2     H12415   2.502   2.381  14.916  0.0080  1.7873 -0.4353
  841MPD2    H112416   2.857   2.572  15.079  2.0897 -0.6335 -1.5715
  841MPD2    H212417   2.809   2.156  15.131 -0.4881 -0.8642 -0.8336
  841MPD2    H312418   2.915   2.369  15.181  0.0675  1.4536  0.3348
  841MPD2     N12419   2.622   2.611  14.960  0.4089  0.2350 -0.3768
  841MPD2    H512420   2.525   2.621  14.932  0.2551  0.9951  0.4252
  841MPD2    N112421   2.567   2.134  14.978  0.0482  0.6002 -1.0831
  841MPD2    H712422   2.477   2.140  14.932 -0.1194  3.1903 -0.3777
  842MPD2     C12423   1.916   3.322  16.959 -0.2565  0.5299 -0.2708
  842MPD2    C112424   2.001   3.430  16.932  0.0895 -0.1886 -0.4309
  842MPD2    C212425   2.095   3.471  17.019 -0.5104 -0.4391  0.3227
  842MPD2    C312426   2.100   3.411  17.143 -0.1843 -0.3786 -0.1870
  842MPD2    C412427   2.006   3.311  17.174  0.3591  0.1510 -0.0230
  842MPD2    C512428   1.924   3.261  17.076  0.2152  0.2538 -0.4417
  842MPD2     H12429   2.142   3.567  17.008 -1.7969  0.0732 -0.7675
  842MPD2    H112430   1.994   3.272  17.274 -0.6656  2.4710  0.7579
  842MPD2    H212431   1.847   3.284  16.885 -0.0903 -2.0149  0.8843
  842MPD2    H312432   1.854   3.182  17.098  0.5314  0.2518  0.5663
  842MPD2     N12433   2.185   3.469  17.245 -0.0440 -0.7923  0.0776
  842MPD2    H512434   2.156   3.449  17.340 -2.4321 -0.3248 -0.5732
  842MPD2    N112435   1.971   3.504  16.820 -0.1765 -0.5031 -0.7555
  842MPD2    H712436   1.898   3.460  16.765  0.1103  0.8202 -2.2218
  843MPD2     C12437   4.430   0.151  17.669 -0.5395 -0.8403 -0.4026
  843MPD2    C112438   4.514   0.091  17.755  0.0106  0.1410  0.3019
  843MPD2    C212439   4.622   0.160   0.051  0.3751  0.0578  0.0381
  843MPD2    C312440   4.637   0.296   0.025  0.3318  0.0127  0.5536
  843MPD2    C412441   4.543   0.355  17.694  0.5034  0.3819  0.4604
  843MPD2    C512442   4.435   0.285  17.641 -0.4162 -0.3584 -0.0672
  843MPD2     H12443   4.697   0.116   0.115 -0.4135 -1.1739  0.1263
  843MPD2    H112444   4.555   0.460  17.672 -1.5196  0.3073 -1.0232
  843MPD2    H212445   4.354   0.103  17.609  0.8186  0.6799 -3.3040
  843MPD2    H312446   4.361   0.333  17.578 -1.6396 -1.8490  0.2437
  843MPD2     N12447   4.732   0.385   0.082 -0.3415  0.1558 -0.1577
  843MPD2    H512448   4.739   0.481   0.050  2.3270 -0.1655 -0.5635
  843MPD2    N112449   4.483   4.697   0.044 -0.0620 -1.2391  0.0893
  843MPD2    H712450   4.412   4.646  17.748 -1.2066 -0.6973  1.1379
  844MPD2     C12451   3.411   3.030  16.297  0.4059 -0.1581 -0.2509
  844MPD2    C112452   3.350   3.153  16.278 -0.1035  0.9155  0.1498
  844MPD2    C212453   3.379   3.255  16.362 -0.0955  0.1806 -0.5291
  844MPD2    C312454   3.484   3.240  16.455  0.5148 -0.3470  0.6194
  844MPD2    C412455   3.548   3.118  16.472  0.7265 -1.0360  0.1329
  844MPD2    C512456   3.506   3.014  16.396 -0.3591  0.3494 -0.1495
  844MPD2     H12457   3.347   3.356  16.341  0.9709  0.2457 -1.8216
  844MPD2    H112458   3.626   3.097  16.545 -0.1369 -1.6577  0.8754
  844MPD2    H212459   3.397   2.942  16.236  0.5092  0.5951 -1.3540
  844MPD2    H312460   3.542   2.914  16.420 -0.7050  0.8522  2.3857
  844MPD2     N12461   3.536   3.346  16.533  0.2906  0.2191 -0.3496
  844MPD2    H512462   3.610   3.320  16.597 -2.0485  0.8487  2.6415
  844MPD2    N112463   3.263   3.175  16.172  0.0905  0.0283 -0.7058
  844MPD2    H712464   3.229   3.269  16.151  2.3862  1.0026 -0.1038
  845MPD2     C12465   3.347   4.349  16.537  0.7546 -0.0273 -1.0331
  845MPD2    C112466   3.363   4.286  16.661  0.6141 -0.5866  0.8993
  845MPD2    C212467   3.415   4.157  16.659 -0.0557  0.1467  0.0078
  845MPD2    C312468   3.480   4.107  16.543  0.1189  0.5118 -0.1027
  845MPD2    C412469   3.459   4.173  16.420 -0.6805 -0.4116 -0.2209
  845MPD2    C512470   3.390   4.290  16.423  0.3130 -0.7398  0.2261
  845MPD2     H12471   3.429   4.110  16.756  0.7322 -0.5477 -0.4360
  845MPD2    H112472   3.508   4.144  16.328 -1.2217  2.5143 -1.4464
  845MPD2    H212473   3.294   4.443  16.530  0.8285 -0.0339 -1.7656
  845MPD2    H312474   3.387   4.341  16.327 -0.4843 -0.5873  0.3318
  845MPD2     N12475   3.541   3.976  16.547  0.6143  0.2260 -0.2164
  845MPD2    H512476   3.549   3.922  16.462 -0.3569 -0.6189  0.2241
  845MPD2    N112477   3.312   4.349  16.774  0.1264 -0.3002 -0.1820
  845MPD2    H712478   3.277   4.444  16.767 -0.5676 -0.5601 -0.1656
  846MPD2     C12479   4.509   0.281  13.731 -0.5742  0.2769 -0.1756
  846MPD2    C112480   4.403   0.361  13.772 -0.2117  0.2530 -0.0717
  846MPD2    C212481   4.349   0.337  13.898 -0.1503 -0.0631 -0.3174
  846MPD2    C312482   4.407   0.248  13.987  0.2712 -0.0738 -0.5821
  846MPD2    C412483   4.516   0.179  13.947 -0.0448  0.0570 -0.3802
  846MPD2    C512484   4.559   0.192  13.822 -0.0764 -0.3365 -0.0990
  846MPD2     H12485   4.256   0.383  13.930  0.7723  0.4398  1.6503
  846MPD2    H112486   4.565   0.103  14.007 -1.5381  0.5297  1.4299
  846MPD2    H212487   4.557   0.279  13.634 -0.9269  0.1872 -0.3481
  846MPD2    H312488   4.640   0.125  13.796  0.7281 -0.3246  2.4316
  846MPD2     N12489   4.346   0.229  14.110 -0.0442  0.3713 -0.2846
  846MPD2    H512490   4.256   0.271  14.129  0.3859  0.7179  0.9972
  846MPD2    N112491   4.350   0.467  13.692  0.3024  0.0629  1.0073
  846MPD2    H712492   4.301   0.547  13.730  2.7185  1.6321  0.7502
  847MPD2     C12493   0.234   0.753  14.136  0.5309 -0.2577 -0.5682
  847MPD2    C112494   0.299   0.853  14.203  0.1473 -0.7180  0.1459
  847MPD2    C212495   0.379   0.831  14.313  0.4057  0.4398  0.2349
  847MPD2    C312496   0.401   0.706  14.369 -0.2047 -0.1024 -0.1651
  847MPD2    C412497   0.322   0.607  14.320 -0.6772 -0.0268  0.0831
  847MPD2    C512498   0.245   0.635  14.207 -0.3295  0.2095 -0.0151
  847MPD2     H12499   0.431   0.916  14.356  1.1443 -0.5051  1.2150
  847MPD2    H112500   0.317   0.514  14.376 -0.7747  0.8113  1.4609
  847MPD2    H212501   0.178   0.761  14.044  0.5030  0.0205 -0.5259
  847MPD2    H312502   0.184   0.554  14.169  0.2743 -1.8685  3.5082
  847MPD2     N12503   0.503   0.687  14.465 -0.6389 -0.4364  0.3088
  847MPD2    H512504   0.563   0.767  14.484 -1.8014  0.0071  2.1312
  847MPD2    N112505   0.299   0.983  14.158  0.1257 -0.2125 -0.2995
  847MPD2    H712506   0.351   1.049  14.214 -0.0520  0.0186 -0.4087
  848MPD2     C12507   3.030   3.832  16.120 -0.3840 -0.1567  0.2212
  848MPD2    C112508   2.938   3.813  16.220 -0.2451 -0.3601 -0.3110
  848MPD2    C212509   2.854   3.916  16.253  0.3344 -1.3322  0.0183
  848MPD2    C312510   2.873   4.040  16.202  0.5763 -0.7439 -0.6201
  848MPD2    C412511   2.976   4.055  16.105 -0.5441  0.0032  0.3352
  848MPD2    C512512   3.055   3.956  16.071 -0.4451 -0.6461 -0.1560
  848MPD2     H12513   2.778   3.893  16.327 -1.3103  1.8601 -0.6781
  848MPD2    H112514   2.985   4.147  16.049 -0.7662  1.2434  2.3388
  848MPD2    H212515   3.103   3.757  16.089  3.6164  3.9070 -0.2043
  848MPD2    H312516   3.132   3.979  15.998  0.1201 -1.7776  0.0959
  848MPD2     N12517   2.792   4.140  16.237  0.4681 -0.5982  0.9742
  848MPD2    H512518   2.700   4.114  16.270  1.8609 -0.8095  4.6838
  848MPD2    N112519   2.936   3.687  16.289  0.4165  0.0503 -0.0101
  848MPD2    H712520   3.015   3.627  16.267  0.0661 -0.5798  0.4520
  849MPD2     C12521   1.830   3.314  13.938  0.4226 -0.2921 -0.7950
  849MPD2    C112522   1.938   3.230  13.947  0.0986 -0.6053  0.5429
  849MPD2    C212523   1.974   3.183  14.072 -0.0337  0.2237 -0.4323
  849MPD2    C312524   1.911   3.209  14.192 -0.1866  0.4772  0.0056
  849MPD2    C412525   1.794   3.286  14.181  0.2619 -0.7210  0.3915
  849MPD2    C512526   1.758   3.335  14.052 -0.2291  0.3794  0.5194
  849MPD2     H12527   2.068   3.130  14.080 -0.9332 -1.3202 -0.1562
  849MPD2    H112528   1.748   3.320  14.273  0.3319 -2.1938  0.9657
  849MPD2    H212529   1.790   3.361  13.849 -2.1753  0.1838  0.6261
  849MPD2    H312530   1.670   3.398  14.050 -0.7590 -0.4362 -2.0890
  849MPD2     N12531   1.981   3.180  14.312 -0.0181 -0.4735  0.0504
  849MPD2    H512532   2.075   3.142  14.301 -1.6800 -3.9075 -2.0922
  849MPD2    N112533   2.017   3.201  13.837 -0.3021 -0.7835  0.7554
  849MPD2    H712534   2.102   3.146  13.843  0.0763 -0.2558  0.2279
  850MPD2     C12535   0.516   1.921  14.821  0.7523 -0.1553 -0.6137
  850MPD2    C112536   0.544   1.986  14.938 -0.7271  0.0653  0.2074
  850MPD2    C212537   0.670   1.988  14.999 -0.1410  1.1573 -0.0638
  850MPD2    C312538   0.773   1.928  14.936 -0.4659  0.1333  0.2921
  850MPD2    C412539   0.748   1.874  14.808  0.2965  0.2226 -0.1204
  850MPD2    C512540   0.623   1.870  14.756 -0.1595  0.4763 -1.1702
  850MPD2     H12541   0.676   2.030  15.099 -0.0982 -1.3973  1.0276
  850MPD2    H112542   0.825   1.832  14.744  1.1330  0.6073  0.6332
  850MPD2    H212543   0.416   1.914  14.780 -0.0393 -0.3240  1.3819
  850MPD2    H312544   0.608   1.823  14.659 -1.6368 -0.5268 -0.4553
  850MPD2     N12545   0.910   1.927  14.980 -0.0368 -0.4043  0.0922
  850MPD2    H512546   0.979   1.895  14.913 -0.6761  3.4228 -2.3675
  850MPD2    N112547   0.430   2.057  14.999  0.2342 -0.2581 -0.1494
  850MPD2    H712548   0.337   2.032  14.967  0.8151 -1.7685 -0.6541
  851MPD2     C12549   0.272   1.846  15.675 -0.4332  0.0514 -0.3595
  851MPD2    C112550   0.238   1.857  15.536 -0.0045 -0.5505 -0.2749
  851MPD2    C212551   0.264   1.753  15.449 -0.0764  0.4457 -0.4196
  851MPD2    C312552   0.306   1.628  15.504 -0.2037 -1.3285 -0.4013
  851MPD2    C412553   0.319   1.615  15.642 -0.1714  0.8940  0.2085
  851MPD2    C512554   0.304   1.725  15.724  0.3095  0.2199  0.5351
  851MPD2     H12555   0.289   1.770  15.345  1.1389 -1.1219 -0.3982
  851MPD2    H112556   0.337   1.517  15.686 -2.7804  0.2568 -0.1544
  851MPD2    H212557   0.252   1.927  15.745 -3.8724 -0.9302 -0.2047
  851MPD2    H312558   0.307   1.703  15.830 -0.6215 -2.7656 -0.0496
  851MPD2     N12559   0.319   1.522  15.415 -0.5437  0.8245  0.0658
  851MPD2    H512560   0.321   1.553  15.318 -0.8999 -1.4279 -0.6460
  851MPD2    N112561   0.187   1.979  15.490  0.0463  0.8330  0.3091
  851MPD2    H712562   0.203   2.064  15.542  0.2139 -1.7492  4.4381
  852MPD2     C12563   4.722   3.877  10.238  0.4088 -0.0331  0.4182
  852MPD2    C112564   4.718   3.945  10.357 -0.2435  0.0879 -0.5116
  852MPD2    C212565   0.071   4.041  10.377  0.6380 -0.8397 -0.3710
  852MPD2    C312566   0.175   4.064  10.290  0.5206  0.0270  0.3929
  852MPD2    C412567   0.186   3.988  10.177  0.5700  0.5123  0.8224
  852MPD2    C512568   0.086   3.895  10.154 -0.9772 -0.8367  0.1329
  852MPD2     H12569   0.069   4.097  10.469  0.9239 -3.1402  1.0253
  852MPD2    H112570   0.275   3.984  10.115  0.8500  1.9247  1.1410
  852MPD2    H212571   4.641   3.813  10.208  1.7088 -1.5524  0.1347
  852MPD2    H312572   0.104   3.843  10.060 -1.2708  0.9367 -0.9198
  852MPD2     N12573   0.260   4.172  10.314 -0.0168 -0.8434 -0.2233
  852MPD2    H512574   0.250   4.219  10.403 -0.7034  0.8789 -1.2050
  852MPD2    N112575   4.613   3.926  10.450  0.7747  0.0516  0.1373
  852MPD2    H712576   4.613   3.993  10.526  0.4828  0.3356 -0.1117
  853MPD2     C12577   1.592   3.775  12.276 -0.5938 -0.0618 -0.3998
  853MPD2    C112578   1.513   3.879  12.224 -0.4381 -0.4643  0.6570
  853MPD2    C212579   1.510   3.898  12.085 -0.3535  0.1826  0.1483
  853MPD2    C312580   1.590   3.817  12.000 -0.1219 -0.4808 -0.1469
  853MPD2    C412581   1.668   3.720  12.060 -0.6823  0.8206  0.3241
  853MPD2    C512582   1.680   3.703  12.199  1.2292 -0.2129 -0.1095
  853MPD2     H12583   1.449   3.977  12.043 -0.0447  0.8374  0.9360
  853MPD2    H112584   1.741   3.667  12.000 -2.8596  0.4713 -2.0083
  853MPD2    H212585   1.584   3.750  12.381  0.3962 -0.2113 -0.3596
  853MPD2    H312586   1.751   3.633  12.242  0.8231 -1.4301 -1.4326
  853MPD2     N12587   1.587   3.830  11.858  0.1581 -0.0756 -0.1458
  853MPD2    H512588   1.618   3.742  11.819  0.8432 -0.1064  0.4736
  853MPD2    N112589   1.430   3.950  12.318 -0.5098 -0.2862  0.4586
  853MPD2    H712590   1.428   3.920  12.415 -0.4168  1.1396  0.8912
  854MPD2     C12591   3.169   4.297  12.779 -0.6701  0.0251  0.0266
  854MPD2    C112592   3.252   4.367  12.694  0.1197  0.0862 -0.7689
  854MPD2    C212593   3.388   4.343  12.696  1.5639  0.3032  0.1090
  854MPD2    C312594   3.440   4.251  12.781 -0.5625 -0.1737  0.2306
  854MPD2    C412595   3.354   4.193  12.874  0.2014  0.2482 -0.0996
  854MPD2    C512596   3.219   4.211  12.870 -0.3402 -0.3009 -0.0402
  854MPD2     H12597   3.457   4.380  12.621  0.8749  0.9378 -0.2265
  854MPD2    H112598   3.396   4.130  12.952 -1.4279 -0.0244  0.5519
  854MPD2    H212599   3.062   4.308  12.768 -0.3492 -1.0838 -3.9695
  854MPD2    H312600   3.162   4.141  12.930 -0.5356 -0.4276 -0.3735
  854MPD2     N12601   3.578   4.227  12.800  0.1232  0.3544  0.1364
  854MPD2    H512602   3.600   4.166  12.878  2.5265  0.0938 -0.7296
  854MPD2    N112603   3.184   4.457  12.612  0.2246  0.1959 -0.3670
  854MPD2    H712604   3.084   4.441  12.607  0.2993 -1.3974  3.1119
  855MPD2     C12605   4.174   3.832  13.458  0.4629 -0.1840 -0.3572
  855MPD2    C112606   4.051   3.903  13.456  1.2454  0.1249 -0.4851
  855MPD2    C212607   4.007   3.952  13.333 -0.9845 -0.2297 -0.5003
  855MPD2    C312608   4.083   3.931  13.213  0.2464  1.0073  0.4379
  855MPD2    C412609   4.192   3.843  13.216  0.4890 -0.2644 -1.1943
  855MPD2    C512610   4.228   3.797  13.338  0.0690  0.2751  0.6881
  855MPD2     H12611   3.919   4.014  13.325 -0.2898  0.7688 -0.4939
  855MPD2    H112612   4.243   3.798  13.132  1.7007 -1.7457  0.3234
  855MPD2    H212613   4.213   3.786  13.548 -0.0571 -1.7937 -0.9642
  855MPD2    H312614   4.311   3.727  13.345  0.7633  0.7257 -3.3505
  855MPD2     N12615   4.033   3.967  13.086  0.5538  0.2472  0.4446
  855MPD2    H512616   4.091   3.940  13.007 -0.8856  1.1519 -0.9578
  855MPD2    N112617   3.983   3.934  13.574  0.0797  0.0196 -0.0853
  855MPD2    H712618   4.017   3.887  13.658 -0.0367 -3.4672 -2.0116
  856MPD2     C12619   0.951   0.065  14.021  0.1516 -0.3969  0.6935
  856MPD2    C112620   0.997   0.186  14.076  0.8443 -0.8729 -0.4416
  856MPD2    C212621   0.908   0.288  14.093 -0.7802  0.0588 -0.5047
  856MPD2    C312622   0.782   0.283  14.051  0.4262 -0.8223 -0.1321
  856MPD2    C412623   0.734   0.171  13.979 -0.2665 -0.0617 -0.3064
  856MPD2    C512624   0.827   0.064  13.967  0.1301 -0.6304  0.3301
  856MPD2     H12625   0.953   0.374  14.142  0.3641 -0.6997 -0.2230
  856MPD2    H112626   0.635   0.165  13.935  0.1921  1.1849 -1.5110
  856MPD2    H212627   1.016   4.724  13.988 -0.5732 -0.6751 -0.0467
  856MPD2    H312628   0.808   4.716  13.907 -0.5191  0.9503 -1.7714
  856MPD2     N12629   0.694   0.397  14.062 -0.2018  0.1782 -0.0089
  856MPD2    H512630   0.598   0.377  14.034 -0.4549  0.8226  0.3912
  856MPD2    N112631   1.137   0.214  14.100  0.4799 -0.0593 -0.3525
  856MPD2    H712632   1.162   0.298  14.151 -1.5360  0.3364 -0.0174
  857MPD2     C12633   2.542   2.344  13.057 -0.1745  0.5874 -0.1258
  857MPD2    C112634   2.652   2.356  12.975  0.6636  0.2839  1.0103
  857MPD2    C212635   2.709   2.482  12.953  0.8139 -0.3517 -0.1973
  857MPD2    C312636   2.663   2.592  13.003  0.6072  0.5303  1.2346
  857MPD2    C412637   2.550   2.585  13.091  0.2456 -0.4863 -0.2063
  857MPD2    C512638   2.495   2.461  13.118 -0.4233 -0.0018  0.1929
  857MPD2     H12639   2.790   2.486  12.881  2.0675  0.3653  1.2459
  857MPD2    H112640   2.516   2.672  13.146  0.2125 -1.5432  1.4790
  857MPD2    H212641   2.499   2.247  13.081  0.1198  0.4137 -0.2911
  857MPD2    H312642   2.414   2.454  13.189 -0.0423  1.0367  0.7194
  857MPD2     N12643   2.729   2.714  12.969 -0.0923  0.7051  0.1660
  857MPD2    H512644   2.806   2.695  12.906  0.2358 -0.8235  1.0287
  857MPD2    N112645   2.685   2.242  12.897 -0.3063  0.1238 -0.7031
  857MPD2    H712646   2.620   2.164  12.905 -0.3595  0.2975  0.5659
  858MPD2     C12647   3.184   1.952  16.697 -0.5987  0.2966 -0.6701
  858MPD2    C112648   3.220   1.823  16.721 -0.6459  0.1309 -0.4595
  858MPD2    C212649   3.226   1.777  16.853 -0.6276  0.4144 -0.9459
  858MPD2    C312650   3.188   1.858  16.955 -0.0090 -0.0714 -0.3380
  858MPD2    C412651   3.157   1.989  16.932 -0.1780 -0.0359  0.0217
  858MPD2    C512652   3.152   2.034  16.804 -0.2623 -0.1305  0.4740
  858MPD2     H12653   3.248   1.671  16.862 -1.2835  0.4992  1.6419
  858MPD2    H112654   3.120   2.053  17.010 -0.4025  0.7136 -0.6997
  858MPD2    H212655   3.182   2.004  16.602  1.0549  0.3761 -0.6684
  858MPD2    H312656   3.123   2.137  16.788 -0.1754 -0.1089  0.4518
  858MPD2     N12657   3.186   1.816  17.089  0.9550  0.2886 -0.0183
  858MPD2    H512658   3.145   1.881  17.156 -1.6190 -0.8041 -0.5725
  858MPD2    N112659   3.243   1.745  16.610 -0.4969  0.6245  0.0165
  858MPD2    H712660   3.220   1.778  16.517  0.6504 -1.5647 -1.0592
  859MPD2     C12661   1.745   3.730  15.893 -0.0267 -0.6359 -0.0253
  859MPD2    C112662   1.825   3.663  15.805 -0.1149 -0.4516  0.0937
  859MPD2    C212663   1.845   3.523  15.806 -0.1198 -0.8314 -0.4271
  859MPD2    C312664   1.769   3.446  15.899 -0.1325 -0.0438  0.4505
  859MPD2    C412665   1.698   3.513  15.994  0.3071  0.2861 -0.0510
  859MPD2    C512666   1.683   3.652  15.992 -0.4918 -0.2148 -0.2956
  859MPD2     H12667   1.912   3.482  15.731  0.0012  1.7296 -1.7036
  859MPD2    H112668   1.656   3.458  16.078  0.6682  0.1637  0.0489
  859MPD2    H212669   1.727   3.837  15.895  0.3261 -0.6178  1.8603
  859MPD2    H312670   1.616   3.693  16.067  2.1064  1.0936  1.2939
  859MPD2     N12671   1.785   3.308  15.909  0.3727 -0.1409 -0.1938
  859MPD2    H512672   1.747   3.266  15.994  1.2199  0.2950  0.3927
  859MPD2    N112673   1.888   3.728  15.705  0.4069  0.2489 -0.6876
  859MPD2    H712674   1.929   3.664  15.638 -0.6586  1.0248 -2.0809
  860MPD2     C12675   0.142   0.173  11.787  0.2611  0.0968 -0.3643
  860MPD2    C112676   0.127   0.048  11.847  0.0740 -0.0817  0.4215
  860MPD2    C212677   4.739   0.011  11.877 -0.5919 -0.4045  0.1871
  860MPD2    C312678   4.625   0.081  11.839 -0.2210 -0.3372 -0.5038
  860MPD2    C412679   4.644   0.204  11.791 -0.0605  1.2267 -0.4602
  860MPD2    C512680   0.032   0.251  11.764  0.3785  0.1660  0.5277
  860MPD2     H12681   4.714   4.650  11.911  2.0152 -0.6099  1.4897
  860MPD2    H112682   4.567   0.267  11.747 -2.2142 -0.8005  0.3939
  860MPD2    H212683   0.235   0.209  11.745  0.8444 -0.1895  0.6708
  860MPD2    H312684   0.049   0.346  11.715  0.4936 -0.0863  0.0787
  860MPD2     N12685   4.506   0.013  11.853 -0.5138  0.0105  0.0864
  860MPD2    H512686   4.506   4.657  11.889  0.6242 -0.1502 -0.3278
  860MPD2    N112687   0.231   4.694  11.881  1.0564 -0.2785  0.2474
  860MPD2    H712688   0.205   4.601  11.912 -0.0129 -0.3313 -0.8370
  861MPD2     C12689   3.155   1.654  11.101  0.5260  0.4416 -0.0578
  861MPD2    C112690   3.153   1.789  11.125  0.0406 -0.5841  0.2792
  861MPD2    C212691   3.081   1.865  11.042 -0.5988  0.0638  0.9747
  861MPD2    C312692   3.044   1.819  10.911 -0.4320 -0.8845 -0.1505
  861MPD2    C412693   3.069   1.688  10.884  0.5361 -0.0603 -0.5148
  861MPD2    C512694   3.113   1.602  10.981  0.0501 -0.6871  0.0260
  861MPD2     H12695   3.065   1.970  11.062  0.1269  0.3848 -0.1216
  861MPD2    H112696   3.036   1.647  10.789 -1.3402  0.0670  0.0836
  861MPD2    H212697   3.213   1.580  11.155  3.0117  2.1485 -0.3633
  861MPD2    H312698   3.125   1.495  10.967  0.7651 -0.0697 -3.9553
  861MPD2     N12699   2.953   1.884  10.828 -0.1207  0.0454  0.0062
  861MPD2    H512700   2.890   1.826  10.773  0.8350 -0.1500 -0.8623
  861MPD2    N112701   3.205   1.846  11.241 -0.4807  0.0871 -0.0552
  861MPD2    H712702   3.203   1.947  11.253 -1.8953 -0.0586  0.8725
  862MPD2     C12703   2.436   1.749  10.310 -0.4017  0.0417  0.2950
  862MPD2    C112704   2.507   1.716  10.428  0.1863  0.2230 -0.4036
  862MPD2    C212705   2.524   1.587  10.466  0.5354 -0.1969  0.6310
  862MPD2    C312706   2.471   1.483  10.396  0.4477 -0.0275 -0.3336
  862MPD2    C412707   2.392   1.510  10.288  0.2776  0.2586 -0.0068
  862MPD2    C512708   2.390   1.647  10.240  0.1565  0.4657 -0.2210
  862MPD2     H12709   2.572   1.574  10.562  1.8273  1.0814  0.1722
  862MPD2    H112710   2.352   1.429  10.228 -0.8818  1.6346 -1.0750
  862MPD2    H212711   2.412   1.852  10.289 -0.0738  0.5910  2.5597
  862MPD2    H312712   2.337   1.670  10.148 -1.6189  2.1753  1.2267
  862MPD2     N12713   2.480   1.349  10.449  0.6106 -0.1371  0.2389
  862MPD2    H512714   2.405   1.281  10.437 -0.4188  0.9213  0.7585
  862MPD2    N112715   2.574   1.811  10.507  0.0413  0.1952 -0.4625
  862MPD2    H712716   2.622   1.764  10.583 -3.2123 -0.8575  0.9562
  863MPD2     C12717   1.495   0.257  16.771  0.6947  0.5951 -0.1940
  863MPD2    C112718   1.563   0.370  16.795 -0.1025  0.1974  0.1369
  863MPD2    C212719   1.676   0.375  16.877 -0.2553 -0.4140 -0.0153
  863MPD2    C312720   1.745   0.259  16.910 -0.5433 -0.7321  0.0933
  863MPD2    C412721   1.680   0.143  16.879  0.4770 -0.1226 -0.1862
  863MPD2    C512722   1.560   0.141  16.815  0.2112  0.2056 -0.3130
  863MPD2     H12723   1.711   0.473  16.910  0.5488 -1.0927  1.1494
  863MPD2    H112724   1.728   0.048  16.899 -0.2872 -0.0781  1.8633
  863MPD2    H212725   1.403   0.250  16.713  0.1506  0.4800  0.6814
  863MPD2    H312726   1.514   0.051  16.776 -0.4410  0.9622 -1.2791
  863MPD2     N12727   1.861   0.253  16.991 -0.7481  0.5392 -0.2257
  863MPD2    H512728   1.881   0.165  17.036 -0.5060 -0.0048 -1.4087
  863MPD2    N112729   1.495   0.481  16.745 -0.8484 -0.7028  0.2460
  863MPD2    H712730   1.433   0.451  16.671 -2.1160  2.1841  0.1301
  864MPD2     C12731   1.960   2.036  17.119  0.1924  0.1031 -0.1389
  864MPD2    C112732   2.008   1.907  17.095 -0.3148 -0.3581  0.7595
  864MPD2    C212733   2.147   1.889  17.067 -0.6705 -0.0280  0.2548
  864MPD2    C312734   2.226   2.002  17.058 -0.2334  0.0556 -0.1605
  864MPD2    C412735   2.176   2.133  17.074 -0.2273 -0.0006  0.2053
  864MPD2    C512736   2.040   2.149  17.104 -0.2116 -0.0158  0.7811
  864MPD2     H12737   2.190   1.790  17.054  0.4547  0.2581  1.8517
  864MPD2    H112738   2.240   2.221  17.070 -0.8812  0.4749  0.1354
  864MPD2    H212739   1.853   2.042  17.136  0.6648  0.9147  2.5672
  864MPD2    H312740   2.005   2.251  17.118 -3.6413 -0.9557 -1.0553
  864MPD2     N12741   2.363   1.997  17.027  0.3402  0.0024  0.5477
  864MPD2    H512742   2.404   2.090  17.030 -1.1293  0.6519  0.4855
  864MPD2    N112743   1.922   1.795  17.091  0.4316  0.2380 -0.1728
  864MPD2    H712744   1.833   1.810  17.138  1.0905  2.5542  0.3059
  865MPD2     C12745   2.725   2.299  16.494 -0.3863  0.3768 -0.2373
  865MPD2    C112746   2.662   2.208  16.572  0.4999 -0.7827  0.0520
  865MPD2    C212747   2.688   2.205  16.711  0.1630 -0.5766  0.1158
  865MPD2    C312748   2.773   2.300  16.776 -0.2943  0.7896  0.8203
  865MPD2    C412749   2.814   2.403  16.697 -0.2663  0.5315  0.0692
  865MPD2    C512750   2.794   2.399  16.559  0.6761  0.2082  1.1470
  865MPD2     H12751   2.638   2.132  16.773 -1.8665  1.0971  0.4690
  865MPD2    H112752   2.875   2.481  16.741  2.5111 -0.9465 -1.1843
  865MPD2    H212753   2.722   2.299  16.385 -0.0567  0.7927 -0.2433
  865MPD2    H312754   2.839   2.466  16.487 -0.8225 -1.2915 -1.1535
  865MPD2     N12755   2.812   2.300  16.911 -0.5574 -0.0646 -0.8698
  865MPD2    H512756   2.859   2.382  16.951  0.0000 -0.9087  0.2239
  865MPD2    N112757   2.608   2.098  16.507 -0.1950 -0.3646  0.4188
  865MPD2    H712758   2.615   2.096  16.406 -1.5626  2.3501  0.2880
  866MPD2     C12759   3.514   2.440  11.658  0.0156  0.5528 -0.8982
  866MPD2    C112760   3.534   2.376  11.543  0.3672 -0.5529  0.1343
  866MPD2    C212761   3.420   2.339  11.469 -0.2653 -0.2040  0.5901
  866MPD2    C312762   3.294   2.377  11.512 -0.3379  0.2225  0.2070
  866MPD2    C412763   3.276   2.456  11.621 -0.5614  0.2337  0.3387
  866MPD2    C512764   3.389   2.491  11.689  0.1023  0.1609  0.5583
  866MPD2     H12765   3.417   2.293  11.371 -0.0334 -2.1141  1.4767
  866MPD2    H112766   3.178   2.493  11.649 -0.4490  0.0987  0.9160
  866MPD2    H212767   3.596   2.476  11.719  0.6494 -3.0832  0.4096
  866MPD2    H312768   3.386   2.565  11.769 -0.9534  1.5556 -0.7720
  866MPD2     N12769   3.178   2.353  11.443 -0.0666 -0.1104 -0.2548
  866MPD2    H512770   3.097   2.411  11.464 -1.4101 -2.1328  0.1682
  866MPD2    N112771   3.663   2.347  11.500  0.4627 -0.2898 -0.1059
  866MPD2    H712772   3.730   2.410  11.545 -0.8621  1.3106 -0.3948
  867MPD2     C12773   1.260   1.996  16.605 -0.5033 -0.0502  0.4566
  867MPD2    C112774   1.273   1.950  16.728 -0.1477  0.4087  0.6939
  867MPD2    C212775   1.229   2.021  16.842 -0.6169  0.6243  0.3965
  867MPD2    C312776   1.185   2.153  16.829  0.1756  0.6702 -0.6245
  867MPD2    C412777   1.175   2.200  16.705  0.6345 -0.4825 -0.0885
  867MPD2    C512778   1.204   2.126  16.594  0.7250  0.4421  0.0337
  867MPD2     H12779   1.240   1.970  16.937  1.7503  0.2042 -0.0978
  867MPD2    H112780   1.150   2.305  16.703  2.6214  0.0451  2.9031
  867MPD2    H212781   1.297   1.941  16.519 -2.1048 -1.0836  0.4324
  867MPD2    H312782   1.196   2.173  16.497  3.1841 -0.8073 -0.7668
  867MPD2     N12783   1.139   2.237  16.937 -0.3942  0.0579 -0.3933
  867MPD2    H512784   1.118   2.332  16.910  0.6784  0.0412 -1.2709
  867MPD2    N112785   1.338   1.825  16.735  0.1940 -0.3497  0.2279
  867MPD2    H712786   1.355   1.784  16.644 -1.9342 -0.5439 -0.0744
  868MPD2     C12787   2.702   1.348  13.527  0.2188 -0.3456  0.2029
  868MPD2    C112788   2.742   1.228  13.587 -0.2833 -0.1239 -0.3015
  868MPD2    C212789   2.717   1.200  13.714  0.3032  0.1128 -0.1256
  868MPD2    C312790   2.657   1.293  13.792 -0.2126  0.2142  0.5226
  868MPD2    C412791   2.614   1.414  13.739 -0.4427  0.1861 -0.9324
  868MPD2    C512792   2.625   1.434  13.605 -0.7774  0.2115 -0.1010
  868MPD2     H12793   2.740   1.111  13.771  0.0710  0.4636  0.5234
  868MPD2    H112794   2.569   1.494  13.795  0.5578  1.3006 -1.7240
  868MPD2    H212795   2.732   1.371  13.426 -1.4650 -0.9881 -0.4373
  868MPD2    H312796   2.594   1.533  13.574 -1.6401  0.0200  0.1580
  868MPD2     N12797   2.645   1.255  13.935 -0.2941 -0.1289  0.2764
  868MPD2    H512798   2.669   1.160  13.962  1.8946 -0.0618 -1.4280
  868MPD2    N112799   2.811   1.139  13.503  0.4467 -0.2772  0.2004
  868MPD2    H712800   2.827   1.163  13.406 -1.2507  0.8010  0.1863
  869MPD2     C12801   0.105   3.519   1.469 -0.3243 -0.1909 -0.4862
  869MPD2    C112802   4.715   3.534   1.527  0.6414  0.4775  0.1099
  869MPD2    C212803   4.626   3.616   1.458  0.3839  0.4197  0.8021
  869MPD2    C312804   4.663   3.681   1.339  0.2447  0.1033  0.0861
  869MPD2    C412805   0.037   3.642   1.273  0.5948 -0.8874 -0.8480
  869MPD2    C512806   0.131   3.571   1.345  0.2613 -0.6773  0.6366
  869MPD2     H12807   4.538   3.655   1.509 -0.3884 -0.4942  0.1788
  869MPD2    H112808   0.065   3.696   1.183  0.6091 -0.7380 -0.7560
  869MPD2    H212809   0.183   3.459   1.514 -2.0322 -2.3111 -0.3045
  869MPD2    H312810   0.229   3.551   1.303  0.7478  1.2286  0.8476
  869MPD2     N12811   4.580   3.775   1.278  0.2252  0.1275  0.3028
  869MPD2    H512812   4.620   3.822   1.197  0.4858 -2.7597 -1.2123
  869MPD2    N112813   4.696   3.502   1.664  0.0853  0.4506 -0.4063
  869MPD2    H712814   0.042   3.472   1.709 -1.2243 -1.3285  0.9255
  870MPD2     C12815   4.477   2.958   1.030  0.1913 -0.8178 -0.9847
  870MPD2    C112816   4.374   2.888   1.077  0.7355  0.7157  0.4676
  870MPD2    C212817   4.247   2.953   1.061  0.2036 -0.5516  0.3705
  870MPD2    C312818   4.232   3.078   1.017 -0.2194  0.1351 -0.1928
  870MPD2    C412819   4.341   3.148   0.975  0.0947  0.7045 -0.0352
  870MPD2    C512820   4.459   3.083   0.981  0.1866  0.2232  0.4496
  870MPD2     H12821   4.156   2.908   1.100 -1.2994  0.8759 -1.5003
  870MPD2    H112822   4.343   3.256   0.965  1.1765  0.6090 -0.8695
  870MPD2    H212823   4.579   2.923   1.046  0.0800 -1.1640 -1.0350
  870MPD2    H312824   4.548   3.142   0.960 -0.7616  1.0471 -1.2835
  870MPD2     N12825   4.101   3.124   1.011 -0.1738 -0.1331 -0.6823
  870MPD2    H512826   4.025   3.059   1.025  1.5507 -1.8124  0.7514
  870MPD2    N112827   4.393   2.762   1.138  0.0337  0.1048  0.3160
  870MPD2    H712828   4.491   2.736   1.142  0.2477  0.8615  0.0611
  871MPD2     C12829   0.498   2.192  16.460 -0.8553 -0.1499  0.1007
  871MPD2    C112830   0.445   2.109  16.561  0.1995  0.2677  0.1119
  871MPD2    C212831   0.450   1.968  16.544  0.3730 -0.3041  0.3383
  871MPD2    C312832   0.498   1.908  16.429 -0.2625 -0.2973 -0.6369
  871MPD2    C412833   0.550   1.990  16.329 -0.1259 -0.2047 -0.3231
  871MPD2    C512834   0.542   2.127  16.345 -0.2385 -0.6055 -0.0199
  871MPD2     H12835   0.419   1.903  16.625  0.4318 -0.8636 -0.0819
  871MPD2    H112836   0.583   1.956  16.231  3.7191 -2.1464  1.6701
  871MPD2    H212837   0.495   2.299  16.476  0.0255 -0.4742  2.5251
  871MPD2    H312838   0.569   2.187  16.259 -1.2353  0.7442  0.6007
  871MPD2     N12839   0.482   1.765  16.410  0.6597  0.4067 -0.2691
  871MPD2    H512840   0.442   1.714  16.489  2.1501 -1.7063 -0.8769
  871MPD2    N112841   0.394   2.175  16.679 -0.2288  0.2960 -0.0646
  871MPD2    H712842   0.417   2.274  16.683  1.9743 -0.3149  1.6650
  872MPD2     C12843   0.642   4.387  13.593  0.2573  0.7368 -0.5012
  872MPD2    C112844   0.711   4.345  13.705  0.4970 -0.1284  0.2368
  872MPD2    C212845   0.671   4.385  13.834 -0.7811  0.3808 -0.0452
  872MPD2    C312846   0.551   4.454  13.852 -0.3679 -0.2019  0.4406
  872MPD2    C412847   0.473   4.483  13.744  0.9642  0.2349 -0.0480
  872MPD2    C512848   0.519   4.455  13.616  0.0892  0.3568 -0.1345
  872MPD2     H12849   0.724   4.345  13.919 -0.0489  0.7441 -0.3278
  872MPD2    H112850   0.378   4.534  13.752 -0.0488 -1.7326  0.5875
  872MPD2    H212851   0.672   4.350  13.495  0.1749  2.7072 -1.2570
  872MPD2    H312852   0.455   4.482  13.533 -0.5099  0.4194  0.3465
  872MPD2     N12853   0.501   4.488  13.981 -0.5455 -0.6214  0.4188
  872MPD2    H512854   0.417   4.545  13.974 -1.5995 -2.0611  1.1495
  872MPD2    N112855   0.842   4.296  13.692  0.5070  0.1599 -0.2929
  872MPD2    H712856   0.899   4.306  13.775  1.4011  1.4717 -1.0716
  873MPD2     C12857   2.631   4.261   1.183  1.0483  0.2562  0.2222
  873MPD2    C112858   2.499   4.287   1.210  0.1863 -0.5014 -0.3033
  873MPD2    C212859   2.413   4.183   1.225 -0.7517  0.4886 -0.1709
  873MPD2    C312860   2.453   4.053   1.207 -0.7562  0.2587 -0.2383
  873MPD2    C412861   2.591   4.029   1.177  0.1126  0.0342 -0.5286
  873MPD2    C512862   2.676   4.129   1.168 -0.2110 -1.2466  0.4978
  873MPD2     H12863   2.308   4.202   1.248 -1.2374 -1.0351 -1.0904
  873MPD2    H112864   2.634   3.930   1.188 -1.9487 -1.1113 -2.6070
  873MPD2    H212865   2.703   4.341   1.166  2.3529 -0.8520  0.4844
  873MPD2    H312866   2.781   4.107   1.151  0.5186  2.2641  0.6099
  873MPD2     N12867   2.371   3.943   1.217 -0.5668  0.2924  0.1323
  873MPD2    H512868   2.410   3.853   1.191  0.5770  0.2256  2.1091
  873MPD2    N112869   2.464   4.425   1.239 -0.4771  0.2064  0.3108
  873MPD2    H712870   2.530   4.500   1.218 -1.4190  1.5547  2.2509
  874MPD2     C12871   1.936   4.275  16.312 -0.0804 -0.2402 -0.9230
  874MPD2    C112872   2.031   4.205  16.380  0.1812  0.6318  1.0431
  874MPD2    C212873   2.167   4.228  16.359 -0.5334  0.0385 -0.5202
  874MPD2    C312874   2.201   4.335  16.275  0.9612  0.0751 -0.1959
  874MPD2    C412875   2.105   4.405  16.213 -0.7688  0.1805 -0.1830
  874MPD2    C512876   1.973   4.376  16.232 -0.0314  0.3006 -0.7726
  874MPD2     H12877   2.240   4.165  16.408 -0.2587  1.0119  0.3061
  874MPD2    H112878   2.121   4.493  16.152 -0.1112  2.3654  3.1329
  874MPD2    H212879   1.830   4.254  16.319  0.5131 -2.5922  0.9006
  874MPD2    H312880   1.893   4.436  16.190 -0.7862 -1.1448 -1.3963
  874MPD2     N12881   2.340   4.367  16.269  0.1451 -0.0152 -0.1623
  874MPD2    H512882   2.397   4.315  16.335  2.3910  0.2980 -1.8653
  874MPD2    N112883   1.984   4.095  16.460 -0.1427 -0.2268  0.2489
  874MPD2    H712884   1.886   4.073  16.471  0.4024 -1.4459  2.7939
  875MPD2     C12885   3.650   2.926  14.712  0.6410  0.1119  0.5673
  875MPD2    C112886   3.536   2.913  14.785 -0.1272 -0.2599  0.5337
  875MPD2    C212887   3.531   2.970  14.912  0.5079 -0.5810  0.0940
  875MPD2    C312888   3.639   3.045  14.966 -0.0959 -0.4534 -0.2794
  875MPD2    C412889   3.755   3.053  14.886 -0.8680 -0.0024  1.1804
  875MPD2    C512890   3.762   2.994  14.759  0.0964  0.0421  0.3926
  875MPD2     H12891   3.436   2.960  14.963 -0.1547  1.7501 -0.7000
  875MPD2    H112892   3.837   3.121  14.906  0.6699 -1.9224  1.4788
  875MPD2    H212893   3.654   2.879  14.614  0.8630 -0.2636  0.7572
  875MPD2    H312894   3.851   3.012  14.699 -0.6109  0.5566 -0.5028
  875MPD2     N12895   3.637   3.104  15.094  0.0515  0.2290 -0.2016
  875MPD2    H512896   3.721   3.154  15.123  0.0665 -0.2438  0.5666
  875MPD2    N112897   3.430   2.821  14.749 -0.1451  0.0450 -0.0589
  875MPD2    H712898   3.351   2.822  14.812  0.2935  1.7746  0.4577
  876MPD2     C12899   1.967   3.964  16.118  0.2072  0.1279  0.3227
  876MPD2    C112900   2.106   3.986  16.114  0.0505  0.0752 -0.0543
  876MPD2    C212901   2.184   3.890  16.178  0.2396  0.8285  0.1235
  876MPD2    C312902   2.131   3.784  16.247  0.6237  0.8683  0.0447
  876MPD2    C412903   1.994   3.774  16.261 -0.2104  0.0519  0.0792
  876MPD2    C512904   1.913   3.856  16.192  0.4700 -0.9177 -0.2459
  876MPD2     H12905   2.292   3.899  16.170  0.0817  1.4285 -1.2659
  876MPD2    H112906   1.941   3.696  16.313 -1.0448  0.3875 -0.2530
  876MPD2    H212907   1.902   4.021  16.052 -1.9006 -1.1141  1.2988
  876MPD2    H312908   1.808   3.831  16.188 -0.1829  1.9000 -0.8517
  876MPD2     N12909   2.219   3.680  16.295  0.3267 -0.4374  0.2642
  876MPD2    H512910   2.318   3.695  16.281  0.4321 -2.3294 -1.1330
  876MPD2    N112911   2.159   4.087  16.024 -0.0338 -0.0882  0.1020
  876MPD2    H712912   2.097   4.133  15.959  1.8567  0.5584 -1.2561
  877MPD2     C12913   2.027   4.342  15.427 -0.2870 -0.4242  0.2750
  877MPD2    C112914   2.164   4.366  15.438  0.3253  0.2757 -0.2624
  877MPD2    C212915   2.238   4.367  15.315  0.1517  0.0351  0.2771
  877MPD2    C312916   2.178   4.338  15.199 -1.0247 -0.2063 -0.6681
  877MPD2    C412917   2.051   4.302  15.193 -1.0435 -0.5092  0.2532
  877MPD2    C512918   1.977   4.307  15.305 -0.1866 -1.1132  0.4565
  877MPD2     H12919   2.342   4.396  15.323  0.0858  0.6132 -1.0176
  877MPD2    H112920   1.998   4.278  15.101 -3.0766  2.4942  0.6154
  877MPD2    H212921   1.956   4.339  15.509  1.7656  0.2423  2.0673
  877MPD2    H312922   1.869   4.294  15.313 -0.3915  0.4427  0.3441
  877MPD2     N12923   2.263   4.337  15.079  0.1628 -0.4942  0.3514
  877MPD2    H512924   2.217   4.293  15.000 -0.5063  1.7657 -0.5112
  877MPD2    N112925   2.232   4.381  15.557 -0.0817  0.7637  0.0879
  877MPD2    H712926   2.333   4.383  15.549  0.1700  0.0700  3.0183
  878MPD2     C12927   2.258   3.744  13.039 -0.6158  0.3830  0.0904
  878MPD2    C112928   2.151   3.656  13.053  0.0189  0.0525  0.6761
  878MPD2    C212929   2.161   3.569  13.156 -1.4970 -0.3885  0.1631
  878MPD2    C312930   2.262   3.565  13.247  0.2812  0.0406 -0.0356
  878MPD2    C412931   2.374   3.650  13.226 -0.0323 -0.2658 -0.0223
  878MPD2    C512932   2.363   3.740  13.124  0.0644 -0.5789 -0.2597
  878MPD2     H12933   2.079   3.499  13.168 -1.1742 -1.1390 -1.9339
  878MPD2    H112934   2.462   3.637  13.288 -0.0126  0.6287  0.1421
  878MPD2    H212935   2.256   3.814  12.956  2.3878 -1.4363 -1.5053
  878MPD2    H312936   2.444   3.803  13.089  1.0182 -1.2821  0.6853
  878MPD2     N12937   2.244   3.479  13.357  0.1701 -0.0806  0.1428
  878MPD2    H512938   2.160   3.421  13.350 -0.3691  0.7769 -0.4858
  878MPD2    N112939   2.039   3.655  12.965 -1.0700  0.2073 -0.2559
  878MPD2    H712940   2.049   3.703  12.875 -3.3576  1.2786  0.0840
  879MPD2     C12941   2.488   0.382  17.076 -0.9977  0.6277 -0.7782
  879MPD2    C112942   2.454   0.267  17.138 -0.2308 -0.8460  0.4040
  879MPD2    C212943   2.370   0.174  17.073  0.1502  0.1092  0.5867
  879MPD2    C312944   2.334   0.205  16.942 -0.5089 -0.0773 -0.4485
  879MPD2    C412945   2.359   0.331  16.884 -0.3783 -0.0748  0.3490
  879MPD2    C512946   2.439   0.413  16.951 -0.7361 -0.4539  0.8662
  879MPD2     H12947   2.355   0.076  17.117 -1.6031 -0.3062 -0.9590
  879MPD2    H112948   2.320   0.370  16.791  2.2622 -0.9293 -1.0988
  879MPD2    H212949   2.557   0.449  17.127 -0.7417 -0.8547  0.8220
  879MPD2    H312950   2.477   0.500  16.898 -0.7736 -0.4382  0.8656
  879MPD2     N12951   2.264   0.118  16.854 -0.2600  0.1086  0.4681
  879MPD2    H512952   2.254   0.150  16.758  0.0802 -1.4232 -0.0733
  879MPD2    N112953   2.497   0.253  17.270  0.5225  0.3427  0.0106
  879MPD2    H712954   2.551   0.329  17.310 -1.6431  1.1986  1.2582
  880MPD2     C12955   3.605   1.972   0.353  0.5117 -0.4702  0.5854
  880MPD2    C112956   3.725   2.041   0.328  0.1539 -0.3130  0.0611
  880MPD2    C212957   3.842   1.967   0.304  0.0456  0.4165  0.2097
  880MPD2    C312958   3.841   1.828   0.300  0.8225 -0.3540  0.2138
  880MPD2    C412959   3.730   1.763   0.337 -0.1718 -0.0841  0.1841
  880MPD2    C512960   3.611   1.835   0.364  0.4646  0.3159 -0.1065
  880MPD2     H12961   3.935   2.016   0.278  0.5669 -0.1297  1.0389
  880MPD2    H112962   3.725   1.656   0.353 -4.0805  0.1170  0.4234
  880MPD2    H212963   3.513   2.021   0.383  2.2705  0.8129  3.8753
  880MPD2    H312964   3.521   1.782   0.392  1.8078 -1.1094  1.5421
  880MPD2     N12965   3.967   1.768   0.298  0.1395  0.4997  0.5353
  880MPD2    H512966   4.054   1.820   0.298  0.3580  0.1316  0.8301
  880MPD2    N112967   3.726   2.185   0.320 -0.2156 -0.4065  0.1556
  880MPD2    H712968   3.815   2.226   0.294 -0.2640 -0.4858 -0.1411
  881MPD2     C12969   3.938   2.978  17.538 -0.7216  0.3935 -0.1093
  881MPD2    C112970   3.887   2.860  17.493  0.4879 -0.7798  0.3777
  881MPD2    C212971   3.835   2.775  17.586  0.1455  0.0275 -0.6860
  881MPD2    C312972   3.805   2.812  17.719  0.3478 -0.5994 -0.4299
  881MPD2    C412973   3.848   2.938  17.752  0.2083  0.7237 -0.5163
  881MPD2    C512974   3.913   3.014  17.665 -0.1502 -0.5729  0.0535
  881MPD2     H12975   3.810   2.678  17.545 -2.7908  0.5560 -0.1219
  881MPD2    H112976   3.824   2.982   0.092  1.5236 -1.4031  0.7891
  881MPD2    H212977   3.981   3.056  17.477  0.5122 -1.1977 -1.2628
  881MPD2    H312978   3.956   3.102  17.713 -1.1231  0.6405 -1.2942
  881MPD2     N12979   3.744   2.738   0.062  0.0671  0.2586  0.3003
  881MPD2    H512980   3.725   2.779   0.153 -2.5399 -0.4621  0.0804
  881MPD2    N112981   3.931   2.814  17.367  0.2235  0.5613  0.2151
  881MPD2    H712982   3.923   2.714  17.352 -1.3895  0.5670  0.9672
  882MPD2     C12983   2.208   4.159  14.300  0.1686  0.3636  0.0285
  882MPD2    C112984   2.163   4.186  14.427  0.3755 -0.4376  0.1162
  882MPD2    C212985   2.023   4.190  14.450  0.5123 -0.2880 -0.6720
  882MPD2    C312986   1.939   4.156  14.347  0.4215 -0.2805 -0.3394
  882MPD2    C412987   1.985   4.138  14.220  0.5420 -0.0811 -0.3390
  882MPD2    C512988   2.121   4.140  14.195 -0.1025 -0.1093  0.0602
  882MPD2     H12989   1.987   4.210  14.550 -0.3504 -1.4358 -0.7504
  882MPD2    H112990   1.918   4.109  14.139  0.8748  0.8671 -0.9497
  882MPD2    H212991   2.314   4.141  14.282  0.2726 -0.8664  1.7957
  882MPD2    H312992   2.157   4.124  14.095 -0.1682 -1.2167  0.2054
  882MPD2     N12993   1.802   4.150  14.384  0.0125  0.0701  0.0312
  882MPD2    H512994   1.776   4.157  14.482  0.0531  0.1017  0.0394
  882MPD2    N112995   2.257   4.199  14.531 -0.3355  0.8698  0.1560
  882MPD2    H712996   2.352   4.172  14.506  0.1839  2.1933  0.7006
  883MPD2     C12997   3.885   4.407  15.999 -0.3882 -0.2846  1.1160
  883MPD2    C112998   3.955   4.497  15.921 -0.0237 -0.5003 -0.3030
  883MPD2    C212999   4.084   4.531  15.960  0.0826 -0.0430 -0.1858
  883MPD2    C313000   4.146   4.462  16.068  0.3524  0.2935 -0.3785
  883MPD2    C413001   4.069   4.381  16.149  0.2567 -0.1868 -0.7342
  883MPD2    C513002   3.941   4.350  16.113 -0.0819  0.2817 -0.0620
  883MPD2     H13003   4.139   4.605  15.904  2.9843 -0.8538  1.6139
  883MPD2    H113004   4.107   4.326  16.234  0.1108  0.5861 -0.1691
  883MPD2    H213005   3.787   4.372  15.967 -0.3343  0.1343  0.4927
  883MPD2    H313006   3.882   4.274  16.161  0.4408 -0.1640 -0.1206
  883MPD2     N13007   4.282   4.503  16.097 -0.1354  0.2857  0.0583
  883MPD2    H513008   4.321   4.585  16.051 -0.6438 -1.0222 -2.7057
  883MPD2    N113009   3.909   4.556  15.801  0.3734  0.2605  0.1270
  883MPD2    H713010   3.970   4.629  15.766 -2.3252  1.3527 -2.2791
  884MPD2     C13011   1.597   0.338  15.184  0.2623  0.1819 -0.1641
  884MPD2    C113012   1.555   0.420  15.083 -0.0131  1.2328 -0.0694
  884MPD2    C213013   1.433   0.484  15.078  0.1620 -0.4739  0.2340
  884MPD2    C313014   1.340   0.466  15.180  0.0764  0.8258  0.1617
  884MPD2    C413015   1.376   0.368  15.280  0.7145 -0.8267  0.2471
  884MPD2    C513016   1.503   0.312  15.281  0.4055 -0.1121 -0.0170
  884MPD2     H13017   1.409   0.562  15.006 -2.5398 -2.1825 -0.7576
  884MPD2    H113018   1.314   0.344  15.365 -0.4515 -0.5847 -0.5375
  884MPD2    H213019   1.689   0.282  15.194  0.1806 -0.0298 -0.5940
  884MPD2    H313020   1.529   0.245  15.362  1.2608  2.5838  1.9680
  884MPD2     N13021   1.217   0.530  15.176 -0.0040  0.2700 -0.0738
  884MPD2    H513022   1.199   0.581  15.090 -0.3870  0.2639 -0.0003
  884MPD2    N113023   1.653   0.449  14.981 -0.2362  0.2838 -0.7048
  884MPD2    H713024   1.629   0.518  14.911  0.3339  1.3493  0.1376
  885MPD2     C13025   4.720   0.500   0.512  0.2390 -0.0756  0.0963
  885MPD2    C113026   4.635   0.450   0.420  0.3801 -0.0958  0.6398
  885MPD2    C213027   4.590   0.529   0.315  0.6403 -0.1989 -0.2763
  885MPD2    C313028   4.634   0.662   0.305  0.5413  0.3215  0.3466
  885MPD2    C413029   4.724   0.710   0.392  0.4125  0.6264  0.1123
  885MPD2    C513030   0.026   0.626   0.494  0.1727 -0.1096  0.0245
  885MPD2     H13031   4.521   0.491   0.241  0.8532 -1.3652  0.1298
  885MPD2    H113032   0.021   0.812   0.396  0.7970  0.6317 -3.9472
  885MPD2    H213033   0.019   0.438   0.592  0.7835 -1.2094 -1.0440
  885MPD2    H313034   0.104   0.666   0.558 -1.9490  1.2460  1.7690
  885MPD2     N13035   4.588   0.751   0.202 -0.0511  0.2082  0.7521
  885MPD2    H513036   4.632   0.843   0.200  1.1762 -0.4056 -0.6236
  885MPD2    N113037   4.587   0.319   0.455 -0.1775 -0.3542 -0.3154
  885MPD2    H713038   4.630   0.261   0.527 -2.6038  0.5654  1.8783
  886MPD2     C13039   0.847   4.265  15.863  0.1372 -0.7605  0.1734
  886MPD2    C113040   0.911   4.158  15.804  0.2230  0.4988 -0.2360
  886MPD2    C213041   0.951   4.163  15.675  0.0884  0.0174 -0.0928
  886MPD2    C313042   0.924   4.270  15.593 -0.0001  0.5590 -0.3860
  886MPD2    C413043   0.850   4.374  15.645 -0.4898  0.0251  0.4629
  886MPD2    C513044   0.823   4.368  15.778 -0.0086 -0.3627 -0.4301
  886MPD2     H13045   0.996   4.071  15.640 -0.0965 -0.4260  0.8379
  886MPD2    H113046   0.819   4.455  15.581  0.5568 -0.3265 -0.4890
  886MPD2    H213047   0.829   4.271  15.970 -1.4266  0.1386 -0.1335
  886MPD2    H313048   0.776   4.455  15.822  0.0439 -1.1906  1.2756
  886MPD2     N13049   0.973   4.269  15.462  0.8608 -0.3084  0.0591
  886MPD2    H513050   1.019   4.185  15.429  0.6528 -0.4148  0.0372
  886MPD2    N113051   0.944   4.034  15.869 -0.4989  0.0976 -0.6183
  886MPD2    H713052   1.011   3.973  15.823  1.1805  0.5783  1.2176
  887MPD2     C13053   1.297   4.131  16.552 -0.4648 -0.1823 -0.4609
  887MPD2    C113054   1.253   4.160  16.424  0.0292 -0.3884  0.2329
  887MPD2    C213055   1.261   4.291  16.382  0.9674 -0.5573 -0.4322
  887MPD2    C313056   1.323   4.391  16.453 -0.0269  0.6044  0.4812
  887MPD2    C413057   1.369   4.350  16.576  0.5400  0.4008  0.2894
  887MPD2    C513058   1.361   4.227  16.626  0.5252 -0.4183  0.2673
  887MPD2     H13059   1.214   4.313  16.287  0.7318 -0.1188 -0.2162
  887MPD2    H113060   1.425   4.421  16.637  3.2710 -0.9875 -0.5967
  887MPD2    H213061   1.286   4.038  16.606 -0.7870  0.6222  0.8663
  887MPD2    H313062   1.399   4.212  16.726  1.2903 -0.1109  0.0236
  887MPD2     N13063   1.337   4.526  16.394 -0.3671  0.0939 -0.2986
  887MPD2    H513064   1.302   4.548  16.301 -1.3004 -1.8361 -0.4206
  887MPD2    N113065   1.201   4.059  16.337  0.0147 -0.6062 -0.0431
  887MPD2    H713066   1.170   4.089  16.245 -1.9359  2.5643  1.6433
  888MPD2     C13067   3.385   3.763  15.124  0.3476  0.0949 -0.1152
  888MPD2    C113068   3.417   3.825  15.247 -0.5973  0.5190 -0.1884
  888MPD2    C213069   3.417   3.954  15.259  0.0200 -0.3284 -0.0912
  888MPD2    C313070   3.372   4.033  15.156  0.4284 -0.1170 -0.2150
  888MPD2    C413071   3.322   3.970  15.037  0.1150 -0.2382 -0.1425
  888MPD2    C513072   3.322   3.831  15.028  0.6502  0.1968  0.4711
  888MPD2     H13073   3.443   3.995  15.356 -1.0058  0.2402 -0.0451
  888MPD2    H113074   3.282   4.020  14.949 -0.1838 -1.6721 -0.8060
  888MPD2    H213075   3.371   3.657  15.105 -2.1934  0.7122 -1.6689
  888MPD2    H313076   3.288   3.779  14.940 -0.8562  1.6880  0.1526
  888MPD2     N13077   3.389   4.175  15.165 -0.6109 -0.2326 -0.5342
  888MPD2    H513078   3.428   4.206  15.254 -1.0254  0.2362 -0.5210
  888MPD2    N113079   3.454   3.752  15.360  1.1678 -1.0212  0.4031
  888MPD2    H713080   3.484   3.810  15.438 -0.1407 -0.1268  0.2399
  889MPD2     C13081   2.818   3.576  13.174  0.6361 -0.1117 -0.0042
  889MPD2    C113082   2.869   3.467  13.250  0.4783 -0.2637  0.1186
  889MPD2    C213083   2.957   3.498  13.349  0.7537 -0.0702  0.0641
  889MPD2    C313084   2.950   3.624  13.407 -0.2262 -0.4266  0.6155
  889MPD2    C413085   2.864   3.722  13.361  0.1156  0.1738 -0.0590
  889MPD2    C513086   2.805   3.693  13.237  0.5179  0.4547 -0.5247
  889MPD2     H13087   2.985   3.403  13.394  0.6218  0.0450  0.3813
  889MPD2    H113088   2.839   3.818  13.405 -0.6591  1.1280 -2.5757
  889MPD2    H213089   2.759   3.561  13.085 -0.4261  0.5132  0.5906
  889MPD2    H313090   2.742   3.767  13.188 -0.4583 -0.3734 -0.5197
  889MPD2     N13091   3.029   3.638  13.530 -0.1721 -0.5083  0.8910
  889MPD2    H513092   3.070   3.550  13.559 -0.0238 -0.5678  0.5097
  889MPD2    N113093   2.882   3.341  13.193 -0.5235 -0.2218 -0.2911
  889MPD2    H713094   2.946   3.275  13.236  0.1439  1.1754  0.8397
  890MPD2     C13095   2.351   0.006  14.648 -0.6432  0.0926 -0.1934
  890MPD2    C113096   2.397   0.088  14.749  0.2148  0.0965 -0.7354
  890MPD2    C213097   2.335   0.077  14.873  0.1396  0.2267 -0.5495
  890MPD2    C313098   2.224   4.735  14.888 -0.3380 -0.9579  0.4580
  890MPD2    C413099   2.184   4.658  14.783 -0.1969  0.8188 -0.1299
  890MPD2    C513100   2.251   4.650  14.667 -0.0724  0.0885  0.2508
  890MPD2     H13101   2.357   0.148  14.953  1.6277 -0.9406  0.0816
  890MPD2    H113102   2.106   4.583  14.787  2.4959 -1.9011  1.7132
  890MPD2    H213103   2.408   0.008  14.556 -0.6835 -1.9748 -0.2711
  890MPD2    H313104   2.213   4.590  14.586  0.4965  0.1386 -0.0515
  890MPD2     N13105   2.148   4.738  15.004 -0.2186 -0.1665  0.4349
  890MPD2    H513106   2.180   0.056  15.082 -0.5177  1.7009 -0.8242
  890MPD2    N113107   2.493   0.186  14.709  0.3778  0.3983  0.1570
  890MPD2    H713108   2.497   0.193  14.608 -0.9357  2.3370  0.2376
  891MPD2     C13109   0.826   3.864  17.173  0.2593 -0.1510 -0.6002
  891MPD2    C113110   0.721   3.785  17.134 -0.2363 -0.4832  0.6496
  891MPD2    C213111   0.727   3.646  17.155 -0.3608 -0.3378  0.0626
  891MPD2    C313112   0.841   3.588  17.212 -0.0769 -0.5739  0.0050
  891MPD2    C413113   0.945   3.676  17.256  0.2346 -0.0435  0.3017
  891MPD2    C513114   0.935   3.815  17.239  0.1028 -0.2655  0.3875
  891MPD2     H13115   0.645   3.584  17.122 -0.4834 -1.8718  3.2815
  891MPD2    H113116   1.031   3.650  17.316  0.1477  0.1612  0.5127
  891MPD2    H213117   0.827   3.971  17.158 -0.7865 -0.1008 -0.2831
  891MPD2    H313118   1.011   3.886  17.269 -0.5384  0.2689  0.7582
  891MPD2     N13119   0.826   3.452  17.246  0.8663 -0.0388 -0.0135
  891MPD2    H513120   0.740   3.398  17.236  0.0222  1.3206 -0.0598
  891MPD2    N113121   0.618   3.850  17.059 -0.0473  0.2766  0.3735
  891MPD2    H713122   0.641   3.946  17.035  1.0405  0.8641  3.6983
  892MPD2     C13123   1.562   4.475  15.122  0.2528 -0.5633  0.3731
  892MPD2    C113124   1.460   4.513  15.034 -0.2462  0.4239  0.1005
  892MPD2    C213125   1.448   4.459  14.910 -1.1976  0.2093  0.0097
  892MPD2    C313126   1.547   4.365  14.873  0.3314  0.2489  0.1232
  892MPD2    C413127   1.652   4.333  14.960  0.0040  0.8135  0.3160
  892MPD2    C513128   1.660   4.384  15.085 -0.0295 -0.1681 -0.6428
  892MPD2     H13129   1.365   4.499  14.853  0.1450 -0.3438 -2.3393
  892MPD2    H113130   1.720   4.253  14.932 -0.0618  0.6300  0.6870
  892MPD2    H213131   1.572   4.522  15.219 -1.8673  1.6327 -0.4850
  892MPD2    H313132   1.743   4.349  15.146  0.5799 -1.9806 -2.5099
  892MPD2     N13133   1.539   4.295  14.756  0.0545 -0.0302 -0.4259
  892MPD2    H513134   1.621   4.243  14.725 -1.2029 -0.8181 -2.4322
  892MPD2    N113135   1.365   4.609  15.066  0.1295 -0.1571  0.1759
  892MPD2    H713136   1.316   4.665  14.997  0.1448 -0.6529 -0.2376
  893MPD2     C13137   3.317   4.005   1.107 -0.1931  0.6728  0.1556
  893MPD2    C113138   3.379   4.009   1.228 -0.1987  0.1375 -0.1215
  893MPD2    C213139   3.305   4.068   1.327 -0.0730  0.1407  0.5019
  893MPD2    C313140   3.186   4.139   1.301  0.3116 -0.0359 -0.0749
  893MPD2    C413141   3.123   4.117   1.178  0.1174  0.4252 -0.1614
  893MPD2    C513142   3.186   4.046   1.078 -0.1956  0.4163 -0.3756
  893MPD2     H13143   3.349   4.070   1.426 -0.7231 -0.9130  0.8191
  893MPD2    H113144   3.028   4.169   1.166 -0.7944 -0.5168  2.8536
  893MPD2    H213145   3.361   3.953   1.022 -1.6679 -0.5039  0.1078
  893MPD2    H313146   3.152   4.036   0.976 -1.0847 -1.5138  0.1083
  893MPD2     N13147   3.125   4.224   1.398  0.0876 -0.0914 -0.3396
  893MPD2    H513148   3.036   4.265   1.372 -0.3589  0.0456  1.4516
  893MPD2    N113149   3.506   3.942   1.240  0.1694  0.3013 -0.5875
  893MPD2    H713150   3.561   3.914   1.159  0.3865 -0.1483 -0.2890
  894MPD2     C13151   1.392   0.738   1.273 -0.2014  0.3588  0.3284
  894MPD2    C113152   1.261   0.777   1.263  0.7694 -0.2399  0.1005
  894MPD2    C213153   1.214   0.845   1.156 -0.1170  0.1638  0.6603
  894MPD2    C313154   1.298   0.879   1.052  0.2071 -0.4210 -0.2318
  894MPD2    C413155   1.427   0.831   1.063  0.4463  0.2446  0.7558
  894MPD2    C513156   1.473   0.763   1.171 -0.1055 -0.6584 -0.0958
  894MPD2     H13157   1.111   0.880   1.159 -1.0569 -2.4252 -0.5278
  894MPD2    H113158   1.497   0.858   0.985 -0.1448  0.0410  0.1522
  894MPD2    H213159   1.428   0.671   1.350  0.6810  1.5933  0.9961
  894MPD2    H313160   1.572   0.717   1.168 -0.0355 -0.3288 -2.6632
  894MPD2     N13161   1.242   0.948   0.939 -0.0602 -0.3319 -0.1943
  894MPD2    H513162   1.142   0.960   0.952  0.4371  1.5170  2.0587
  894MPD2    N113163   1.166   0.754   1.366 -0.4341  0.1646  0.4396
  894MPD2    H713164   1.069   0.779   1.347 -0.3773  1.1395  1.4019
  895MPD2     C13165   0.100   4.294  13.877  0.0522  0.4889  0.0309
  895MPD2    C113166   0.122   4.248  13.748 -0.3358  0.1832 -0.8679
  895MPD2    C213167   0.239   4.187  13.712 -0.7305 -0.6114 -0.2141
  895MPD2    C313168   0.330   4.165  13.808 -1.1747  0.2230 -0.8396
  895MPD2    C413169   0.317   4.202  13.937 -0.4426  0.1693 -0.0743
  895MPD2    C513170   0.201   4.275  13.968  0.2492 -0.3978 -0.3413
  895MPD2     H13171   0.254   4.155  13.610 -2.9894 -0.8521 -0.4735
  895MPD2    H113172   0.384   4.174  14.018 -0.4468  0.8134  0.1561
  895MPD2    H213173   0.004   4.335  13.905 -0.6878 -0.8829 -0.4921
  895MPD2    H313174   0.180   4.301  14.071 -0.3290 -1.6294 -0.1536
  895MPD2     N13175   0.428   4.083  13.761  0.6039 -0.4898 -0.7735
  895MPD2    H513176   0.414   4.051  13.666  0.6570 -1.4809 -0.4509
  895MPD2    N113177   0.022   4.249  13.650  0.3798  0.2015  0.4019
  895MPD2    H713178   0.041   4.199  13.564 -1.9535  1.0251 -0.5845
  896MPD2     C13179   3.514   1.552   1.292 -0.0432  0.3316 -0.1306
  896MPD2    C113180   3.400   1.612   1.254  0.8005  0.0683 -0.1663
  896MPD2    C213181   3.278   1.543   1.256 -0.5114  0.1044  1.0391
  896MPD2    C313182   3.272   1.406   1.284  0.1865 -0.3767  0.8612
  896MPD2    C413183   3.385   1.338   1.312  0.2836 -0.0129 -0.7796
  896MPD2    C513184   3.506   1.416   1.304  0.5966  0.5751  0.4484
  896MPD2     H13185   3.185   1.592   1.228 -1.3064  0.9101  5.0365
  896MPD2    H113186   3.398   1.231   1.326 -2.4614 -0.3283 -0.7596
  896MPD2    H213187   3.606   1.610   1.289  0.2027  0.0323  1.6907
  896MPD2    H313188   3.601   1.366   1.319  0.1187 -0.6995 -0.7157
  896MPD2     N13189   3.149   1.337   1.268 -0.1146  0.1198 -0.2638
  896MPD2    H513190   3.067   1.397   1.258 -0.0489  0.0516 -1.2804
  896MPD2    N113191   3.409   1.744   1.211 -0.2364  0.3625  0.4472
  896MPD2    H713192   3.492   1.797   1.237 -0.0658  0.6186 -0.6180
  897MPD2     C13193   3.873   2.777  10.898 -0.5743  0.3741  0.1063
  897MPD2    C113194   3.871   2.911  10.876 -0.5695  0.3050  0.2765
  897MPD2    C213195   3.765   2.987  10.936  0.3750 -0.0664 -0.2016
  897MPD2    C313196   3.661   2.931  11.005  0.0584 -0.7875 -0.2913
  897MPD2    C413197   3.676   2.799  11.034 -0.3470 -0.0390  0.6783
  897MPD2    C513198   3.784   2.722  10.984  0.3151  0.0169  0.2589
  897MPD2     H13199   3.753   3.092  10.912 -2.7863 -0.1026  1.1941
  897MPD2    H113200   3.604   2.742  11.093  1.7986 -2.7937  0.6413
  897MPD2    H213201   3.954   2.719  10.856 -1.2459 -0.9775  0.6855
  897MPD2    H313202   3.786   2.615  11.001 -3.2628  0.1564  1.4843
  897MPD2     N13203   3.552   3.012  11.041 -0.6690  0.0106  0.4662
  897MPD2    H513204   3.557   3.104  10.999 -2.4033 -0.3626 -0.5922
  897MPD2    N113205   3.965   2.964  10.789  0.0303  0.3461 -0.4141
  897MPD2    H713206   4.022   2.890  10.748 -0.7669  0.4100 -1.6292
  898MPD2     C13207   1.210   4.093   0.207  0.6271  0.1225  0.3558
  898MPD2    C113208   1.309   4.118   0.115  0.1776 -0.1042 -0.6240
  898MPD2    C213209   1.295   4.227   0.031 -0.2828 -0.1579  0.2404
  898MPD2    C313210   1.196   4.320   0.053  0.0945  0.2211 -0.3093
  898MPD2    C413211   1.117   4.309   0.164 -0.5229  0.1306 -0.2001
  898MPD2    C513212   1.120   4.188   0.233  0.7272 -0.4001 -0.4041
  898MPD2     H13213   1.357   4.239  17.699 -2.9092 -1.9869 -1.8766
  898MPD2    H113214   1.039   4.380   0.191  0.5409  1.5489 -0.8601
  898MPD2    H213215   1.211   4.009   0.275  1.7834 -1.4543 -1.6235
  898MPD2    H313216   1.050   4.159   0.311  0.1950  1.2955 -0.2485
  898MPD2     N13217   1.191   4.436  17.727  0.7874 -0.1039 -0.0506
  898MPD2    H513218   1.241   4.437  17.639  0.3769  0.2498 -0.2752
  898MPD2    N113219   1.405   4.022   0.102  0.0418  0.6394  0.2369
  898MPD2    H713220   1.399   3.939   0.160  2.2679 -2.1332 -3.4537
  899MPD2     C13221   2.145   4.443  17.200 -0.4727 -0.2768  0.0904
  899MPD2    C113222   2.102   4.531  17.297  0.7809  0.7970 -0.0846
  899MPD2    C213223   2.031   4.480  17.404 -0.1524  0.2360  0.6179
  899MPD2    C313224   1.997   4.344  17.415 -0.1101  0.2763 -0.1625
  899MPD2    C413225   2.047   4.253  17.319 -0.3627 -0.4105  0.0065
  899MPD2    C513226   2.111   4.312  17.214  0.9609 -0.0888 -0.3270
  899MPD2     H13227   1.988   4.554  17.469 -1.4441 -0.9682  1.1203
  899MPD2    H113228   2.009   4.151  17.318  0.1926 -0.6093 -0.4544
  899MPD2    H213229   2.198   4.474  17.111 -1.3706  1.3485  0.1145
  899MPD2    H313230   2.140   4.245  17.133  1.8839 -0.8581  0.6460
  899MPD2     N13231   1.907   4.300  17.522 -0.0422  0.3897  0.5996
  899MPD2    H513232   1.858   4.212  17.507  2.9618 -1.0600 -0.6054
  899MPD2    N113233   2.128   4.669  17.278 -0.1079  0.2419  0.5069
  899MPD2    H713234   2.180   4.684  17.193  0.4808  1.4624  1.0949
  900MPD2     C13235   1.348   1.314  12.747  0.0041 -0.8251 -0.0754
  900MPD2    C113236   1.235   1.235  12.724  0.7766 -0.7617 -0.4993
  900MPD2    C213237   1.133   1.282  12.639 -0.2057  0.1636  0.1024
  900MPD2    C313238   1.151   1.399  12.573 -0.5534  0.1510  0.0347
  900MPD2    C413239   1.265   1.473  12.600  0.6742  0.4385 -0.0150
  900MPD2    C513240   1.361   1.437  12.687 -0.6673  0.4116  0.5092
  900MPD2     H13241   1.036   1.234  12.641 -0.6527  1.1526  1.7419
  900MPD2    H113242   1.277   1.571  12.554 -1.0311 -0.4821 -2.4036
  900MPD2    H213243   1.432   1.270  12.801  1.5470  1.0211 -0.9671
  900MPD2    H313244   1.446   1.501  12.708  0.4830 -0.5792 -1.0827
  900MPD2     N13245   1.058   1.437  12.468  0.0477  0.3449  0.4648
  900MPD2    H513246   0.966   1.395  12.463 -0.4599  1.2111  2.2661
  900MPD2    N113247   1.223   1.116  12.800 -0.3161 -0.4283 -0.5835
  900MPD2    H713248   1.295   1.099  12.869  0.6638  2.8962 -0.7848
  901MPD2     C13249   0.937   0.060  12.685  0.0400 -0.5651  0.4418
  901MPD2    C113250   1.074   0.076  12.714 -0.2365  0.1040 -0.3105
  901MPD2    C213251   1.124   0.197  12.741  0.6620  0.7085 -0.2580
  901MPD2    C313252   1.046   0.306  12.769 -0.2733 -0.0272 -0.1566
  901MPD2    C413253   0.909   0.284  12.764 -0.2135 -0.5793  0.3476
  901MPD2    C513254   0.858   0.166  12.723  0.0766  0.2281 -0.3139
  901MPD2     H13255   1.232   0.206  12.750  0.6642  1.8798 -1.4463
  901MPD2    H113256   0.832   0.353  12.798  1.3494  0.7671  1.1545
  901MPD2    H213257   0.892   4.708  12.649 -0.0543 -0.5221  0.4512
  901MPD2    H313258   0.750   0.155  12.727 -0.0517  2.1161  1.2346
  901MPD2     N13259   1.115   0.428  12.788  0.1188 -0.3397  0.1431
  901MPD2    H513260   1.216   0.438  12.779 -0.0188 -1.5725 -2.6413
  901MPD2    N113261   1.156   4.705  12.684  0.1234 -0.2755 -0.4934
  901MPD2    H713262   1.112   4.637  12.623  0.7973 -2.2919  1.2926
  902MPD2     C13263   0.975   3.896  12.611  0.4205 -0.4908 -0.2760
  902MPD2    C113264   0.927   3.951  12.494  0.2032 -0.5025 -0.2996
  902MPD2    C213265   0.991   3.913  12.377 -0.0248  0.2992 -0.3927
  902MPD2    C313266   1.085   3.815  12.375  0.2876  1.2036 -0.0635
  902MPD2    C413267   1.117   3.743  12.490 -0.5266 -0.4447 -0.5719
  902MPD2    C513268   1.061   3.787  12.606  0.3658 -0.2372  0.3550
  902MPD2     H13269   0.962   3.971  12.290  0.0518  0.4400 -0.3254
  902MPD2    H113270   1.183   3.657  12.495 -0.8745 -0.8436 -2.8906
  902MPD2    H213271   0.940   3.935  12.706 -1.3414  1.8920 -1.8998
  902MPD2    H313272   1.085   3.728  12.694  3.6134 -0.1715 -0.4925
  902MPD2     N13273   1.153   3.762  12.265  0.2613 -0.2449  0.8576
  902MPD2    H513274   1.218   3.684  12.267  0.8968  0.2066 -2.8576
  902MPD2    N113275   0.827   4.056  12.502  0.7417  0.0356 -0.4881
  902MPD2    H713276   0.794   4.080  12.595 -0.1454  2.7576 -1.4905
  903MPD2     C13277   1.209   4.235  11.720  0.4826  0.0651  0.3530
  903MPD2    C113278   1.121   4.129  11.737  0.4878  0.5525 -0.1135
  903MPD2    C213279   0.989   4.160  11.735 -0.6878  0.7400  0.4726
  903MPD2    C313280   0.940   4.289  11.721 -0.3977 -0.5057 -0.3076
  903MPD2    C413281   1.028   4.388  11.695  0.3283 -0.4426  0.1420
  903MPD2    C513282   1.163   4.354  11.686  0.1782 -0.6661 -0.5743
  903MPD2     H13283   0.915   4.086  11.762  1.7367 -1.9848 -0.2987
  903MPD2    H113284   0.997   4.491  11.677  0.2307 -1.1909 -3.9960
  903MPD2    H213285   1.316   4.217  11.712 -0.4385 -3.9512 -2.7314
  903MPD2    H313286   1.241   4.421  11.650 -1.4327  1.5484  0.0247
  903MPD2     N13287   0.804   4.314  11.739  0.0523 -0.3978  0.1093
  903MPD2    H513288   0.739   4.237  11.751 -0.1832 -0.0500  1.0583
  903MPD2    N113289   1.170   3.997  11.756  0.6137 -0.1441  0.0806
  903MPD2    H713290   1.268   3.986  11.777  0.4281 -1.4592  0.2905
  904MPD2     C13291   0.204   3.441  14.424 -0.0764  0.0383 -0.9087
  904MPD2    C113292   0.237   3.526  14.316  0.1729 -0.0563  0.7684
  904MPD2    C213293   0.365   3.561  14.300  0.0007 -0.1550 -0.3753
  904MPD2    C313294   0.463   3.507  14.385  0.3534 -0.4013 -0.4630
  904MPD2    C413295   0.433   3.407  14.471 -0.3597  0.9199 -0.0233
  904MPD2    C513296   0.300   3.380  14.500 -0.1135  0.2272 -0.1099
  904MPD2     H13297   0.389   3.626  14.217 -0.0333  0.4933  0.1267
  904MPD2    H113298   0.508   3.353  14.528  0.3203  1.3928 -0.4764
  904MPD2    H213299   0.102   3.402  14.427 -0.5174  1.2675  0.2826
  904MPD2    H313300   0.267   3.301  14.567 -0.9023 -0.4168 -1.2579
  904MPD2     N13301   0.593   3.553  14.367  0.1688  0.0058 -0.4116
  904MPD2    H513302   0.620   3.606  14.285  1.9347 -0.5741 -0.2020
  904MPD2    N113303   0.145   3.594  14.226  0.3916 -0.1192 -1.1071
  904MPD2    H713304   0.178   3.664  14.161  1.2036  0.2173 -0.3240
  905MPD2     C13305   0.033   3.581  13.524  0.6199  0.6297  0.2339
  905MPD2    C113306   0.075   3.680  13.615  0.1938  1.2263  0.0899
  905MPD2    C213307   0.185   3.757  13.581  0.3081  0.5525  0.3736
  905MPD2    C313308   0.276   3.707  13.482 -0.3214 -0.2671  0.0756
  905MPD2    C413309   0.237   3.602  13.394 -0.0454 -0.0772  0.7364
  905MPD2    C513310   0.109   3.552  13.413  0.0610  0.3326 -0.2965
  905MPD2     H13311   0.225   3.831  13.650 -1.0823  1.8164 -0.1785
  905MPD2    H113312   0.292   3.580  13.304  1.9192  2.7577  1.2381
  905MPD2    H213313   4.682   3.525  13.544  1.6614 -2.3148 -3.2447
  905MPD2    H313314   0.073   3.471  13.351  0.8606  0.4144 -0.8575
  905MPD2     N13315   0.406   3.750  13.472  0.8744 -0.3139 -0.5311
  905MPD2    H513316   0.476   3.690  13.429  1.1947 -0.7814  0.6575
  905MPD2    N113317   4.733   3.713  13.729 -0.1341 -0.1274 -0.1229
  905MPD2    H713318   4.653   3.652  13.742 -0.4090  0.4525  0.9581
  906MPD2     C13319   2.578   3.418  11.224  0.2475  0.1520  0.5864
  906MPD2    C113320   2.478   3.334  11.183 -0.3266  0.0268 -0.0513
  906MPD2    C213321   2.409   3.261  11.268 -0.3071 -0.2022  0.2924
  906MPD2    C313322   2.432   3.263  11.398 -0.7424 -0.1500  0.4528
  906MPD2    C413323   2.534   3.345  11.446 -0.1283 -0.0454  0.2188
  906MPD2    C513324   2.603   3.433  11.360  0.2417 -0.3291 -1.1091
  906MPD2     H13325   2.341   3.193  11.220 -0.3843 -0.0817  0.2333
  906MPD2    H113326   2.544   3.355  11.553 -0.6557  0.5446  0.2085
  906MPD2    H213327   2.626   3.484  11.152 -0.2174  1.4979  1.5313
  906MPD2    H313328   2.684   3.497  11.394 -0.0806  0.3857 -1.6934
  906MPD2     N13329   2.354   3.192  11.491  0.8989  0.2415  0.0800
  906MPD2    H513330   2.377   3.200  11.589 -0.6125 -0.6532  0.5116
  906MPD2    N113331   2.431   3.319  11.046  0.4490 -0.2681 -0.5944
  906MPD2    H713332   2.372   3.239  11.022  1.1815 -0.1233 -2.9507
  907MPD2     C13333   1.641   2.676  15.472 -0.7179  0.0889 -0.6992
  907MPD2    C113334   1.692   2.555  15.436 -0.8164 -0.4438  0.1385
  907MPD2    C213335   1.764   2.488  15.534 -0.5545 -0.0215 -0.2182
  907MPD2    C313336   1.785   2.542  15.662 -0.5229  0.6166 -0.6241
  907MPD2    C413337   1.735   2.667  15.692 -0.6252  0.2093 -0.4651
  907MPD2    C513338   1.667   2.734  15.595 -0.2754  0.4349  0.0071
  907MPD2     H13339   1.799   2.387  15.515  1.9894  0.9878 -0.8868
  907MPD2    H113340   1.760   2.721  15.783 -0.7496 -1.2164  0.4183
  907MPD2    H213341   1.593   2.731  15.393 -2.2934  1.9060  1.5306
  907MPD2    H313342   1.632   2.834  15.617  0.4706  1.0446 -1.6254
  907MPD2     N13343   1.867   2.463  15.748  0.6612  0.4070  0.0765
  907MPD2    H513344   1.897   2.371  15.716 -0.7882 -0.5139  1.3751
  907MPD2    N113345   1.684   2.497  15.311 -0.0579  0.4143 -0.5230
  907MPD2    H713346   1.707   2.399  15.300 -0.6258  0.3154 -0.7967
  908MPD2     C13347   3.953   2.686   9.965  0.8051 -0.4913 -0.0310
  908MPD2    C113348   3.998   2.626  10.079 -0.3664 -0.3480  0.0143
  908MPD2    C213349   4.031   2.694  10.196 -0.3255  0.1573  0.9180
  908MPD2    C313350   4.017   2.837  10.191 -0.0198  0.0285 -0.0304
  908MPD2    C413351   3.958   2.896  10.081 -0.5968  0.0621  0.8530
  908MPD2    C513352   3.936   2.821   9.968  0.5613  0.5458  0.3436
  908MPD2     H13353   4.071   2.647  10.285  0.4121 -0.7143  0.1179
  908MPD2    H113354   3.935   3.001  10.064  0.2226  0.1055  0.0129
  908MPD2    H213355   3.951   2.637   9.869 -1.3211 -1.8212  0.6952
  908MPD2    H313356   3.901   2.872   9.879  1.7451  2.7694  1.1287
  908MPD2     N13357   4.063   2.909  10.299 -0.3729 -0.7234 -0.9196
  908MPD2    H513358   4.101   2.865  10.382 -1.1388  1.0779  0.3758
  908MPD2    N113359   4.015   2.489  10.068  0.0342 -0.1696 -0.1308
  908MPD2    H713360   3.978   2.449   9.983  3.1997 -3.8191  0.1701
  909MPD2     C13361   3.833   1.150  11.628  0.5778  0.1006  0.4427
  909MPD2    C113362   3.942   1.222  11.670  0.3697 -0.9495  0.1170
  909MPD2    C213363   3.932   1.290  11.791  0.5844 -0.3141 -0.2899
  909MPD2    C313364   3.831   1.265  11.883  0.5194  0.2579 -0.1802
  909MPD2    C413365   3.729   1.172  11.848  0.3459  0.6212  0.4013
  909MPD2    C513366   3.731   1.126  11.714  0.1936  0.2629 -0.1667
  909MPD2     H13367   4.018   1.351  11.816  0.8359 -0.8020  0.0459
  909MPD2    H113368   3.649   1.153  11.918 -0.0346  0.7696  0.0102
  909MPD2    H213369   3.829   1.099  11.532 -1.3447  0.1585  0.4891
  909MPD2    H313370   3.656   1.056  11.680 -0.3176  0.7230  0.0172
  909MPD2     N13371   3.841   1.343  12.000 -0.0742 -0.2673 -0.9406
  909MPD2    H513372   3.918   1.409  11.998  0.9244 -1.4365 -1.5243
  909MPD2    N113373   4.069   1.226  11.613 -0.6179  0.2409  0.9376
  909MPD2    H713374   4.145   1.284  11.647 -0.9432  1.6093 -0.6695
  910MPD2     C13375   1.263   2.911  15.554 -0.1357  0.2498 -0.0551
  910MPD2    C113376   1.212   2.869  15.675  0.1653  0.3289  0.2006
  910MPD2    C213377   1.116   2.944  15.737  0.2842 -0.1291  0.6069
  910MPD2    C313378   1.046   3.037  15.655 -0.5635  0.1139  0.7265
  910MPD2    C413379   1.085   3.074  15.529 -0.5683 -0.2618 -0.8491
  910MPD2    C513380   1.201   3.016  15.484 -0.4479  0.3316 -0.1499
  910MPD2     H13381   1.098   2.919  15.841 -2.0908 -1.1816 -0.0489
  910MPD2    H113382   1.036   3.156  15.479 -1.1839  2.3843  4.1240
  910MPD2    H213383   1.342   2.859  15.500 -0.5156  1.3774 -1.6976
  910MPD2    H313384   1.238   3.046  15.387  1.3649  0.0130  0.4396
  910MPD2     N13385   0.928   3.104  15.699  0.4092 -0.3084 -0.3233
  910MPD2    H513386   0.878   3.158  15.630 -0.9980 -2.4533 -1.0015
  910MPD2    N113387   1.280   2.765  15.748  0.3978 -0.2118  0.1531
  910MPD2    H713388   1.257   2.747  15.845 -0.1467 -1.1541 -0.1538
  911MPD2     C13389   3.717   3.453  16.261  0.6441 -0.5384  0.4566
  911MPD2    C113390   3.775   3.560  16.312  0.7001  0.4613  0.2989
  911MPD2    C213391   3.721   3.688  16.284  0.3807 -0.4015  0.0676
  911MPD2    C313392   3.606   3.696  16.201 -0.3389 -0.8135 -0.2748
  911MPD2    C413393   3.540   3.581  16.163 -1.5221  0.3662  1.4079
  911MPD2    C513394   3.594   3.458  16.195 -0.1810  0.1930  0.1203
  911MPD2     H13395   3.772   3.781  16.310  0.7190 -0.6590  0.3296
  911MPD2    H113396   3.444   3.583  16.114 -0.6487 -0.3052 -0.3359
  911MPD2    H213397   3.749   3.353  16.288  0.6336 -1.0302 -1.3587
  911MPD2    H313398   3.541   3.372  16.157 -1.3528  1.0188 -0.1328
  911MPD2     N13399   3.549   3.819  16.160  0.3808  0.0127  0.2251
  911MPD2    H513400   3.464   3.816  16.104  1.0571 -0.9800 -0.7593
  911MPD2    N113401   3.879   3.537  16.407 -0.0573 -0.3635 -0.3428
  911MPD2    H713402   3.902   3.441  16.430 -1.5284 -0.9067 -1.1395
  912MPD2     C13403   3.168   3.765  15.553 -0.2676 -0.0877 -0.5437
  912MPD2    C113404   3.218   3.749  15.685 -0.4966  0.3686  0.6318
  912MPD2    C213405   3.183   3.633  15.750  0.6678 -0.1714 -0.2619
  912MPD2    C313406   3.123   3.527  15.685 -0.7228  0.2293  0.6534
  912MPD2    C413407   3.096   3.538  15.549 -0.3738 -0.0361 -0.0821
  912MPD2    C513408   3.123   3.653  15.482  0.0195 -0.1329 -0.7073
  912MPD2     H13409   3.198   3.620  15.857  0.6835  1.8835 -0.0042
  912MPD2    H113410   3.047   3.454  15.500  2.7297 -1.7927 -0.2173
  912MPD2    H213411   3.176   3.859  15.501 -2.5000  0.2049 -0.3837
  912MPD2    H313412   3.083   3.660  15.382  0.4707  1.1498 -0.8030
  912MPD2     N13413   3.102   3.401  15.752 -0.0151 -0.0570 -0.4609
  912MPD2    H513414   3.113   3.409  15.853  0.9131 -2.6193 -0.3625
  912MPD2    N113415   3.286   3.857  15.743 -0.2942 -0.6694  0.1092
  912MPD2    H713416   3.305   3.940  15.688 -0.4130 -2.5087 -2.7118
  913MPD2     C13417   3.107   3.981  10.493 -0.2272 -0.7661 -0.0566
  913MPD2    C113418   3.155   4.105  10.459  0.4791  0.2677 -0.0826
  913MPD2    C213419   3.089   4.185  10.369  0.9086 -0.1427  1.2866
  913MPD2    C313420   2.966   4.137  10.323 -0.0876  0.2427  0.0662
  913MPD2    C413421   2.911   4.012  10.370  0.1084  0.6899 -0.1854
  913MPD2    C513422   2.993   3.929  10.441 -0.1878  0.0519 -0.7294
  913MPD2     H13423   3.115   4.281  10.326  2.6986 -0.4168  1.7729
  913MPD2    H113424   2.813   3.979  10.339  1.0037 -1.4695 -0.6904
  913MPD2    H213425   3.170   3.911  10.546  0.7408  0.5594  0.5433
  913MPD2    H313426   2.962   3.828  10.468 -0.0359 -0.2247 -1.5932
  913MPD2     N13427   2.873   4.215  10.252  0.0219 -0.3816  0.6466
  913MPD2    H513428   2.779   4.177  10.254  0.2987 -1.1952 -1.9882
  913MPD2    N113429   3.281   4.140  10.516 -0.2567  0.5429  0.4122
  913MPD2    H713430   3.326   4.077  10.582 -0.3752  0.3165  0.2800
  914MPD2     C13431   1.240   0.479  12.091 -0.7619 -0.4601  0.0370
  914MPD2    C113432   1.299   0.479  12.218 -0.0433  0.2851 -0.4018
  914MPD2    C213433   1.346   0.360  12.273 -0.3167 -0.1684  0.3199
  914MPD2    C313434   1.328   0.242  12.205  0.7420 -0.3429 -0.0788
  914MPD2    C413435   1.276   0.237  12.078  0.6245  0.0294  0.2522
  914MPD2    C513436   1.219   0.358  12.028  0.3415 -0.1221  0.3181
  914MPD2     H13437   1.381   0.355  12.375 -0.4826  2.7314  0.5094
  914MPD2    H113438   1.269   0.144  12.023 -0.3643  0.3189 -0.1117
  914MPD2    H213439   1.202   0.570  12.046 -1.4727 -0.9019 -0.2452
  914MPD2    H313440   1.163   0.358  11.935 -0.5810 -1.3847  0.8772
  914MPD2     N13441   1.378   0.126  12.269 -0.5036  0.3512 -1.2883
  914MPD2    H513442   1.406   0.142  12.365  0.5530  0.3932 -1.5999
  914MPD2    N113443   1.304   0.612  12.280  0.1428  0.0421  0.2478
  914MPD2    H713444   1.281   0.693  12.224 -0.5111 -0.5553 -0.3498
  915MPD2     C13445   4.717   0.525  15.585  0.4822  0.2831 -0.0838
  915MPD2    C113446   4.582   0.542  15.557  0.3497  0.5536 -0.0481
  915MPD2    C213447   4.490   0.569  15.658  0.2913  0.3930  0.7474
  915MPD2    C313448   4.535   0.589  15.787  0.4960  0.4338  0.1100
  915MPD2    C413449   4.670   0.576  15.816  0.5721  0.0144 -0.0198
  915MPD2    C513450   0.015   0.543  15.714  0.2999  0.5704  0.7179
  915MPD2     H13451   4.382   0.571  15.650  0.1538 -0.4324  2.4412
  915MPD2    H113452   4.710   0.587  15.916  1.8704 -0.9956 -0.4297
  915MPD2    H213453   0.059   0.508  15.515 -1.1675  0.3760 -2.0182
  915MPD2    H313454   0.120   0.536  15.738 -0.1634 -0.9480  2.2810
  915MPD2     N13455   4.433   0.606  15.883 -0.3274 -0.0553  0.4005
  915MPD2    H513456   4.340   0.624  15.847  0.4062  0.1239 -1.3924
  915MPD2    N113457   4.545   0.487  15.435 -0.0312  0.0695 -0.3939
  915MPD2    H713458   4.614   0.442  15.375 -0.1070 -1.8137  0.9265
  916MPD2     C13459   2.740   3.679  15.982 -0.6673 -0.7162  0.5009
  916MPD2    C113460   2.676   3.559  16.001 -0.0493  0.1559 -0.4806
  916MPD2    C213461   2.666   3.472  15.901 -0.7604 -0.5938 -0.3097
  916MPD2    C313462   2.705   3.511  15.774  0.3666  0.4892  0.3476
  916MPD2    C413463   2.786   3.623  15.761  0.0849  0.1186 -0.5697
  916MPD2    C513464   2.806   3.711  15.861 -1.0055 -0.0388  0.5107
  916MPD2     H13465   2.616   3.377  15.915  0.4317 -1.0873  0.5864
  916MPD2    H113466   2.818   3.647  15.660 -2.6295  2.3945 -0.8762
  916MPD2    H213467   2.735   3.750  16.064  3.8140  0.2254 -0.0471
  916MPD2    H313468   2.865   3.801  15.851 -2.4483  0.8882  0.2871
  916MPD2     N13469   2.679   3.426  15.661  0.1849 -0.1010 -0.0366
  916MPD2    H513470   2.632   3.339  15.684 -1.2895  0.9080  0.8348
  916MPD2    N113471   2.612   3.527  16.121  0.8187 -0.6385 -0.0081
  916MPD2    H713472   2.585   3.604  16.181  0.2388  0.9416 -2.2850
  917MPD2     C13473   2.759   0.437  11.093 -0.2595  0.3809  0.5333
  917MPD2    C113474   2.814   0.464  11.218  0.2385  0.1732  0.5275
  917MPD2    C213475   2.937   0.533  11.215  0.2834  0.2111  0.4300
  917MPD2    C313476   2.997   0.579  11.100  0.6864  0.3604  0.0607
  917MPD2    C413477   2.939   0.556  10.980 -0.4246  0.3670  0.1364
  917MPD2    C513478   2.822   0.491  10.978 -0.0435  0.0451  0.3106
  917MPD2     H13479   2.986   0.567  11.306  2.5013 -1.7363 -0.0500
  917MPD2    H113480   2.973   0.603  10.888  1.1956 -2.9452 -0.9495
  917MPD2    H213481   2.670   0.377  11.084  0.3527 -0.4087 -0.2139
  917MPD2    H313482   2.784   0.488  10.876 -2.5630  1.0470  1.2135
  917MPD2     N13483   3.115   0.653  11.102 -0.7255  0.3523  0.1596
  917MPD2    H513484   3.139   0.701  11.016 -1.0156  1.3496  0.6342
  917MPD2    N113485   2.746   0.419  11.333 -0.1699  0.1772 -0.3273
  917MPD2    H713486   2.658   0.371  11.313 -0.1496  0.7456 -1.8333
  918MPD2     C13487   2.621   0.732  12.273  0.0244  0.7285 -0.9435
  918MPD2    C113488   2.735   0.755  12.199 -0.1152  0.0828 -0.2568
  918MPD2    C213489   2.759   0.671  12.092  0.7998 -1.1104 -0.2580
  918MPD2    C313490   2.667   0.575  12.061 -0.2578 -0.5700 -0.6194
  918MPD2    C413491   2.557   0.551  12.135 -1.0197 -0.3361 -0.3859
  918MPD2    C513492   2.543   0.624  12.247  0.5217  0.1261  0.0061
  918MPD2     H13493   2.838   0.694  12.020 -0.6072 -0.1823 -1.5211
  918MPD2    H113494   2.488   0.470  12.118 -1.1053 -0.6040  1.2233
  918MPD2    H213495   2.607   0.791  12.362  0.5926 -0.5175 -0.0291
  918MPD2    H313496   2.457   0.612  12.312  0.9862  1.7126  0.9392
  918MPD2     N13497   2.696   0.497  11.941 -0.3117 -0.1081  0.1115
  918MPD2    H513498   2.782   0.517  11.891 -0.2129 -2.5035 -0.6907
  918MPD2    N113499   2.821   0.853  12.246 -0.0321  0.2707 -0.6567
  918MPD2    H713500   2.787   0.909  12.324 -0.7118 -0.0038 -0.7582
  919MPD2     C13501   3.429   0.077  11.779  0.3388  0.0138  0.4014
  919MPD2    C113502   3.462   4.686  11.739 -0.2527 -0.4633 -0.5294
  919MPD2    C213503   3.471   4.672  11.598 -0.7513 -0.3348  0.3057
  919MPD2    C313504   3.445   0.043  11.506  0.3335  0.6372  0.2236
  919MPD2    C413505   3.420   0.170  11.564 -0.3976  0.1640 -0.3831
  919MPD2    C513506   3.417   0.183  11.702 -0.2375  0.1496  0.0325
  919MPD2     H13507   3.497   4.577  11.554 -1.3279 -0.3947  0.0907
  919MPD2    H113508   3.405   0.257  11.501  2.0083 -0.7341 -2.2116
  919MPD2    H213509   3.434   0.102  11.885 -1.9939  0.5924  0.3727
  919MPD2    H313510   3.390   0.273  11.756  1.1636  0.6757 -0.1538
  919MPD2     N13511   3.451   0.030  11.365 -0.4831 -0.3707  0.2423
  919MPD2    H513512   3.441   0.114  11.309  2.5404 -0.4274 -0.3648
  919MPD2    N113513   3.474   4.573  11.828 -0.1608 -0.1138  0.8479
  919MPD2    H713514   3.492   4.480  11.791 -1.7562  0.3784 -1.1986
  920MPD2     C13515   3.480   0.487  10.529  0.0695  0.1197  0.9287
  920MPD2    C113516   3.397   0.378  10.507  0.9158  0.6550 -0.4703
  920MPD2    C213517   3.410   0.259  10.578  0.0689 -0.6830 -0.0397
  920MPD2    C313518   3.503   0.259  10.686 -0.0394  0.3255  0.1821
  920MPD2    C413519   3.600   0.364  10.696  0.0578  0.0569  0.1044
  920MPD2    C513520   3.588   0.478  10.618  0.7915  0.4090  0.5241
  920MPD2     H13521   3.356   0.167  10.557 -1.5824 -0.0201  1.3337
  920MPD2    H113522   3.678   0.363  10.771  0.9141  0.9874 -0.7746
  920MPD2    H213523   3.469   0.583  10.480 -1.6695 -0.9095 -0.6994
  920MPD2    H313524   3.664   0.554  10.631 -0.9064  1.8537  2.0470
  920MPD2     N13525   3.509   0.142  10.764  0.6115 -0.0877  0.0972
  920MPD2    H513526   3.454   0.063  10.733  1.3164 -0.5402  0.0106
  920MPD2    N113527   3.280   0.376  10.430  0.5046  0.0319  0.0897
  920MPD2    H713528   3.232   0.288  10.415 -0.4591  0.5975 -0.0827
  921MPD2     C13529   4.525   4.225  16.838 -0.3333  0.4009  0.1892
  921MPD2    C113530   4.592   4.110  16.852 -1.2453  0.4129  1.5048
  921MPD2    C213531   4.532   4.000  16.801  0.5051 -0.6037 -0.0816
  921MPD2    C313532   4.409   4.010  16.738  0.3353 -0.2484 -0.3991
  921MPD2    C413533   4.358   4.132  16.705  1.3121 -0.3153 -0.5469
  921MPD2    C513534   4.411   4.242  16.760  0.5254 -0.1410 -0.7721
  921MPD2     H13535   4.564   3.899  16.823 -0.8870 -1.2161 -0.8260
  921MPD2    H113536   4.257   4.145  16.668  1.2553  0.6248 -0.0637
  921MPD2    H213537   4.558   4.311  16.893  1.3037  0.2919 -0.6313
  921MPD2    H313538   4.362   4.337  16.743 -2.2145 -1.1395  1.5464
  921MPD2     N13539   4.334   3.901  16.682 -0.1075  0.1105 -0.0394
  921MPD2    H513540   4.251   3.930  16.631 -0.3541  0.1734  0.4031
  921MPD2    N113541   4.724   4.107  16.905  0.5903  0.3326  0.2931
  921MPD2    H713542   0.025   4.196  16.932 -0.3579  1.3641 -1.6306
  922MPD2     C13543   0.529   2.121  17.238  0.5216  0.4211 -0.0344
  922MPD2    C113544   0.460   2.089  17.356  0.7769 -0.9204 -0.1112
  922MPD2    C213545   0.464   1.957  17.400  0.2279 -0.2168  0.4448
  922MPD2    C313546   0.544   1.859  17.337 -0.1339 -0.3937  0.0102
  922MPD2    C413547   0.610   1.888  17.221 -0.3060  0.0841 -0.3117
  922MPD2    C513548   0.601   2.020  17.177 -0.9396  0.7369 -0.2193
  922MPD2     H13549   0.403   1.932  17.486 -0.0928 -1.6618 -0.2017
  922MPD2    H113550   0.678   1.813  17.182 -1.7763 -0.4149 -1.9283
  922MPD2    H213551   0.530   2.220  17.193 -1.7630  0.0148 -1.0333
  922MPD2    H313552   0.668   2.043  17.095 -0.3295 -1.0774 -0.2396
  922MPD2     N13553   0.528   1.729  17.386 -0.5111 -1.3412 -0.4258
  922MPD2    H513554   0.467   1.728  17.467 -0.6720  1.4032 -0.5172
  922MPD2    N113555   0.374   2.169  17.430 -0.0940  0.2481 -0.4866
  922MPD2    H713556   0.335   2.126  17.513  1.8993 -1.7739 -0.5876
  923MPD2     C13557   1.572   3.109   9.434 -0.6050  0.9822 -0.3151
  923MPD2    C113558   1.570   3.244   9.462  0.6041 -0.5164 -0.3051
  923MPD2    C213559   1.684   3.309   9.507  0.3756 -0.4340 -0.2145
  923MPD2    C313560   1.790   3.236   9.532  0.4912  0.1869 -0.7561
  923MPD2    C413561   1.793   3.104   9.508  0.1148  0.2967  0.9674
  923MPD2    C513562   1.684   3.041   9.446 -0.4556  0.3234 -0.1041
  923MPD2     H13563   1.684   3.414   9.534 -0.3396 -0.2476 -0.9525
  923MPD2    H113564   1.879   3.043   9.531  0.2608 -0.0302 -0.4640
  923MPD2    H213565   1.485   3.060   9.392 -0.1551  0.0735 -0.1977
  923MPD2    H313566   1.679   2.936   9.421  0.7040  0.3631 -0.5207
  923MPD2     N13567   1.911   3.284   9.590 -0.0512  0.1426  0.2239
  923MPD2    H513568   1.980   3.214   9.615 -0.2846  0.1029  0.7513
  923MPD2    N113569   1.447   3.312   9.432  0.0689 -0.2015  0.1170
  923MPD2    H713570   1.379   3.262   9.375 -0.9047  0.8979  0.3238
  924MPD2     C13571   1.936   1.681  15.821  0.1104  0.5696 -0.0937
  924MPD2    C113572   1.938   1.718  15.949 -0.5310  0.4199  0.0051
  924MPD2    C213573   2.007   1.832  15.989 -0.0051  0.4582  0.1587
  924MPD2    C313574   2.074   1.906  15.898  0.5272  0.0192  0.0495
  924MPD2    C413575   2.073   1.869  15.768 -0.2528 -0.5196  0.8123
  924MPD2    C513576   2.004   1.759  15.730  0.3697  0.4739  0.4881
  924MPD2     H13577   2.021   1.857  16.094 -0.1952  0.8474  0.0908
  924MPD2    H113578   2.117   1.927  15.687 -1.7813  1.5836  1.4570
  924MPD2    H213579   1.892   1.587  15.791 -0.4802  1.3598 -1.6985
  924MPD2    H313580   2.000   1.735  15.624 -0.5274 -1.8008  1.0349
  924MPD2     N13581   2.130   2.026  15.943 -0.1161  0.5337 -0.2522
  924MPD2    H513582   2.119   2.044  16.042 -0.5615  2.3691 -0.6355
  924MPD2    N113583   1.875   1.626  16.038 -0.2805  1.1231  0.3674
  924MPD2    H713584   1.842   1.545  15.987 -0.5500  2.4320 -1.5138
  925MPD2     C13585   0.633   4.386  14.835  0.2358 -0.7254 -0.4222
  925MPD2    C113586   0.528   4.470  14.815 -0.1430 -0.0699 -0.1073
  925MPD2    C213587   0.472   4.529  14.928  0.1940  0.0455 -0.9087
  925MPD2    C313588   0.529   4.511  15.060 -0.4907  0.5573  0.1297
  925MPD2    C413589   0.630   4.420  15.075  0.0914  0.1241  0.1418
  925MPD2    C513590   0.685   4.361  14.966  0.3955 -0.0454 -0.5713
  925MPD2     H13591   0.386   4.593  14.916 -1.0034 -1.4651 -0.2491
  925MPD2    H113592   0.669   4.400  15.174  1.0089  0.8747 -0.0694
  925MPD2    H213593   0.679   4.329  14.755  0.8574  0.9409 -1.2433
  925MPD2    H313594   0.769   4.292  14.972 -0.2251 -0.5870  1.7550
  925MPD2     N13595   0.475   4.558  15.185  0.6406  0.2765 -0.2601
  925MPD2    H513596   0.523   4.531  15.270 -1.5184  0.7599  1.1106
  925MPD2    N113597   0.472   4.494  14.685  0.3381  0.7970 -0.6791
  925MPD2    H713598   0.378   4.530  14.673  0.5883  1.0289 -1.8984
  926MPD2     C13599   4.093   2.835  13.513 -0.1466 -0.3502 -0.5002
  926MPD2    C113600   4.003   2.926  13.462 -0.7924 -0.3659  0.5370
  926MPD2    C213601   4.056   2.994  13.348 -0.1077  0.3722  0.3741
  926MPD2    C313602   4.173   2.967  13.277 -0.2744 -0.9602  0.7007
  926MPD2    C413603   4.252   2.871  13.335  0.2059  0.0725  0.6493
  926MPD2    C513604   4.215   2.804  13.447 -0.3452 -0.0806 -0.4778
  926MPD2     H13605   3.998   3.076  13.307  1.2756  0.9537 -0.4355
  926MPD2    H113606   4.344   2.850  13.282 -0.0098  1.3696 -0.2309
  926MPD2    H213607   4.060   2.782  13.602 -0.0646 -0.1873 -0.3715
  926MPD2    H313608   4.274   2.717  13.473 -2.3347 -1.9339 -2.1346
  926MPD2     N13609   4.211   3.026  13.156  0.3842 -0.2549  0.0323
  926MPD2    H513610   4.299   2.997  13.116  0.7130 -0.0041  0.5786
  926MPD2    N113611   3.875   2.946  13.513 -0.1385  0.0189 -0.6947
  926MPD2    H713612   3.830   3.036  13.499  0.6900  0.4083 -0.8592
  927MPD2     C13613   3.749   4.705   0.028 -0.2903 -0.0346  0.0958
  927MPD2    C113614   3.631   0.026  17.744  0.2165  0.0439 -0.3637
  927MPD2    C213615   3.645   0.108  17.627  0.0975  0.6631  0.6540
  927MPD2    C313616   3.763   0.113  17.548  0.0544  0.4563  0.2234
  927MPD2    C413617   3.870   0.052  17.594  0.2249 -0.0670 -0.1307
  927MPD2    C513618   3.867   4.726  17.713 -0.2192 -0.5552  0.0606
  927MPD2     H13619   3.557   0.162  17.595 -1.1511 -0.8166  1.5752
  927MPD2    H113620   3.967   0.063  17.548  0.5404  1.6487  0.9489
  927MPD2    H213621   3.744   4.650   0.122 -0.9084 -0.7991 -0.3844
  927MPD2    H313622   3.958   4.683  17.753 -0.2124 -0.9125 -0.3513
  927MPD2     N13623   3.770   0.178  17.421  0.1401 -0.2115 -0.0526
  927MPD2    H513624   3.691   0.236  17.393 -0.6899 -0.8929  0.8632
  927MPD2    N113625   3.517   0.022   0.073 -0.3644  0.2264 -0.2304
  927MPD2    H713626   3.528   4.705   0.157 -0.0975 -0.1396 -0.5077
  928MPD2     C13627   1.288   3.175   0.847  0.0941 -0.1495 -0.5354
  928MPD2    C113628   1.320   3.290   0.914 -0.5289  0.3188 -0.2783
  928MPD2    C213629   1.444   3.348   0.905  0.2336 -0.8802  0.2462
  928MPD2    C313630   1.544   3.280   0.836  0.1733  0.3154  0.4820
  928MPD2    C413631   1.510   3.159   0.777 -0.3707 -0.2832  0.6911
  928MPD2    C513632   1.384   3.101   0.780 -0.7968  0.7027 -0.2249
  928MPD2     H13633   1.459   3.450   0.937  1.7588 -0.8665 -0.5256
  928MPD2    H113634   1.581   3.103   0.717  0.0352  1.0306 -0.0510
  928MPD2    H213635   1.192   3.125   0.847  1.0913 -2.0344  1.1344
  928MPD2    H313636   1.360   3.013   0.722 -2.4461  0.6023  0.6179
  928MPD2     N13637   1.671   3.339   0.816 -0.1479 -0.6230  0.2200
  928MPD2    H513638   1.732   3.287   0.753  0.3282 -1.4383  1.3676
  928MPD2    N113639   1.217   3.370   0.968  0.2957  0.3610  0.4227
  928MPD2    H713640   1.123   3.339   0.946  0.3049  1.4069 -1.1054
  929MPD2     C13641   1.642   3.026  10.673 -0.1598 -0.0368 -0.2312
  929MPD2    C113642   1.525   2.989  10.731 -0.0116 -0.5694 -0.1344
  929MPD2    C213643   1.407   3.018  10.664 -0.1353 -0.4218  0.1766
  929MPD2    C313644   1.410   3.098  10.550 -0.5622 -0.1946 -0.5381
  929MPD2    C413645   1.529   3.124  10.494  0.3286  0.0715  0.4566
  929MPD2    C513646   1.640   3.089  10.560 -0.3812  0.3149  0.0789
  929MPD2     H13647   1.317   3.007  10.724 -0.1126  1.4265  0.5480
  929MPD2    H113648   1.534   3.186  10.405 -0.0054 -0.3547  0.1426
  929MPD2    H213649   1.740   3.004  10.713  1.1071  2.1262 -2.1458
  929MPD2    H313650   1.735   3.120  10.517  0.1126 -3.5245 -1.6533
  929MPD2     N13651   1.292   3.155  10.498 -0.5953  0.2356 -0.2369
  929MPD2    H513652   1.309   3.230  10.431 -0.7472 -0.6013 -1.2080
  929MPD2    N113653   1.515   2.921  10.858  0.2193 -0.1509  0.5803
  929MPD2    H713654   1.425   2.890  10.894  0.8591 -0.4800  1.9272
  930MPD2     C13655   3.605   0.594  14.412 -0.3521 -0.3908 -1.0638
  930MPD2    C113656   3.560   0.714  14.357  0.7097  0.5520  0.1023
  930MPD2    C213657   3.481   0.714  14.243  0.4407 -0.3063 -0.1654
  930MPD2    C313658   3.440   0.592  14.189  0.1086 -0.5783 -0.1774
  930MPD2    C413659   3.490   0.471  14.243 -0.3240 -0.2751  0.1089
  930MPD2    C513660   3.576   0.476  14.349 -0.0396  1.1288 -0.0545
  930MPD2     H13661   3.478   0.812  14.198  1.2178  0.9792  2.5916
  930MPD2    H113662   3.457   0.376  14.203 -2.7159 -0.2931  2.1516
  930MPD2    H213663   3.676   0.602  14.493 -1.7541 -0.9060  0.2296
  930MPD2    H313664   3.614   0.388  14.400 -1.0579  0.3096 -0.7107
  930MPD2     N13665   3.360   0.595  14.074 -0.5194 -0.0424  0.0585
  930MPD2    H513666   3.351   0.513  14.014 -4.2603 -1.9127  3.2217
  930MPD2    N113667   3.593   0.839  14.410 -0.3906 -1.0741 -0.0484
  930MPD2    H713668   3.540   0.920  14.380  3.5479  1.4012 -0.3927
  931MPD2     C13669   3.323   4.282   0.473 -0.5022  0.3288 -0.3257
  931MPD2    C113670   3.272   4.400   0.526  0.1085  0.4773 -0.0650
  931MPD2    C213671   3.262   4.411   0.668 -0.4739  0.9645  0.0165
  931MPD2    C313672   3.297   4.307   0.752  0.2106 -0.0116  0.3918
  931MPD2    C413673   3.340   4.189   0.695 -0.0035  0.1603 -0.1530
  931MPD2    C513674   3.361   4.179   0.557 -0.0391  0.4162 -0.4033
  931MPD2     H13675   3.255   4.510   0.713 -0.4661  0.8677  0.2307
  931MPD2    H113676   3.352   4.100   0.755 -0.5422 -1.1920 -2.0424
  931MPD2    H213677   3.318   4.268   0.365 -0.2921  0.1908 -0.3173
  931MPD2    H313678   3.389   4.087   0.507  1.3767  0.5682  0.0997
  931MPD2     N13679   3.314   4.322   0.891  0.0915  0.0172 -0.3791
  931MPD2    H513680   3.370   4.251   0.936  1.0152  0.3518 -0.9985
  931MPD2    N113681   3.252   4.506   0.435 -0.4379  0.2479  0.4818
  931MPD2    H713682   3.281   4.488   0.340  2.4656  1.6447  1.0957
  932MPD2     C13683   0.082   0.012  11.511  0.0063 -0.1540  0.4308
  932MPD2    C113684   0.202   4.690  11.524  0.0670 -0.3740  0.0612
  932MPD2    C213685   0.211   4.563  11.577 -0.3139  0.6496 -0.9749
  932MPD2    C313686   0.096   4.491  11.614 -0.7419 -0.2235 -0.8045
  932MPD2    C413687   4.717   4.559  11.607 -0.3256 -0.1485  0.3339
  932MPD2    C513688   4.707   4.684  11.552  0.2301  0.8659 -0.4359
  932MPD2     H13689   0.310   4.523  11.598 -1.8915 -3.3162 -1.0859
  932MPD2    H113690   4.619   4.524  11.639 -0.0221 -2.4874 -1.2950
  932MPD2    H213691   0.066   0.104  11.456  1.7156 -0.9058 -1.2824
  932MPD2    H313692   4.618   0.002  11.527 -0.2318  0.7125  0.8321
  932MPD2     N13693   0.089   4.353  11.661 -0.4014 -0.6874 -0.0006
  932MPD2    H513694   4.735   4.315  11.672 -0.1816 -0.7414  1.7229
  932MPD2    N113695   0.320   0.016  11.497  0.1870  0.4711 -0.0846
  932MPD2    H713696   0.407   4.702  11.499  0.2527  0.5656 -0.7126
  933MPD2     C13697   0.874   3.635   0.496 -0.3090 -0.1934 -0.2512
  933MPD2    C113698   0.861   3.721   0.605 -0.4005 -0.1751  0.1242
  933MPD2    C213699   0.827   3.852   0.575 -0.5861 -0.1801 -0.6959
  933MPD2    C313700   0.805   3.890   0.439  0.4121 -0.0889  0.5537
  933MPD2    C413701   0.809   3.797   0.340  0.0351  0.2582 -0.3725
  933MPD2    C513702   0.846   3.669   0.371 -0.7940  0.2129 -0.0827
  933MPD2     H13703   0.819   3.928   0.652 -1.1574  0.5677 -1.4900
  933MPD2    H113704   0.792   3.827   0.237 -1.2461  0.1095 -0.2040
  933MPD2    H213705   0.900   3.530   0.497  1.6831  0.3080  0.9235
  933MPD2    H313706   0.852   3.594   0.293 -0.2012 -0.2131  0.3758
  933MPD2     N13707   0.786   4.024   0.410 -0.5066 -0.1672 -0.6073
  933MPD2    H513708   0.788   4.082   0.493  2.2741  0.3714 -1.0492
  933MPD2    N113709   0.900   3.674   0.735  0.3080 -0.8266  0.2114
  933MPD2    H713710   0.924   3.576   0.744  0.9804 -0.9360 -3.0075
  934MPD2     C13711   2.020   1.223   1.728 -0.3706  0.3273  0.3706
  934MPD2    C113712   2.117   1.128   1.710  0.3317  0.0067 -0.4470
  934MPD2    C213713   2.097   1.025   1.622  0.7337 -0.0904 -0.8563
  934MPD2    C313714   1.990   1.022   1.534 -0.3878  0.3040 -0.7576
  934MPD2    C413715   1.886   1.106   1.574 -0.0478  0.1436  0.4265
  934MPD2    C513716   1.905   1.215   1.658  0.4281 -0.5098  0.0114
  934MPD2     H13717   2.168   0.944   1.611  1.1344  0.0465  0.7336
  934MPD2    H113718   1.790   1.106   1.524  0.6115 -1.7059 -0.8452
  934MPD2    H213719   2.031   1.310   1.793  1.1881  0.7773 -0.4865
  934MPD2    H313720   1.829   1.289   1.682  0.5993 -0.1655 -0.5187
  934MPD2     N13721   1.971   0.926   1.428 -0.7551 -0.3848  0.1913
  934MPD2    H513722   1.885   0.944   1.377 -1.8464 -0.6936  1.9144
  934MPD2    N113723   2.237   1.130   1.791 -0.4258  0.1466 -0.1818
  934MPD2    H713724   2.300   1.052   1.774  0.6557  0.4434  2.5284
  935MPD2     C13725   2.529   0.182   1.004 -0.2757  0.4771  0.2589
  935MPD2    C113726   2.394   0.151   0.980 -0.0842  0.5996 -0.7231
  935MPD2    C213727   2.295   0.250   1.002  0.4784 -0.2777 -0.2298
  935MPD2    C313728   2.329   0.368   1.075  0.1273  0.7743  0.1274
  935MPD2    C413729   2.458   0.389   1.108  0.7095 -0.1747  0.4480
  935MPD2    C513730   2.557   0.300   1.065  0.6697 -1.4424  0.2298
  935MPD2     H13731   2.191   0.228   0.980  0.2469  1.0425 -0.4251
  935MPD2    H113732   2.486   0.471   1.174  0.0393 -0.4540  1.0808
  935MPD2    H213733   2.610   0.112   1.015 -0.8460 -0.2952 -0.4285
  935MPD2    H313734   2.659   0.313   1.100  0.1673  1.5602  0.5784
  935MPD2     N13735   2.232   0.466   1.113 -0.3507 -0.4322 -0.4682
  935MPD2    H513736   2.268   0.545   1.165 -1.8180 -0.1940  0.1918
  935MPD2    N113737   2.349   0.030   0.931  0.0690  0.2082 -0.3468
  935MPD2    H713738   2.255   0.025   0.892 -0.3344  0.4586  0.5979
  936MPD2     C13739   1.128   2.579  12.467 -1.0496  0.8540  0.2191
  936MPD2    C113740   1.190   2.564  12.589 -0.3342 -0.4413  0.4527
  936MPD2    C213741   1.243   2.678  12.652  0.0097  0.5444  0.3200
  936MPD2    C313742   1.216   2.802  12.608  0.4057 -0.6683  0.0520
  936MPD2    C413743   1.159   2.820  12.483 -0.0709  0.0754  0.3524
  936MPD2    C513744   1.103   2.707  12.423 -0.1127  0.4685 -0.0315
  936MPD2     H13745   1.306   2.659  12.738  2.2950 -1.1745 -1.7320
  936MPD2    H113746   1.148   2.920  12.443 -1.1993  0.3861  1.4255
  936MPD2    H213747   1.094   2.491  12.414 -1.2700  0.0390  1.7230
  936MPD2    H313748   1.055   2.707  12.326 -0.9536  2.0803  0.3860
  936MPD2     N13749   1.256   2.911  12.697 -0.1276 -0.1717 -0.8062
  936MPD2    H513750   1.288   2.876  12.787  3.3375  3.6058 -0.5723
  936MPD2    N113751   1.210   2.446  12.656  0.2910  0.4750 -0.1998
  936MPD2    H713752   1.246   2.457  12.750  1.4528  0.9788 -0.7127
  937MPD2     C13753   3.701   3.882  11.807 -0.4233  0.3594 -0.1808
  937MPD2    C113754   3.704   4.022  11.777  0.0965  0.2033 -1.0284
  937MPD2    C213755   3.747   4.058  11.649 -0.2440  0.3429  0.5012
  937MPD2    C313756   3.807   3.964  11.564 -0.0455  0.2395 -0.6855
  937MPD2    C413757   3.819   3.833  11.594 -0.6676 -0.6006  0.1762
  937MPD2    C513758   3.757   3.794  11.712 -0.1132  0.6453 -0.2831
  937MPD2     H13759   3.742   4.162  11.619 -0.0747  0.0375 -0.5542
  937MPD2    H113760   3.856   3.755  11.527  2.0861  0.2802  0.6581
  937MPD2    H213761   3.670   3.846  11.904 -1.1045  1.6154  0.0622
  937MPD2    H313762   3.769   3.687  11.727  3.6985  1.4301  2.3221
  937MPD2     N13763   3.854   4.020  11.435  0.0085  0.2700 -1.0030
  937MPD2    H513764   3.844   4.120  11.426  0.7913  0.5785  1.4618
  937MPD2    N113765   3.637   4.119  11.854 -0.1128 -0.6833 -0.0560
  937MPD2    H713766   3.646   4.213  11.816 -0.4573 -0.6483 -0.0503
  938MPD2     C13767   1.781   0.392   0.745  0.2804  0.5214  0.0709
  938MPD2    C113768   1.721   0.511   0.717 -0.5855  0.1627  0.1654
  938MPD2    C213769   1.596   0.541   0.777  0.8194  0.1425 -0.2817
  938MPD2    C313770   1.530   0.438   0.845 -0.4076 -1.5280 -0.3793
  938MPD2    C413771   1.604   0.326   0.878  0.2263  0.0684 -0.1472
  938MPD2    C513772   1.731   0.306   0.833  0.9299  0.7868 -0.5134
  938MPD2     H13773   1.551   0.639   0.779 -1.4808 -0.8727 -1.4678
  938MPD2    H113774   1.564   0.242   0.934  0.7913 -0.4969 -0.5962
  938MPD2    H213775   1.874   0.355   0.704 -0.8725  0.9065 -2.8822
  938MPD2    H313776   1.771   0.207   0.852 -0.3211  0.6935  1.6293
  938MPD2     N13777   1.410   0.448   0.922  0.6332  0.3456 -0.2229
  938MPD2    H513778   1.383   0.373   0.985 -1.5557 -0.9558 -2.7423
  938MPD2    N113779   1.781   0.608   0.636 -0.9113 -0.1689 -0.9762
  938MPD2    H713780   1.746   0.703   0.643  1.8874  1.0154 -3.0291
  939MPD2     C13781   2.942   1.467   1.023 -0.6143  0.4679 -0.8005
  939MPD2    C113782   2.839   1.557   1.040 -0.2572  0.1199  0.7269
  939MPD2    C213783   2.743   1.558   0.938  0.4284  0.5234 -0.1719
  939MPD2    C313784   2.747   1.474   0.830 -0.3094  0.6712  0.5091
  939MPD2    C413785   2.861   1.396   0.815  0.6574  0.4603 -0.6765
  939MPD2    C513786   2.948   1.383   0.920  0.6162  0.1266 -0.5327
  939MPD2     H13787   2.663   1.631   0.937 -0.8666 -0.8928  0.9736
  939MPD2    H113788   2.875   1.323   0.737  3.4365 -0.8401  1.0408
  939MPD2    H213789   3.025   1.452   1.091 -1.4541  0.2335  0.1720
  939MPD2    H313790   3.034   1.317   0.920 -0.7202 -1.6481 -0.4770
  939MPD2     N13791   2.637   1.478   0.739 -0.0944  0.2086 -0.0268
  939MPD2    H513792   2.558   1.536   0.765  0.6144  0.9350  0.5148
  939MPD2    N113793   2.847   1.660   1.134 -0.0733 -0.0872  0.3335
  939MPD2    H713794   2.788   1.742   1.127  1.2360  0.7324 -0.9149
  940MPD2     C13795   1.608   2.005  13.504 -0.4651 -0.1194  0.4799
  940MPD2    C113796   1.686   2.076  13.599 -0.9776  0.1603 -0.0962
  940MPD2    C213797   1.728   2.199  13.561  0.3309  0.1695 -0.2013
  940MPD2    C313798   1.708   2.251  13.431 -0.2262 -0.6337  0.6926
  940MPD2    C413799   1.636   2.179  13.338 -0.1029  0.1139 -0.5554
  940MPD2    C513800   1.579   2.066  13.388  0.0438 -0.0110 -0.7186
  940MPD2     H13801   1.779   2.261  13.633  0.2434  1.5955 -1.3713
  940MPD2    H113802   1.612   2.214  13.238 -0.7712  1.3501  0.0514
  940MPD2    H213803   1.554   1.911  13.512 -1.2831  0.3473  0.4796
  940MPD2    H313804   1.527   2.009  13.312  1.4840 -1.3252 -0.7211
  940MPD2     N13805   1.760   2.372  13.382  0.5404  0.3606 -0.1503
  940MPD2    H513806   1.734   2.400  13.288  1.7726 -1.3914 -1.0174
  940MPD2    N113807   1.725   2.024  13.726 -0.0441 -0.1372  0.2982
  940MPD2    H713808   1.756   2.097  13.790 -0.9489  0.1714  0.3768
  941MPD2     C13809   0.809   1.937   9.391 -0.1442  0.4595 -0.8143
  941MPD2    C113810   0.862   1.889   9.509 -0.0119 -0.0657  0.3534
  941MPD2    C213811   0.817   1.763   9.558  0.4178  0.3523  0.1792
  941MPD2    C313812   0.717   1.692   9.499 -0.3890 -0.9289  0.0523
  941MPD2    C413813   0.660   1.752   9.389  0.1574  0.4416 -0.3916
  941MPD2    C513814   0.708   1.869   9.332 -0.5751 -0.0789 -0.1376
  941MPD2     H13815   0.861   1.725   9.649  0.6660  1.5905  0.5816
  941MPD2    H113816   0.586   1.695   9.335 -1.6655  0.7588  1.7434
  941MPD2    H213817   0.837   2.030   9.342 -1.1011  0.8085 -0.6850
  941MPD2    H313818   0.652   1.907   9.247 -0.5407  1.8613  0.6953
  941MPD2     N13819   0.675   1.562   9.527  0.2978  0.3544  0.2753
  941MPD2    H513820   0.595   1.531   9.472  0.6644  0.4368 -0.3159
  941MPD2    N113821   0.962   1.960   9.574 -0.2337  0.2144 -0.0775
  941MPD2    H713822   1.004   1.922   9.658 -1.4992 -2.0059 -0.4555
  942MPD2     C13823   0.087   4.301   9.397 -0.5252  0.6807  0.4011
  942MPD2    C113824   0.122   4.312   9.526 -0.2135  0.4604  0.1762
  942MPD2    C213825   0.153   4.198   9.599  0.4545  1.0362 -0.1136
  942MPD2    C313826   0.146   4.078   9.537  0.1619  0.1049  0.7706
  942MPD2    C413827   0.111   4.070   9.404 -0.1256  0.3716 -0.2779
  942MPD2    C513828   0.070   4.180   9.337  0.4033  1.1380  1.2976
  942MPD2     H13829   0.179   4.221   9.702  0.3064 -3.3783  0.8854
  942MPD2    H113830   0.107   3.974   9.353  2.2701  0.2772 -0.2931
  942MPD2    H213831   0.052   4.385   9.337 -3.2174 -0.8661 -0.2082
  942MPD2    H313832   0.039   4.175   9.233  1.0584  0.8572  1.1193
  942MPD2     N13833   0.179   3.964   9.608  0.3250 -0.0928  0.5054
  942MPD2    H513834   0.186   3.883   9.548 -0.7253  2.0523 -2.5258
  942MPD2    N113835   0.133   4.438   9.594 -0.1277  0.5298 -0.0904
  942MPD2    H713836   0.159   4.435   9.692 -2.7027  0.4383  0.5704
  943MPD2     C13837   3.611   0.450  10.231  0.7004 -0.2490  0.1026
  943MPD2    C113838   3.611   0.559  10.150  0.3445  0.2317  0.5565
  943MPD2    C213839   3.720   0.640  10.162  1.0490 -0.3203  0.1012
  943MPD2    C313840   3.816   0.614  10.256 -0.6267 -0.5555 -0.3940
  943MPD2    C413841   3.816   0.500  10.331 -0.1983  0.4056  0.1320
  943MPD2    C513842   3.714   0.413  10.310 -0.7724  0.3196  0.2619
  943MPD2     H13843   3.732   0.730  10.103  2.0844 -0.7831 -0.3948
  943MPD2    H113844   3.892   0.492  10.407  0.3278  0.9070 -0.3469
  943MPD2    H213845   3.528   0.380  10.235 -0.7653  1.5966  2.4130
  943MPD2    H313846   3.696   0.321  10.365  2.7644  0.3870  1.5224
  943MPD2     N13847   3.918   0.701  10.295 -0.7477 -0.3123 -0.1110
  943MPD2    H513848   3.969   0.673  10.378  2.4163 -0.7913 -2.2037
  943MPD2    N113849   3.502   0.566  10.056  0.1978 -0.0019  0.7267
  943MPD2    H713850   3.426   0.499  10.060 -0.5201  0.7285 -1.0518
  944MPD2     C13851   4.341   1.522  11.220  0.4609 -0.2108 -0.0475
  944MPD2    C113852   4.261   1.448  11.136  0.1961  0.9748  0.1334
  944MPD2    C213853   4.133   1.429  11.178 -0.3663 -0.2958 -0.4416
  944MPD2    C313854   4.089   1.477  11.303  0.1993  0.6113 -0.6204
  944MPD2    C413855   4.175   1.551  11.392  0.1931 -0.0130  0.2163
  944MPD2    C513856   4.299   1.575  11.345 -1.1689  0.1547 -0.1693
  944MPD2     H13857   4.065   1.362  11.126 -1.8396  1.2499 -0.5099
  944MPD2    H113858   4.159   1.585  11.494 -0.3734  1.2893 -0.3215
  944MPD2    H213859   4.445   1.533  11.190  0.6304  1.7916  1.2578
  944MPD2    H313860   4.363   1.646  11.396 -0.3649 -1.3724  0.9452
  944MPD2     N13861   3.958   1.452  11.340 -0.0231 -0.0446  0.2743
  944MPD2    H513862   3.910   1.407  11.263 -0.3924  1.3861 -0.3316
  944MPD2    N113863   4.307   1.392  11.018  0.2396  0.3931 -0.1305
  944MPD2    H713864   4.383   1.441  10.972  1.2869  0.0865  1.2622
    1TMC1    C113865   2.146   1.689  13.642  0.2373  0.3901 -0.7082
    1TMC1    C213866   2.135   1.646  13.510 -0.7001  0.0555  0.2943
    1TMC1    C313867   2.136   1.502  13.495  0.2847  0.6030  0.0531
    1TMC1    C413868   2.159   1.605  13.748  0.6838  0.6351 -0.3955
    1TMC1    C513869   2.170   1.468  13.723  0.0280  0.0775  0.2094
    1TMC1    C613870   2.148   1.411  13.598  0.2792  0.2172  0.8913
    1TMC1     C13871   2.120   1.830  13.656 -0.5115 -0.0207 -0.8768
    1TMC1     O13872   2.030   1.878  13.586  0.5803 -0.2996 -0.1985
    1TMC1     H13873   2.111   1.707  13.423 -1.9262 -0.7676  0.0662
    1TMC1    H113874   2.175   1.644  13.848  1.7090  2.1127 -1.1412
    1TMC1    H213875   2.131   1.305  13.589  0.3946  0.4514 -2.0475
    1TMC1    C713876   2.179   1.395  13.845 -0.5354 -0.2754  0.6567
    1TMC1    C813877   2.138   1.448  13.360  0.0395  0.2528 -0.1238
    1TMC1    O113878   2.162   1.445  13.956  0.0316 -0.3083 -0.7891
    1TMC1    O213879   2.105   1.333  13.346  0.3124 -0.7587 -0.0072
    1TMC1    O313880   2.243   1.275  13.823  0.0080  0.0449  0.2005
    1TMC1    H313881   2.288   1.263  13.737  0.7332 -1.5819  0.8133
    1TMC1    O513882   2.226   1.521  13.291  0.2521 -0.0234  0.0883
    1TMC1    H513883   2.256   1.614  13.307  0.2114  0.0976 -0.5313
    2MPD2     C13884   2.126   2.276  13.924  0.2556 -0.0719  0.2561
    2MPD2    C113885   2.213   2.179  13.987  0.2749  0.0037 -0.3307
    2MPD2    C213886   2.223   2.056  13.932 -0.2926  0.0174  0.3961
    2MPD2    C313887   2.155   2.017  13.813  0.0684 -0.0765 -0.5836
    2MPD2    C413888   2.060   2.105  13.760  0.0263 -0.5758  0.0019
    2MPD2    C513889   2.052   2.230  13.816 -0.2200 -0.3186 -0.6443
    2MPD2     H13890   2.274   1.975  13.983 -1.1829  0.1004  1.4295
    2MPD2    H113891   2.003   2.082  13.671 -1.8939 -0.9121  1.3230
    2MPD2    H213892   2.130   2.380  13.955 -0.1558  0.0276 -0.0287
    2MPD2    H313893   1.993   2.299  13.757 -0.3942  0.6539  0.6899
    2MPD2     N13894   2.190   1.891  13.757  0.5640 -0.1870  0.0291
    2MPD2    H513895   2.270   1.841  13.795  0.2622  0.7356  1.8366
    2MPD2    N113896   2.269   2.220  14.110  0.5290  0.3977 -0.3860
    2MPD2    H713897   2.261   2.317  14.141  0.1086 -0.7108  3.0039
    3TMC2    C113898   2.400   2.204  14.300  0.8552  0.2064 -0.4140
    3TMC2    C213899   2.490   2.135  14.373 -0.1232 -0.3508 -0.2758
    3TMC2    C313900   2.518   2.176  14.503  0.2639 -0.2199 -0.3495
    3TMC2    C413901   2.319   2.301  14.362 -0.4803 -0.2786 -0.0695
    3TMC2    C513902   2.342   2.336  14.495  0.0131  0.4561 -0.0027
    3TMC2    C613903   2.439   2.271  14.564  0.0514 -0.0841 -0.4538
    3TMC2     C13904   2.352   2.138  14.183  0.5089 -0.2767 -0.2403
    3TMC2     O13905   2.413   2.036  14.159  0.1866 -0.3216  0.6347
    3TMC2     H13906   2.549   2.055  14.328 -1.8060 -2.9488  2.1181
    3TMC2    H113907   2.235   2.340  14.306 -2.1652 -1.5642  1.5838
    3TMC2    H213908   2.456   2.303  14.666 -1.2372  0.4475 -0.4044
    3TMC2    C713909   2.244   2.403  14.571  0.0427  0.1792 -0.1986
    3TMC2    C813910   2.596   2.084  14.578  0.0390 -0.2394 -0.9857
    3TMC2    O113911   2.258   2.403  14.693  0.0615  0.5292 -0.4080
    3TMC2    O213912   2.588   1.963  14.558 -0.0592 -0.0383 -0.1404
    3TMC2    O513913   2.656   2.146  14.682 -0.5871  0.3158 -0.0701
    3TMC2    H513914   2.664   2.243  14.669 -0.9439  0.2929 -0.4653
    4TMC2    C113915   1.599   2.965  14.092  0.3675 -0.6196 -0.3661
    4TMC2    C213916   1.651   2.964  13.963 -0.1320  0.0444 -0.4028
    4TMC2    C313917   1.780   2.929  13.945  0.2760  1.0271  0.2152
    4TMC2    C413918   1.682   2.946  14.200 -0.0387 -0.4563  0.4483
    4TMC2    C513919   1.809   2.902  14.175  0.4756 -0.0304  0.1088
    4TMC2    C613920   1.859   2.893  14.049 -0.3174  0.5055 -0.0339
    4TMC2     C13921   1.456   2.979  14.117 -0.5839  0.1323 -0.3374
    4TMC2     O13922   1.423   3.045  14.213  0.0769  0.8774 -0.2657
    4TMC2     H13923   1.591   2.981  13.874 -2.1770 -1.5586  0.6811
    4TMC2    H113924   1.639   2.938  14.299 -1.1183 -0.2902 -0.0143
    4TMC2    H213925   1.965   2.877  14.034 -0.5991 -0.5575 -0.9353
    4TMC2    C713926   1.893   2.849  14.280  0.1224 -0.2053  0.0621
    4TMC2    C813927   1.822   2.891  13.817 -0.3196  0.4535  0.2899
    4TMC2    O113928   2.012   2.844  14.250  0.9083 -0.0109 -0.6365
    4TMC2    O213929   1.787   2.941  13.712 -0.4859  0.0023 -0.2902
    4TMC2    O513930   1.907   2.787  13.826 -0.2133  0.8047  0.2284
    4TMC2    H513931   1.913   2.752  13.918 -1.1894 -0.4875 -0.1846
    5MPD2     C13932   0.980   2.959  13.922 -0.9018  0.1340 -0.1075
    5MPD2    C113933   1.066   2.889  13.837 -0.2238  0.1428 -0.1089
    5MPD2    C213934   1.190   2.870  13.888  0.3541 -0.1012 -0.4512
    5MPD2    C313935   1.248   2.928  13.999 -0.0295  0.6176  0.6057
    5MPD2    C413936   1.159   3.005  14.075 -0.0066 -0.4546 -0.1137
    5MPD2    C513937   1.034   3.021  14.036  0.1058  1.0735 -0.3986
    5MPD2     H13938   1.249   2.803  13.826 -1.0361 -2.0985  0.3753
    5MPD2    H113939   1.196   3.055  14.164 -1.2526  0.7618 -0.2741
    5MPD2    H213940   0.874   2.976  13.906 -1.2142  0.5617  2.5091
    5MPD2    H313941   0.975   3.093  14.092  1.0604  0.2898  1.6311
    5MPD2     N13942   1.390   2.920  14.014 -0.2441  0.1101  0.6027
    5MPD2    H513943   1.438   2.863  13.944  0.5609  1.7727 -0.1832
    5MPD2    N113944   1.024   2.839  13.712  0.0550  0.0986 -0.2327
    5MPD2    H713945   0.927   2.857  13.686 -0.1946 -0.1294  0.5471
    6MPD1     C13946   0.353   4.038  12.572  0.4053 -0.8772 -0.2595
    6MPD1    C113947   0.265   4.008  12.676 -0.3993  0.1809  0.1164
    6MPD1    C213948   0.295   3.895  12.755 -0.6189  0.3486  0.2077
    6MPD1    C313949   0.401   3.817  12.734  0.2594  0.2042 -0.0042
    6MPD1    C413950   0.485   3.851  12.633  0.0988 -0.3798 -0.4739
    6MPD1    C513951   0.464   3.959  12.553  0.6205 -0.7302 -0.7108
    6MPD1     H13952   0.216   3.868  12.825  0.0363  0.1037  0.8491
    6MPD1    H113953   0.565   3.781  12.609  2.7079  0.9564  4.2235
    6MPD1    H213954   0.328   4.115  12.500  0.0114 -0.9961 -0.2491
    6MPD1    H313955   0.514   3.971  12.458 -1.2965  1.6856 -1.3904
    6MPD1     N13956   0.434   3.700  12.807 -0.3442 -0.1611  0.2323
    6MPD1    H513957   0.509   3.648  12.761 -1.2844 -1.4678  0.1990
    6MPD1    N113958   0.140   4.069  12.680  0.1211 -0.3767 -0.4206
    6MPD1    H613959   0.151   4.166  12.650 -1.6604  0.6413  2.1958
    6MPD1    H713960   0.088   4.075  12.768 -1.1636  2.3054 -1.3522
    7MPD2     C13961   0.281   2.978  13.253 -0.5672 -0.0416  0.5665
    7MPD2    C113962   0.398   3.036  13.276 -0.4256  0.2618 -0.1196
    7MPD2    C213963   0.505   2.968  13.324  1.3019 -0.4369 -0.3953
    7MPD2    C313964   0.507   2.831  13.320 -0.3304 -0.7699  0.1047
    7MPD2    C413965   0.391   2.771  13.276  0.4663 -0.0317  0.5279
    7MPD2    C513966   0.280   2.840  13.247 -0.0913 -0.0580 -0.5438
    7MPD2     H13967   0.597   3.013  13.359  0.4860  0.0375  1.1377
    7MPD2    H113968   0.377   2.664  13.260 -2.6117  0.8749 -2.9373
    7MPD2    H213969   0.191   3.033  13.230  0.4621  0.3592 -2.5796
    7MPD2    H313970   0.190   2.783  13.224 -0.2508  0.0887 -0.2767
    7MPD2     N13971   0.616   2.755  13.342 -0.4553 -0.8832 -0.0082
    7MPD2    H513972   0.608   2.655  13.323 -0.9092 -0.3738 -2.4131
    7MPD2    N113973   0.418   3.173  13.261 -0.1205 -0.5161  0.0082
    7MPD2    H713974   0.516   3.199  13.261  0.2437 -1.9290 -1.2169
    8TMC3    C113975   0.838   2.706  13.397  0.5151  0.0715 -0.2124
    8TMC3    C213976   0.909   2.727  13.511  0.2488  0.0788 -0.1013
    8TMC3    C313977   1.038   2.751  13.495  0.3473 -0.2400 -0.6388
    8TMC3    C413978   0.893   2.702  13.274  0.4634  0.1265  0.3449
    8TMC3    C513979   1.025   2.735  13.265 -0.5761  0.0468  0.1903
    8TMC3    C613980   1.101   2.756  13.375  0.3097  0.2755 -0.2593
    8TMC3     C13981   0.730   2.803  13.404  0.3660 -0.3460 -0.1007
    8TMC3     O13982   0.753   2.909  13.462  0.2642  0.3470  0.1722
    8TMC3     H13983   0.858   2.716  13.607 -2.2508 -2.2809 -1.6678
    8TMC3    H113984   0.818   2.713  13.197  1.9735  2.7981 -0.7542
    8TMC3    H213985   1.203   2.791  13.362  0.9932 -1.3413  0.8103
    8TMC3    C713986   1.042   2.838  13.163  0.8825  0.2332  0.0614
    8TMC3    C813987   1.106   2.795  13.610  0.2619 -0.0679  0.1408
    8TMC3    O113988   1.070   2.951  13.204 -0.4036  0.2863  0.0016
    8TMC3    O213989   1.230   2.789  13.598  0.1460 -0.0277  0.4809
    9TMC3    C113990   0.428   3.523  12.961  0.2048  0.3991 -0.1869
    9TMC3    C213991   0.548   3.476  12.901 -0.3863 -0.2544  0.7274
    9TMC3    C313992   0.601   3.358  12.958 -0.3041  0.1182  0.4991
    9TMC3    C413993   0.363   3.451  13.053 -0.4237  0.3040  0.3673
    9TMC3    C513994   0.416   3.332  13.094  0.0697  0.0794 -0.5341
    9TMC3    C613995   0.542   3.284  13.055  0.3776 -0.2005 -0.4674
    9TMC3     C13996   0.368   3.653  12.917 -0.1002 -0.5778  0.3561
    9TMC3     O13997   0.272   3.694  12.977  0.0479  0.5942  0.2761
    9TMC3     H13998   0.605   3.525  12.822 -2.1804  0.5732 -0.0622
    9TMC3    H113999   0.269   3.488  13.092  0.5560  1.1993  1.8781
    9TMC3    H214000   0.570   3.182  13.079 -0.0773 -0.1220  0.4298
    9TMC3    C714001   0.339   3.252  13.184 -0.5987 -0.3034  0.8553
    9TMC3    C814002   0.687   3.280  12.867  0.6671 -0.0975 -0.0207
    9TMC3    O114003   0.217   3.270  13.186 -0.3280 -0.2029 -0.8290
    9TMC3    O214004   0.691   3.318  12.747 -0.1425 -0.0443 -0.2842
   10MPD2     C14005   0.934   2.840  12.817  0.2824 -0.6162 -0.7883
   10MPD2    C114006   0.950   2.889  12.942 -0.1384 -0.1428  0.1171
   10MPD2    C214007   0.903   3.013  12.975 -0.4318  0.1880  0.4247
   10MPD2    C314008   0.838   3.087  12.885 -0.0193 -0.1316  0.4766
   10MPD2    C414009   0.833   3.054  12.749 -0.3474  0.2306  1.1998
   10MPD2    C514010   0.884   2.927  12.717 -0.1000 -0.4487 -0.2525
   10MPD2     H14011   0.908   3.049  13.077  2.4040 -2.0971  1.0870
   10MPD2    H114012   0.788   3.116  12.673  1.8179 -0.3342 -0.5478
   10MPD2    H214013   0.969   2.739  12.798  0.4619 -0.5876 -0.6022
   10MPD2    H314014   0.891   2.906  12.611  0.9408  1.1375 -0.5022
   10MPD2     N14015   0.772   3.201  12.935 -0.2410 -0.3461 -0.1254
   10MPD2    H514016   0.786   3.218  13.034 -1.0379  2.8057 -0.5570
   10MPD2    N114017   0.996   2.801  13.041  0.2617  0.4831 -0.1718
   10MPD2    H714018   0.990   2.704  13.014  0.6835  0.5061 -0.3531
   11MPD2     C14019   2.033   2.594  14.683 -0.0786  0.1462  0.2987
   11MPD2    C114020   2.076   2.596  14.554  1.0118 -0.1553  0.7924
   11MPD2    C214021   2.010   2.672  14.462  0.0936  0.2665  0.3397
   11MPD2    C314022   1.911   2.762  14.501  0.5462 -0.2865  0.0864
   11MPD2    C414023   1.865   2.759  14.635  0.2954  0.6962  0.3888
   11MPD2    C514024   1.927   2.681  14.724  0.1511  0.3007 -0.1892
   11MPD2     H14025   2.035   2.652  14.359  3.6701  1.2773  1.0044
   11MPD2    H114026   1.786   2.822  14.675 -1.4046 -0.6754 -0.7982
   11MPD2    H214027   2.077   2.532  14.761  1.3234  1.5017  0.6002
   11MPD2    H314028   1.887   2.674  14.825  0.8177  1.1055  0.1313
   11MPD2     N14029   1.840   2.831  14.404 -0.0879 -0.1968 -0.9542
   11MPD2    H514030   1.756   2.882  14.431  1.6775  2.1361  0.1710
   11MPD2    N114031   2.162   2.491  14.501  0.0964 -0.3408  0.4050
   11MPD2    H714032   2.150   2.491  14.401 -2.1114  1.6207  0.6687
    1MPD1     C14033   3.993   4.132  16.840  0.1340 -0.3506 -0.1676
    1MPD1    C114034   4.053   4.009  16.854  0.3782  1.2255  0.1382
    1MPD1    C214035   4.141   4.002  16.961 -0.1874 -0.0590  0.1876
    1MPD1    C314036   4.190   4.116  17.020 -0.1257 -0.2710 -0.6819
    1MPD1    C414037   4.143   4.235  16.981 -0.5820 -0.5518 -0.0945
    1MPD1    C514038   4.050   4.248  16.888 -0.5711 -0.0950 -0.5207
    1MPD1     H14039   4.185   3.913  17.005  0.5805  0.1760 -0.1095
    1MPD1    H114040   4.178   4.332  17.014  2.5404 -1.0067 -2.0294
    1MPD1    H214041   3.898   4.141  16.788  0.1576 -1.0236 -0.3299
    1MPD1    H314042   3.997   4.342  16.873 -1.5614 -0.6854 -0.7715
    1MPD1     N14043   4.297   4.092  17.114  0.6997 -0.6463  0.0188
    1MPD1    H514044   4.306   3.994  17.138  0.3728 -0.3625  1.2850
    1MPD1    N114045   3.988   3.897  16.806 -0.0947 -0.7293 -0.4825
    1MPD1    H614046   3.947   3.920  16.716 -0.8440 -3.1412 -0.7402
    1MPD1    H714047   4.040   3.809  16.803 -1.6553 -1.7089  1.1298
    2MPD1     C14048   4.653   3.407  17.710  0.4301  1.1812 -0.5400
    2MPD1    C114049   0.028   3.468  17.656  0.0180 -0.3039 -0.1884
    2MPD1    C214050   0.014   3.600  17.607 -0.3148  0.8775 -0.4485
    2MPD1    C314051   4.630   3.659  17.590  0.4450 -0.4925 -0.1901
    2MPD1    C414052   4.522   3.592  17.639  0.5263 -0.1154 -0.2460
    2MPD1    C514053   4.533   3.467  17.694  0.1794  0.0068  0.7604
    2MPD1     H14054   0.097   3.651  17.558 -1.2792  0.7002 -2.2616
    2MPD1    H114055   4.420   3.629  17.632  0.7741  0.7767  0.7948
    2MPD1    H214056   4.654   3.308  17.754  1.0649  0.7778 -1.4473
    2MPD1    H314057   4.440   3.420  17.723  0.0236  0.6149  1.2347
    2MPD1     N14058   4.624   3.787  17.531 -0.0471 -0.0656 -0.4438
    2MPD1    H514059   4.717   3.823  17.512  0.4660 -1.7573 -1.0869
    2MPD1    N114060   0.159   3.422  17.690 -0.6988 -0.0989  0.4424
    2MPD1    H614061   0.237   3.453  17.631 -0.8958  1.1264  0.8199
    2MPD1    H714062   0.159   3.320  17.682 -0.3475  0.0024 -0.8349
    3TMC3    C114063   4.534   3.976  17.425  0.5055 -0.0967  0.2406
    3TMC3    C214064   4.649   4.043  17.464  0.2229  0.0975 -0.0047
    3TMC3    C314065   4.669   4.165  17.407 -0.0533  0.8569  0.1582
    3TMC3    C414066   4.445   4.015  17.327 -0.6174 -0.3137 -0.2224
    3TMC3    C514067   4.479   4.131  17.268  0.4961 -0.5472 -0.8768
    3TMC3    C614068   4.583   4.210  17.310  0.2491  0.2215 -0.1099
    3TMC3     C14069   4.506   3.851  17.501  0.0717  0.6301  0.3250
    3TMC3     O14070   4.391   3.816  17.508  0.0422  0.1864  0.1607
    3TMC3     H14071   4.695   4.013  17.558 -0.2600  2.3227  0.9253
    3TMC3    H114072   4.353   3.960  17.314  0.6597 -2.2587 -0.9708
    3TMC3    H214073   4.609   4.305  17.265 -3.7069  1.2332 -0.2106
    3TMC3    C714074   4.386   4.190  17.163  0.2919 -0.0126  0.4997
    3TMC3    C814075   0.046   4.248  17.438  0.3702 -0.2198 -0.3568
    3TMC3    O114076   4.382   4.307  17.140  0.1645 -0.8267  0.0192
    3TMC3    O214077   0.043   4.364  17.398  0.2343 -0.1964  0.1897
    4MPD1     C14078   0.555   4.305  17.542 -0.0381  0.0496  0.4998
    4MPD1    C114079   0.509   4.191  17.606  0.2991 -0.1225 -0.0767
    4MPD1    C214080   0.378   4.153  17.580  0.6140  0.1714  0.0346
    4MPD1    C314081   0.284   4.234  17.513  0.3629 -0.1429  0.0424
    4MPD1    C414082   0.331   4.353  17.467 -0.3328 -0.1860  0.1613
    4MPD1    C514083   0.463   4.385  17.475 -0.2682  0.7453 -0.0218
    4MPD1     H14084   0.348   4.059  17.623 -0.8410  0.7927  0.3634
    4MPD1    H114085   0.270   4.426  17.413  1.5978  1.8303  0.7230
    4MPD1    H214086   0.660   4.332  17.537 -0.0008 -0.2957 -0.4881
    4MPD1    H314087   0.498   4.477  17.430  0.0237  1.4870  1.6974
    4MPD1     N14088   0.158   4.180  17.490  0.4149 -0.6437 -0.2514
    4MPD1    H514089   0.137   4.088  17.527 -1.4369  0.6488  1.8979
    4MPD1    N114090   0.598   4.096  17.657 -0.4241  0.3629  0.1363
    4MPD1    H614091   0.558   4.050  17.738 -1.5646  0.5287 -0.3338
    4MPD1    H714092   0.688   4.135  17.686  0.5088 -0.8481 -1.1451
    1TCq1    O114093   0.977   2.814  11.321  1.2281  0.6785  0.0400
    1TCq1    C114094   0.860   2.863  11.266 -0.7335  0.3090 -0.0688
    1TCq1    O214095   0.752   2.812  11.273 -0.0268  0.1423 -0.7540
    1TCq1    C214096   0.902   2.907  11.129  0.1325  0.4017 -0.3767
    1TCq1    C314097   1.026   2.865  11.080  0.6606  0.0682 -0.5241
    1TCq1    C414098   1.031   2.828  10.952  0.5759  0.1291  0.3661
    1TCq1    C514099   0.941   2.884  10.868  0.1693  0.5769  0.0946
    1TCq1    C614100   0.818   2.929  10.917 -1.2634  0.1570  0.5875
    1TCq1    C714101   0.798   2.933  11.052  0.8928 -0.1584 -0.8101
    1TCq1    C814102   0.715   2.991  10.824 -0.0510 -0.8641 -0.6869
    1TCq1    O414103   0.718   2.954  10.707 -0.0659 -0.4005  0.0194
    1TCq1    C914104   1.160   2.815  10.889 -0.3287 -0.2690  0.5068
    1TCq1    O514105   1.177   2.713  10.817 -0.1263 -0.3053 -0.0942
    1TCq1    O614106   1.257   2.882  10.935  0.0262  0.7812 -0.6782
    1TCq1    H114107   1.042   2.887  11.328  1.3044  0.5018  1.1789
    1TCq1    H214108   1.106   2.824  11.140 -0.5099 -3.0036 -1.0930
    1TCq1    H314109   0.960   2.877  10.762  0.3442 -1.6398  0.2615
    1TCq1    H414110   0.701   2.955  11.096 -0.2398 -2.8738 -1.9424
    2MPD1     C14111   0.358   3.331  10.710  0.4715  0.0224  0.4484
    2MPD1    C114112   0.401   3.355  10.838 -1.0405  0.2195 -0.3561
    2MPD1    C214113   0.485   3.267  10.903 -0.2645  0.5368  0.2757
    2MPD1    C314114   0.543   3.168  10.824 -0.2821  0.8683  0.1879
    2MPD1    C414115   0.506   3.144  10.697 -0.2512 -0.7089 -0.2741
    2MPD1    C514116   0.410   3.222  10.641 -0.0225  0.7679 -0.7254
    2MPD1     H14117   0.506   3.275  11.009 -1.4032  4.3773  0.2259
    2MPD1    H114118   0.541   3.064  10.634  1.4547 -0.1640 -0.0148
    2MPD1    H214119   0.287   3.385  10.649  1.8093  1.6403  0.3208
    2MPD1    H314120   0.375   3.202  10.540  0.0414  1.7005 -0.9338
    2MPD1     N14121   0.641   3.085  10.890  0.5190 -0.3260 -0.1100
    2MPD1    H514122   0.662   3.106  10.987 -2.1581 -1.4979  0.7200
    2MPD1    N114123   0.334   3.450  10.910 -0.3597  0.8420  0.4868
    2MPD1    H614124   0.305   3.527  10.850 -0.2517 -0.4035 -1.1776
    2MPD1    H714125   0.390   3.486  10.987  2.5935  0.6032 -1.5450
    1TMC1    C114126   1.343   1.222   1.262 -0.0408 -0.5120 -0.9416
    1TMC1    C214127   1.465   1.179   1.227  0.0517 -0.0203  0.2732
    1TMC1    C314128   1.521   1.090   1.318 -0.3112 -0.3891 -0.2156
    1TMC1    C414129   1.276   1.186   1.377  0.4351 -0.6008  0.3885
    1TMC1    C514130   1.344   1.107   1.466  0.0671  0.1367 -0.1409
    1TMC1    C614131   1.467   1.058   1.438 -0.1254  0.1006 -0.3829
    1TMC1     C14132   1.298   1.345   1.200  0.5772 -0.4112  0.2707
    1TMC1     O14133   1.198   1.394   1.251  0.0228  0.7850 -0.1165
    1TMC1     H14134   1.507   1.201   1.129 -4.8888  4.3295 -0.8223
    1TMC1    H114135   1.179   1.230   1.400  0.4981 -0.0905 -0.3129
    1TMC1    H214136   1.528   1.001   1.508  1.7218  2.1740 -0.2975
    1TMC1    C714137   1.272   1.065   1.583  0.2112  0.0744  0.3598
    1TMC1    C814138   1.642   1.025   1.287 -0.7069  0.2541 -0.8253
    1TMC1    O114139   1.158   1.099   1.593  0.6540 -0.8773  0.1065
    1TMC1    O214140   1.692   0.933   1.355 -0.9748  0.5142  0.3239
    1TMC1    O314141   1.331   0.964   1.646 -0.1133 -0.5028  0.3879
    1TMC1    H314142   1.428   0.979   1.633 -0.6225 -0.0785 -2.9618
    1TMC1    O514143   1.726   1.111   1.213  0.9638 -0.4786 -0.1621
    1TMC1    H514144   1.690   1.202   1.213  1.2717 -0.3578  0.4187
    2MPD1     C14145   1.312   1.758   0.910  0.7088 -0.1853  0.0262
    2MPD1    C114146   1.411   1.674   0.879 -0.0595  0.2806 -0.4154
    2MPD1    C214147   1.435   1.561   0.953  0.0337 -0.4111 -0.4416
    2MPD1    C314148   1.341   1.522   1.049 -0.4086  0.3583  0.2163
    2MPD1    C414149   1.238   1.611   1.083  0.1651  0.2252  0.0841
    2MPD1    C514150   1.222   1.726   1.005 -0.4465 -0.1452  0.2236
    2MPD1     H14151   1.519   1.494   0.940 -0.5749 -0.8680 -2.1283
    2MPD1    H114152   1.177   1.593   1.171  2.9109  1.8267  2.2810
    2MPD1    H214153   1.286   1.848   0.855  2.9141  1.7747  2.1672
    2MPD1    H314154   1.139   1.795   1.018  0.7258  1.4988 -0.9010
    2MPD1     N14155   1.378   1.404   1.112  0.7316  0.1393 -0.3440
    2MPD1    H514156   1.472   1.370   1.097  0.2889 -1.1200 -0.2549
    2MPD1    N114157   1.497   1.707   0.777  0.2002  0.4825  0.4227
    2MPD1    H614158   1.464   1.778   0.712  0.0277  0.4674  0.4941
    2MPD1    H714159   1.520   1.623   0.724 -3.7560 -0.5892  0.4665
    1MPD1     C14160   3.148   2.611  12.757 -0.0007  0.7321 -0.1392
    1MPD1    C114161   3.056   2.683  12.702  0.7204 -0.3223 -0.5880
    1MPD1    C214162   3.083   2.820  12.690  0.8138 -0.5136 -0.4346
    1MPD1    C314163   3.201   2.883  12.732  0.6423 -0.2384  0.4531
    1MPD1    C414164   3.309   2.797  12.754  0.0529  0.9260  0.1652
    1MPD1    C514165   3.274   2.665  12.782 -0.0345  0.7759  0.2262
    1MPD1     H14166   3.007   2.891  12.659  1.8352  0.8005  0.1081
    1MPD1    H114167   3.408   2.826  12.789  0.6707  1.4193 -1.9918
    1MPD1    H214168   3.134   2.506  12.782 -0.2325  0.7650 -0.1312
    1MPD1    H314169   3.354   2.602  12.819  0.2835  2.0961  1.7698
    1MPD1     N14170   3.207   3.026  12.720 -0.0265 -0.3447 -0.1671
    1MPD1    H514171   3.122   3.062  12.678  0.4656  0.7504 -0.2332
    1MPD1    N114172   2.925   2.631  12.682  0.2489  0.7850 -0.1834
    1MPD1    H614173   2.929   2.529  12.676 -0.6748  0.6104  2.1608
    1MPD1    H714174   2.890   2.668  12.594 -1.0734 -1.9289 -0.7944
    2MPD1     C14175   1.816   4.106  11.282 -0.7178  0.4402  1.1527
    2MPD1    C114176   1.821   4.021  11.176  0.3879  0.2911  0.5467
    2MPD1    C214177   1.945   3.975  11.143  0.2317 -0.1730  0.0297
    2MPD1    C314178   2.055   3.994  11.228 -0.1936 -0.1352 -0.0250
    2MPD1    C414179   2.041   4.072  11.338 -0.3403 -0.0195 -0.5189
    2MPD1    C514180   1.921   4.137  11.360 -1.1456  0.0799 -0.4944
    2MPD1     H14181   1.959   3.922  11.050  0.5876  1.5620 -0.9024
    2MPD1    H114182   2.127   4.089  11.402 -1.6698 -1.6078  1.6679
    2MPD1    H214183   1.727   4.159  11.315  0.0060  1.9337  0.7113
    2MPD1    H314184   1.917   4.202  11.446  0.8122 -1.8392  1.0386
    2MPD1     N14185   2.188   3.946  11.200 -0.1096 -0.6295 -0.5934
    2MPD1    H514186   2.259   3.975  11.267  0.1237  0.4458 -1.3091
    2MPD1    N114187   1.710   3.996  11.095 -0.1859  0.3271  0.5681
    2MPD1    H614188   1.623   4.001  11.149 -0.4069 -0.1672  0.2553
    2MPD1    H714189   1.722   3.897  11.074 -0.2541  0.1832  1.1830
    3MPD1     C14190   2.538   3.657  10.315  0.0892  0.5239  0.3980
    3MPD1    C114191   2.423   3.632  10.383 -0.4930 -0.1024 -0.2483
    3MPD1    C214192   2.417   3.677  10.513 -0.4604  0.5207 -0.9610
    3MPD1    C314193   2.517   3.753  10.569  0.1992  0.2912  0.4044
    3MPD1    C414194   2.619   3.790  10.491 -0.0937  0.2872  0.3945
    3MPD1    C514195   2.636   3.739  10.368 -0.2641  0.7929 -0.2087
    3MPD1     H14196   2.337   3.665  10.585 -0.8596  0.5633 -1.4041
    3MPD1    H114197   2.697   3.861  10.518 -2.1396  3.9780 -3.2398
    3MPD1    H214198   2.554   3.628  10.212  0.2143  1.0503  0.2664
    3MPD1    H314199   2.713   3.774  10.300  0.1011 -1.1304 -0.7788
    3MPD1     N14200   2.499   3.795  10.702 -0.3209  0.2956  0.5784
    3MPD1    H514201   2.406   3.781  10.741 -0.2108 -1.5191  0.1719
    3MPD1    N114202   2.319   3.551  10.329  1.1571 -0.1515  0.0724
    3MPD1    H614203   2.228   3.577  10.367  1.6836  1.8579 -0.0366
    3MPD1    H714204   2.315   3.568  10.229 -0.1907 -0.2715  0.1021
    4MPD2     C14205   2.797   3.549  12.519 -0.3725  0.0705  0.2441
    4MPD2    C114206   2.929   3.583  12.512  0.1830  0.0104 -0.9421
    4MPD2    C214207   2.975   3.659  12.407  0.2209  0.0483 -0.3195
    4MPD2    C314208   2.896   3.711  12.304 -0.6106  0.4953  0.4671
    4MPD2    C414209   2.758   3.679  12.325  0.0960 -0.8427 -0.2094
    4MPD2    C514210   2.709   3.611  12.432  0.1877  0.1045 -0.3243
    4MPD2     H14211   3.083   3.671  12.404  0.4907 -2.3999 -0.0915
    4MPD2    H114212   2.685   3.704  12.249  0.4014  0.3260 -0.1181
    4MPD2    H214213   2.757   3.483  12.596 -2.3755 -1.0904 -1.7744
    4MPD2    H314214   2.604   3.585  12.431 -0.1367  1.4764 -2.4705
    4MPD2     N14215   2.938   3.763  12.181  0.3276 -0.1135 -0.5936
    4MPD2    H514216   2.873   3.756  12.103 -0.4600 -1.4864  0.1806
    4MPD2    N114217   3.026   3.526  12.602  0.4477 -0.1166  0.0772
    4MPD2    H714218   3.119   3.558  12.574  0.5114 -1.1794 -0.9581
    5TMC3    C114219   3.128   3.419  12.762 -0.1553  0.4145 -0.2127
    5TMC3    C214220   3.152   3.282  12.759  0.6162  0.1613  1.1651
    5TMC3    C314221   3.285   3.246  12.734  0.3220 -0.6406  0.6486
    5TMC3    C414222   3.231   3.508  12.726  0.0899  0.0190  0.2689
    5TMC3    C514223   3.354   3.461  12.697  0.1126  0.0301  0.3584
    5TMC3    C614224   3.385   3.330  12.691 -0.1542 -0.1419 -0.4934
    5TMC3     C14225   3.002   3.451  12.715 -0.3771  0.1728  0.4111
    5TMC3     O14226   2.900   3.403  12.758  0.6427 -0.5464 -0.1442
    5TMC3     H14227   3.083   3.211  12.803 -1.2900  0.3989 -1.4479
    5TMC3    H114228   3.219   3.614  12.746  3.7192  0.5151 -0.2437
    5TMC3    H214229   3.477   3.272  12.682  0.2149  0.1839  1.2081
    5TMC3    C714230   3.398   3.536  12.585 -0.4236 -0.2111  0.9005
    5TMC3    C814231   3.317   3.104  12.741  0.1689 -0.0971  0.0197
    5TMC3    O114232   3.314   3.618  12.549 -0.2507  0.0038 -0.5239
    5TMC3    O214233   3.428   3.070  12.776 -0.1403  0.0670  0.8279
    6TMC3    C114234   2.370   3.866  11.065  0.4584 -0.0901  0.2324
    6TMC3    C214235   2.404   3.858  10.934 -0.9526 -1.1826  0.0524
    6TMC3    C314236   2.542   3.863  10.916 -0.1013  0.3738  0.1313
    6TMC3    C414237   2.453   3.854  11.173 -0.0304 -0.2972 -0.0816
    6TMC3    C514238   2.584   3.841  11.139 -0.1693 -0.0915 -0.1176
    6TMC3    C614239   2.634   3.843  11.013  0.2917 -0.1457 -0.2931
    6TMC3     C14240   2.224   3.882  11.083 -0.4214 -0.3371 -0.2035
    6TMC3     O14241   2.157   3.835  10.993  0.0152 -0.0579 -0.0353
    6TMC3     H14242   2.329   3.885  10.861 -0.6818  0.3955  0.3682
    6TMC3    H114243   2.426   3.857  11.278  0.6482 -0.7262  0.1060
    6TMC3    H214244   2.741   3.848  10.993 -0.1876  0.9460 -2.6263
    6TMC3    C714245   2.685   3.809  11.240  0.4160  0.6711 -0.8805
    6TMC3    C814246   2.596   3.851  10.778 -0.1897 -0.8003 -0.2581
    6TMC3    O114247   2.652   3.840  11.356 -0.0810 -0.2986  0.5216
    6TMC3    O214248   2.712   3.874  10.746  0.3506  0.9578  0.3598
    7MPD2     C14249   3.592   3.544  12.115  0.5720 -0.2291 -0.1685
    7MPD2    C114250   3.487   3.616  12.168  0.5995  0.0786 -0.4994
    7MPD2    C214251   3.461   3.601  12.300  0.0534  0.0678 -0.2018
    7MPD2    C314252   3.539   3.515  12.380  0.1766  0.5152  0.2127
    7MPD2    C414253   3.656   3.463  12.325  0.1790  0.0708  0.8160
    7MPD2    C514254   3.675   3.465  12.191 -0.6160 -0.1090 -0.3812
    7MPD2     H14255   3.385   3.669  12.337  1.1970  0.5700  1.2245
    7MPD2    H114256   3.709   3.395  12.391 -1.3674 -0.4664  1.5163
    7MPD2    H214257   3.611   3.547  12.008  0.2519 -0.4713 -0.2307
    7MPD2    H314258   3.744   3.398  12.140 -0.7537  0.7815 -1.7447
    7MPD2     N14259   3.507   3.485  12.513  0.2753  0.0118  0.4347
    7MPD2    H514260   3.567   3.419  12.562  0.8084 -0.1795 -0.4823
    7MPD2    N114261   3.408   3.702  12.096  0.1921  0.1959  0.2092
    7MPD2    H714262   3.347   3.763  12.149 -0.3605  0.7911 -1.1100
    8TMC3    C114263   3.283   3.775  11.913 -0.3599 -0.6792 -1.4569
    8TMC3    C214264   3.216   3.722  11.808 -0.4986 -0.3483 -0.1788
    8TMC3    C314265   3.078   3.728  11.812  0.5110 -0.6926 -0.0263
    8TMC3    C414266   3.225   3.863  12.004  0.2128  0.0038 -1.0389
    8TMC3    C514267   3.087   3.847  12.014 -0.0515  0.0522 -0.4204
    8TMC3    C614268   3.010   3.786  11.915  0.0512 -0.3464  0.3792
    8TMC3     C14269   3.397   3.699  11.954 -0.1343 -0.2727 -0.5093
    8TMC3     O14270   3.441   3.607  11.879 -0.6840  0.2227 -0.1004
    8TMC3     H14271   3.272   3.667  11.733 -1.1487 -0.4463 -0.5937
    8TMC3    H114272   3.279   3.917  12.082 -1.4014  0.3450 -0.1528
    8TMC3    H214273   2.904   3.772  11.929 -0.5298  1.8050 -1.8425
    8TMC3    C714274   3.065   3.802  12.151 -0.4942  0.1751 -0.7112
    8TMC3    C814275   3.008   3.732  11.685 -0.4065  0.5823  1.0355
    8TMC3    O114276   3.166   3.794  12.225 -0.4081 -0.8391 -0.5192
    8TMC3    O214277   2.903   3.797  11.676  0.4378 -0.2582 -0.1444
    9MPD2     C14278   3.086   3.522  11.380 -0.7662 -0.5283  0.4342
    9MPD2    C114279   3.029   3.623  11.456 -0.9419 -0.7785  0.7271
    9MPD2    C214280   2.917   3.688  11.397 -0.1707  0.1327  0.0616
    9MPD2    C314281   2.880   3.652  11.267  0.1747  0.7325 -0.1235
    9MPD2    C414282   2.935   3.547  11.199 -0.7550  0.1778 -0.0316
    9MPD2    C514283   3.042   3.486  11.256  0.0144 -0.4274  0.0688
    9MPD2     H14284   2.857   3.759  11.453 -0.3390  2.2942 -2.9071
    9MPD2    H114285   2.909   3.528  11.096 -1.5796 -4.2178  0.9523
    9MPD2    H214286   3.157   3.456  11.428  1.3994  2.0428  0.8032
    9MPD2    H314287   3.086   3.396  11.214 -0.9038  0.3160 -2.4332
    9MPD2     N14288   2.777   3.718  11.194 -0.2612  0.2482  0.1639
    9MPD2    H514289   2.777   3.694  11.096 -0.2076 -0.0691  0.2420
    9MPD2    N114290   3.067   3.647  11.592  0.0330  0.2256 -0.2966
    9MPD2    H714291   3.144   3.588  11.622 -0.5274  0.6414  1.9353
    1MPD1     C14292   3.007   2.998  16.367  0.3088 -0.1255  0.4685
    1MPD1    C114293   2.979   2.863  16.367  0.3992 -0.3388  0.3671
    1MPD1    C214294   2.851   2.816  16.382 -0.2071 -0.0092 -0.2932
    1MPD1    C314295   2.739   2.901  16.395  0.2653 -0.1491 -0.0857
    1MPD1    C414296   2.766   3.031  16.398 -0.8551  0.6401  0.0847
    1MPD1    C514297   2.897   3.071  16.379  0.4180 -0.9920  0.3166
    1MPD1     H14298   2.840   2.709  16.374 -0.9248  0.0988 -0.7314
    1MPD1    H114299   2.685   3.101  16.417 -1.8533 -0.3264 -0.6297
    1MPD1    H214300   3.104   3.045  16.365  0.2652 -0.1001 -0.9330
    1MPD1    H314301   2.913   3.179  16.381  0.6756 -1.0502  1.1732
    1MPD1     N14302   2.603   2.864  16.408 -0.9024 -0.3184  0.4056
    1MPD1    H514303   2.536   2.939  16.425 -1.5344 -0.8851  0.4164
    1MPD1    N114304   3.078   2.770  16.365  0.0476  0.1049  0.1549
    1MPD1    H614305   3.172   2.789  16.331  0.5775 -0.3966  1.3018
    1MPD1    H714306   3.044   2.680  16.332 -1.7794  0.5546  0.8311
    2TMC2    C114307   2.211   2.812  16.297 -0.4798 -0.5631  0.8899
    2TMC2    C214308   2.133   2.713  16.354 -0.2028 -0.2235  0.3081
    2TMC2    C314309   2.204   2.618  16.424 -0.3854 -0.4560 -0.5399
    2TMC2    C414310   2.342   2.822  16.325 -0.6025  0.0795 -0.2996
    2TMC2    C514311   2.406   2.734  16.408 -0.0242 -0.1061  0.0487
    2TMC2    C614312   2.342   2.625  16.453  0.5076  1.0424  0.5069
    2TMC2     C14313   2.146   2.916  16.226  0.0674 -0.2523  0.3526
    2TMC2     O14314   2.028   2.925  16.252  0.1158  0.0731 -0.0005
    2TMC2     H14315   2.026   2.702  16.335 -0.4675  0.7499  1.2434
    2TMC2    H114316   2.393   2.907  16.281 -2.5055  0.8398 -1.0622
    2TMC2    H214317   2.390   2.554  16.520  1.7492  0.8273 -0.6023
    2TMC2    C714318   2.554   2.737  16.409  0.1351 -0.1899  0.2192
    2TMC2    C814319   2.123   2.532  16.500 -0.3522  0.4934 -0.0645
    2TMC2    O114320   2.611   2.623  16.403 -0.4717  0.1082  0.2963
    2TMC2    O214321   2.012   2.569  16.539  0.7027  0.3751 -0.0465
    2TMC2    O514322   2.157   2.409  16.459 -0.3192  0.5064 -0.6421
    2TMC2    H514323   2.243   2.408  16.412 -0.8236  0.6155 -1.5715
    3MPD1     C14324   2.159   3.382  16.010 -0.0444  0.9456 -0.1628
    3MPD1    C114325   2.262   3.318  15.956 -0.1285 -0.3377 -0.7148
    3MPD1    C214326   2.278   3.180  15.985 -0.6945  0.4746  0.5913
    3MPD1    C314327   2.198   3.124  16.088 -0.2327 -0.4267  0.5628
    3MPD1    C414328   2.101   3.198  16.148 -0.4091 -0.2252 -0.0035
    3MPD1    C514329   2.082   3.324  16.107 -0.6088  0.2512 -0.1038
    3MPD1     H14330   2.364   3.134  15.939  1.4418  2.4396  2.5837
    3MPD1    H114331   2.039   3.153  16.225  0.6277 -0.8671  0.4525
    3MPD1    H214332   2.134   3.484  15.985 -2.8007  0.3259  0.0514
    3MPD1    H314333   2.000   3.383  16.147 -0.9113 -0.0643 -0.2575
    3MPD1     N14334   2.223   2.989  16.131  0.3870 -0.0664 -0.3721
    3MPD1    H514335   2.309   2.943  16.102  2.1394  1.7440  1.8703
    3MPD1    N114336   2.318   3.370  15.843 -0.7437 -0.1116  0.2329
    3MPD1    H614337   2.296   3.466  15.821 -2.1829 -0.3564  0.5978
    3MPD1    H714338   2.407   3.327  15.819 -0.6101 -1.3142  2.8087
    1TMC1    C114339   0.741   1.451  13.495  0.4294  0.6193 -0.4938
    1TMC1    C214340   0.700   1.374  13.387  0.0943  0.5056 -0.5746
    1TMC1    C314341   0.583   1.407  13.320  0.3959 -1.3372 -0.7522
    1TMC1    C414342   0.660   1.549  13.541  0.1514  0.1057 -0.0760
    1TMC1    C514343   0.545   1.579  13.475 -0.0399 -0.4188  0.2259
    1TMC1    C614344   0.510   1.514  13.360  0.2505  0.1866  0.1518
    1TMC1     C14345   0.830   1.397  13.584 -0.2863  0.3277  0.4837
    1TMC1     O14346   0.861   1.279  13.560 -0.0551  0.1743  0.4599
    1TMC1     H14347   0.772   1.300  13.355 -0.1675  0.9396 -2.1506
    1TMC1    H114348   0.676   1.601  13.635 -1.7363  0.4534  0.0524
    1TMC1    H214349   0.415   1.531  13.311  0.6391 -0.6938 -0.9167
    1TMC1    C714350   0.502   1.712  13.512  0.3301  0.0502  0.2738
    1TMC1    C814351   0.565   1.356  13.185 -0.3459 -0.3604  0.4037
    1TMC1    O114352   0.588   1.799  13.536  0.2462  0.3763 -0.0853
    1TMC1    O214353   0.641   1.267  13.148  0.0452 -0.2933  0.3591
    1TMC1    O314354   0.374   1.735  13.471 -0.5333 -0.3350  0.7719
    1TMC1    H314355   0.317   1.655  13.469 -0.2800 -0.4939 -0.2431
    1TMC1    O514356   0.537   1.462  13.110 -0.0307 -0.3094  0.3791
    1TMC1    H514357   0.478   1.534  13.142 -0.7116 -1.1624  1.0236
    2MPD2     C14358   1.061   1.324  13.751  0.1192 -0.2103  0.0262
    2MPD2    C114359   1.003   1.452  13.750 -0.7878 -0.1937  0.2009
    2MPD2    C214360   1.067   1.550  13.823 -0.2232  0.2502  0.4068
    2MPD2    C314361   1.177   1.532  13.906  0.3714  0.6052  0.1594
    2MPD2    C414362   1.232   1.405  13.903  0.4338  0.5786 -0.3032
    2MPD2    C514363   1.174   1.308  13.827 -0.5709  0.3017  1.1227
    2MPD2     H14364   1.022   1.648  13.814 -1.3083 -0.4678 -2.0160
    2MPD2    H114365   1.314   1.367  13.964 -0.6973 -0.2279  0.7178
    2MPD2    H214366   1.021   1.235  13.704 -0.9796  0.4535 -0.2897
    2MPD2    H314367   1.220   1.210  13.831 -0.3928  0.2298 -2.1890
    2MPD2     N14368   1.236   1.640  13.976  0.6358  0.1776 -0.2744
    2MPD2    H514369   1.189   1.730  13.986  0.7668 -0.0894  2.7371
    2MPD2    N114370   0.890   1.489  13.669  0.7565 -0.1868  0.7831
    2MPD2    H714371   0.852   1.583  13.664  0.2827 -0.3774  0.8036
    3TCq1    O114372   1.301   2.172  14.057  0.0047  0.0143  0.5628
    3TCq1    C114373   1.426   2.133  14.059  0.3871 -0.0359  0.1619
    3TCq1    O214374   1.520   2.213  14.059  0.1966 -0.1046  0.5776
    3TCq1    C214375   1.441   1.996  14.101 -0.5405  0.4619 -0.0720
    3TCq1    C314376   1.537   1.980  14.196 -0.4597 -0.6421 -0.3360
    3TCq1    C414377   1.560   1.855  14.246 -0.0047 -0.5831 -0.4798
    3TCq1    C514378   1.501   1.744  14.192 -0.3499  1.1669 -0.3165
    3TCq1    C614379   1.400   1.764  14.101  0.0673  0.2071  0.3126
    3TCq1    C714380   1.367   1.891  14.052 -0.0795 -0.6708 -0.7952
    3TCq1    C814381   1.364   1.635  14.034  0.5687 -0.1221 -0.3601
    3TCq1    O414382   1.448   1.549  14.016 -1.2686  0.3679  0.2413
    3TCq1    C914383   1.664   1.843  14.347 -0.4969 -0.4926 -0.0827
    3TCq1    O514384   1.684   1.931  14.432 -0.0814 -0.3189 -0.0406
    3TCq1    O614385   1.719   1.729  14.346  0.0576  0.1576  0.1216
    3TCq1    H114386   1.239   2.099  14.080 -0.8371  0.7490  0.5856
    3TCq1    H214387   1.600   2.058  14.237 -1.2667 -0.3264  0.2932
    3TCq1    H314388   1.519   1.643  14.227  0.3237  0.1965 -3.4510
    3TCq1    H414389   1.301   1.891  13.967  0.9694 -1.2548 -1.6143
    1MPD2     C14390   0.135   3.042  14.656  0.3939 -0.1068 -0.4685
    1MPD2    C114391   0.089   2.986  14.538  0.5748  0.2963  0.4928
    1MPD2    C214392   0.110   2.851  14.524 -0.4084 -0.1342 -0.1531
    1MPD2    C314393   0.182   2.779  14.622 -0.6121 -0.3434  0.5907
    1MPD2    C414394   0.221   2.843  14.741 -0.2449 -0.7196 -0.4063
    1MPD2    C514395   0.196   2.975  14.758  0.0397 -0.9344  0.1381
    1MPD2     H14396   0.069   2.794  14.441  0.3950  0.2061 -0.7886
    1MPD2    H114397   0.268   2.785  14.820 -1.6547  0.1150  1.0353
    1MPD2    H214398   0.119   3.146  14.683  2.2349  0.0369  0.1160
    1MPD2    H314399   0.227   3.025  14.850 -0.0815 -1.4463  0.4557
    1MPD2     N14400   0.215   2.637  14.609 -0.4087 -0.1341 -0.1644
    1MPD2    H514401   0.259   2.595  14.691 -1.2785  1.1451  0.9405
    1MPD2    N114402   0.015   3.062  14.442  0.2636 -0.6710  0.6341
    1MPD2    H714403   4.729   3.157  14.467  0.3144 -0.1414 -1.3467
    2TMC3    C114404   4.593   3.064  14.266  0.8590 -0.3532  0.4084
    2TMC3    C214405   4.521   2.978  14.192  0.0256 -0.6500  0.5164
    2TMC3    C314406   4.387   2.977  14.204  0.1721  0.2786 -0.6550
    2TMC3    C414407   4.533   3.164  14.342  1.1562  0.1142 -0.6150
    2TMC3    C514408   4.392   3.160  14.352 -0.2401  0.3859 -0.5866
    2TMC3    C614409   4.322   3.063  14.282 -0.6499  0.1922 -0.0449
    2TMC3     C14410   4.714   3.011  14.320 -0.3483 -0.0088 -0.2751
    2TMC3     O14411   0.020   2.922  14.250  0.5622 -1.0706 -0.1050
    2TMC3     H14412   4.574   2.923  14.115 -0.7512 -0.1220 -0.3941
    2TMC3    H114413   4.596   3.242  14.384 -0.1120 -0.3258  2.0991
    2TMC3    H214414   4.217   3.076  14.259 -1.0399 -3.0948 -0.1329
    2TMC3    C714415   4.319   3.271  14.402  0.8073  0.3608  0.0393
    2TMC3    C814416   4.318   2.850  14.198 -0.0964 -0.5932  0.0434
    2TMC3    O114417   4.199   3.277  14.392  0.2514  0.0702 -0.6217
    2TMC3    O214418   4.201   2.837  14.215  0.0551  0.1103  0.2449
    3TCq1    O114419   0.095   4.320  14.761 -0.2957 -0.5561  0.1511
    3TCq1    C114420   0.164   4.218  14.818  0.2320 -0.6653 -0.5469
    3TCq1    O214421   0.280   4.223  14.850  0.0961  0.0153  0.1633
    3TCq1    C214422   0.075   4.100  14.830 -0.9263 -0.2511  0.3451
    3TCq1    C314423   0.121   4.002  14.914 -0.7330 -0.0671  0.4474
    3TCq1    C414424   0.046   3.885  14.922  0.3672 -0.2305  0.5479
    3TCq1    C514425   4.676   3.857  14.841 -0.1466  0.4667  0.1545
    3TCq1    C614426   4.636   3.955  14.755  0.4845 -0.0366 -0.3324
    3TCq1    C714427   4.705   4.073  14.746  0.3996  0.3114 -0.0726
    3TCq1    C814428   4.541   3.920  14.656  0.1022  0.0427  0.7489
    3TCq1    O414429   4.460   4.008  14.628 -0.1669 -0.0483  0.0391
    3TCq1    C914430   0.101   3.778  15.007  0.3021  0.2669 -0.3682
    3TCq1    O514431   0.052   3.661  14.997  0.0883 -0.5725  0.5268
    3TCq1    O614432   0.215   3.798  15.061  0.3101 -0.4261  0.0083
    3TCq1    H114433   4.737   4.310  14.763 -0.4953  0.8602 -2.0564
    3TCq1    H214434   0.217   4.020  14.963 -0.1905 -0.7084 -0.3861
    3TCq1    H314435   4.631   3.759  14.853 -2.6509  1.5772 -0.2830
    3TCq1    H414436   4.680   4.136  14.661 -1.0184 -1.5337 -1.0278
    4MPD2     C14437   4.331   3.772  14.506  0.0899 -0.2897  0.4598
    4MPD2    C114438   4.453   3.722  14.546 -0.5346  0.1003 -0.6574
    4MPD2    C214439   4.468   3.586  14.536  0.4592 -0.0919  0.3524
    4MPD2    C314440   4.372   3.501  14.482  0.6882  0.6131 -0.1261
    4MPD2    C414441   4.254   3.560  14.446 -0.6742 -0.6254 -0.3446
    4MPD2    C514442   4.234   3.694  14.452 -0.2249 -0.5768  0.1541
    4MPD2     H14443   4.563   3.537  14.555  0.2617 -0.2858  0.8463
    4MPD2    H114444   4.175   3.507  14.396 -0.2888 -1.8197  0.3212
    4MPD2    H214445   4.311   3.879  14.512  1.7181 -0.0178  0.9423
    4MPD2    H314446   4.138   3.736  14.425 -0.1868 -0.5338  0.0859
    4MPD2     N14447   4.406   3.368  14.455  0.1138 -0.0956 -0.0840
    4MPD2    H514448   4.497   3.331  14.480 -0.5611 -1.7569 -0.0894
    4MPD2    N114449   4.550   3.790  14.623  0.5186 -0.4451  0.4266
    4MPD2    H714450   4.628   3.736  14.660 -1.8514 -3.3028  1.3000
    5TMC2    C114451   0.034   2.228  14.468 -0.2694 -0.1524  0.3034
    5TMC2    C214452   0.029   2.177  14.591 -0.2739 -0.2958  0.0306
    5TMC2    C314453   0.106   2.238  14.687  0.8907  0.5814  0.3294
    5TMC2    C414454   0.113   2.340  14.441  0.7160 -0.3736 -0.2375
    5TMC2    C514455   0.177   2.406  14.539 -0.7289 -0.3200 -0.1990
    5TMC2    C614456   0.170   2.353  14.666 -0.2503 -0.7049  0.2022
    5TMC2     C14457   4.641   2.237  14.413  0.3237 -0.1143  0.2148
    5TMC2     O14458   4.559   2.149  14.444  0.3206 -0.5278 -0.5805
    5TMC2     H14459   4.703   2.092  14.612  0.5852 -0.3414  2.5350
    5TMC2    H114460   0.129   2.371  14.339  1.1462 -1.0864 -0.3871
    5TMC2    H214461   0.230   2.395  14.746  2.2659 -4.7164  0.3739
    5TMC2    C714462   0.180   2.548  14.504 -0.2601 -0.8507  0.3078
    5TMC2    C814463   0.093   2.192  14.823 -0.0850  0.0801 -0.2747
    5TMC2    O114464   0.135   2.578  14.395 -0.2049  0.0212 -0.0473
    5TMC2    O214465   0.102   2.271  14.920  0.0776 -0.1215 -0.5018
    5TMC2    O514466   0.071   2.063  14.826 -0.2160 -0.1388  0.4241
    5TMC2    H514467   0.103   2.021  14.743 -1.3215 -0.1128 -0.0067
    6MPD2     C14468   4.271   2.549  14.231 -0.3556 -0.0318 -0.3865
    6MPD2    C114469   4.391   2.614  14.234  0.4632  0.4741  0.6755
    6MPD2    C214470   4.501   2.551  14.279 -0.1922 -0.0294 -0.3124
    6MPD2    C314471   4.490   2.416  14.325 -0.5138  0.8003  0.5975
    6MPD2    C414472   4.375   2.347  14.311  0.4979 -0.4843 -0.6131
    6MPD2    C514473   4.267   2.420  14.269 -0.2049  0.4520 -0.1799
    6MPD2     H14474   4.596   2.604  14.273 -1.4559  2.0908 -1.2894
    6MPD2    H114475   4.361   2.249  14.354  1.1331  0.7280  2.4021
    6MPD2    H214476   4.182   2.595  14.190 -0.8436 -1.1746 -0.6187
    6MPD2    H314477   4.171   2.368  14.268 -0.6054  1.1936  0.1593
    6MPD2     N14478   4.613   2.360  14.373 -0.3767  0.1683  0.3137
    6MPD2    H514479   4.696   2.418  14.366  0.4162 -1.2468 -1.8442
    6MPD2    N114480   4.411   2.748  14.198 -0.0692  0.3546 -0.0403
    6MPD2    H714481   4.508   2.778  14.204  0.2702 -0.5613 -0.8013
  945NH3     N114482   3.644   3.507   1.621  0.2353  0.0191 -0.3534
  945NH3     H214483   3.670   3.429   1.681  1.5820  1.1317  0.4951
  945NH3     H314484   3.673   3.469   1.531  0.8882  1.9909 -0.9534
  945NH3     H414485   3.720   3.572   1.637 -0.1937  0.0920  1.3675
  946SOD     NA14486   1.182   3.465  15.175 -0.0028 -0.5304  0.1797
  947SOD     NA14487   3.291   1.211  14.308 -0.2715 -0.3136 -0.4052
  948SOD     NA14488   2.391   4.460   3.735  0.2771  0.2590  0.1011
  949SOD     NA14489   4.336   3.067   5.916  0.0726  0.2587 -0.6777
  950SOD     NA14490   0.211   2.499  11.113 -0.1651  0.3508 -0.4218
  951SOD     NA14491   0.871   3.580  10.683 -0.1817 -0.5729 -0.4855
  952SOD     NA14492   2.996   4.384  13.309 -0.0405 -0.0822  0.1594
  953SOD     NA14493   1.780   0.779  16.835  0.5515  0.2968 -0.0755
  954SOL     OW14494   1.688   4.109  15.433  0.5707 -0.2024  0.3575
  954SOL    HW114495   1.680   4.187  15.487  1.3909  0.1437 -0.0312
  954SOL    HW214496   1.649   4.044  15.492 -2.0129 -0.1006 -1.2249
  955SOL     OW14497   2.423   3.150   5.325  0.2539  0.1347 -0.0674
  955SOL    HW114498   2.354   3.216   5.335  0.4907  0.1651  1.4587
  955SOL    HW214499   2.439   3.137   5.419  1.2069  0.9765 -0.1167
  956SOL     OW14500   1.756   4.491   7.022 -0.1316 -0.1168  0.1363
  956SOL    HW114501   1.669   4.475   7.058  0.3473 -1.1203  0.8441
  956SOL    HW214502   1.771   4.414   6.968 -1.0103  0.1535 -0.4933
  957SOL     OW14503   3.019   1.665  11.486 -0.1796 -0.7076  0.2381
  957SOL    HW114504   3.027   1.588  11.543  0.1078 -0.3879  0.6341
  957SOL    HW214505   2.998   1.618  11.406 -0.2959 -1.2641  0.5945
  958SOL     OW14506   4.149   3.597   3.315 -0.4981  0.4246  0.8398
  958SOL    HW114507   4.189   3.650   3.246  1.2400 -0.7826  0.9373
  958SOL    HW214508   4.174   3.507   3.295  0.0189  1.2609 -2.1833
  959SOL     OW14509   1.221   1.822   6.844  0.1748 -0.6525  0.0520
  959SOL    HW114510   1.166   1.746   6.863  0.0936  0.0105  2.4925
  959SOL    HW214511   1.291   1.777   6.798 -0.7988 -1.5202 -0.5821
  960SOL     OW14512   3.870   0.285   0.647 -0.6372  0.0513 -0.3660
  960SOL    HW114513   3.839   0.207   0.601 -0.7562  0.7825 -1.5407
  960SOL    HW214514   3.792   0.328   0.682 -0.7541 -1.2968  1.0154
  961SOL     OW14515   4.137   2.677  12.182 -0.4355  0.1146  0.5973
  961SOL    HW114516   4.150   2.629  12.100  1.2487 -1.1009  1.5726
  961SOL    HW214517   4.089   2.750  12.142  0.7474  1.6073  1.9065
  962SOL     OW14518   0.042   1.319   4.222  0.3082 -0.2382  0.0491
  962SOL    HW114519   0.070   1.315   4.130  0.7986  0.1979  0.1814
  962SOL    HW214520   0.057   1.410   4.247  0.4053 -0.8462  2.1478
  963SOL     OW14521   0.544   4.101   4.358  0.4476  0.0542 -0.6357
  963SOL    HW114522   0.587   4.184   4.337  2.1233 -0.8001 -0.5031
  963SOL    HW214523   0.567   4.092   4.450 -0.7710  0.0943 -0.3183
  964SOL     OW14524   3.769   1.787  10.784  0.1134 -0.3693 -0.1894
  964SOL    HW114525   3.707   1.843  10.737 -1.2374 -3.0410 -1.5588
  964SOL    HW214526   3.732   1.766  10.870 -2.3039 -0.0112 -1.1605
  965SOL     OW14527   3.442   0.155  13.590  0.4795  0.0752  0.1012
  965SOL    HW114528   3.387   0.234  13.591  0.1193 -0.1702 -0.1572
  965SOL    HW214529   3.396   0.114  13.664 -1.6023  0.2267 -1.0943
  966SOL     OW14530   4.256   4.187   1.824  0.3510  0.4732 -0.1497
  966SOL    HW114531   4.263   4.172   1.729  1.9707 -1.0469  0.2127
  966SOL    HW214532   4.331   4.247   1.821 -0.2393  1.2044 -0.0512
  967SOL     OW14533   0.832   0.759   3.107  0.1092  0.1590 -0.6524
  967SOL    HW114534   0.813   0.671   3.137 -1.3866  0.5836 -0.3696
  967SOL    HW214535   0.915   0.782   3.149  0.1276 -0.3241 -0.4333
  968SOL     OW14536   1.462   3.080  17.058 -0.1701  0.0514  0.2733
  968SOL    HW114537   1.466   3.078  17.153  1.7885  1.1839  0.2128
  968SOL    HW214538   1.405   3.157  17.054 -1.7402 -1.0649  1.2976
  969SOL     OW14539   3.537   4.608  10.147 -0.1901 -0.7815  0.1573
  969SOL    HW114540   3.610   4.620  10.087  1.0284 -0.8944  1.6212
  969SOL    HW214541   3.462   4.627  10.091 -0.3268 -0.4470  0.4520
  970SOL     OW14542   3.013   0.773   4.344  0.3707  0.0693  0.4728
  970SOL    HW114543   3.022   0.798   4.436  1.6826 -0.1903  0.4188
  970SOL    HW214544   3.065   0.693   4.342  1.3852  0.6945  1.5078
  971SOL     OW14545   0.083   2.488   9.042  0.6158  0.8585 -0.0304
  971SOL    HW114546   0.149   2.528   9.098  1.1870 -1.2984  0.8336
  971SOL    HW214547   0.084   2.555   8.974  2.2263 -0.1888 -1.0586
  972SOL     OW14548   2.033   1.772   1.946  0.0687  0.3820 -0.0594
  972SOL    HW114549   1.947   1.737   1.969  0.5546 -1.2225 -0.7009
  972SOL    HW214550   2.079   1.694   1.914  1.3689  2.3377 -2.9391
  973SOL     OW14551   3.549   0.500   4.478 -0.3515 -0.1355 -0.0024
  973SOL    HW114552   3.536   0.590   4.507  2.6811  0.2544  0.0757
  973SOL    HW214553   3.643   0.489   4.489 -0.1160  0.8302 -1.0465
  974SOL     OW14554   0.695   4.257   1.274  0.0588  0.4365  0.4003
  974SOL    HW114555   0.733   4.336   1.313  1.7611 -0.4350  0.4798
  974SOL    HW214556   0.622   4.306   1.235 -0.8341 -0.1451  1.3219
  975SOL     OW14557   0.221   0.358   9.416 -0.3566 -0.4177  0.1244
  975SOL    HW114558   0.269   0.438   9.437  0.1995 -0.4155 -1.1632
  975SOL    HW214559   0.292   0.298   9.392 -0.7151 -0.5192 -0.6636
  976SOL     OW14560   0.772   2.540   5.036  0.3791  0.3658 -0.4571
  976SOL    HW114561   0.708   2.553   4.966 -1.0527 -1.9278  0.4394
  976SOL    HW214562   0.844   2.597   5.008 -0.5401  1.7908  0.0823
  977SOL     OW14563   2.584   2.632   7.748  0.2778  0.4619  0.1499
  977SOL    HW114564   2.581   2.720   7.786 -2.4301  0.1899  0.5899
  977SOL    HW214565   2.592   2.638   7.653 -2.1213  3.5637  0.1152
  978SOL     OW14566   1.071   4.599   1.235 -0.6303  0.6999  0.3043
  978SOL    HW114567   1.016   4.521   1.245 -0.1816  0.3497  0.0206
  978SOL    HW214568   1.101   4.606   1.326  0.6464 -2.5870  0.1493
  979SOL     OW14569   4.033   3.323   2.193  0.1332 -0.3753  0.2782
  979SOL    HW114570   4.057   3.273   2.115 -0.1518 -0.2814  0.1308
  979SOL    HW214571   4.099   3.392   2.190 -0.6501  0.3996  0.9882
  980SOL     OW14572   4.688   0.364   9.881  0.7331 -0.5395 -0.2704
  980SOL    HW114573   4.649   0.426   9.943 -0.5509 -3.7915  2.1792
  980SOL    HW214574   4.637   0.391   9.805  2.5651  0.7892 -1.0183
  981SOL     OW14575   0.319   1.265   8.060 -0.5462  0.4053 -0.5374
  981SOL    HW114576   0.290   1.174   8.064 -0.2581  0.3213 -0.3194
  981SOL    HW214577   0.379   1.280   8.134 -1.9654  4.3568 -0.1840
  982SOL     OW14578   3.233   4.209   7.254 -0.2066 -0.5039  0.2319
  982SOL    HW114579   3.286   4.179   7.327  1.3942  0.7285 -0.4133
  982SOL    HW214580   3.150   4.217   7.301  0.4675 -1.2721  1.5229
  983SOL     OW14581   3.585   2.574   1.950  0.2618  0.2039  0.2174
  983SOL    HW114582   3.548   2.485   1.949  1.3888 -0.2561 -0.4715
  983SOL    HW214583   3.617   2.564   2.040 -1.0081  1.6910  0.8457
  984SOL     OW14584   0.017   0.792   0.892  0.0720  0.1479 -0.6679
  984SOL    HW114585   4.665   0.816   0.880 -0.5073 -0.5103  2.2625
  984SOL    HW214586   0.072   0.856   0.848 -0.0797  1.4554  1.0323
  985SOL     OW14587   1.903   3.840   3.541 -0.0719  0.2807  0.1190
  985SOL    HW114588   1.832   3.897   3.572  0.8847  2.8816 -2.3476
  985SOL    HW214589   1.857   3.770   3.495  1.0210  1.1026 -2.2312
  986SOL     OW14590   0.150   0.603   8.838 -0.3299 -0.4409 -0.4560
  986SOL    HW114591   0.198   0.568   8.913 -1.9420  0.5806  1.0405
  986SOL    HW214592   0.167   0.537   8.771  2.6988  0.6118 -0.7154
  987SOL     OW14593   2.825   4.497   4.498 -0.2847  0.2026 -0.4159
  987SOL    HW114594   2.872   4.472   4.577  0.1239  0.8832 -0.4392
  987SOL    HW214595   2.833   4.420   4.442  1.0084 -1.0476  1.4713
  988SOL     OW14596   2.727   1.842   2.893  0.2858  0.3250 -0.1591
  988SOL    HW114597   2.808   1.791   2.895  1.5600  2.3497  0.0662
  988SOL    HW214598   2.677   1.783   2.836 -0.4368 -0.1263  0.9254
  989SOL     OW14599   3.982   2.662   1.794 -0.8025 -0.6522 -0.0422
  989SOL    HW114600   4.060   2.647   1.740 -0.0958  0.6184  0.6354
  989SOL    HW214601   3.977   2.585   1.851 -1.6105  0.2359  1.0742
  990SOL     OW14602   3.967   0.303  12.128 -0.4731  0.3413  0.4989
  990SOL    HW114603   3.938   0.232  12.071  0.1087  0.8459 -0.4312
  990SOL    HW214604   4.053   0.274  12.158 -0.7293 -0.6361  0.2742
  991SOL     OW14605   0.523   2.986   3.307 -0.3508  0.4092 -0.1567
  991SOL    HW114606   0.537   3.067   3.355 -2.7917  0.6600  0.1256
  991SOL    HW214607   0.571   2.926   3.365  0.8756  1.5301 -0.0176
  992SOL     OW14608   1.876   3.219   1.654 -0.6354 -0.0719 -0.0981
  992SOL    HW114609   1.813   3.152   1.630  0.0717 -0.2068 -1.5726
  992SOL    HW214610   1.845   3.288   1.595 -2.2438 -0.0993  0.7203
  993SOL     OW14611   1.506   2.140   4.529 -0.3705  0.6555  0.0295
  993SOL    HW114612   1.569   2.193   4.479  0.0913 -1.1441 -1.2725
  993SOL    HW214613   1.459   2.096   4.458 -0.7526  0.1488  0.6041
  994SOL     OW14614   4.492   0.223   5.965  0.1301 -0.0772 -0.1404
  994SOL    HW114615   4.550   0.157   5.928 -1.5631 -2.5489  1.5776
  994SOL    HW214616   4.413   0.229   5.911 -1.5166 -0.9772  2.1535
  995SOL     OW14617   2.328   3.992   8.500 -0.2623  0.9900  0.2486
  995SOL    HW114618   2.408   3.944   8.523 -1.1936 -0.7124 -0.0689
  995SOL    HW214619   2.261   3.930   8.528  0.6931 -0.2751 -0.2294
  996SOL     OW14620   2.643   3.536   7.492  0.2897  0.2434 -0.1487
  996SOL    HW114621   2.654   3.484   7.572 -0.4753  0.7373  0.2826
  996SOL    HW214622   2.549   3.537   7.474  0.7263 -0.7170 -2.3594
  997SOL     OW14623   3.135   1.601   7.153  0.2203 -0.1163  0.4252
  997SOL    HW114624   3.044   1.596   7.182  0.0826  2.3517  0.4608
  997SOL    HW214625   3.117   1.595   7.060 -0.4752 -0.9750  0.6163
  998SOL     OW14626   4.639   2.637   7.123  0.4340  0.1887  0.5917
  998SOL    HW114627   4.730   2.632   7.154 -0.1079  0.6718  2.2386
  998SOL    HW214628   4.641   2.730   7.098  0.9382  0.0498  0.1126
  999SOL     OW14629   4.106   3.685  11.399 -0.4330 -0.0797  0.0714
  999SOL    HW114630   4.172   3.751  11.381 -1.2988  1.3008  1.9337
  999SOL    HW214631   4.034   3.743  11.374  0.2048 -0.3118 -2.2866
 1000SOL     OW14632   1.294   2.901   0.209 -0.0364  0.3670  0.5636
 1000SOL    HW114633   1.248   2.961   0.267 -1.2837  1.3344 -1.4308
 1000SOL    HW214634   1.232   2.830   0.190  1.9962 -1.1901 -0.3130
 1001SOL     OW14635   4.191   3.327   8.991  0.4273  0.0172  0.4595
 1001SOL    HW114636   4.136   3.249   8.980  0.2648  0.3952 -1.2654
 1001SOL    HW214637   4.131   3.397   9.016  0.2750 -0.4018  1.3101
 1002SOL     OW14638   0.373   3.094   7.123 -0.7158 -0.7123  0.1358
 1002SOL    HW114639   0.435   3.034   7.166 -0.9355 -0.2348  1.1229
 1002SOL    HW214640   0.288   3.057   7.147  0.8269 -3.6725  1.0265
 1003SOL     OW14641   1.853   1.360  15.845  0.1458  0.4564 -1.0919
 1003SOL    HW114642   1.935   1.314  15.862 -0.9256 -0.5570  1.2191
 1003SOL    HW214643   1.799   1.290  15.808  0.1835  0.0208 -0.3245
 1004SOL     OW14644   3.171   1.485   2.698  0.3050 -0.0181  0.2445
 1004SOL    HW114645   3.137   1.573   2.708  0.8971  0.2483 -0.0972
 1004SOL    HW214646   3.163   1.475   2.603 -0.2639 -0.0168  0.2942
 1005SOL     OW14647   1.299   1.382   3.023 -0.2367 -0.0872 -0.0925
 1005SOL    HW114648   1.206   1.362   3.036 -0.2433  1.0809  1.5713
 1005SOL    HW214649   1.304   1.465   2.976 -2.1249  0.5211  0.7640
 1006SOL     OW14650   4.507   0.467   9.079 -0.4708 -0.0697  0.1046
 1006SOL    HW114651   4.514   0.412   9.156  0.0023  0.8058  0.6796
 1006SOL    HW214652   4.547   0.549   9.107 -1.0483 -0.3897  1.8740
 1007SOL     OW14653   1.644   4.304   3.476  0.3397  0.4731 -0.0817
 1007SOL    HW114654   1.677   4.215   3.463  0.9902  0.4999  1.3771
 1007SOL    HW214655   1.611   4.315   3.387  1.2599  1.5978 -0.2853
 1008SOL     OW14656   0.745   2.742   0.310  0.2111 -0.0965  0.0895
 1008SOL    HW114657   0.678   2.798   0.272 -0.8575  0.2827  2.4844
 1008SOL    HW214658   0.726   2.652   0.284  0.1931 -0.3226  0.8623
 1009SOL     OW14659   1.889   0.304   8.023 -0.0370 -0.3682  0.0889
 1009SOL    HW114660   1.833   0.360   7.969  1.4338  2.0461  1.0407
 1009SOL    HW214661   1.922   0.367   8.088  0.8828  2.4818 -3.1294
 1010SOL     OW14662   3.705   4.365   9.874 -0.3250 -0.6112  0.2427
 1010SOL    HW114663   3.620   4.387   9.835  0.6800 -1.2145 -2.2401
 1010SOL    HW214664   3.681   4.350   9.966 -1.8489 -2.1453 -0.4010
 1011SOL     OW14665   4.442   3.356   3.384 -0.0182  0.5649 -0.2876
 1011SOL    HW114666   4.388   3.384   3.457 -0.2814  0.3940 -0.4190
 1011SOL    HW214667   4.380   3.359   3.311 -1.0634 -1.4703  0.5219
 1012SOL     OW14668   2.663   4.353   6.045  0.1531 -0.3283 -0.1754
 1012SOL    HW114669   2.752   4.321   6.037  0.4894  0.4947  0.2567
 1012SOL    HW214670   2.685   4.438   6.008 -0.7505  1.1513  2.6772
 1013SOL     OW14671   1.847   4.020   5.499  0.2597 -0.3673  0.0764
 1013SOL    HW114672   1.917   3.989   5.442  0.0678 -0.8647  0.1163
 1013SOL    HW214673   1.885   3.996   5.584 -0.4363  0.4606  0.6148
 1014SOL     OW14674   4.414   2.653  10.298 -0.0852  0.2122  0.0661
 1014SOL    HW114675   4.369   2.637  10.215  2.2037 -1.2227 -0.8895
 1014SOL    HW214676   4.478   2.721  10.278 -0.0441  0.7660  2.0482
 1015SOL     OW14677   0.642   1.112   0.018  0.2736 -0.0392 -0.0117
 1015SOL    HW114678   0.679   1.197  17.748  2.0838 -0.9220 -0.2903
 1015SOL    HW214679   0.663   1.068  17.692  2.4726 -2.1831  1.7191
 1016SOL     OW14680   0.919   3.371   0.785  0.3962  0.1756  0.0304
 1016SOL    HW114681   0.959   3.334   0.706 -0.1336  1.0294 -0.6485
 1016SOL    HW214682   0.899   3.290   0.830 -0.8643  1.0582  1.0535
 1017SOL     OW14683   1.214   2.447   4.685 -1.3090 -0.0865  0.3090
 1017SOL    HW114684   1.166   2.449   4.602  0.3729  0.1475 -0.6611
 1017SOL    HW214685   1.304   2.475   4.670 -1.1766 -0.4362  0.4491
 1018SOL     OW14686   0.180   4.043   2.976 -0.0245  0.1863  0.1007
 1018SOL    HW114687   0.172   4.034   3.071  1.0477 -2.6503 -0.0942
 1018SOL    HW214688   0.195   3.955   2.944 -1.1598  0.7074 -1.8433
 1019SOL     OW14689   2.497   3.461   4.712 -0.3700 -0.2031 -0.0053
 1019SOL    HW114690   2.428   3.421   4.765 -0.6316  0.6096  0.2573
 1019SOL    HW214691   2.488   3.553   4.735  0.8371 -0.1676  0.3079
 1020SOL     OW14692   3.740   1.080  12.642  0.2682 -0.1477 -0.2107
 1020SOL    HW114693   3.651   1.104  12.668  0.2766 -1.2429  0.8125
 1020SOL    HW214694   3.787   1.163  12.647 -0.0994 -0.0597  1.7481
 1021SOL     OW14695   1.836   4.416   5.696 -0.1406  0.2790  0.3577
 1021SOL    HW114696   1.912   4.432   5.751 -0.1703  0.5440  0.3215
 1021SOL    HW214697   1.849   4.491   5.638  1.2866 -1.2808 -1.3285
 1022SOL     OW14698   0.312   0.831  11.040 -0.2057 -0.0181  0.1669
 1022SOL    HW114699   0.366   0.896  11.084  1.7518 -0.6915 -1.2385
 1022SOL    HW214700   0.368   0.754  11.052  0.0726 -0.0112 -1.1509
 1023SOL     OW14701   4.363   1.938   8.272  0.0348  0.1063 -0.1981
 1023SOL    HW114702   4.339   1.874   8.339  2.1951 -1.5317 -1.0149
 1023SOL    HW214703   4.453   1.908   8.263  0.1236  0.0724  0.8602
 1024SOL     OW14704   0.903   4.247  17.213  0.1971 -0.0978  0.5699
 1024SOL    HW114705   0.976   4.305  17.192 -0.8982  1.3171  0.6115
 1024SOL    HW214706   0.833   4.277  17.155  0.0358 -0.8592  0.3762
 1025SOL     OW14707   3.385   2.306   9.898 -0.5580 -0.3017 -0.3985
 1025SOL    HW114708   3.406   2.220   9.935 -2.1162  0.0529  1.3366
 1025SOL    HW214709   3.293   2.316   9.922 -0.5752 -0.5793 -0.3508
 1026SOL     OW14710   3.449   4.729   7.577  0.3503  0.0171 -0.8457
 1026SOL    HW114711   3.386   0.030   7.518  0.0836  0.4526 -0.2579
 1026SOL    HW214712   3.426   0.045   7.651 -0.9700 -2.4061  0.5693
 1027SOL     OW14713   0.965   3.413   3.276 -0.2800  0.2101 -0.1889
 1027SOL    HW114714   0.992   3.353   3.205 -0.3708  0.7170 -0.6484
 1027SOL    HW214715   0.957   3.492   3.223 -1.5473  1.0308  1.2579
 1028SOL     OW14716   2.613   3.419  17.084  0.3759 -0.3611  0.7312
 1028SOL    HW114717   2.528   3.459  17.104 -0.1451 -0.9418 -0.3096
 1028SOL    HW214718   2.663   3.488  17.041 -1.6986  0.9327  0.4086
 1029SOL     OW14719   4.186   1.870  14.468 -0.2454 -0.9556 -0.3538
 1029SOL    HW114720   4.118   1.803  14.470 -0.5437 -0.6212  0.5205
 1029SOL    HW214721   4.249   1.833  14.530  1.7189  0.0520 -1.7146
 1030SOL     OW14722   2.934   1.111   2.317 -0.5022 -0.2987 -0.2574
 1030SOL    HW114723   2.840   1.096   2.327 -0.5541 -0.2829 -0.6870
 1030SOL    HW214724   2.967   1.097   2.405 -0.2193  0.4282 -0.2430
 1031SOL     OW14725   1.185   2.646  15.308 -0.0750  0.2306 -0.3223
 1031SOL    HW114726   1.170   2.551  15.316 -0.2195  0.2506 -0.3503
 1031SOL    HW214727   1.214   2.655  15.398  2.0808  0.5655 -1.0394
 1032SOL     OW14728   2.077   3.365   7.697 -0.3779 -0.2543  0.4099
 1032SOL    HW114729   1.999   3.342   7.747 -1.8350  2.0127 -0.8189
 1032SOL    HW214730   2.060   3.457   7.680  3.0379  0.3347  0.2027
 1033SOL     OW14731   4.620   3.096  11.055 -0.0326 -0.1297  0.0253
 1033SOL    HW114732   4.703   3.063  11.018 -0.4971  1.9880 -2.9253
 1033SOL    HW214733   4.637   3.190  11.047 -1.0209  0.0221 -0.2999
 1034SOL     OW14734   1.393   0.728   2.001 -0.6521  0.0018  0.2657
 1034SOL    HW114735   1.340   0.715   2.080 -0.0724 -0.9172  0.4985
 1034SOL    HW214736   1.458   0.658   2.002  0.9121  1.4379  0.1997
 1035SOL     OW14737   1.800   0.328   7.678 -0.0855 -0.0396  0.1331
 1035SOL    HW114738   1.803   0.416   7.716  2.1185  0.3228 -0.8544
 1035SOL    HW214739   1.854   0.347   7.600 -0.0373 -2.0550 -0.3250
 1036SOL     OW14740   3.755   0.796   2.682 -0.2722  0.2202 -0.4826
 1036SOL    HW114741   3.755   0.866   2.748 -0.7337 -0.5286  0.3079
 1036SOL    HW214742   3.845   0.793   2.650  0.2894  1.8892  0.9113
 1037SOL     OW14743   4.355   2.854  11.905  0.1599  0.2569 -0.3855
 1037SOL    HW114744   4.412   2.790  11.863  1.3332  1.1882 -0.2275
 1037SOL    HW214745   4.270   2.810  11.898 -0.2084  0.8363  0.4014
 1038SOL     OW14746   2.689   1.544   6.790  0.1387  0.0265 -0.7630
 1038SOL    HW114747   2.697   1.562   6.696  0.6949 -1.0639 -0.9272
 1038SOL    HW214748   2.647   1.620   6.829 -1.6039 -0.6654 -1.3000
 1039SOL     OW14749   1.331   0.760   5.356  0.5384 -0.6056 -0.1664
 1039SOL    HW114750   1.401   0.817   5.322  1.1187 -0.6325  0.9917
 1039SOL    HW214751   1.285   0.723   5.281  1.0554 -0.3741 -0.5964
 1040SOL     OW14752   2.050   4.416  11.593  0.1994 -0.2812  0.2114
 1040SOL    HW114753   2.072   4.488  11.651 -1.6866  0.0912  0.4849
 1040SOL    HW214754   1.969   4.442  11.548  0.3767 -0.9653 -0.5209
 1041SOL     OW14755   2.926   4.166   6.598 -0.0979 -0.6216  0.1860
 1041SOL    HW114756   2.854   4.174   6.660 -0.5526 -0.8469 -0.3140
 1041SOL    HW214757   2.890   4.130   6.516  1.1894 -2.0004  0.2148
 1042SOL     OW14758   3.021   0.165   9.182  0.2880  0.0497 -0.1410
 1042SOL    HW114759   2.936   0.123   9.192 -0.1350  0.5623 -1.5909
 1042SOL    HW214760   3.018   0.183   9.088 -0.0129 -2.0409 -0.5350
 1043SOL     OW14761   2.977   2.382   0.957  0.9319 -0.0874  0.0875
 1043SOL    HW114762   2.994   2.325   1.032 -0.3590  2.1206  2.0397
 1043SOL    HW214763   2.959   2.311   0.895  0.5747  0.0333  0.0544
 1044SOL     OW14764   3.825   2.141  13.886  0.4232  0.5520  0.1499
 1044SOL    HW114765   3.869   2.113  13.966  1.5402 -2.0982 -1.3836
 1044SOL    HW214766   3.739   2.132  13.926 -0.2821  1.2326 -1.2330
 1045SOL     OW14767   2.809   4.697   6.778  0.2739 -0.4306 -0.3891
 1045SOL    HW114768   2.739   4.690   6.843  0.1243 -0.5896 -0.5658
 1045SOL    HW214769   2.890   4.694   6.830 -1.2703  1.3961  2.0986
 1046SOL     OW14770   0.858   4.534   8.626 -0.1340  0.5049 -0.3935
 1046SOL    HW114771   0.782   4.552   8.682  0.5179 -0.8380  0.9437
 1046SOL    HW214772   0.888   4.622   8.607 -1.7614  1.6429  2.2928
 1047SOL     OW14773   1.703   0.970  16.954  1.0103 -0.3290  0.4118
 1047SOL    HW114774   1.673   1.053  16.919 -0.0451 -0.2109  1.6003
 1047SOL    HW214775   1.627   0.941  17.005 -0.1432  1.9696 -0.0203
 1048SOL     OW14776   4.461   4.217   2.870  0.0437  0.5333 -0.1925
 1048SOL    HW114777   4.524   4.145   2.872 -0.2555  0.2777 -0.0534
 1048SOL    HW214778   4.383   4.165   2.848  1.0312 -0.2494 -1.8879
 1049SOL     OW14779   3.159   0.806  11.867 -0.3649  0.1949 -0.5519
 1049SOL    HW114780   3.206   0.735  11.912  2.6251  2.3363 -0.3014
 1049SOL    HW214781   3.093   0.845  11.924  0.7102  0.9720  0.1686
 1050SOL     OW14782   2.545   3.167   8.054  0.0100 -0.1553 -0.2133
 1050SOL    HW114783   2.528   3.089   8.107  2.4810 -0.4505  0.1658
 1050SOL    HW214784   2.640   3.161   8.042  0.0186  0.7470 -0.5910
 1051SOL     OW14785   3.289   3.959   6.896  0.6727  0.1804  0.0340
 1051SOL    HW114786   3.312   3.866   6.890 -1.0643 -0.1488 -1.2716
 1051SOL    HW214787   3.287   3.986   6.805 -0.4729  0.7385  0.2241
 1052SOL     OW14788   3.982   0.037   1.201 -0.4065 -0.0970 -0.2938
 1052SOL    HW114789   3.959   0.010   1.290 -2.6382 -2.8333 -1.6828
 1052SOL    HW214790   3.990   4.696   1.150  1.1312 -0.1836  0.0986
 1053SOL     OW14791   0.966   2.473  14.949 -0.0442  0.2283 -0.0993
 1053SOL    HW114792   0.939   2.462  15.040  0.4897  0.9779  0.1474
 1053SOL    HW214793   1.049   2.425  14.948 -0.9488 -1.3464  0.3899
 1054SOL     OW14794   2.040   0.596   5.077  0.1054 -0.7113 -0.0906
 1054SOL    HW114795   2.000   0.643   5.150 -1.2107 -0.8877 -0.7035
 1054SOL    HW214796   1.994   0.639   5.005 -1.0265 -1.8686 -0.0424
 1055SOL     OW14797   2.292   0.596   9.673  0.1604 -0.1402  0.2769
 1055SOL    HW114798   2.363   0.626   9.729  1.8850 -1.1893 -1.3184
 1055SOL    HW214799   2.219   0.639   9.716  0.7123  0.8547  0.2123
 1056SOL     OW14800   3.985   3.186  11.081  0.6004 -0.1155  0.1183
 1056SOL    HW114801   3.938   3.186  10.997 -1.0831 -1.4974  1.0510
 1056SOL    HW214802   3.994   3.093  11.104 -0.6523  0.0976  1.4942
 1057SOL     OW14803   4.359   3.222   3.797 -0.3259  0.2526 -0.1440
 1057SOL    HW114804   4.363   3.314   3.770 -0.3144  0.0608 -0.7849
 1057SOL    HW214805   4.327   3.234   3.887  0.3452  1.9006 -0.1127
 1058SOL     OW14806   2.338   0.919  12.731 -0.1289  0.0065 -0.3756
 1058SOL    HW114807   2.361   0.880  12.646  1.3552 -0.8093  0.4127
 1058SOL    HW214808   2.307   0.842  12.778  0.9772 -1.0607 -1.3920
 1059SOL     OW14809   1.015   3.680   2.708 -0.0330 -0.0937  0.0424
 1059SOL    HW114810   0.941   3.729   2.744 -1.2699 -1.4536 -0.6469
 1059SOL    HW214811   0.970   3.615   2.654  0.7134 -2.7816  2.7356
 1060SOL     OW14812   0.706   3.279   3.106  0.9163 -0.2620 -0.6004
 1060SOL    HW114813   0.753   3.232   3.176  0.2940 -1.1891 -0.8105
 1060SOL    HW214814   0.749   3.261   3.022 -0.3996  0.5862 -1.4485
 1061SOL     OW14815   0.727   4.459   2.407  0.0848  0.1320  0.0721
 1061SOL    HW114816   0.772   4.377   2.386  1.1073  0.0290  2.7388
 1061SOL    HW214817   0.793   4.528   2.404  0.9468 -0.7207 -0.6131
 1062SOL     OW14818   3.913   0.652   5.888  0.5634  0.0778  0.5439
 1062SOL    HW114819   3.977   0.721   5.899  0.5839  0.1576 -0.0800
 1062SOL    HW214820   3.957   0.576   5.927  0.2348 -1.4021 -1.9625
 1063SOL     OW14821   0.367   3.807   3.357  0.1908  0.1212 -0.0953
 1063SOL    HW114822   0.355   3.823   3.451  0.6730  0.7528 -0.1448
 1063SOL    HW214823   0.403   3.718   3.363 -1.0712 -0.4469 -0.8067
 1064SOL     OW14824   0.855   0.387   1.580  0.3460  0.8628 -0.1802
 1064SOL    HW114825   0.848   0.293   1.564  5.8058  0.0677  1.8959
 1064SOL    HW214826   0.907   0.426   1.509 -0.6375  2.4979 -0.0091
 1065SOL     OW14827   1.012   1.152   1.973  0.0697 -0.5072 -0.6221
 1065SOL    HW114828   0.952   1.109   1.911 -1.6039 -0.4503  0.9636
 1065SOL    HW214829   1.087   1.093   1.962 -0.0523 -1.0565  1.4660
 1066SOL     OW14830   3.504   0.118   7.841 -0.3140 -0.2256 -0.4085
 1066SOL    HW114831   3.550   0.200   7.824  1.4981 -0.8426  1.4442
 1066SOL    HW214832   3.510   0.128   7.936 -2.7367  0.9360 -0.4001
 1067SOL     OW14833   2.554   0.851  13.590  0.0745  0.2145 -0.2802
 1067SOL    HW114834   2.564   0.850  13.495  1.3585  3.6161 -0.1666
 1067SOL    HW214835   2.622   0.918  13.598 -0.3356  0.8905 -2.3833
 1068SOL     OW14836   1.913   2.336   6.618 -0.2424  0.1444 -0.7326
 1068SOL    HW114837   1.879   2.372   6.536  3.1934 -1.1371 -2.7431
 1068SOL    HW214838   2.004   2.320   6.592 -0.7919  1.9808 -3.7688
 1069SOL     OW14839   2.733   1.604   8.498  0.0572  0.2064 -0.0296
 1069SOL    HW114840   2.701   1.513   8.499 -0.8613  0.5151 -1.4065
 1069SOL    HW214841   2.703   1.625   8.586 -2.1776 -2.5057 -0.1230
 1070SOL     OW14842   3.452   3.002   7.536  0.0673  0.0450  0.1821
 1070SOL    HW114843   3.469   2.995   7.630  0.4382 -3.1948 -0.1275
 1070SOL    HW214844   3.540   2.978   7.508  0.3777 -0.7643  1.9149
 1071SOL     OW14845   2.640   2.590   8.786  0.3803  0.9712 -0.4945
 1071SOL    HW114846   2.683   2.662   8.741  0.5655  1.5070  0.5309
 1071SOL    HW214847   2.701   2.520   8.762 -0.8854 -0.1589 -0.3991
 1072SOL     OW14848   0.546   1.041   7.252 -0.5190  0.1473  0.5004
 1072SOL    HW114849   0.528   1.115   7.195 -0.7552 -0.3741 -0.0980
 1072SOL    HW214850   0.505   1.081   7.329 -0.7389 -0.1303  0.5255
 1073SOL     OW14851   1.400   1.764   2.261  0.0670 -0.1075 -0.1913
 1073SOL    HW114852   1.480   1.817   2.255 -0.5010  0.8538  0.9402
 1073SOL    HW214853   1.332   1.829   2.277  0.6945  0.4290  0.2941
 1074SOL     OW14854   2.878   2.473   8.693  0.1351  0.4866  0.0460
 1074SOL    HW114855   2.947   2.441   8.635  0.8187  2.0410  0.0280
 1074SOL    HW214856   2.938   2.475   8.769 -1.9941  0.1013  1.7465
 1075SOL     OW14857   0.895   2.423  15.232  0.0004 -0.0805  0.6807
 1075SOL    HW114858   0.984   2.431  15.266 -1.2724 -1.2199  4.2072
 1075SOL    HW214859   0.855   2.347  15.275  0.3054 -0.7190 -0.1404
 1076SOL     OW14860   3.200   3.821  17.293  0.1814 -0.0277  0.2454
 1076SOL    HW114861   3.158   3.809  17.208 -0.4158 -0.0637  0.5413
 1076SOL    HW214862   3.259   3.891  17.268  0.4833 -0.4779 -0.3121
 1077SOL     OW14863   0.915   4.476  14.241 -0.2985  0.2609  0.7390
 1077SOL    HW114864   0.887   4.567  14.249  1.2854  1.0465 -2.7567
 1077SOL    HW214865   0.848   4.456  14.177  0.8466  0.3530 -0.4920
 1078SOL     OW14866   3.715   4.654   1.266  0.0138 -0.1404  0.7044
 1078SOL    HW114867   3.725   4.695   1.180 -1.8836 -0.1694  0.4819
 1078SOL    HW214868   3.748   4.566   1.248  1.3828  0.4841  0.1039
 1079SOL     OW14869   1.821   3.838   2.474  0.7439 -0.4067  0.2460
 1079SOL    HW114870   1.809   3.931   2.495 -1.0756 -0.2801 -1.3777
 1079SOL    HW214871   1.813   3.792   2.558 -2.3251  0.8263  0.6320
 1080SOL     OW14872   0.311   0.506   5.808 -0.1022 -0.2279 -0.1126
 1080SOL    HW114873   0.261   0.527   5.887 -1.5163 -3.2311 -0.2045
 1080SOL    HW214874   0.343   0.419   5.833  1.1630  0.2555 -0.0678
 1081SOL     OW14875   1.977   1.982   2.402 -0.7423 -0.3404  0.2637
 1081SOL    HW114876   2.015   2.070   2.403 -1.9642  0.2117 -2.2529
 1081SOL    HW214877   1.985   1.978   2.306 -1.4879 -0.5979  0.2119
 1082SOL     OW14878   1.784   2.214   1.011  0.2238  0.5354 -0.2330
 1082SOL    HW114879   1.748   2.291   0.966 -4.1154  0.3334  2.8508
 1082SOL    HW214880   1.704   2.180   1.051  0.4615  0.7757  0.4412
 1083SOL     OW14881   4.646   3.275  14.620 -0.4861 -0.2568 -0.1124
 1083SOL    HW114882   4.638   3.201  14.680  0.7189 -0.4844 -0.2159
 1083SOL    HW214883   4.683   3.350  14.667  0.6934 -0.4553 -0.7258
 1084SOL     OW14884   3.388   0.419   3.027 -0.0737 -0.0440 -0.5915
 1084SOL    HW114885   3.352   0.330   3.032  1.0633 -0.3769  1.7392
 1084SOL    HW214886   3.439   0.435   3.106 -1.9612  4.3713 -0.2672
 1085SOL     OW14887   2.890   2.152   9.396 -0.2975 -0.5823 -0.2516
 1085SOL    HW114888   2.878   2.247   9.394 -0.7700 -0.6337  0.4465
 1085SOL    HW214889   2.802   2.116   9.405 -0.2665 -0.9488 -1.3730
 1086SOL     OW14890   1.987   0.912  16.867  0.4837  0.1299  0.0783
 1086SOL    HW114891   2.079   0.903  16.844  0.1616  0.2446 -1.2923
 1086SOL    HW214892   1.991   1.003  16.897  0.2280  0.3451 -0.5414
 1087SOL     OW14893   3.764   1.212   0.891 -0.0988  0.1126  0.4031
 1087SOL    HW114894   3.730   1.124   0.876 -1.1524  1.0436 -2.6980
 1087SOL    HW214895   3.837   1.193   0.950 -0.1547 -2.1483 -0.2419
 1088SOL     OW14896   4.480   4.319   8.284  0.0019 -0.3040  0.2356
 1088SOL    HW114897   4.487   4.386   8.351 -1.2835  0.1038 -0.0368
 1088SOL    HW214898   4.537   4.255   8.328  1.1623  0.5530 -0.0444
 1089SOL     OW14899   3.156   0.277   3.764 -0.1764 -0.2527 -0.4972
 1089SOL    HW114900   3.075   0.231   3.745 -0.7804  0.7699 -0.4356
 1089SOL    HW214901   3.215   0.212   3.727 -0.6788 -0.6231 -0.6435
 1090SOL     OW14902   2.876   0.589   9.379  0.3634  0.2200 -0.4221
 1090SOL    HW114903   2.850   0.667   9.331 -1.1571 -0.4905 -0.7558
 1090SOL    HW214904   2.803   0.580   9.440 -0.5538 -0.0461 -1.5652
 1091SOL     OW14905   3.823   1.303   0.185  0.0143  0.1190 -0.0505
 1091SOL    HW114906   3.848   1.395   0.199  3.1600 -0.7629  0.1885
 1091SOL    HW214907   3.830   1.287   0.091 -2.6806 -0.0816 -0.2118
 1092SOL     OW14908   1.890   2.772   8.099 -0.2638  0.2665 -0.4454
 1092SOL    HW114909   1.903   2.677   8.091 -2.5941 -0.1099  0.4923
 1092SOL    HW214910   1.830   2.784   8.026  0.3168  0.6936 -0.8532
 1093SOL     OW14911   0.330   4.494   9.227 -0.2220  0.0696  0.4151
 1093SOL    HW114912   0.346   4.405   9.196 -1.4491 -0.3314  0.9255
 1093SOL    HW214913   0.261   4.474   9.290 -1.1608 -1.3720 -1.0603
 1094SOL     OW14914   1.326   3.604   5.461 -0.5143  0.1503  0.2588
 1094SOL    HW114915   1.380   3.683   5.451  0.6856 -0.2530  3.6433
 1094SOL    HW214916   1.280   3.635   5.539 -0.4467 -2.4327  1.3388
 1095SOL     OW14917   4.385   1.794   2.901  0.6093  0.3097  0.1868
 1095SOL    HW114918   4.320   1.853   2.864 -0.3123 -0.7613  0.1099
 1095SOL    HW214919   4.335   1.727   2.948  1.7909  0.5401  1.7913
 1096SOL     OW14920   3.832   0.502   4.529  0.1785  0.1059  0.5914
 1096SOL    HW114921   3.831   0.498   4.624 -0.7240 -1.6016  0.5129
 1096SOL    HW214922   3.858   0.594   4.523  0.2322  0.1300  1.2384
 1097SOL     OW14923   2.267   0.363  13.300  0.7200 -0.3785  0.3180
 1097SOL    HW114924   2.257   0.452  13.334  2.2242 -0.3629  0.7296
 1097SOL    HW214925   2.300   0.326  13.382 -0.4975 -0.8885  0.5654
 1098SOL     OW14926   1.538   4.061   7.810 -0.3151 -0.2507  0.0156
 1098SOL    HW114927   1.584   4.046   7.893  0.0458 -1.1909 -0.3561
 1098SOL    HW214928   1.460   4.096   7.853  1.5149  0.1995  2.9905
 1099SOL     OW14929   2.786   4.663   8.178 -1.0697 -0.0219  0.4124
 1099SOL    HW114930   2.814   4.719   8.106 -0.5801  1.4382  1.7474
 1099SOL    HW214931   2.777   4.724   8.251  1.5528  0.4299  0.3631
 1100SOL     OW14932   1.999   0.253   5.878 -0.2570  0.1427  0.1304
 1100SOL    HW114933   1.986   0.158   5.878 -1.6296  0.3393  2.0122
 1100SOL    HW214934   1.953   0.269   5.796  1.9641  1.9075 -0.7516
 1101SOL     OW14935   3.510   0.852   7.606 -0.4035  0.3457 -0.1553
 1101SOL    HW114936   3.579   0.802   7.648 -0.0156  1.2180  0.2486
 1101SOL    HW214937   3.552   0.936   7.622 -0.0597  0.4390 -1.5622
 1102SOL     OW14938   4.207   2.552   6.854 -0.0284  0.1190  0.0735
 1102SOL    HW114939   4.299   2.566   6.835  0.0205 -0.2033  0.0728
 1102SOL    HW214940   4.207   2.457   6.856 -0.0874  0.1532  2.3289
 1103SOL     OW14941   1.256   3.651   6.532  0.0317  0.5372 -0.1346
 1103SOL    HW114942   1.212   3.697   6.604 -2.4187 -2.4688  0.3045
 1103SOL    HW214943   1.341   3.639   6.574  0.0159  3.8082  0.7698
 1104SOL     OW14944   3.062   2.288   5.717  0.5386 -0.7858 -0.4360
 1104SOL    HW114945   3.121   2.337   5.775 -1.4447  2.4385 -1.1324
 1104SOL    HW214946   3.045   2.213   5.775 -1.7914  0.5776  0.6476
 1105SOL     OW14947   1.247   0.122   9.019  0.1426  0.4135 -0.0061
 1105SOL    HW114948   1.241   0.164   8.933  2.9346  1.9286  0.5520
 1105SOL    HW214949   1.204   0.193   9.068 -1.9621  0.1003 -1.3744
 1106SOL     OW14950   3.219   2.235   8.806 -0.4729 -0.1687  0.1308
 1106SOL    HW114951   3.305   2.239   8.847  0.8911  0.6293 -2.8100
 1106SOL    HW214952   3.212   2.327   8.780 -1.7090 -0.3264 -0.0873
 1107SOL     OW14953   3.673   3.018  17.362 -0.8693  0.4359  0.2555
 1107SOL    HW114954   3.760   2.994  17.393  0.2458 -0.0499 -3.2187
 1107SOL    HW214955   3.677   3.033  17.268  0.1292  0.0178  0.2337
 1108SOL     OW14956   3.460   2.218   3.983  0.3747 -0.4934  0.0658
 1108SOL    HW114957   3.458   2.312   3.969 -0.7991 -0.5005  0.1833
 1108SOL    HW214958   3.366   2.203   3.971 -0.0071 -0.0324  2.3805
 1109SOL     OW14959   1.753   4.468   8.054 -0.0446  0.0433 -0.2918
 1109SOL    HW114960   1.792   4.395   8.007  0.3800  1.7288 -2.5637
 1109SOL    HW214961   1.779   4.450   8.145 -3.6397 -2.4352  0.2477
 1110SOL     OW14962   3.561   2.841   9.578 -0.5338 -0.3896  0.1500
 1110SOL    HW114963   3.526   2.887   9.501  1.1656  2.1420  0.8890
 1110SOL    HW214964   3.481   2.860   9.628 -1.1052 -1.2738 -0.4400
 1111SOL     OW14965   1.577   0.487   3.111 -0.2551 -0.3921  0.6285
 1111SOL    HW114966   1.482   0.493   3.118 -0.5401 -2.6294 -1.8527
 1111SOL    HW214967   1.604   0.565   3.160 -0.2908 -1.1234  1.8118
 1112SOL     OW14968   3.152   0.773   8.030  0.3299 -0.1472 -0.4945
 1112SOL    HW114969   3.226   0.789   7.972  0.3134  1.8124  0.0281
 1112SOL    HW214970   3.177   0.807   8.116 -0.9311 -2.6050  0.8474
 1113SOL     OW14971   1.039   3.303  17.627 -0.2482  0.2920 -0.3334
 1113SOL    HW114972   0.956   3.271  17.664  0.5481 -0.8984  0.4180
 1113SOL    HW214973   1.089   3.231  17.664 -0.8786  0.2276  0.3970
 1114SOL     OW14974   1.800   1.969   0.699 -0.1048  0.5472 -0.4936
 1114SOL    HW114975   1.856   2.042   0.722 -1.5866  1.1748  1.0746
 1114SOL    HW214976   1.714   2.003   0.724 -0.1034  0.8560 -0.9118
 1115SOL     OW14977   2.086   1.381  12.471  0.2418  0.0004 -0.0765
 1115SOL    HW114978   2.034   1.336  12.404 -0.0125 -0.5336  0.4743
 1115SOL    HW214979   2.138   1.444  12.421  1.5262 -0.1337  1.0945
 1116SOL     OW14980   1.149   1.427   4.847  0.2020 -0.5231 -0.5757
 1116SOL    HW114981   1.116   1.508   4.886  1.5121  0.1634 -0.8988
 1116SOL    HW214982   1.122   1.431   4.755 -1.6423 -0.8636 -0.0570
 1117SOL     OW14983   3.641   0.851   5.110  0.6396  0.1438 -0.0493
 1117SOL    HW114984   3.691   0.907   5.170  0.2188 -1.1149  1.4683
 1117SOL    HW214985   3.658   0.764   5.145  0.2348 -0.9499 -2.5418
 1118SOL     OW14986   2.147   3.653  13.687  0.0669  0.2408 -0.1328
 1118SOL    HW114987   2.056   3.650  13.714 -0.3353  2.2887 -1.2866
 1118SOL    HW214988   2.139   3.721  13.621 -1.6300  1.5965  1.4729
 1119SOL     OW14989   2.284   0.865   8.839 -0.3086  0.1717 -0.3219
 1119SOL    HW114990   2.199   0.909   8.833 -0.8253 -1.1148 -2.3915
 1119SOL    HW214991   2.235   0.782   8.840 -0.8969  0.5099 -0.5275
 1120SOL     OW14992   3.236   3.054   8.092 -0.1782 -0.0110  0.7856
 1120SOL    HW114993   3.293   3.085   8.021 -0.5810  1.7088  1.2185
 1120SOL    HW214994   3.304   3.058   8.159  1.0668  0.1626 -0.4980
 1121SOL     OW14995   4.579   0.288   1.100 -0.5652 -0.3782  0.2980
 1121SOL    HW114996   4.513   0.235   1.143  0.1159 -0.8296  0.7770
 1121SOL    HW214997   4.544   0.375   1.080  1.6985  0.9761  2.2611
 1122SOL     OW14998   0.698   2.371   6.356 -0.0654  0.1375 -0.6665
 1122SOL    HW114999   0.628   2.310   6.337 -0.4715  0.2020  0.6336
 1122SOL    HW215000   0.753   2.322   6.417  0.3659  2.1943  0.6135
 1123SOL     OW15001   2.871   2.928   7.008  0.0618 -0.1401 -0.2494
 1123SOL    HW115002   2.815   2.997   7.044 -0.0434 -0.0319 -0.6156
 1123SOL    HW215003   2.822   2.850   7.033 -0.2578  0.7989  1.9919
 1124SOL     OW15004   2.657   0.852   6.974 -0.4967 -0.6799 -0.1890
 1124SOL    HW115005   2.722   0.921   6.969  0.0373 -1.0976  0.9828
 1124SOL    HW215006   2.621   0.874   7.060  1.3952 -3.2591  1.2760
 1125SOL     OW15007   4.026   1.288   2.349  0.0941 -0.2791  0.0418
 1125SOL    HW115008   4.000   1.294   2.257  1.2144 -1.3019 -0.3572
 1125SOL    HW215009   4.066   1.202   2.364  1.2297  0.1695 -0.4071
 1126SOL     OW15010   1.831   3.326  17.500 -0.4624  0.0125 -0.3835
 1126SOL    HW115011   1.757   3.331  17.439 -0.2784  0.8796 -0.5405
 1126SOL    HW215012   1.794   3.282  17.577  1.2783 -1.0195 -0.1519
 1127SOL     OW15013   2.674   0.992   3.076  0.1523 -0.4916 -0.2444
 1127SOL    HW115014   2.748   0.937   3.101  0.9407  1.5508  1.8888
 1127SOL    HW215015   2.715   1.077   3.061  0.3062 -0.3470  1.0130
 1128SOL     OW15016   4.224   4.639   5.091 -0.1119 -0.6560  0.0358
 1128SOL    HW115017   4.245   4.724   5.055  0.3209 -1.3009 -1.2080
 1128SOL    HW215018   4.167   4.672   5.161  1.5227  3.3562 -0.5682
 1129SOL     OW15019   1.676   3.629   4.047 -0.0750 -0.5980 -0.1692
 1129SOL    HW115020   1.732   3.673   4.112 -1.6130  0.1054  0.6822
 1129SOL    HW215021   1.626   3.564   4.096  0.2043  1.4286  2.8497
 1130SOL     OW15022   1.828   4.149   0.605  0.0919 -0.0577 -0.3861
 1130SOL    HW115023   1.799   4.062   0.578  3.6995 -1.1136 -0.8418
 1130SOL    HW215024   1.913   4.132   0.646 -0.3268  0.1125  0.5632
 1131SOL     OW15025   3.650   3.451  12.884 -0.1723  0.5756 -0.7743
 1131SOL    HW115026   3.691   3.416  12.805 -1.0630 -2.6647  0.2074
 1131SOL    HW215027   3.701   3.386  12.933  0.9556  1.6974 -0.4484
 1132SOL     OW15028   4.434   1.193   5.641  0.3469 -0.1042 -0.3672
 1132SOL    HW115029   4.518   1.232   5.618  1.6842 -3.6160 -1.4446
 1132SOL    HW215030   4.469   1.118   5.689 -2.5329 -1.6046 -0.5978
 1133SOL     OW15031   1.488   2.918   6.008  0.2910  0.1586  0.2931
 1133SOL    HW115032   1.484   2.904   5.913  1.8543 -1.4390  0.4546
 1133SOL    HW215033   1.579   2.946   6.016  0.0085  2.1342 -3.2457
 1134SOL     OW15034   0.800   3.460  12.217  0.6487  0.2232 -0.3429
 1134SOL    HW115035   0.782   3.554  12.218  0.8791  0.2665 -0.4020
 1134SOL    HW215036   0.833   3.450  12.128 -1.8494 -1.2661 -1.1225
 1135SOL     OW15037   2.315   1.361  14.512 -0.3712 -0.3173  0.0462
 1135SOL    HW115038   2.385   1.368  14.577 -0.1217  2.4286 -0.5226
 1135SOL    HW215039   2.256   1.322  14.576  1.9086 -1.1631  1.6472
 1136SOL     OW15040   3.622   2.679   7.444  0.0817 -0.0313  0.3562
 1136SOL    HW115041   3.571   2.621   7.500 -1.5212 -1.7703 -2.8875
 1136SOL    HW215042   3.560   2.691   7.372  2.4270 -0.1272 -1.6634
 1137SOL     OW15043   0.170   3.926   0.132 -0.2747  0.7164  0.2454
 1137SOL    HW115044   0.188   3.835   0.107 -1.1130  0.8055 -0.6721
 1137SOL    HW215045   0.076   3.930   0.149 -0.2006 -0.6797  1.0280
 1138SOL     OW15046   1.213   1.956   8.877  0.2987 -0.1674  0.4219
 1138SOL    HW115047   1.161   1.944   8.956 -1.0548  0.8943 -0.3048
 1138SOL    HW215048   1.270   1.880   8.890 -1.6838 -1.5486  1.0232
 1139SOL     OW15049   4.342   1.892   5.513  0.1201 -0.0233 -0.0885
 1139SOL    HW115050   4.411   1.957   5.499 -1.4248  1.8414  0.8618
 1139SOL    HW215051   4.300   1.899   5.427  0.4922 -3.2992 -0.5158
 1140SOL     OW15052   3.307   0.903   6.601 -0.2092  0.2998  0.7098
 1140SOL    HW115053   3.219   0.926   6.630  0.2162 -0.1182  2.3268
 1140SOL    HW215054   3.333   0.991   6.573 -2.5678  0.6849 -0.2516
 1141SOL     OW15055   1.325   2.558  10.040 -0.3858 -0.0933 -0.3623
 1141SOL    HW115056   1.299   2.470  10.067  0.9453 -0.7402 -1.1871
 1141SOL    HW215057   1.343   2.550   9.946 -1.7823 -4.3135 -0.2882
 1142SOL     OW15058   1.584   3.363  11.970  0.3420  0.0748 -0.0907
 1142SOL    HW115059   1.631   3.279  11.968  2.7589  1.4882 -2.3329
 1142SOL    HW215060   1.578   3.375  12.065  0.2231 -1.7729  0.1312
 1143SOL     OW15061   4.196   4.052   9.860 -0.0668  0.5062 -0.5306
 1143SOL    HW115062   4.263   3.984   9.861  0.9729  1.5042 -3.5048
 1143SOL    HW215063   4.219   4.107   9.785  1.0379 -2.5712 -2.4644
 1144SOL     OW15064   2.507   0.369  15.814 -0.3876 -0.6622 -0.2213
 1144SOL    HW115065   2.558   0.293  15.840 -1.3872 -2.4154 -3.3256
 1144SOL    HW215066   2.553   0.389  15.732  0.2292  1.2636  0.5974
 1145SOL     OW15067   1.250   0.869  11.645  0.1958 -0.4201 -0.4387
 1145SOL    HW115068   1.206   0.909  11.720  1.3136  0.0285 -0.0229
 1145SOL    HW215069   1.293   0.950  11.618  1.7439 -1.1893 -0.2685
 1146SOL     OW15070   4.628   1.253  12.210  0.2408 -0.0767  0.1279
 1146SOL    HW115071   4.693   1.201  12.258 -0.2390 -0.2566  0.5873
 1146SOL    HW215072   4.567   1.262  12.283  0.2207 -0.6266  0.1819
 1147SOL     OW15073   1.949   3.223   5.605 -0.2772  0.5559  0.1390
 1147SOL    HW115074   1.937   3.246   5.513 -2.0493  2.6227  0.8941
 1147SOL    HW215075   1.946   3.314   5.636 -1.6902  0.8878 -0.9963
 1148SOL     OW15076   2.844   1.896   8.074  0.4486  0.3639 -0.0523
 1148SOL    HW115077   2.852   1.860   8.163  1.5451  0.7563  0.0112
 1148SOL    HW215078   2.804   1.822   8.030 -0.6788  0.9681 -0.0227
 1149SOL     OW15079   2.054   4.063   9.313 -0.7014  0.1378 -0.2823
 1149SOL    HW115080   2.096   4.091   9.231  0.8323  0.5900  0.6649
 1149SOL    HW215081   2.102   4.112   9.380 -0.2739 -0.1084 -0.4068
 1150SOL     OW15082   4.343   1.309   4.605  0.2996  0.0010  1.0408
 1150SOL    HW115083   4.303   1.353   4.529  1.8007 -0.3156  0.0647
 1150SOL    HW215084   4.416   1.285   4.548  0.2348  0.5027  0.7396
 1151SOL     OW15085   2.021   4.006   2.940  0.0155  0.2233  0.6402
 1151SOL    HW115086   2.031   4.010   2.844  0.4095 -1.6075  0.6058
 1151SOL    HW215087   2.058   4.088   2.972  0.6160  0.2244 -0.0611
 1152SOL     OW15088   4.717   4.234   8.960  0.2310  0.1248 -0.1591
 1152SOL    HW115089   4.646   4.195   9.010  0.1120  0.9949  0.3474
 1152SOL    HW215090   4.702   4.328   8.972  0.9233  0.1295  0.6810
 1153SOL     OW15091   2.646   4.580   9.741 -0.1030 -0.5438 -0.7129
 1153SOL    HW115092   2.614   4.491   9.758  0.0944 -0.5172 -0.1823
 1153SOL    HW215093   2.564   4.627   9.758  0.6967  0.5481  0.1871
 1154SOL     OW15094   1.174   1.579   3.477 -0.0041  0.2546 -0.5457
 1154SOL    HW115095   1.177   1.619   3.564  0.9680 -0.0382 -0.4463
 1154SOL    HW215096   1.122   1.640   3.424 -1.8736 -0.1281  0.8751
 1155SOL     OW15097   1.399   0.117   0.235  0.7899  0.5141  0.5828
 1155SOL    HW115098   1.449   0.037   0.225  1.3462  0.8331  0.7768
 1155SOL    HW215099   1.448   0.150   0.311  2.1704 -1.0861  0.3735
 1156SOL     OW15100   4.361   0.419   8.575  0.1178  0.3514 -0.0264
 1156SOL    HW115101   4.288   0.424   8.636 -0.0032  0.0455 -0.1472
 1156SOL    HW215102   4.395   0.505   8.598 -0.1915  0.5913 -0.4716
 1157SOL     OW15103   3.201   0.884   8.896 -0.4927 -0.0179  0.2614
 1157SOL    HW115104   3.212   0.833   8.815 -0.4204  1.2112 -0.5127
 1157SOL    HW215105   3.280   0.938   8.898  0.5034 -1.4854  0.6007
 1158SOL     OW15106   1.113   0.852   5.495 -0.1045 -0.1852  0.4906
 1158SOL    HW115107   1.058   0.904   5.436 -1.5570 -2.3863 -0.1103
 1158SOL    HW215108   1.189   0.842   5.438 -0.7618 -1.0049 -0.2546
 1159SOL     OW15109   1.461   3.338  15.465  0.1622 -0.1017  0.0068
 1159SOL    HW115110   1.512   3.275  15.516  0.7121 -0.6884 -1.2520
 1159SOL    HW215111   1.520   3.413  15.466  2.9188 -2.2731  0.8538
 1160SOL     OW15112   2.843   1.139   7.762  0.0700  0.1783 -0.5245
 1160SOL    HW115113   2.892   1.184   7.694  0.4649  0.5367 -0.0017
 1160SOL    HW215114   2.910   1.080   7.797 -0.0926 -0.8153 -1.9232
 1161SOL     OW15115   0.246   2.139  12.744 -0.1980  0.7294  0.2311
 1161SOL    HW115116   0.173   2.084  12.773 -1.0269  1.3704 -0.6472
 1161SOL    HW215117   0.302   2.077  12.697 -0.9428 -0.5708  1.0561
 1162SOL     OW15118   2.733   1.696   6.153 -0.5570 -0.1522 -0.7354
 1162SOL    HW115119   2.816   1.672   6.113  0.1689  0.0029  0.6546
 1162SOL    HW215120   2.772   1.712   6.239 -1.1574  2.1722 -0.8752
 1163SOL     OW15121   3.755   2.762  16.440  0.2726  0.2810  0.3705
 1163SOL    HW115122   3.766   2.832  16.504  1.3204 -0.2792  0.8037
 1163SOL    HW215123   3.844   2.758  16.405  0.1528 -1.0322  0.1967
 1164SOL     OW15124   3.020   3.618   7.562 -0.4505  0.0464  0.5915
 1164SOL    HW115125   3.111   3.610   7.590 -0.2872  0.4705  0.1860
 1164SOL    HW215126   2.977   3.624   7.647  0.9251 -0.2568  1.3071
 1165SOL     OW15127   3.011   4.399   2.946  0.0001 -0.7044 -0.4352
 1165SOL    HW115128   2.956   4.467   2.986 -2.3247 -1.2552 -2.6752
 1165SOL    HW215129   3.053   4.445   2.873  0.1188 -1.3359 -0.7630
 1166SOL     OW15130   2.788   2.704  14.269 -0.5814  0.3796 -0.0222
 1166SOL    HW115131   2.720   2.671  14.328  0.7856 -1.0826  0.7430
 1166SOL    HW215132   2.763   2.796  14.262  1.1359  0.9695  1.4423
 1167SOL     OW15133   2.823   0.240   0.908  0.1697 -0.8637  0.5443
 1167SOL    HW115134   2.778   0.222   0.825  0.9150 -1.4201  0.2658
 1167SOL    HW215135   2.833   0.334   0.892 -2.5897 -0.6151  0.1785
 1168SOL     OW15136   3.652   3.655  15.039 -0.0748 -0.4594  0.0135
 1168SOL    HW115137   3.721   3.710  15.002  1.7751 -3.7117 -1.3471
 1168SOL    HW215138   3.608   3.714  15.101  1.4834 -0.4410  1.1211
 1169SOL     OW15139   3.061   1.509   4.353  0.8597  0.1868  0.4802
 1169SOL    HW115140   3.135   1.481   4.406 -1.1372 -1.3329  2.4804
 1169SOL    HW215141   2.983   1.517   4.409  0.9433  1.7143  0.3798
 1170SOL     OW15142   2.394   4.708   5.297  0.1328  0.1767  0.6894
 1170SOL    HW115143   2.475   0.010   5.267 -0.7445  1.4839  0.1606
 1170SOL    HW215144   2.334   0.042   5.305  0.7202  0.7976 -0.5858
 1171SOL     OW15145   4.541   0.986   5.786  0.0217 -0.5655  0.1119
 1171SOL    HW115146   4.523   0.998   5.880  1.1917 -2.6491  0.5890
 1171SOL    HW215147   4.538   0.891   5.785  2.0618 -0.6375  0.8079
 1172SOL     OW15148   3.570   4.678   9.806 -0.3544 -0.0591  0.1061
 1172SOL    HW115149   3.638   4.684   9.873  1.8079  1.0883 -2.2170
 1172SOL    HW215150   3.485   4.688   9.850 -0.5892  0.4996 -0.4844
 1173SOL     OW15151   4.189   2.892   4.500  0.0502 -0.4932  0.2474
 1173SOL    HW115152   4.248   2.928   4.567 -0.2862  0.1989  0.1732
 1173SOL    HW215153   4.125   2.842   4.551 -1.3771 -0.1091 -1.1706
 1174SOL     OW15154   0.765   0.236   7.172 -0.1659 -0.2806  0.2645
 1174SOL    HW115155   0.732   0.241   7.082  1.3343 -0.7234 -0.3183
 1174SOL    HW215156   0.688   0.222   7.227 -0.7396  0.2798 -0.3938
 1175SOL     OW15157   4.671   2.112   8.032  0.1049  0.0841  0.1065
 1175SOL    HW115158   4.599   2.160   8.072  0.4331 -0.3661  1.2148
 1175SOL    HW215159   4.678   2.038   8.091  0.7027 -1.5585 -2.0269
 1176SOL     OW15160   0.695   2.843   3.468 -0.1551  0.4575 -0.0326
 1176SOL    HW115161   0.783   2.825   3.501  0.5063  2.9653 -0.4515
 1176SOL    HW215162   0.652   2.768   3.509  0.8603  1.8042  3.5362
 1177SOL     OW15163   2.808   1.185   2.814 -0.1917 -0.5953  0.4188
 1177SOL    HW115164   2.841   1.272   2.793 -0.0544 -0.8780 -0.5660
 1177SOL    HW215165   2.770   1.199   2.901 -0.7015  1.8730 -0.2082
 1178SOL     OW15166   0.819   3.979   6.764 -0.3555  0.3630  0.9506
 1178SOL    HW115167   0.870   4.053   6.733 -1.5328 -0.2274 -2.3915
 1178SOL    HW215168   0.810   4.007   6.855  1.9246 -0.9421  1.5663
 1179SOL     OW15169   3.196   2.212   3.963 -0.6485 -0.5433  0.3190
 1179SOL    HW115170   3.150   2.279   3.912 -0.3117  0.7441  1.7004
 1179SOL    HW215171   3.210   2.250   4.050 -0.2140 -0.8554  0.3845
 1180SOL     OW15172   4.635   1.632  12.555 -0.6111  0.0570 -0.2903
 1180SOL    HW115173   4.613   1.718  12.590  1.0404 -0.4478  1.9526
 1180SOL    HW215174   4.715   1.652  12.507  0.5566 -1.3332  1.0766
 1181SOL     OW15175   4.279   1.144   8.791  0.3744  0.0888  0.9440
 1181SOL    HW115176   4.347   1.078   8.779 -2.2650 -2.6624  1.1731
 1181SOL    HW215177   4.262   1.169   8.699  2.9258  0.7008  0.6507
 1182SOL     OW15178   3.744   4.270   0.225  0.4349  0.3300  0.0774
 1182SOL    HW115179   3.716   4.268   0.316  1.7539  1.4923  0.5054
 1182SOL    HW215180   3.827   4.317   0.240  1.4491 -0.7406 -2.1309
 1183SOL     OW15181   1.199   1.026  11.886  0.0449  0.6089  0.0165
 1183SOL    HW115182   1.155   1.042  11.969 -1.7281  3.2408 -1.4200
 1183SOL    HW215183   1.290   1.033  11.913 -0.2076  2.5830  0.3548
 1184SOL     OW15184   4.276   4.148  12.928 -0.3391  0.0551  0.0548
 1184SOL    HW115185   4.257   4.162  13.021  0.9706 -1.9134  0.6129
 1184SOL    HW215186   4.255   4.232  12.889 -1.2079  0.0622  0.5345
 1185SOL     OW15187   1.306   3.358   7.951  0.4875  0.2145  0.4922
 1185SOL    HW115188   1.324   3.267   7.931 -2.9054 -0.6782  1.4590
 1185SOL    HW215189   1.361   3.375   8.028  0.6558  1.4195  0.1078
 1186SOL     OW15190   3.791   3.965   0.384  0.1356  0.3292  0.5395
 1186SOL    HW115191   3.822   3.929   0.301 -0.6273  0.8743  0.0155
 1186SOL    HW215192   3.870   4.006   0.419  0.4582 -0.6256  0.9160
 1187SOL     OW15193   4.697   1.650  15.556  0.2798  0.2447 -0.1113
 1187SOL    HW115194   4.649   1.571  15.577  1.0941 -0.7287 -1.9202
 1187SOL    HW215195   0.021   1.636  15.626  0.2472  1.1676  0.1065
 1188SOL     OW15196   2.022   3.031   5.948 -0.5638  0.2941  0.1092
 1188SOL    HW115197   2.064   3.038   6.034 -2.4468  1.7830  0.9048
 1188SOL    HW215198   2.043   3.121   5.925 -1.4953  0.5363  0.2224
 1189SOL     OW15199   0.723   2.434  12.651 -0.0349 -0.4875  0.3363
 1189SOL    HW115200   0.651   2.377  12.678  0.3313 -0.5382  1.2128
 1189SOL    HW215201   0.769   2.382  12.585  2.2515  0.2405  1.3286
 1190SOL     OW15202   2.476   0.292  13.164 -0.6006  0.1426  0.1136
 1190SOL    HW115203   2.397   0.320  13.210 -0.0861  0.4342  0.8112
 1190SOL    HW215204   2.529   0.371  13.165 -0.6583  0.1536  1.2297
 1191SOL     OW15205   2.386   3.726  15.066  0.1763  0.0927 -0.1473
 1191SOL    HW115206   2.302   3.699  15.101  1.4229 -2.5728  0.8146
 1191SOL    HW215207   2.404   3.641  15.025 -0.7356  0.2173 -0.7909
 1192SOL     OW15208   3.231   3.806   0.413 -0.9231 -0.1055 -0.3237
 1192SOL    HW115209   3.224   3.748   0.489  1.3666  0.5076  0.3484
 1192SOL    HW215210   3.325   3.826   0.410 -1.0185  0.2729 -0.7696
 1193SOL     OW15211   2.802   0.414  17.225 -0.4849  0.2094  0.1272
 1193SOL    HW115212   2.829   0.324  17.208 -0.3052  0.2637  0.1221
 1193SOL    HW215213   2.790   0.418  17.320  0.9827 -0.0668  0.3187
 1194SOL     OW15214   3.834   0.618   4.229 -0.0818 -0.7005 -0.3697
 1194SOL    HW115215   3.822   0.545   4.289  0.9833 -1.1097 -0.6471
 1194SOL    HW215216   3.828   0.691   4.290  0.1768  0.1529 -1.3660
 1195SOL     OW15217   2.473   1.507  11.714 -0.7894 -0.3990 -0.1296
 1195SOL    HW115218   2.562   1.543  11.712 -1.8094  2.0827 -1.3269
 1195SOL    HW215219   2.435   1.578  11.766 -0.3189  1.6394 -2.5524
 1196SOL     OW15220   3.308   1.260   0.899  0.2021  0.5847 -0.0219
 1196SOL    HW115221   3.380   1.296   0.848  1.0079 -1.1185 -0.0958
 1196SOL    HW215222   3.362   1.219   0.967 -0.8039 -0.6737  0.0294
 1197SOL     OW15223   3.102   1.505   9.420 -0.0637 -0.4265 -0.2203
 1197SOL    HW115224   3.031   1.568   9.415 -1.3512 -1.9104 -0.5341
 1197SOL    HW215225   3.161   1.563   9.468 -0.7890  0.9792 -1.0460
 1198SOL     OW15226   1.242   1.671   5.733 -0.4799 -0.4453 -0.7128
 1198SOL    HW115227   1.330   1.699   5.759 -0.9072  0.3876 -0.1584
 1198SOL    HW215228   1.238   1.726   5.655  1.7295  0.6438 -0.0573
 1199SOL     OW15229   0.676   0.721   1.422 -0.5787  0.1415 -0.4515
 1199SOL    HW115230   0.601   0.681   1.378  0.3164 -0.7332 -1.1569
 1199SOL    HW215231   0.672   0.677   1.507 -0.3647  2.2327  0.6429
 1200SOL     OW15232   0.987   0.569   8.159  0.0792 -0.1355  0.4245
 1200SOL    HW115233   1.014   0.499   8.100  2.6342  1.3052 -0.0905
 1200SOL    HW215234   1.059   0.575   8.221 -0.2318 -1.0631  0.8724
 1201SOL     OW15235   3.997   3.087   3.428  0.6427  0.1615  0.0848
 1201SOL    HW115236   4.009   3.179   3.407 -1.0696  0.1779 -0.7882
 1201SOL    HW215237   4.030   3.080   3.518 -1.5243 -0.1134  0.8757
 1202SOL     OW15238   2.684   2.240   1.165 -0.1056 -0.2944 -0.9280
 1202SOL    HW115239   2.706   2.329   1.191  1.2940 -0.8572 -0.1951
 1202SOL    HW215240   2.769   2.197   1.166 -0.9113 -1.9405 -2.2130
 1203SOL     OW15241   2.353   0.470   2.425  0.1768 -0.3937  0.1514
 1203SOL    HW115242   2.342   0.508   2.512 -0.0087 -1.5715  0.6535
 1203SOL    HW215243   2.294   0.528   2.378 -4.2755 -3.7147  1.6493
 1204SOL     OW15244   2.681   0.205   5.380 -0.4067 -0.1711  0.6910
 1204SOL    HW115245   2.659   0.196   5.473  2.8793 -1.6495  1.3247
 1204SOL    HW215246   2.636   0.287   5.363  3.0709  1.2896 -1.3211
 1205SOL     OW15247   1.791   0.668  14.388 -0.2373 -0.2627  0.2025
 1205SOL    HW115248   1.773   0.762  14.386 -3.0349 -0.8637 -2.7106
 1205SOL    HW215249   1.713   0.629  14.350  0.7972 -1.5863 -0.5500
 1206SOL     OW15250   3.058   0.484  15.134 -0.2460  0.2241  0.3432
 1206SOL    HW115251   3.023   0.512  15.050 -0.0297 -1.7732 -0.4086
 1206SOL    HW215252   3.020   0.397  15.146 -1.3249  0.7743  0.8527
 1207SOL     OW15253   1.415   1.447  12.284 -0.1343 -0.0861  0.3776
 1207SOL    HW115254   1.350   1.505  12.322  0.3590  0.5316  0.2907
 1207SOL    HW215255   1.389   1.364  12.322 -1.0108 -1.3538 -2.9421
 1208SOL     OW15256   0.033   2.985   9.004  0.3255  0.2170 -0.2761
 1208SOL    HW115257   0.024   3.043   9.080 -0.7916  1.4762 -1.3709
 1208SOL    HW215258   0.103   3.029   8.956 -1.2844  1.7688 -1.1939
 1209SOL     OW15259   2.510   3.760  16.300  0.4475 -0.4281  0.5713
 1209SOL    HW115260   2.599   3.741  16.330  0.4023 -1.7020 -0.0932
 1209SOL    HW215261   2.504   3.854  16.320 -0.6173 -0.3854  0.0863
 1210SOL     OW15262   0.580   4.490   9.564 -0.2967  0.7832  0.6900
 1210SOL    HW115263   0.617   4.412   9.523  0.0754  0.9878  0.6385
 1210SOL    HW215264   0.605   4.481   9.656 -1.9255 -1.2234  0.9334
 1211SOL     OW15265   2.340   0.829   4.177  0.6855 -0.1610 -0.5508
 1211SOL    HW115266   2.302   0.799   4.095  0.6922  2.6835 -1.6052
 1211SOL    HW215267   2.359   0.750   4.227  0.2150 -0.0855 -0.2433
 1212SOL     OW15268   2.616   3.221   6.805  0.1050 -0.5507  0.2563
 1212SOL    HW115269   2.571   3.240   6.887 -0.0245 -1.2230  0.3325
 1212SOL    HW215270   2.691   3.170   6.837  1.0082  0.3173 -0.4711
 1213SOL     OW15271   3.015   4.155  14.744 -0.0368  0.0322  0.6873
 1213SOL    HW115272   3.091   4.101  14.724  0.5103  0.6351  1.1455
 1213SOL    HW215273   3.007   4.131  14.837 -1.6291 -0.4975  0.4192
 1214SOL     OW15274   0.680   3.387   8.001 -0.6355 -0.4800 -0.2839
 1214SOL    HW115275   0.706   3.444   7.929 -1.1110  0.2936  0.1552
 1214SOL    HW215276   0.638   3.451   8.058 -2.2337 -1.9021  0.1334
 1215SOL     OW15277   1.042   1.781   9.808 -0.0157 -0.1473  0.3443
 1215SOL    HW115278   1.033   1.770   9.903 -2.9006 -0.7083  0.0096
 1215SOL    HW215279   1.035   1.689   9.782  0.7222  0.1275 -0.8495
 1216SOL     OW15280   4.278   4.402   6.434  0.3566  0.3406 -0.1670
 1216SOL    HW115281   4.289   4.338   6.504 -0.7006 -0.4955 -0.7588
 1216SOL    HW215282   4.199   4.373   6.388  0.1559  0.5621  0.0407
 1217SOL     OW15283   1.354   0.806   8.571  0.0515 -0.1615  0.1356
 1217SOL    HW115284   1.321   0.740   8.632  0.1714 -1.0907 -0.8075
 1217SOL    HW215285   1.387   0.876   8.627 -3.0309  1.5952 -0.2360
 1218SOL     OW15286   2.355   1.684  11.918  0.0234 -0.5893  0.0926
 1218SOL    HW115287   2.302   1.749  11.872 -0.1655  1.9747  3.9262
 1218SOL    HW215288   2.320   1.721  11.999  2.9075  0.1248  1.0104
 1219SOL     OW15289   2.925   0.661  10.590  0.3021  0.0878  0.2923
 1219SOL    HW115290   2.928   0.566  10.599 -2.2817  0.0183  0.4527
 1219SOL    HW215291   3.005   0.666  10.537  0.5941 -0.1478  0.7110
 1220SOL     OW15292   1.312   0.190   1.050  0.7688 -0.3149  0.4636
 1220SOL    HW115293   1.243   0.144   1.003  1.8145 -1.9417  0.5137
 1220SOL    HW215294   1.382   0.126   1.036  0.1599 -0.6854 -0.9504
 1221SOL     OW15295   1.985   2.491   9.241 -0.2810 -0.1591 -0.3732
 1221SOL    HW115296   2.037   2.550   9.186 -0.0562  2.7434  2.9880
 1221SOL    HW215297   1.921   2.557   9.268  0.8242  0.3370  1.0584
 1222SOL     OW15298   3.799   0.629   0.793  0.4764  0.6630  0.4640
 1222SOL    HW115299   3.738   0.677   0.738 -0.5170 -1.5529 -0.3428
 1222SOL    HW215300   3.758   0.637   0.879 -0.5413  0.2966  0.0071
 1223SOL     OW15301   1.370   3.542   9.036  0.1746 -0.1972 -0.5290
 1223SOL    HW115302   1.450   3.580   9.072 -1.2192  1.9328  0.2753
 1223SOL    HW215303   1.356   3.583   8.951 -1.3521  1.8397  0.7195
 1224SOL     OW15304   0.107   3.974   3.567 -0.2700 -0.5831  0.0375
 1224SOL    HW115305   0.193   3.932   3.574 -0.0639  0.4796  3.5635
 1224SOL    HW215306   0.136   4.062   3.543  0.1273 -0.1206  2.2698
 1225SOL     OW15307   2.981   2.600  14.098  0.4254 -0.2106  0.3530
 1225SOL    HW115308   2.915   2.652  14.143  3.0982  3.4390  0.0846
 1225SOL    HW215309   2.997   2.536  14.167  0.2564 -2.5937 -1.8235
 1226SOL     OW15310   2.690   1.122   7.094 -0.2957  0.0645  0.2338
 1226SOL    HW115311   2.693   1.211   7.058 -1.0423  0.6369  1.5898
 1226SOL    HW215312   2.598   1.098   7.087  0.1909 -1.9150  0.6816
 1227SOL     OW15313   4.338   4.094   8.270 -0.0339  1.0025  0.0741
 1227SOL    HW115314   4.400   4.058   8.333 -0.3341 -0.9932 -0.7733
 1227SOL    HW215315   4.365   4.184   8.292 -0.1557  1.0330  0.1034
 1228SOL     OW15316   2.638   3.171   4.019 -0.1470  0.2249  0.0358
 1228SOL    HW115317   2.625   3.165   4.114 -1.5842  0.7744 -0.1368
 1228SOL    HW215318   2.716   3.117   4.004 -1.7652 -1.7883 -1.0084
 1229SOL     OW15319   0.550   3.474   3.142  0.4053  0.5776 -0.5321
 1229SOL    HW115320   0.581   3.387   3.117  1.9614 -0.1176  3.8673
 1229SOL    HW215321   0.587   3.477   3.231 -0.7057 -2.5204  0.0270
 1230SOL     OW15322   0.141   1.379  10.502  0.0183 -0.4855  0.4866
 1230SOL    HW115323   0.191   1.348  10.426 -1.5411  0.7620 -1.0542
 1230SOL    HW215324   0.059   1.408  10.461  0.5459  1.4364  0.8053
 1231SOL     OW15325   1.228   3.394   0.421  0.3429  0.4627  0.3490
 1231SOL    HW115326   1.303   3.452   0.428  1.6123 -1.3735  1.8269
 1231SOL    HW215327   1.218   3.387   0.326 -2.3488 -0.6370  0.7169
 1232SOL     OW15328   2.968   2.557   4.428 -0.1344 -0.3713  0.6087
 1232SOL    HW115329   3.052   2.584   4.467 -0.1601  0.4074  0.1264
 1232SOL    HW215330   2.936   2.489   4.487  1.3452 -0.1940  1.6308
 1233SOL     OW15331   3.925   2.233   0.905  0.7091  0.1669  0.1019
 1233SOL    HW115332   3.871   2.163   0.941 -0.8339 -0.4621 -3.4585
 1233SOL    HW215333   3.896   2.244   0.815 -2.9169 -0.5790  1.1720
 1234SOL     OW15334   0.369   4.529   1.885 -0.6008  0.3566  0.3505
 1234SOL    HW115335   0.358   4.572   1.800  1.1778  0.1493  0.0171
 1234SOL    HW215336   0.281   4.523   1.921  0.0809  1.8921  2.2534
 1235SOL     OW15337   4.073   0.483   0.796 -0.2350  0.5245 -0.4803
 1235SOL    HW115338   4.009   0.553   0.810 -1.7863 -0.4604 -2.6852
 1235SOL    HW215339   4.023   0.424   0.739  0.0725 -0.3069  0.1162
 1236SOL     OW15340   3.028   0.346   9.408 -0.0942  0.2867 -0.1674
 1236SOL    HW115341   3.014   0.431   9.366  0.8552  1.9083  2.7730
 1236SOL    HW215342   3.024   0.289   9.332 -1.8349  3.1272 -2.2139
 1237SOL     OW15343   1.546   3.022   3.268 -0.4336 -0.6954 -0.0396
 1237SOL    HW115344   1.589   3.005   3.351 -0.7951  0.4334  0.3740
 1237SOL    HW215345   1.494   3.100   3.286  0.0753 -1.2021  3.5422
 1238SOL     OW15346   0.333   3.803   6.687 -0.2022  0.1372  0.0928
 1238SOL    HW115347   0.329   3.857   6.766  0.6635 -1.2825  1.1133
 1238SOL    HW215348   0.311   3.716   6.719 -1.2654  0.1900 -0.4973
 1239SOL     OW15349   3.016   3.730   2.812 -0.1417 -0.6700 -0.2726
 1239SOL    HW115350   2.953   3.702   2.745 -0.6912 -1.7954  0.7112
 1239SOL    HW215351   2.988   3.677   2.886  0.2804  1.9915  1.7646
 1240SOL     OW15352   4.010   4.674   6.773 -0.2499  0.6020 -0.2969
 1240SOL    HW115353   4.005   0.030   6.763 -0.6800  0.6254  0.1129
 1240SOL    HW215354   4.091   4.665   6.823 -0.6381  1.4980  0.4990
 1241SOL     OW15355   3.163   0.771  12.409  0.1526 -0.1634 -0.3266
 1241SOL    HW115356   3.138   0.698  12.354 -0.3515  0.4121 -0.8647
 1241SOL    HW215357   3.251   0.801  12.385  0.4300 -0.1345  0.7022
 1242SOL     OW15358   4.371   3.341  11.824 -0.3534 -0.0942 -0.7914
 1242SOL    HW115359   4.367   3.429  11.786  1.5113  0.1513 -0.4275
 1242SOL    HW215360   4.444   3.357  11.884 -0.6508  2.6795 -1.1954
 1243SOL     OW15361   4.707   4.504   8.964  0.0795  0.5503  0.4812
 1243SOL    HW115362   4.648   4.563   9.011  1.9604  2.8245 -0.0335
 1243SOL    HW215363   4.670   4.497   8.876 -1.6657 -1.9691  1.4037
 1244SOL     OW15364   2.434   0.362   5.047  0.0560 -0.7554 -0.2516
 1244SOL    HW115365   2.340   0.378   5.035  0.2148  0.4632  0.1694
 1244SOL    HW215366   2.436   0.284   4.990 -0.5115  1.7492 -3.7022
 1245SOL     OW15367   0.652   1.179  11.048 -0.3147  0.0013  0.6994
 1245SOL    HW115368   0.708   1.256  11.043  2.5394 -2.1533 -0.4619
 1245SOL    HW215369   0.685   1.126  11.121  0.5262  0.9727  1.0217
 1246SOL     OW15370   2.255   3.000   8.426 -0.9635  0.2961  0.7064
 1246SOL    HW115371   2.243   2.914   8.466  1.6351 -0.8576 -0.9375
 1246SOL    HW215372   2.177   3.039   8.466 -0.3601  0.3887  1.7865
 1247SOL     OW15373   4.672   0.970   1.839 -0.4457 -0.2291  0.3387
 1247SOL    HW115374   4.681   0.875   1.833 -0.9600 -0.4688  3.2994
 1247SOL    HW215375   4.604   0.978   1.906 -0.2566  0.0225  0.5046
 1248SOL     OW15376   3.663   0.343   7.847 -0.8114 -0.4410  0.3937
 1248SOL    HW115377   3.637   0.432   7.870  2.6008  0.9183 -1.0715
 1248SOL    HW215378   3.752   0.346   7.883 -1.6140  1.3103  2.2236
 1249SOL     OW15379   1.401   1.453   8.131 -0.4106  0.1633 -0.3280
 1249SOL    HW115380   1.319   1.502   8.132 -1.9873 -2.5392  1.6862
 1249SOL    HW215381   1.462   1.527   8.138  1.0136 -0.9814 -0.7001
 1250SOL     OW15382   2.351   1.468   3.358 -0.0208 -0.3927  0.0461
 1250SOL    HW115383   2.270   1.514   3.335  1.8041  1.6286 -2.3256
 1250SOL    HW215384   2.374   1.427   3.275  0.7407 -1.8381  0.9839
 1251SOL     OW15385   3.493   0.460   6.953  0.5948 -0.0947  0.5719
 1251SOL    HW115386   3.491   0.541   7.003 -1.0524  0.0991  0.1950
 1251SOL    HW215387   3.426   0.411   7.001 -0.6612 -0.5382 -1.6028
 1252SOL     OW15388   2.392   1.322  12.588 -0.0097  0.2465  0.5517
 1252SOL    HW115389   2.419   1.289  12.502 -1.1376 -2.2339  1.1403
 1252SOL    HW215390   2.346   1.399  12.554  0.0861 -0.1549 -0.5023
 1253SOL     OW15391   4.039   1.379   5.243  0.4889  0.1538 -0.2847
 1253SOL    HW115392   4.057   1.452   5.303  1.3375 -0.8408  0.6639
 1253SOL    HW215393   4.079   1.414   5.163 -0.7384 -0.7194 -1.2836
 1254SOL     OW15394   1.260   1.271   4.473  0.2155  0.0323  0.2830
 1254SOL    HW115395   1.306   1.233   4.548 -0.9009  0.9736  1.4422
 1254SOL    HW215396   1.318   1.245   4.401 -0.7003  1.3418 -0.9368
 1255SOL     OW15397   2.012   3.314   5.871  0.3963  0.0420 -0.2697
 1255SOL    HW115398   2.033   3.387   5.929 -3.3394  0.8362  0.0472
 1255SOL    HW215399   2.032   3.356   5.788  1.5090  1.3551  0.6453
 1256SOL     OW15400   4.224   0.814   7.545  0.1789 -0.4718  0.3589
 1256SOL    HW115401   4.209   0.720   7.559 -0.7452 -0.4475 -0.4260
 1256SOL    HW215402   4.203   0.816   7.451 -0.6220  2.7089  0.6176
 1257SOL     OW15403   3.974   1.119   8.486  0.2747 -0.1714 -0.2499
 1257SOL    HW115404   3.938   1.036   8.456 -0.4180  0.1390 -0.2838
 1257SOL    HW215405   3.900   1.152   8.537 -0.5972 -0.0032 -1.6301
 1258SOL     OW15406   3.758   3.381  12.637 -0.1075 -0.1321 -0.1303
 1258SOL    HW115407   3.736   3.291  12.614  1.0474  0.2151 -2.6438
 1258SOL    HW215408   3.854   3.375  12.641 -0.0959 -1.2258 -2.5600
 1259SOL     OW15409   1.241   4.681  13.020  0.1870 -0.5547 -0.0054
 1259SOL    HW115410   1.255   4.587  13.006 -0.8111 -0.9611  1.6097
 1259SOL    HW215411   1.285   4.717  12.944  0.0987 -0.3533  0.0406
 1260SOL     OW15412   1.543   3.376   4.176 -0.4806  0.1403 -0.3061
 1260SOL    HW115413   1.510   3.332   4.255  0.9417 -2.2848 -1.0554
 1260SOL    HW215414   1.465   3.397   4.124 -1.1129  0.2351  0.6918
 1261SOL     OW15415   0.904   0.077   1.166 -0.3481 -0.0465  0.3067
 1261SOL    HW115416   0.951   4.736   1.189  0.4939 -0.1358 -1.7271
 1261SOL    HW215417   0.948   0.095   1.083  0.2350 -4.6870 -0.4224
 1262SOL     OW15418   3.185   1.130   1.781 -0.4766  0.3239  0.2825
 1262SOL    HW115419   3.208   1.098   1.869 -0.0602  1.7703  0.6986
 1262SOL    HW215420   3.242   1.078   1.725  0.6946  2.6203 -0.6606
 1263SOL     OW15421   0.311   2.249   6.805  0.4182  0.2169 -0.7000
 1263SOL    HW115422   0.311   2.344   6.791  2.0645 -0.0215 -2.4300
 1263SOL    HW215423   0.225   2.225   6.771  1.9698 -1.2449 -3.6318
 1264SOL     OW15424   0.765   0.523   6.162  0.1533  0.2359  0.0108
 1264SOL    HW115425   0.723   0.542   6.246 -2.1320 -0.2375 -1.0083
 1264SOL    HW215426   0.794   0.610   6.135 -0.3390 -0.0486 -1.4732
 1265SOL     OW15427   3.675   0.940   4.232  0.5330  0.3522  0.0806
 1265SOL    HW115428   3.621   1.018   4.245 -0.4471 -0.2891 -0.1173
 1265SOL    HW215429   3.727   0.935   4.312  0.4263  1.1747  0.2000
 1266SOL     OW15430   4.053   1.053   5.003 -0.1426 -0.4918  0.1700
 1266SOL    HW115431   4.004   1.111   4.944 -1.5477  0.1824  1.9978
 1266SOL    HW215432   3.981   1.012   5.050  0.6283 -2.3841 -0.3064
 1267SOL     OW15433   0.637   1.583   2.479  0.0975  0.1391 -0.5888
 1267SOL    HW115434   0.563   1.610   2.534  0.7014  2.2269 -0.7929
 1267SOL    HW215435   0.717   1.622   2.515 -1.1406  1.5297  0.6744
 1268SOL     OW15436   0.631   0.230   7.585  0.2734 -0.4820 -0.6513
 1268SOL    HW115437   0.626   0.180   7.667 -1.3685 -0.0359 -0.4793
 1268SOL    HW215438   0.540   0.261   7.580 -0.5487 -2.7805  0.0859
 1269SOL     OW15439   2.640   3.629  12.797 -0.2423 -0.5021  0.2741
 1269SOL    HW115440   2.691   3.586  12.865  1.1882 -2.0550 -1.7812
 1269SOL    HW215441   2.695   3.707  12.794 -3.0756  1.5500  1.4142
 1270SOL     OW15442   1.387   1.361   3.650 -0.4138  0.2061  0.5173
 1270SOL    HW115443   1.292   1.346   3.650 -0.2438 -0.8380 -0.4560
 1270SOL    HW215444   1.395   1.419   3.575  1.0246  0.0019  0.5246
 1271SOL     OW15445   0.350   2.929   5.339 -0.5932 -0.1981  0.0529
 1271SOL    HW115446   0.411   2.856   5.346  0.3505  0.6961  1.1172
 1271SOL    HW215447   0.361   2.971   5.424 -1.1288  2.2741 -1.0988
 1272SOL     OW15448   3.414   1.415   6.072  0.5378  0.7954 -0.0040
 1272SOL    HW115449   3.444   1.498   6.035  1.8097  0.1941 -0.3032
 1272SOL    HW215450   3.491   1.380   6.116 -0.5258 -0.5803  0.7468
 1273SOL     OW15451   2.203   0.259   6.498  0.0454  0.3651  0.2524
 1273SOL    HW115452   2.191   0.326   6.565  0.3485 -2.0422  2.7136
 1273SOL    HW215453   2.289   0.228   6.527  1.0570  1.9945 -0.9988
 1274SOL     OW15454   2.731   0.903   5.673  0.7845  0.1289 -0.6944
 1274SOL    HW115455   2.813   0.942   5.705 -0.3184  2.0530 -0.2206
 1274SOL    HW215456   2.727   0.821   5.722  1.5304 -0.2482 -1.2749
 1275SOL     OW15457   2.691   3.067   5.353  0.0561  0.0582  0.0282
 1275SOL    HW115458   2.711   3.150   5.310  0.3445  1.0207  2.0359
 1275SOL    HW215459   2.604   3.093   5.382 -0.7820  0.0038 -2.4602
 1276SOL     OW15460   4.242   3.809  17.706  0.2250 -0.7435  0.2979
 1276SOL    HW115461   4.168   3.834  17.651  0.5831  1.0738  0.6339
 1276SOL    HW215462   4.307   3.780  17.641 -0.1682 -0.4003 -0.2431
 1277SOL     OW15463   2.067   4.586  13.720 -0.4974 -0.0615 -0.3682
 1277SOL    HW115464   2.074   4.559  13.811  1.7109 -1.4525 -0.9593
 1277SOL    HW215465   2.126   4.661  13.728 -0.3748 -0.5713  3.3822
 1278SOL     OW15466   2.160   2.305   6.175 -0.4563  0.3738 -0.0454
 1278SOL    HW115467   2.171   2.312   6.270 -0.1634  0.8350 -0.1122
 1278SOL    HW215468   2.139   2.214   6.157  0.8427  0.2884 -1.1516
 1279SOL     OW15469   2.747   3.946  17.202 -0.1202 -0.2961 -0.4213
 1279SOL    HW115470   2.760   3.893  17.281  0.8091  2.5689  1.3461
 1279SOL    HW215471   2.834   3.943  17.162 -0.1332 -2.4732 -0.2657
 1280SOL     OW15472   2.002   3.526   4.326 -0.1050  0.0110  0.2780
 1280SOL    HW115473   2.073   3.474   4.364  0.3478  0.9202  0.6726
 1280SOL    HW215474   1.939   3.455   4.314 -0.0044  0.1863 -1.2447
 1281SOL     OW15475   3.205   3.471  14.599 -0.2963 -0.4284  0.4819
 1281SOL    HW115476   3.237   3.491  14.511  1.9230  2.8506  2.0401
 1281SOL    HW215477   3.253   3.394  14.630  1.5347  0.6160  0.2754
 1282SOL     OW15478   3.548   1.151  12.857  0.2635 -1.4092  0.0177
 1282SOL    HW115479   3.513   1.065  12.883  1.6362 -1.4312  1.7616
 1282SOL    HW215480   3.572   1.168  12.948  2.2313 -0.2907 -0.7187
 1283SOL     OW15481   2.144   2.211   5.117  0.3009 -0.3579 -0.1381
 1283SOL    HW115482   2.083   2.138   5.130 -1.5083  1.2738  0.4150
 1283SOL    HW215483   2.150   2.204   5.022  0.0671 -0.9536 -0.1095
 1284SOL     OW15484   2.806   3.557   5.153 -0.0669  0.3567  0.3586
 1284SOL    HW115485   2.763   3.610   5.086 -0.8107 -0.2646  0.3462
 1284SOL    HW215486   2.842   3.626   5.210 -0.3268  0.6246  0.1978
 1285SOL     OW15487   2.103   2.059  10.338 -0.1383  0.4343 -0.1190
 1285SOL    HW115488   2.050   2.086  10.263  1.4041 -1.6816 -1.9816
 1285SOL    HW215489   2.069   1.970  10.345  1.0142  0.1283  1.4659
 1286SOL     OW15490   1.715   3.372   6.677  0.3449 -0.4321  0.4280
 1286SOL    HW115491   1.765   3.389   6.756 -0.0256  1.7031  0.2229
 1286SOL    HW215492   1.768   3.418   6.611  0.8725 -2.2739 -0.4325
 1287SOL     OW15493   4.076   2.317   5.549 -0.3379 -0.4220 -0.0297
 1287SOL    HW115494   4.107   2.230   5.523 -1.1402 -0.9785  0.8574
 1287SOL    HW215495   4.057   2.303   5.642  0.0673  1.1561  0.2963
 1288SOL     OW15496   2.471   1.710   8.936  0.0589 -0.2486  0.4684
 1288SOL    HW115497   2.426   1.678   9.013 -0.0734 -1.2470 -0.0206
 1288SOL    HW215498   2.472   1.803   8.957 -0.8831 -1.1477  4.3216
 1289SOL     OW15499   1.074   1.018   3.055 -0.0693 -0.1582 -0.3825
 1289SOL    HW115500   1.073   0.930   3.093  0.6948  0.1958  0.4529
 1289SOL    HW215501   1.087   1.004   2.962 -1.4007  0.7187 -0.6896
 1290SOL     OW15502   2.200   1.492   5.785 -0.5315  0.2065 -0.3438
 1290SOL    HW115503   2.282   1.499   5.834 -1.1644 -2.9520  1.1761
 1290SOL    HW215504   2.163   1.415   5.829  1.1900 -0.8432 -0.7595
 1291SOL     OW15505   2.269   2.675   9.347  0.1593 -0.1557 -0.6994
 1291SOL    HW115506   2.244   2.764   9.373 -0.9966 -0.3981 -0.9429
 1291SOL    HW215507   2.229   2.660   9.261 -1.0654 -1.5400  0.0992
 1292SOL     OW15508   0.941   2.776   9.117  0.2765  0.2512  0.6233
 1292SOL    HW115509   0.913   2.751   9.029  1.0414  0.8168  0.2197
 1292SOL    HW215510   0.988   2.693   9.131  0.0122  0.0492  0.2893
 1293SOL     OW15511   3.114   2.770  12.137  0.4738 -0.2386  0.2679
 1293SOL    HW115512   3.152   2.705  12.195 -0.4978 -0.1171  1.0501
 1293SOL    HW215513   3.031   2.783  12.183 -1.6138  0.2083 -3.5610
 1294SOL     OW15514   0.616   3.347   2.273 -0.1230 -0.1126  0.1709
 1294SOL    HW115515   0.700   3.303   2.288 -1.0421 -1.6626  0.6250
 1294SOL    HW215516   0.565   3.347   2.354 -2.9432 -0.2671 -1.6175
 1295SOL     OW15517   2.911   2.631   6.071  0.0941  0.2246  0.0249
 1295SOL    HW115518   2.977   2.577   6.115 -0.4243  0.7809  1.4733
 1295SOL    HW215519   2.869   2.676   6.144 -0.5971  0.2639 -0.3938
 1296SOL     OW15520   4.652   1.881  12.315 -0.6451 -0.6013 -0.3316
 1296SOL    HW115521   4.723   1.842  12.367  0.6585  2.3895  0.1448
 1296SOL    HW215522   4.701   1.962  12.297 -0.9137 -0.7450 -1.6740
 1297SOL     OW15523   0.867   4.181  17.683  0.0677  0.4143 -0.3547
 1297SOL    HW115524   0.892   4.159  17.593  2.4014 -1.7138  0.8368
 1297SOL    HW215525   0.902   4.104  17.728 -1.4875  0.6174  1.1692
 1298SOL     OW15526   0.177   0.779   4.349 -0.2317 -0.2587 -0.0145
 1298SOL    HW115527   0.128   0.797   4.269 -0.5003 -2.3772 -0.3207
 1298SOL    HW215528   0.152   0.847   4.412  1.2977  1.3113 -1.0869
 1299SOL     OW15529   0.317   0.931  16.324  0.3952  0.3316  0.1842
 1299SOL    HW115530   0.279   0.968  16.245 -1.8943  0.1970  1.2152
 1299SOL    HW215531   0.299   0.991  16.396 -1.4978  0.2265 -0.2174
 1300SOL     OW15532   1.079   3.206   0.558  0.0198 -0.0884  0.5755
 1300SOL    HW115533   1.146   3.266   0.525  0.6052 -0.9469  0.1743
 1300SOL    HW215534   1.124   3.126   0.531  0.6846  0.3814  0.2758
 1301SOL     OW15535   3.484   4.658  16.493 -0.2454  0.3139  0.5880
 1301SOL    HW115536   3.468   0.011  16.511  0.7836  0.7046 -0.5404
 1301SOL    HW215537   3.399   4.629  16.460  0.7226 -2.8038  0.7648
 1302SOL     OW15538   3.912   1.189   1.619 -0.4295  0.0467 -0.0835
 1302SOL    HW115539   3.825   1.211   1.653  0.4225  3.5397 -0.1347
 1302SOL    HW215540   3.896   1.116   1.560 -0.1803 -1.9379  2.3162
 1303SOL     OW15541   1.481   1.358  15.709  0.0303 -0.6248  0.4395
 1303SOL    HW115542   1.525   1.359  15.794  1.6240  0.8976 -0.4186
 1303SOL    HW215543   1.428   1.278  15.716 -1.6259  0.3135 -1.4244
 1304SOL     OW15544   1.660   3.112   8.572 -0.1777  0.0553 -0.0944
 1304SOL    HW115545   1.571   3.078   8.557  1.0146 -3.5276  1.0954
 1304SOL    HW215546   1.695   3.107   8.483 -0.2992  0.6410 -0.1794
 1305SOL     OW15547   0.300   2.773   4.959 -0.1435 -0.3614 -0.2634
 1305SOL    HW115548   0.232   2.765   4.893  1.3945  2.8222 -2.2622
 1305SOL    HW215549   0.287   2.861   4.993  2.2658  0.8975 -2.5835
 1306SOL     OW15550   0.222   2.488   3.814 -0.1767 -0.2879 -0.1166
 1306SOL    HW115551   0.242   2.434   3.737  2.9806 -0.7361  1.0275
 1306SOL    HW215552   0.177   2.567   3.783  1.2608  0.8500  0.6784
 1307SOL     OW15553   4.147   0.423   8.756  0.2693 -0.3938  0.2949
 1307SOL    HW115554   4.125   0.513   8.732  1.2438 -0.3543 -0.4752
 1307SOL    HW215555   4.153   0.425   8.851 -0.7816 -0.5193  0.3607
 1308SOL     OW15556   2.628   1.046   4.883  0.1491  0.5256 -0.7274
 1308SOL    HW115557   2.610   0.965   4.930  0.8839 -0.1919 -1.6878
 1308SOL    HW215558   2.618   1.117   4.946  1.4694  1.8058 -1.9644
 1309SOL     OW15559   2.017   3.820   3.786 -0.4623  0.2625  0.0265
 1309SOL    HW115560   2.013   3.724   3.787 -0.9922  0.2914  0.6351
 1309SOL    HW215561   1.980   3.835   3.699  0.9862  1.7724 -0.3226
 1310SOL     OW15562   2.392   4.500  12.766  0.2723 -0.0407  0.5795
 1310SOL    HW115563   2.421   4.571  12.823  0.5106  0.4162 -0.1103
 1310SOL    HW215564   2.431   4.421  12.804  1.3771  0.4763  0.5300
 1311SOL     OW15565   4.522   0.960  16.986  0.3336  0.7639  0.4890
 1311SOL    HW115566   4.516   0.934  16.894  0.4414  0.9073  0.4424
 1311SOL    HW215567   4.573   0.886  17.020  0.7974  0.5768 -0.6377
 1312SOL     OW15568   3.407   1.466  10.912  0.1946  0.4895  0.6364
 1312SOL    HW115569   3.354   1.405  10.861  3.2658 -0.7924 -0.9999
 1312SOL    HW215570   3.389   1.435  11.001  1.7295 -3.0854 -0.2877
 1313SOL     OW15571   1.780   4.327   1.730  0.1063 -0.0895 -0.0387
 1313SOL    HW115572   1.853   4.321   1.668 -0.8898 -0.7337 -1.1523
 1313SOL    HW215573   1.764   4.240   1.766 -4.7063  1.2718  1.1035
 1314SOL     OW15574   4.568   3.821   6.841  0.3544 -0.2177  0.3783
 1314SOL    HW115575   4.485   3.856   6.874 -1.0536 -1.6688 -1.6634
 1314SOL    HW215576   4.615   3.812   6.925 -0.8137  0.6650  1.1264
 1315SOL     OW15577   1.082   4.524  13.471  0.3757 -0.3884  0.5672
 1315SOL    HW115578   1.157   4.564  13.516 -0.9986  2.0904  0.6536
 1315SOL    HW215579   1.132   4.481  13.402 -2.2686 -1.4756 -0.6657
 1316SOL     OW15580   2.947   4.275  13.520  0.3360 -0.0318  0.1218
 1316SOL    HW115581   3.010   4.279  13.593 -2.1911  0.6303  2.2432
 1316SOL    HW215582   2.884   4.209  13.547 -1.1482  0.1153 -3.0401
 1317SOL     OW15583   0.429   2.066   2.305 -0.5245 -0.3761 -0.5206
 1317SOL    HW115584   0.432   2.012   2.383  2.7777 -0.6458 -0.8094
 1317SOL    HW215585   0.335   2.071   2.291 -0.5839 -0.3191 -0.0811
 1318SOL     OW15586   0.965   2.842   7.007  0.3428 -0.1740 -0.3236
 1318SOL    HW115587   1.050   2.883   6.993 -0.3848  1.2799 -0.5065
 1318SOL    HW215588   0.905   2.916   7.013  0.1762 -0.2968 -0.4485
 1319SOL     OW15589   4.515   0.685   7.600 -0.6855  0.5771  0.2445
 1319SOL    HW115590   4.601   0.659   7.632 -0.6411 -1.6487 -1.6715
 1319SOL    HW215591   4.517   0.781   7.608 -0.5979  0.6919 -1.1308
 1320SOL     OW15592   2.989   3.194  14.296 -0.1156  0.5274  0.2396
 1320SOL    HW115593   2.935   3.115  14.288  1.1955 -0.2767 -0.6616
 1320SOL    HW215594   3.034   3.190  14.211 -1.5982  0.6855 -0.5457
 1321SOL     OW15595   1.388   1.881  16.242 -0.4593  0.2231 -0.1579
 1321SOL    HW115596   1.294   1.884  16.259 -0.2602  2.0088  0.6662
 1321SOL    HW215597   1.425   1.896  16.329  0.7851 -0.3453 -0.5855
 1322SOL     OW15598   4.337   1.960   4.016 -0.2473  0.3615  0.0926
 1322SOL    HW115599   4.402   1.991   3.953  1.1644  0.9216  1.8468
 1322SOL    HW215600   4.260   1.937   3.963 -1.3284 -2.1707  2.7603
 1323SOL     OW15601   2.852   1.884   8.905  0.4246  0.7041  0.2166
 1323SOL    HW115602   2.808   1.920   8.828  0.8758  0.0589 -0.3427
 1323SOL    HW215603   2.916   1.952   8.922 -0.9750  1.0502  3.9322
 1324SOL     OW15604   0.704   1.863  11.897 -0.1441 -0.1044  0.2909
 1324SOL    HW115605   0.766   1.901  11.834  0.1219 -0.2085  0.4867
 1324SOL    HW215606   0.622   1.911  11.888 -0.1654  0.0896  1.4265
 1325SOL     OW15607   2.263   2.531   3.450 -0.3189  0.3254 -0.0488
 1325SOL    HW115608   2.172   2.507   3.467 -0.0832  0.1771  1.0025
 1325SOL    HW215609   2.309   2.470   3.508 -0.2365  0.4352  0.0022
 1326SOL     OW15610   2.447   0.231  13.479 -0.5389 -0.2523 -0.0522
 1326SOL    HW115611   2.518   0.200  13.422 -2.5074 -1.7960 -1.6763
 1326SOL    HW215612   2.440   0.164  13.547  0.0738 -0.6466 -0.3733
 1327SOL     OW15613   3.334   2.062  12.543  0.2441  0.0210 -0.1013
 1327SOL    HW115614   3.254   2.062  12.491  0.8407 -4.0447 -1.0192
 1327SOL    HW215615   3.311   2.127  12.609 -2.1759 -0.1016 -0.8299
 1328SOL     OW15616   1.465   4.468   7.099 -0.0192 -0.0783 -0.0941
 1328SOL    HW115617   1.381   4.514   7.093 -0.2229 -0.5377 -0.7182
 1328SOL    HW215618   1.444   4.395   7.157 -0.7003 -0.2560 -0.5730
 1329SOL     OW15619   1.801   4.427  17.128 -0.1087 -0.0194  0.4648
 1329SOL    HW115620   1.746   4.363  17.174 -1.3279  0.3822 -0.4374
 1329SOL    HW215621   1.883   4.425  17.177  0.2234  1.4640 -0.0390
 1330SOL     OW15622   4.579   4.108   8.427  0.4023  0.3522  0.5342
 1330SOL    HW115623   4.616   4.161   8.498 -1.4121  3.1394 -0.6083
 1330SOL    HW215624   4.637   4.032   8.423 -1.6071 -1.0855 -0.9028
 1331SOL     OW15625   4.220   0.188  12.586  0.0829 -0.5792 -0.5283
 1331SOL    HW115626   4.214   0.262  12.526  1.0394 -0.5711 -0.6241
 1331SOL    HW215627   4.307   0.152  12.566  2.2282  3.5801  1.4035
 1332SOL     OW15628   4.640   2.296  11.133 -0.2618 -0.3532  0.3755
 1332SOL    HW115629   4.676   2.228  11.075  0.1168  0.8449 -0.7908
 1332SOL    HW215630   4.716   2.337  11.173  0.2293 -1.8238  0.9584
 1333SOL     OW15631   2.434   1.774   6.657 -0.5067 -0.4613  0.1212
 1333SOL    HW115632   2.505   1.750   6.716 -0.9977  2.0961  1.7528
 1333SOL    HW215633   2.487   1.766   6.577 -0.9240 -1.2224 -0.0813
 1334SOL     OW15634   1.472   0.862  17.077  0.0533  0.7289 -0.0668
 1334SOL    HW115635   1.409   0.909  17.132 -0.2497 -1.7592  1.6716
 1334SOL    HW215636   1.448   0.771  17.092  0.5339  0.6301  0.1144
 1335SOL     OW15637   3.848   2.658  10.515 -1.0378  0.5537 -1.1042
 1335SOL    HW115638   3.815   2.735  10.468 -1.8179  0.7200 -0.2947
 1335SOL    HW215639   3.769   2.656  10.570 -1.1609 -3.1603 -1.4273
 1336SOL     OW15640   0.740   2.626  15.157  0.1593  0.1580  0.2374
 1336SOL    HW115641   0.788   2.548  15.186  2.6370  1.5322 -0.1639
 1336SOL    HW215642   0.804   2.693  15.179  0.5780  0.0669 -0.6924
 1337SOL     OW15643   0.537   0.026   1.299  0.1275  0.1508  0.0150
 1337SOL    HW115644   0.510   0.040   1.208 -1.2088 -0.4193  0.3188
 1337SOL    HW215645   0.629   0.052   1.295  0.2639 -0.8105 -2.9820
 1338SOL     OW15646   4.539   2.042   4.377 -0.1613 -0.0326  0.1472
 1338SOL    HW115647   4.451   2.075   4.357  0.0777  0.4497 -0.1133
 1338SOL    HW215648   4.586   2.107   4.324 -0.5355 -0.8186 -1.1542
 1339SOL     OW15649   0.414   3.157   4.473  0.2057 -0.3943 -0.6631
 1339SOL    HW115650   0.344   3.188   4.531  0.5578 -0.0371 -0.4316
 1339SOL    HW215651   0.478   3.228   4.477 -0.3680  0.0712  0.1275
 1340SOL     OW15652   1.627   0.408   6.157 -0.6867 -0.3399  0.0678
 1340SOL    HW115653   1.548   0.359   6.179 -0.3891  0.2048  2.3520
 1340SOL    HW215654   1.704   0.358   6.184 -1.0181 -0.3024  1.0881
 1341SOL     OW15655   2.285   0.026   9.642 -0.2411  0.5064  0.0036
 1341SOL    HW115656   2.226   4.731   9.574 -1.8730  0.6255  1.3478
 1341SOL    HW215657   2.350   0.074   9.591 -1.1282  1.5114 -0.1977
 1342SOL     OW15658   0.535   0.787   4.654 -0.2897  0.1603  0.4240
 1342SOL    HW115659   0.533   0.882   4.665 -0.1195 -0.0698  2.4290
 1342SOL    HW215660   0.611   0.766   4.707 -1.0966 -0.7008  1.2457
 1343SOL     OW15661   2.903   4.649   5.696  0.6693  0.5400  0.2215
 1343SOL    HW115662   2.995   4.645   5.671 -0.0443  0.2980 -2.4212
 1343SOL    HW215663   2.860   4.582   5.643 -0.8633  1.6505  0.0499
 1344SOL     OW15664   0.029   3.728   2.664 -0.1967  0.2343  0.0629
 1344SOL    HW115665   4.703   3.786   2.624 -0.8966 -2.4353 -2.6609
 1344SOL    HW215666   4.734   3.639   2.659 -0.8041  0.5491 -1.4128
 1345SOL     OW15667   2.661   1.650   2.388 -0.0817  0.0069 -0.0548
 1345SOL    HW115668   2.668   1.579   2.323 -1.6423 -1.1268  1.0054
 1345SOL    HW215669   2.578   1.685   2.354  0.4806  1.4470  0.0850
 1346SOL     OW15670   0.066   2.238   2.527 -0.1203 -0.0763  0.3045
 1346SOL    HW115671   0.080   2.238   2.622  0.8331 -0.9442  0.1631
 1346SOL    HW215672   0.110   2.317   2.498 -2.0862  0.3067 -1.6477
 1347SOL     OW15673   2.552   4.656   4.987 -0.3347 -0.0500  0.3115
 1347SOL    HW115674   2.592   4.653   5.074  1.8580 -2.2355 -0.7477
 1347SOL    HW215675   2.498   4.577   4.994 -2.4244  1.3939  0.2756
 1348SOL     OW15676   1.179   4.190   6.130  0.2701  0.2416  0.3562
 1348SOL    HW115677   1.178   4.117   6.192  1.6118  0.4266  0.5921
 1348SOL    HW215678   1.094   4.187   6.085  0.2566 -1.4303  0.4893
 1349SOL     OW15679   4.219   4.715  13.245  0.3428 -0.1819  0.1935
 1349SOL    HW115680   4.239   4.639  13.301 -2.4100 -0.6383  0.5323
 1349SOL    HW215681   4.129   4.736  13.268  0.0478 -2.9886  1.6056
 1350SOL     OW15682   2.722   1.061   3.550 -0.0846 -0.4230 -1.2176
 1350SOL    HW115683   2.741   0.969   3.531  2.8480  0.3563 -1.9932
 1350SOL    HW215684   2.804   1.104   3.529 -0.1596 -0.0694 -0.7730
 1351SOL     OW15685   3.879   3.677   4.718 -0.6466 -0.2983 -0.1146
 1351SOL    HW115686   3.959   3.660   4.768 -0.8352  1.6743  0.8733
 1351SOL    HW215687   3.893   3.771   4.706  0.3250 -0.0890  2.8078
 1352SOL     OW15688   2.432   3.461   7.196  0.0083 -0.0246  0.2769
 1352SOL    HW115689   2.397   3.498   7.278  2.7051  0.7908  1.0519
 1352SOL    HW215690   2.506   3.514   7.169  0.4720 -0.5213  0.5737
 1353SOL     OW15691   1.753   3.013   4.092 -0.3908 -0.6637 -0.3256
 1353SOL    HW115692   1.847   3.031   4.100 -0.9891  1.7221  1.3671
 1353SOL    HW215693   1.751   2.992   3.999 -0.7713  1.3345 -0.7724
 1354SOL     OW15694   2.371   3.625   2.306 -0.0888  0.2676 -0.3170
 1354SOL    HW115695   2.324   3.706   2.329 -2.5059 -0.7870 -1.6124
 1354SOL    HW215696   2.298   3.565   2.297 -0.7124  0.7620  1.4940
 1355SOL     OW15697   2.714   4.615  14.227  0.3590 -0.0535 -0.1841
 1355SOL    HW115698   2.625   4.650  14.233  1.7165  3.2422  0.7378
 1355SOL    HW215699   2.701   4.535  14.277  0.4158  0.6170  0.8881
 1356SOL     OW15700   2.253   2.784   0.476  0.1033  0.3991 -0.2101
 1356SOL    HW115701   2.301   2.837   0.539 -1.5184  2.8105 -0.9993
 1356SOL    HW215702   2.244   2.701   0.524  1.0226  0.9806  0.9737
 1357SOL     OW15703   1.887   3.060   7.991 -0.1077 -0.5265  0.0867
 1357SOL    HW115704   1.952   3.039   8.059 -1.2829 -1.5533  0.8806
 1357SOL    HW215705   1.825   2.988   7.992 -0.0388 -0.6142 -2.0207
 1358SOL     OW15706   4.258   2.932   3.957  0.4401  0.0519  0.6260
 1358SOL    HW115707   4.328   2.966   4.012  1.0603 -0.4526  0.1410
 1358SOL    HW215708   4.309   2.857   3.926  0.4515 -0.6413  2.2780
 1359SOL     OW15709   2.143   1.697   8.325  0.0514  0.1534  0.5636
 1359SOL    HW115710   2.171   1.612   8.360  1.7161  0.6475  0.4565
 1359SOL    HW215711   2.056   1.700   8.364 -0.4504 -0.9115 -0.4625
 1360SOL     OW15712   4.426   2.263   0.976  0.0042  0.1746  0.3242
 1360SOL    HW115713   4.420   2.349   0.936  1.3430 -0.2566 -0.7958
 1360SOL    HW215714   4.432   2.209   0.897  2.4076  0.7553  0.1026
 1361SOL     OW15715   1.592   2.151   1.789  0.7071 -0.5638  0.4263
 1361SOL    HW115716   1.535   2.088   1.746  0.3397 -0.1661  0.3293
 1361SOL    HW215717   1.590   2.119   1.879 -0.1859  1.3460  1.0784
 1362SOL     OW15718   3.089   0.749   3.041 -0.0380  0.0036 -0.1744
 1362SOL    HW115719   3.054   0.745   2.952 -2.0656 -0.4838  0.6347
 1362SOL    HW215720   3.123   0.661   3.056  0.6673  0.2392 -0.3761
 1363SOL     OW15721   4.043   0.965   3.956 -0.0366 -0.0943 -0.5082
 1363SOL    HW115722   4.100   0.969   4.032 -1.6089  1.2384  0.5876
 1363SOL    HW215723   3.957   0.973   3.996  0.2376 -1.9900  0.4313
 1364SOL     OW15724   3.009   2.740  11.888  0.0760 -0.3873  0.6223
 1364SOL    HW115725   3.064   2.733  11.966 -0.5186 -1.1531  0.9825
 1364SOL    HW215726   3.079   2.742  11.823 -2.1307 -2.4300 -1.8515
 1365SOL     OW15727   2.752   1.099   5.316  0.3732 -0.1843  0.2544
 1365SOL    HW115728   2.699   1.070   5.391 -1.5766 -0.3360 -1.1808
 1365SOL    HW215729   2.778   1.020   5.270  2.2341  1.5658 -1.6852
 1366SOL     OW15730   2.729   0.931  16.912 -0.3769  0.0308  0.4764
 1366SOL    HW115731   2.766   0.956  16.997 -0.1834 -1.3173  0.7870
 1366SOL    HW215732   2.673   0.857  16.935 -0.8321 -0.4554 -2.2843
 1367SOL     OW15733   3.742   0.384   4.107  0.1495 -0.7533 -0.6074
 1367SOL    HW115734   3.741   0.443   4.031 -1.3363 -1.9181 -1.5030
 1367SOL    HW215735   3.822   0.416   4.148 -0.4014  1.3895 -1.2357
 1368SOL     OW15736   3.918   4.268   9.765 -0.4046  0.6149  0.2109
 1368SOL    HW115737   3.992   4.301   9.816  0.4002  0.0472 -0.5732
 1368SOL    HW215738   3.843   4.285   9.821 -0.7890  0.1047 -0.1496
 1369SOL     OW15739   2.419   3.024   7.507 -0.2249 -0.0276 -0.2312
 1369SOL    HW115740   2.439   3.097   7.566  2.7574 -1.1002  0.1211
 1369SOL    HW215741   2.341   2.985   7.547 -0.9302  1.3252 -0.2646
 1370SOL     OW15742   4.177   4.255   5.327 -0.0506 -0.3674 -0.5533
 1370SOL    HW115743   4.225   4.263   5.409 -0.7168  1.4518 -0.3564
 1370SOL    HW215744   4.130   4.173   5.345 -0.1458 -0.0953  0.4664
 1371SOL     OW15745   2.083   2.042  12.565 -0.0385  0.4108 -0.1568
 1371SOL    HW115746   2.004   2.066  12.516  0.0307  5.3109  2.0621
 1371SOL    HW215747   2.121   1.973  12.511  0.4129  0.6794 -0.1777
 1372SOL     OW15748   1.071   0.583   7.743 -0.1234 -0.0283  0.2048
 1372SOL    HW115749   1.141   0.591   7.677  0.7566 -1.1016  1.0160
 1372SOL    HW215750   1.102   0.640   7.814  1.8159 -0.0314 -0.6281
 1373SOL     OW15751   0.352   1.711   4.069 -0.1847 -0.0422  0.1187
 1373SOL    HW115752   0.347   1.765   4.148  1.5435  2.5682 -1.5163
 1373SOL    HW215753   0.393   1.776   4.011 -1.5586  2.0018  1.4254
 1374SOL     OW15754   3.587   1.799   2.020 -0.1309  0.2232  0.3990
 1374SOL    HW115755   3.500   1.799   2.059 -2.2879 -1.2284 -4.4384
 1374SOL    HW215756   3.579   1.714   1.975 -2.8855  0.6831 -0.0028
 1375SOL     OW15757   0.577   1.157   5.321 -0.1168 -0.1242 -0.5198
 1375SOL    HW115758   0.646   1.159   5.254  0.0920  0.5555 -0.2811
 1375SOL    HW215759   0.611   1.091   5.381  1.4481  0.0018 -1.2732
 1376SOL     OW15760   1.224   4.271   7.403  1.1556 -0.5840  0.1712
 1376SOL    HW115761   1.303   4.313   7.437 -0.0931  1.2433  0.8220
 1376SOL    HW215762   1.199   4.206   7.468 -3.5948 -1.1491 -2.2280
 1377SOL     OW15763   3.340   4.246   9.077 -0.2574  0.3098 -0.0661
 1377SOL    HW115764   3.357   4.213   9.165 -0.8818  0.0313 -0.0445
 1377SOL    HW215765   3.395   4.196   9.017  1.3290  2.2125 -0.1866
 1378SOL     OW15766   1.056   2.943  11.842 -0.0867 -0.5221 -0.0254
 1378SOL    HW115767   1.007   3.022  11.821 -1.2225 -1.5185 -1.1384
 1378SOL    HW215768   1.134   2.975  11.797 -0.4175  0.4701  0.1145
 1379SOL     OW15769   3.661   2.336   9.125 -0.9713 -0.0766  0.3710
 1379SOL    HW115770   3.663   2.417   9.176 -0.9174  0.7912 -1.0151
 1379SOL    HW215771   3.609   2.279   9.182 -0.5136  0.3027  1.1679
 1380SOL     OW15772   3.038   1.664   6.173 -0.4333 -0.7868 -0.3515
 1380SOL    HW115773   3.052   1.625   6.086 -0.5788 -2.1959  0.2586
 1380SOL    HW215774   3.119   1.640   6.218 -2.1801 -2.0431  2.1242
 1381SOL     OW15775   1.961   1.708   7.777  0.3144 -0.4981  0.9640
 1381SOL    HW115776   1.978   1.703   7.871  0.2113 -1.2198  0.9471
 1381SOL    HW215777   1.876   1.753   7.776  0.4986 -0.1775  0.0024
 1382SOL     OW15778   0.999   3.958   3.311 -0.3483 -0.2295 -0.3393
 1382SOL    HW115779   1.076   3.944   3.255 -1.0123 -4.0985 -0.3220
 1382SOL    HW215780   1.000   3.879   3.365 -1.3037  0.9454  1.3641
 1383SOL     OW15781   0.294   4.691   3.762 -0.0885  0.1882  0.4445
 1383SOL    HW115782   0.255   0.037   3.746 -2.0911 -1.3316 -2.8677
 1383SOL    HW215783   0.211   4.644   3.775 -0.2810  0.0311 -1.3774
 1384SOL     OW15784   2.047   4.058   8.041 -0.3448 -0.1066  0.0872
 1384SOL    HW115785   2.122   4.029   7.989  1.8260  1.5512  2.3403
 1384SOL    HW215786   2.094   4.119   8.098 -0.1128 -0.8587  0.7005
 1385SOL     OW15787   1.971   0.875  11.753 -0.3674  0.6474  0.5449
 1385SOL    HW115788   2.041   0.871  11.689 -2.5148 -1.4962 -1.6643
 1385SOL    HW215789   1.998   0.956  11.797  1.3280  1.3671 -1.8552
 1386SOL     OW15790   0.314   1.174   3.682  0.0951  0.3566  0.4228
 1386SOL    HW115791   0.295   1.091   3.725 -0.4860  0.6197  0.6708
 1386SOL    HW215792   0.403   1.186   3.716  0.7711  1.6137 -1.7600
 1387SOL     OW15793   3.191   3.929   2.191  0.3791  0.8199 -0.0904
 1387SOL    HW115794   3.128   3.911   2.121  1.8168  0.2956 -1.2582
 1387SOL    HW215795   3.170   4.019   2.213 -2.7021 -0.1973  1.1561
 1388SOL     OW15796   3.866   1.979   1.310 -0.0599  0.0350 -0.2054
 1388SOL    HW115797   3.910   1.897   1.286 -1.2584 -0.0423 -2.0982
 1388SOL    HW215798   3.938   2.013   1.364  0.6904  0.4709 -1.4903
 1389SOL     OW15799   2.254   0.319   9.979  0.2419 -0.6422  0.9211
 1389SOL    HW115800   2.232   0.274   9.897  0.4559 -0.4799  0.7715
 1389SOL    HW215801   2.167   0.312  10.018 -1.3240 -0.4131 -2.5147
 1390SOL     OW15802   0.937   3.329  11.636 -0.6295  0.1411  0.0342
 1390SOL    HW115803   0.886   3.399  11.594 -0.9522  0.1328  0.4114
 1390SOL    HW215804   0.993   3.305  11.563 -1.4399  1.0173 -0.8749
 1391SOL     OW15805   4.373   4.573   5.624 -0.3563 -0.3147 -0.0941
 1391SOL    HW115806   4.452   4.601   5.670 -0.2467 -0.7542 -0.0085
 1391SOL    HW215807   4.374   4.639   5.554  0.5411  0.4042  0.6070
 1392SOL     OW15808   3.025   3.371   0.297 -0.4729  0.2849  0.5478
 1392SOL    HW115809   3.115   3.404   0.306  0.0494 -0.8709 -0.4634
 1392SOL    HW215810   3.017   3.344   0.388 -0.7386 -1.3495  0.0453
 1393SOL     OW15811   3.045   1.221   2.097 -0.6247  0.2926 -0.4806
 1393SOL    HW115812   3.025   1.188   2.184 -0.7308 -0.6775 -0.8784
 1393SOL    HW215813   3.018   1.145   2.045 -1.2613 -0.6952  1.3034
 1394SOL     OW15814   2.215   3.297  10.311 -0.0688 -0.1968  0.3606
 1394SOL    HW115815   2.260   3.380  10.328 -1.2603  0.0235  2.4705
 1394SOL    HW215816   2.123   3.323  10.319  0.0994  0.3064  0.6784
 1395SOL     OW15817   0.593   0.217   1.713 -0.1351 -0.2857 -0.4709
 1395SOL    HW115818   0.655   0.159   1.758  0.3750  2.4341  2.3104
 1395SOL    HW215819   0.639   0.280   1.658 -1.1998  0.1010 -0.9015
 1396SOL     OW15820   0.082   1.027  14.768  0.1406  0.1303  0.4631
 1396SOL    HW115821   4.734   1.044  14.803  0.8694  0.7550  1.9474
 1396SOL    HW215822   0.129   1.078  14.834 -1.4803 -0.5684  2.1389
 1397SOL     OW15823   1.457   4.180  17.450 -0.2252  0.1503 -0.7501
 1397SOL    HW115824   1.504   4.164  17.532 -0.7322 -0.1281 -0.5126
 1397SOL    HW215825   1.521   4.155  17.384 -0.4237 -3.4139  0.3835
 1398SOL     OW15826   3.750   1.420   7.941 -0.2067  0.0811  0.0414
 1398SOL    HW115827   3.825   1.410   7.999 -1.6261  1.7444  2.1330
 1398SOL    HW215828   3.721   1.504   7.975  0.9615  0.2270  0.6686
 1399SOL     OW15829   1.164   3.519   7.763  0.1330 -0.8808  0.2725
 1399SOL    HW115830   1.219   3.452   7.804 -0.7350 -1.4102  0.5860
 1399SOL    HW215831   1.125   3.564   7.838  2.2074 -1.1194  1.4923
 1400SOL     OW15832   2.126   1.503   6.661 -0.2656 -0.2563  0.5097
 1400SOL    HW115833   2.069   1.426   6.653  1.1380 -1.2293 -0.1242
 1400SOL    HW215834   2.072   1.555   6.602  1.7316  1.4262  0.1759
 1401SOL     OW15835   0.316   0.878   3.183  0.6679 -0.1404 -0.2404
 1401SOL    HW115836   0.304   0.784   3.192  2.3221 -0.1596  1.7836
 1401SOL    HW215837   0.412   0.874   3.189  0.4683 -1.4075  2.1862
 1402SOL     OW15838   0.087   3.421  16.696 -0.1195 -0.6053 -0.8135
 1402SOL    HW115839   4.732   3.406  16.707 -0.0338  0.7512  1.7162
 1402SOL    HW215840   0.091   3.516  16.703  1.3883 -0.6293 -1.4040
 1403SOL     OW15841   1.968   2.547  17.532 -0.4961  0.1306  0.3553
 1403SOL    HW115842   1.903   2.489  17.571  0.1431 -0.8430 -0.0265
 1403SOL    HW215843   1.961   2.502  17.448  1.3658  0.0987  0.2063
 1404SOL     OW15844   2.986   1.195   6.083 -0.3476 -0.1260 -0.4520
 1404SOL    HW115845   3.051   1.214   6.015  1.1266  0.7528  1.1898
 1404SOL    HW215846   2.909   1.220   6.033  0.6098 -1.7219 -2.7357
 1405SOL     OW15847   4.266   0.350   2.241  0.5870 -0.1425 -0.0466
 1405SOL    HW115848   4.172   0.331   2.242 -0.0395  2.7443 -1.0569
 1405SOL    HW215849   4.284   0.406   2.316 -1.6654  0.6483 -0.0851
 1406SOL     OW15850   1.068   4.302   6.442 -0.1253 -0.1026  0.1944
 1406SOL    HW115851   1.107   4.251   6.370 -1.4703 -0.2597 -0.4156
 1406SOL    HW215852   1.034   4.378   6.396  0.4528 -1.3992 -2.3485
 1407SOL     OW15853   3.646   2.506  13.532  0.3028 -0.4141  0.5520
 1407SOL    HW115854   3.687   2.592  13.534 -2.3455  0.7633  4.5106
 1407SOL    HW215855   3.689   2.464  13.607  1.4200 -1.4824 -0.6937
 1408SOL     OW15856   3.363   2.292   8.048 -0.0139 -0.0446 -0.3468
 1408SOL    HW115857   3.321   2.347   7.981  0.8510 -0.4491 -1.2292
 1408SOL    HW215858   3.296   2.229   8.073 -0.2577  0.2512 -0.2480
 1409SOL     OW15859   3.212   4.617   3.610 -0.0140 -0.2985 -0.3234
 1409SOL    HW115860   3.158   4.541   3.632  1.6109 -1.4585 -0.2817
 1409SOL    HW215861   3.289   4.572   3.575 -0.9637 -1.1731 -1.2645
 1410SOL     OW15862   3.145   1.225   7.194 -0.1838 -0.1624 -0.4060
 1410SOL    HW115863   3.089   1.254   7.122  0.0539 -1.3568 -1.0710
 1410SOL    HW215864   3.232   1.233   7.156 -0.5141 -1.4042 -1.4050
 1411SOL     OW15865   0.147   2.128   3.782 -0.3265  0.3522 -0.3963
 1411SOL    HW115866   0.130   2.041   3.819 -1.8908  0.3021 -1.2040
 1411SOL    HW215867   0.060   2.135   3.743 -0.5855  2.7290  0.6192
 1412SOL     OW15868   1.021   1.105   3.516  0.3465 -0.6033 -0.3279
 1412SOL    HW115869   0.926   1.106   3.527  0.5200  3.7362  0.7110
 1412SOL    HW215870   1.046   1.194   3.542  1.3077 -0.1909 -2.6457
 1413SOL     OW15871   4.649   0.208  12.873  0.0473  0.0974  0.2381
 1413SOL    HW115872   4.681   0.268  12.940 -0.2355  1.0820 -0.5019
 1413SOL    HW215873   4.711   0.136  12.884 -0.4483 -0.5983 -1.4423
 1414SOL     OW15874   2.083   2.463  10.469  0.0748 -0.0316 -0.1261
 1414SOL    HW115875   2.075   2.491  10.560  0.8966 -0.1774 -0.0108
 1414SOL    HW215876   2.178   2.451  10.462  0.1157  0.3806 -0.3171
 1415SOL     OW15877   1.758   2.619   0.681 -0.3461 -0.1398 -0.3006
 1415SOL    HW115878   1.769   2.651   0.591  0.2774  1.9772  0.5140
 1415SOL    HW215879   1.742   2.526   0.668 -1.2444 -0.0963  0.5156
 1416SOL     OW15880   2.728   4.223   3.519  0.1130  0.3025  0.4494
 1416SOL    HW115881   2.821   4.200   3.515  0.2309  0.8654  0.0070
 1416SOL    HW215882   2.729   4.318   3.506  1.1284 -0.0616 -2.1097
 1417SOL     OW15883   0.311   3.360   7.174 -0.1505 -0.1901 -0.3185
 1417SOL    HW115884   0.342   3.279   7.134 -1.0664  0.1211 -1.6539
 1417SOL    HW215885   0.334   3.423   7.106  1.2010 -3.1357 -2.6066
 1418SOL     OW15886   1.814   3.614   9.369 -0.3787 -0.3910 -0.1051
 1418SOL    HW115887   1.818   3.578   9.458 -0.5294 -0.0668  0.0316
 1418SOL    HW215888   1.802   3.707   9.389 -0.7284 -0.2109 -1.1357
 1419SOL     OW15889   3.399   1.417  13.273  0.1668 -0.2807 -0.3642
 1419SOL    HW115890   3.431   1.503  13.244 -0.3041 -0.3595 -1.1177
 1419SOL    HW215891   3.339   1.448  13.342 -0.5954 -2.1878 -0.1777
 1420SOL     OW15892   3.879   2.115   9.115 -1.1097  0.3827  0.3591
 1420SOL    HW115893   3.881   2.087   9.206 -1.1503 -1.3587 -0.1714
 1420SOL    HW215894   3.810   2.181   9.113 -2.7816 -1.3713  0.3397
 1421SOL     OW15895   2.454   1.913   8.638 -0.1118 -0.0619 -0.0430
 1421SOL    HW115896   2.368   1.877   8.661  0.5081 -1.1309  0.5764
 1421SOL    HW215897   2.446   1.921   8.543 -0.1865 -0.4225 -0.0655
 1422SOL     OW15898   3.854   2.972   2.044  0.1170  0.2872  0.3304
 1422SOL    HW115899   3.793   2.911   2.087 -2.9646  1.5935 -2.2472
 1422SOL    HW215900   3.795   3.039   2.009  1.3317  1.5111  0.6694
 1423SOL     OW15901   3.762   2.162   8.435 -0.4637  0.5397 -0.1819
 1423SOL    HW115902   3.766   2.068   8.450 -2.5683  0.2044 -1.7764
 1423SOL    HW215903   3.855   2.179   8.420 -0.7686  1.2550 -1.2578
 1424SOL     OW15904   0.134   0.711   7.391 -1.0947  0.3861  0.0748
 1424SOL    HW115905   0.201   0.722   7.324 -0.0788  0.5993  1.1239
 1424SOL    HW215906   0.123   0.616   7.389 -0.6976  0.3004  1.7266
 1425SOL     OW15907   1.988   2.775   4.261  0.1840 -0.7681  0.1695
 1425SOL    HW115908   1.904   2.807   4.228  0.0008 -0.3877  0.9937
 1425SOL    HW215909   2.040   2.855   4.267 -0.6750 -0.1916 -0.0642
 1426SOL     OW15910   2.035   2.534   5.839 -0.0867 -0.2617 -0.7118
 1426SOL    HW115911   2.052   2.442   5.822  1.2090 -0.1136 -0.2048
 1426SOL    HW215912   2.079   2.566   5.760  0.2742 -1.5564 -1.0352
 1427SOL     OW15913   3.941   0.991   3.710  0.3651 -0.3253 -0.0685
 1427SOL    HW115914   3.941   0.954   3.798 -0.4916  2.3204  1.0442
 1427SOL    HW215915   3.894   0.926   3.659 -1.2407  0.5125  0.3415
 1428SOL     OW15916   2.545   3.736   1.469 -0.0734  0.0753 -0.2987
 1428SOL    HW115917   2.470   3.700   1.516  0.0107 -0.8751 -0.9082
 1428SOL    HW215918   2.539   3.830   1.488 -0.7256  0.2631 -1.4561
 1429SOL     OW15919   2.375   0.557   3.295 -0.8826  0.8742 -0.0869
 1429SOL    HW115920   2.413   0.517   3.217 -2.2161 -0.6644  0.0396
 1429SOL    HW215921   2.426   0.638   3.303 -0.4594  0.6229 -0.2544
 1430SOL     OW15922   1.600   3.361   1.195  0.8488  0.7851 -0.0533
 1430SOL    HW115923   1.506   3.375   1.188  0.6725  0.2187  1.2631
 1430SOL    HW215924   1.635   3.416   1.124 -0.6870  3.2396  1.0987
 1431SOL     OW15925   0.343   1.678   5.747  0.9672 -0.2597 -0.3834
 1431SOL    HW115926   0.252   1.689   5.776  0.5742  1.0868 -2.1147
 1431SOL    HW215927   0.333   1.711   5.657 -1.0986 -0.6810 -0.3180
 1432SOL     OW15928   1.849   2.556   4.448  0.0355  0.0488  0.3982
 1432SOL    HW115929   1.920   2.598   4.497  1.0610 -0.6969 -0.4624
 1432SOL    HW215930   1.827   2.618   4.379 -0.1961 -0.8292 -0.3099
 1433SOL     OW15931   4.443   0.448   7.780 -0.4867 -0.1910 -0.6875
 1433SOL    HW115932   4.476   0.466   7.868 -2.0692  0.2855 -0.1948
 1433SOL    HW215933   4.448   0.532   7.734 -0.9583  0.6163  0.7460
 1434SOL     OW15934   2.168   1.344   2.574  0.3162  0.2893  0.6236
 1434SOL    HW115935   2.073   1.333   2.580  0.0178  1.5968 -1.7262
 1434SOL    HW215936   2.191   1.252   2.560  0.4505  0.3875  0.2019
 1435SOL     OW15937   3.838   0.829   8.454  0.6107 -0.4568 -0.1610
 1435SOL    HW115938   3.757   0.874   8.476  1.5635  1.2530 -0.1566
 1435SOL    HW215939   3.817   0.735   8.457  0.9041 -0.4790  1.1422
 1436SOL     OW15940   0.459   2.617   4.453  0.2206 -0.1533  0.0984
 1436SOL    HW115941   0.532   2.642   4.396 -2.0733  1.5256 -2.1217
 1436SOL    HW215942   0.412   2.701   4.451 -1.0043 -0.8394  0.4549
 1437SOL     OW15943   0.595   1.689   1.555 -0.1338 -0.9801 -0.2449
 1437SOL    HW115944   0.556   1.675   1.641 -1.6531  0.6953 -0.6621
 1437SOL    HW215945   0.667   1.626   1.560 -0.9218 -1.8287  0.3863
 1438SOL     OW15946   1.501   3.064   0.137 -0.2151  0.2028  0.4236
 1438SOL    HW115947   1.417   3.022   0.158 -0.5629 -0.1052 -1.5684
 1438SOL    HW215948   1.563   2.991   0.139  0.8082  1.0175 -1.2093
 1439SOL     OW15949   2.934   4.272   6.102 -0.3187  0.0355 -0.1551
 1439SOL    HW115950   3.025   4.285   6.075  0.3878 -2.4143  1.0109
 1439SOL    HW215951   2.913   4.181   6.085  0.1088 -0.2277  0.7422
 1440SOL     OW15952   1.571   0.221   5.594  0.1709 -0.2219  0.2234
 1440SOL    HW115953   1.519   0.299   5.608 -1.2236 -0.8256 -1.6247
 1440SOL    HW215954   1.635   0.233   5.664 -0.7037  0.3622  0.9090
 1441SOL     OW15955   1.451   4.115   2.578 -0.1333 -0.1775 -0.0719
 1441SOL    HW115956   1.410   4.120   2.492 -0.6055 -0.0965  0.1575
 1441SOL    HW215957   1.370   4.116   2.630  0.1859 -1.3125  0.4603
 1442SOL     OW15958   4.170   2.670   3.063  0.3085 -0.2721 -0.1155
 1442SOL    HW115959   4.081   2.687   3.092  1.0297  2.4712  0.4318
 1442SOL    HW215960   4.187   2.745   3.007 -2.3104 -0.2754 -0.9238
 1443SOL     OW15961   4.429   2.409  10.013  0.9322 -0.1740 -0.0739
 1443SOL    HW115962   4.384   2.491  10.034  1.3586 -0.3630  1.6178
 1443SOL    HW215963   4.485   2.442   9.943  0.3636 -0.5580 -0.7172
 1444SOL     OW15964   0.933   2.545  14.651 -0.0816 -0.5672  0.1348
 1444SOL    HW115965   0.859   2.605  14.666 -0.0002 -0.1014 -1.3165
 1444SOL    HW215966   0.967   2.543  14.740 -0.6624 -2.0960  0.3128
 1445SOL     OW15967   0.932   0.726   3.651  0.2233  0.0404  0.1072
 1445SOL    HW115968   0.945   0.798   3.712 -1.4801  1.2183 -0.9274
 1445SOL    HW215969   0.964   0.780   3.579 -1.4660  1.7214  0.6294
 1446SOL     OW15970   3.560   2.095   4.228  0.2764 -0.3827 -0.4990
 1446SOL    HW115971   3.525   2.134   4.148 -2.8764  1.6374  1.8341
 1446SOL    HW215972   3.629   2.159   4.245  0.1032  0.0135 -1.3079
 1447SOL     OW15973   0.975   0.986  10.950 -0.0364 -0.2706  0.4007
 1447SOL    HW115974   0.890   0.999  10.908  1.4385 -1.3910 -2.9126
 1447SOL    HW215975   0.964   1.062  11.007  3.1936  0.9383 -0.6214
 1448SOL     OW15976   3.694   0.132   5.122 -0.2070 -0.4939 -0.2831
 1448SOL    HW115977   3.789   0.129   5.115 -0.0881  1.2983  0.5895
 1448SOL    HW215978   3.681   0.206   5.063  1.1908 -1.0551 -1.3050
 1449SOL     OW15979   4.120   1.211  12.846 -0.0696 -0.3133  0.4265
 1449SOL    HW115980   4.078   1.157  12.913 -0.6143  0.1469  0.4548
 1449SOL    HW215981   4.175   1.142  12.809 -1.2535 -0.7260 -0.5664
 1450SOL     OW15982   4.485   1.025   4.139  0.4871  0.1214 -0.4563
 1450SOL    HW115983   4.561   1.074   4.107  0.1454  0.3406 -0.9279
 1450SOL    HW215984   4.505   1.008   4.231  2.3103  0.9516 -0.6870
 1451SOL     OW15985   3.812   2.966   6.403  0.2864  0.3938 -0.0876
 1451SOL    HW115986   3.733   3.017   6.384 -0.5287 -0.4567  1.0121
 1451SOL    HW215987   3.806   2.889   6.346 -2.1867  0.4418  0.0924
 1452SOL     OW15988   2.937   2.897  11.532 -0.3064 -0.1750 -0.2464
 1452SOL    HW115989   3.012   2.958  11.530 -1.1084  0.8281  0.1012
 1452SOL    HW215990   2.864   2.955  11.511  0.7670  2.2988  2.7683
 1453SOL     OW15991   1.987   3.614   7.386  0.1480 -0.2864  0.2917
 1453SOL    HW115992   1.893   3.598   7.396 -0.0728  1.8391  1.4441
 1453SOL    HW215993   1.997   3.687   7.325 -0.8883 -3.7182 -4.0666
 1454SOL     OW15994   4.393   3.977   9.117 -0.0200  0.1131 -0.1382
 1454SOL    HW115995   4.442   4.059   9.117  0.7106 -0.3283  2.0460
 1454SOL    HW215996   4.304   4.007   9.098  0.0859  0.0919 -0.6729
 1455SOL     OW15997   0.307   0.750   3.581 -0.0985  0.0425  0.3924
 1455SOL    HW115998   0.379   0.759   3.519  0.9546 -1.2245  1.4353
 1455SOL    HW215999   0.352   0.724   3.661  0.0057 -3.1255 -0.6873
 1456SOL     OW16000   3.496   2.817   3.029  0.6088 -0.0059  0.0177
 1456SOL    HW116001   3.454   2.897   2.996  0.2079 -0.8823 -1.6088
 1456SOL    HW216002   3.513   2.766   2.950 -2.9595 -0.7055 -0.3333
 1457SOL     OW16003   3.220   4.527   3.134  0.2764  0.3246  0.5995
 1457SOL    HW116004   3.139   4.488   3.165  0.1733 -1.0963 -1.4633
 1457SOL    HW216005   3.270   4.456   3.092  0.2420 -0.7452  2.3801
 1458SOL     OW16006   4.030   1.766  12.787  0.5875 -0.4040  0.0114
 1458SOL    HW116007   4.004   1.687  12.833  1.0016 -0.3051  0.4223
 1458SOL    HW216008   4.095   1.731  12.727  1.1537 -1.2489  1.1173
 1459SOL     OW16009   3.421   0.812   3.715  0.9056  0.3429  0.1495
 1459SOL    HW116010   3.350   0.781   3.771  0.9391  0.5497  0.3055
 1459SOL    HW216011   3.485   0.741   3.718 -1.2461 -1.5484  0.7968
 1460SOL     OW16012   2.893   3.682   1.341  0.4745 -0.2849 -0.0441
 1460SOL    HW116013   2.825   3.714   1.282 -0.6564  1.2618  2.0940
 1460SOL    HW216014   2.892   3.590   1.315 -0.1186 -0.0587 -0.8275
 1461SOL     OW16015   3.024   2.712   2.244  0.4205  0.0904  0.0260
 1461SOL    HW116016   3.005   2.712   2.338  2.1427  1.0137  0.3715
 1461SOL    HW216017   3.097   2.773   2.241  1.5645 -1.3391 -0.7319
 1462SOL     OW16018   1.109   1.351   8.652 -0.0170  0.2197  0.4771
 1462SOL    HW116019   1.025   1.308   8.634 -0.2059  1.0063 -0.4996
 1462SOL    HW216020   1.097   1.446   8.641 -2.2598 -0.2953 -1.4974
 1463SOL     OW16021   4.558   1.777   0.946 -0.7729 -0.1128 -0.0703
 1463SOL    HW116022   4.511   1.711   0.997 -0.4259  0.5386  1.0909
 1463SOL    HW216023   4.596   1.834   1.013  0.9888  2.5761 -3.3420
 1464SOL     OW16024   0.328   2.627  12.577  0.4127  0.3525  0.1316
 1464SOL    HW116025   0.310   2.540  12.612 -0.6174  1.3685  2.1225
 1464SOL    HW216026   0.272   2.686  12.627 -0.6842  0.4372 -1.1917
 1465SOL     OW16027   2.335   0.423   4.529 -0.1598  0.4912 -0.2477
 1465SOL    HW116028   2.386   0.392   4.604 -1.9220  1.3331  1.2608
 1465SOL    HW216029   2.264   0.360   4.520 -1.8694  1.9644  3.1635
 1466SOL     OW16030   4.039   1.864   7.294 -0.2813 -0.0652  0.0551
 1466SOL    HW116031   4.078   1.888   7.210  3.3403  1.3172  2.1414
 1466SOL    HW216032   3.958   1.817   7.275  0.0112  0.6915 -2.9399
 1467SOL     OW16033   0.350   2.649   2.643  0.0223  0.4066 -0.4424
 1467SOL    HW116034   0.290   2.723   2.651 -0.8278 -0.4696  1.3089
 1467SOL    HW216035   0.417   2.687   2.586  1.1560 -0.8756  0.0102
 1468SOL     OW16036   0.570   2.931   7.198  0.1959 -0.6629 -0.0571
 1468SOL    HW116037   0.656   2.964   7.172 -0.2708  0.4956 -0.1238
 1468SOL    HW216038   0.602   2.867   7.262 -3.4529 -0.5509  1.9194
 1469SOL     OW16039   0.274   1.512   1.657  0.0844 -0.2048 -0.2098
 1469SOL    HW116040   0.194   1.559   1.682  0.5953  2.4421 -3.5949
 1469SOL    HW216041   0.339   1.571   1.694  0.5206 -0.1550 -1.0543
 1470SOL     OW16042   0.836   2.824  15.398  0.0567 -0.2251 -0.4759
 1470SOL    HW116043   0.789   2.841  15.480 -2.7168  0.4880 -2.2146
 1470SOL    HW216044   0.869   2.910  15.372  1.7360  0.1304  2.7444
 1471SOL     OW16045   2.334   0.692   8.048  0.6306 -0.2788 -0.5434
 1471SOL    HW116046   2.370   0.734   7.970  1.4224 -0.2438 -0.1663
 1471SOL    HW216047   2.416   0.671   8.095  0.5869 -0.6877 -0.6481
 1472SOL     OW16048   2.167   3.622  10.815  0.1021 -0.1370  0.6519
 1472SOL    HW116049   2.162   3.542  10.868  2.3536 -0.8119 -0.1562
 1472SOL    HW216050   2.138   3.696  10.869 -1.0588  1.0697 -1.6328
 1473SOL     OW16051   3.400   0.982   5.451  0.0216  0.0432 -0.0557
 1473SOL    HW116052   3.304   0.987   5.458 -0.0855 -0.3665 -1.1284
 1473SOL    HW216053   3.413   0.907   5.392  0.0296  0.2394 -0.3048
 1474SOL     OW16054   4.395   0.036   0.936  0.0933  0.1495 -0.1597
 1474SOL    HW116055   4.323   0.098   0.923 -0.1365  0.3822  2.1497
 1474SOL    HW216056   4.358   4.692   0.908  0.3556  0.4354 -1.3490
 1475SOL     OW16057   1.560   2.203   0.471  0.6035  0.7927  0.2246
 1475SOL    HW116058   1.551   2.197   0.566 -1.1659  0.2740  0.0180
 1475SOL    HW216059   1.574   2.298   0.460 -0.8443  0.9355 -0.4022
 1476SOL     OW16060   0.381   3.470   8.822  0.1159  0.3933 -0.0669
 1476SOL    HW116061   0.455   3.438   8.770  0.7014  0.1038  0.9447
 1476SOL    HW216062   0.299   3.432   8.789  0.2198  0.5357 -0.4949
 1477SOL     OW16063   1.892   2.462   7.998  0.6173 -0.0981  0.6288
 1477SOL    HW116064   1.977   2.424   8.021 -0.1612 -2.1831  0.0803
 1477SOL    HW216065   1.836   2.385   7.986 -0.4695  0.6493  0.9507
 1478SOL     OW16066   4.398   4.431   3.179 -0.2353 -0.2229  0.0271
 1478SOL    HW116067   4.416   4.507   3.234 -1.6816 -0.1271  0.3677
 1478SOL    HW216068   4.303   4.432   3.190  0.0824  0.2187  2.9576
 1479SOL     OW16069   2.573   2.663   5.628  0.4805  0.4194 -0.0784
 1479SOL    HW116070   2.633   2.700   5.563  2.0330  0.1973  1.2269
 1479SOL    HW216071   2.526   2.605   5.568  0.8322 -0.2680  0.3158
 1480SOL     OW16072   2.826   0.524   2.456  0.6146 -0.2355 -0.5375
 1480SOL    HW116073   2.826   0.492   2.366 -1.1642 -0.3150 -0.5113
 1480SOL    HW216074   2.814   0.619   2.452  1.4156 -0.2692 -3.2878
 1481SOL     OW16075   2.087   4.230   8.356 -0.5436 -0.2837 -0.1477
 1481SOL    HW116076   2.088   4.323   8.380 -2.7450 -0.9716  2.6151
 1481SOL    HW216077   2.174   4.202   8.386 -0.4234  1.8698  1.5387
 1482SOL     OW16078   1.232   2.408   7.306  0.0115  0.2686 -0.9243
 1482SOL    HW116079   1.267   2.362   7.229 -0.4226  1.6033 -1.9148
 1482SOL    HW216080   1.247   2.350   7.380  1.9718  1.2389 -0.5519
 1483SOL     OW16081   1.724   3.602   3.559  0.3258  0.2843 -0.2474
 1483SOL    HW116082   1.769   3.617   3.642  1.9585  3.1389 -1.6519
 1483SOL    HW216083   1.653   3.551   3.598  1.1709 -1.2733 -0.7528
 1484SOL     OW16084   2.140   3.729  11.947 -0.2044  0.1536  0.0898
 1484SOL    HW116085   2.154   3.777  12.029 -3.6867  0.2579  0.6141
 1484SOL    HW216086   2.135   3.801  11.885 -0.1628  0.6163  0.6207
 1485SOL     OW16087   4.344   4.345   5.134 -0.4546 -0.5139  0.2907
 1485SOL    HW116088   4.305   4.431   5.119 -0.9437 -1.0253 -1.4051
 1485SOL    HW216089   4.275   4.308   5.190 -0.2199  0.3432  1.1362
 1486SOL     OW16090   1.157   2.605   3.172  0.6440 -0.3114 -0.2699
 1486SOL    HW116091   1.176   2.698   3.179  2.0262 -0.5746 -0.4460
 1486SOL    HW216092   1.214   2.575   3.100  1.3492 -0.4406  0.3387
 1487SOL     OW16093   0.731   2.148   6.637  0.2606  0.2144  0.3127
 1487SOL    HW116094   0.646   2.177   6.604 -0.5078 -0.6325  1.5267
 1487SOL    HW216095   0.736   2.061   6.598 -1.1442  0.7840 -1.1506
 1488SOL     OW16096   3.583   1.042   2.215  0.4822  0.2661 -0.2682
 1488SOL    HW116097   3.599   1.133   2.238  3.9782 -0.5322  0.4559
 1488SOL    HW216098   3.672   1.020   2.187  0.1997 -1.1280 -0.0745
 1489SOL     OW16099   2.350   4.233   6.424 -0.5983  0.0779  0.0359
 1489SOL    HW116100   2.350   4.313   6.476 -2.9570 -1.1130  1.8501
 1489SOL    HW216101   2.395   4.177   6.487 -1.4724  0.0652  0.6438
 1490SOL     OW16102   1.706   0.979   0.115 -0.0737 -0.5952 -0.6376
 1490SOL    HW116103   1.737   1.068   0.130 -0.6629 -0.8034  1.7118
 1490SOL    HW216104   1.727   0.969   0.022 -0.6444 -0.3779 -0.7873
 1491SOL     OW16105   2.437   1.061  12.281 -0.3589 -0.1073  0.3050
 1491SOL    HW116106   2.390   1.126  12.228 -3.7879 -2.0339  0.9572
 1491SOL    HW216107   2.386   0.981  12.270  1.4502 -1.6861  3.2957
 1492SOL     OW16108   3.063   0.707  11.556 -0.2621 -0.2091 -0.0197
 1492SOL    HW116109   3.043   0.776  11.493 -1.3714  0.2263  0.8047
 1492SOL    HW216110   3.005   0.642  11.517  0.0448 -1.4979  1.6721
 1493SOL     OW16111   1.350   2.250   7.065  0.0820  0.4000 -0.0173
 1493SOL    HW116112   1.342   2.154   7.070  0.8152  0.1408 -4.0558
 1493SOL    HW216113   1.277   2.279   7.010 -0.5819 -1.3862 -0.1030
 1494SOL     OW16114   2.119   0.771   7.239  0.0025 -0.3539  0.3238
 1494SOL    HW116115   2.119   0.863   7.263  0.5571 -0.0760 -0.7366
 1494SOL    HW216116   2.030   0.747   7.264 -1.0160  1.4794 -1.6494
 1495SOL     OW16117   4.589   0.105   7.186 -0.2853 -0.1209  0.0734
 1495SOL    HW116118   4.509   0.086   7.235 -0.9550 -0.2581 -1.0918
 1495SOL    HW216119   4.582   0.200   7.196 -1.5039 -0.3454  1.3931
 1496SOL     OW16120   1.572   2.138  12.176  0.3305  0.4311 -0.5787
 1496SOL    HW116121   1.631   2.119  12.102  2.4714  0.7246  1.0319
 1496SOL    HW216122   1.565   2.058  12.228  2.8630 -0.4056 -1.5221
 1497SOL     OW16123   2.441   2.653  12.799  0.6087  0.2279  0.4186
 1497SOL    HW116124   2.433   2.649  12.894 -0.7566 -2.4203  0.2152
 1497SOL    HW216125   2.510   2.589  12.780  0.3445 -0.6015  2.2493
 1498SOL     OW16126   1.117   1.038   4.825  0.3054  0.0296  0.0445
 1498SOL    HW116127   1.127   0.943   4.824  0.5423  0.0605 -1.6916
 1498SOL    HW216128   1.186   1.056   4.761 -1.3802 -0.8835 -2.0163
 1499SOL     OW16129   1.377   2.564   1.682 -0.6017  0.1410 -0.7302
 1499SOL    HW116130   1.462   2.549   1.640 -0.4325 -1.0901  0.0477
 1499SOL    HW216131   1.335   2.483   1.652  0.3331 -1.2031  1.5513
 1500SOL     OW16132   2.682   4.644   4.743  0.2356  0.4286  0.1900
 1500SOL    HW116133   2.612   4.657   4.807 -1.7814  1.4543 -2.1974
 1500SOL    HW216134   2.722   4.572   4.791 -1.9134 -0.6174  0.4106
 1501SOL     OW16135   4.300   2.408   7.418 -0.4125  0.1886 -0.3674
 1501SOL    HW116136   4.369   2.383   7.480  1.8403  2.4224 -1.9678
 1501SOL    HW216137   4.279   2.316   7.403 -0.6946  0.3796 -1.1631
 1502SOL     OW16138   1.395   1.077  11.540 -0.3965 -0.7262  0.2803
 1502SOL    HW116139   1.377   1.171  11.545 -1.0732 -0.9009  1.3528
 1502SOL    HW216140   1.426   1.073  11.450  0.0827  2.7415  0.2765
 1503SOL     OW16141   3.307   3.525  10.095 -0.3228  0.4916 -0.2531
 1503SOL    HW116142   3.371   3.596  10.090 -0.2737  0.5380  1.1366
 1503SOL    HW216143   3.322   3.498  10.186  1.0973  0.0814 -0.6141
 1504SOL     OW16144   2.577   4.201   4.235  0.0226  0.7689 -0.0087
 1504SOL    HW116145   2.566   4.117   4.279  1.1709  0.9750  0.6562
 1504SOL    HW216146   2.494   4.244   4.257 -0.6779  0.1661 -1.4726
 1505SOL     OW16147   1.517   1.041   3.266  0.4242 -0.2933 -0.3314
 1505SOL    HW116148   1.423   1.053   3.262  0.8275  2.7847 -0.3121
 1505SOL    HW216149   1.546   1.132   3.268 -1.0726  0.1629  0.1289
 1506SOL     OW16150   0.598   0.887   3.183 -0.2732 -0.5217  0.2558
 1506SOL    HW116151   0.673   0.828   3.173  0.0895 -0.0035 -0.0838
 1506SOL    HW216152   0.626   0.971   3.147 -0.0505 -1.8626 -2.7096
 1507SOL     OW16153   2.401   2.128  12.470  0.0997 -0.2304 -0.2631
 1507SOL    HW116154   2.334   2.154  12.407 -1.8540 -1.2121  1.4079
 1507SOL    HW216155   2.471   2.188  12.444  0.4191 -0.1850  0.6892
 1508SOL     OW16156   4.065   3.996   6.868 -0.1769 -0.2405  0.0052
 1508SOL    HW116157   4.018   3.939   6.929  0.1677 -0.3512  0.1616
 1508SOL    HW216158   3.992   4.010   6.807 -1.0650  1.3428  1.4135
 1509SOL     OW16159   2.352   1.192   9.435 -0.2252 -0.5713 -0.5034
 1509SOL    HW116160   2.335   1.153   9.521  1.5027 -1.7760 -0.6904
 1509SOL    HW216161   2.442   1.222   9.449 -1.7982  2.1839  3.4825
 1510SOL     OW16162   2.137   3.693   5.481 -0.9093  0.0569 -0.1038
 1510SOL    HW116163   2.192   3.728   5.551 -0.0156  0.2224 -0.8933
 1510SOL    HW216164   2.193   3.697   5.404 -1.9071 -0.9375 -0.8917
 1511SOL     OW16165   2.231   3.413  11.758 -0.2779 -0.2233 -0.4965
 1511SOL    HW116166   2.298   3.345  11.746  0.2987  0.3285 -0.3605
 1511SOL    HW216167   2.205   3.451  11.674 -0.6700  0.2758 -0.1480
 1512SOL     OW16168   4.643   2.945   2.009 -0.5483 -0.1282  0.2800
 1512SOL    HW116169   4.594   2.889   2.070  0.6977 -0.4485  0.9822
 1512SOL    HW216170   4.709   2.886   1.973 -0.7105 -0.4701  0.5406
 1513SOL     OW16171   4.079   3.693  12.876  0.4623  0.3113  0.0829
 1513SOL    HW116172   4.114   3.614  12.918 -0.8292 -1.1780 -1.6492
 1513SOL    HW216173   4.112   3.681  12.787 -4.0248 -5.0281 -0.7982
 1514SOL     OW16174   2.509   4.257  16.482  0.1372  0.2631 -0.0431
 1514SOL    HW116175   2.489   4.182  16.538  4.5584  0.1468  1.3955
 1514SOL    HW216176   2.575   4.306  16.532  0.0823  0.7569 -0.4574
 1515SOL     OW16177   4.476   2.071   3.163  0.1328 -0.4088  0.4549
 1515SOL    HW116178   4.505   2.110   3.246 -0.4191  2.8970 -0.9221
 1515SOL    HW216179   4.522   1.988   3.178  1.0051 -0.0947 -0.4616
 1516SOL     OW16180   4.469   2.437   7.987  0.2400 -0.2325 -0.2981
 1516SOL    HW116181   4.378   2.436   7.957  0.0229  0.7590  0.3193
 1516SOL    HW216182   4.470   2.365   8.050 -0.6870 -2.1635 -2.5222
 1517SOL     OW16183   4.320   1.447   5.573 -0.6748 -0.3196  0.1482
 1517SOL    HW116184   4.362   1.501   5.640 -1.5065  0.3643  0.1126
 1517SOL    HW216185   4.353   1.358   5.584  0.5430  0.2889  1.3192
 1518SOL     OW16186   3.647   3.245   5.866  0.2263  0.0316 -0.4287
 1518SOL    HW116187   3.728   3.246   5.814  0.8814 -1.5078  0.5752
 1518SOL    HW216188   3.591   3.304   5.816 -0.8558 -0.8099 -0.2071
 1519SOL     OW16189   2.764   3.523   9.258 -0.3146  0.3552  0.6389
 1519SOL    HW116190   2.817   3.504   9.181  0.7541  0.1244  1.4335
 1519SOL    HW216191   2.730   3.611   9.240  0.1911  0.2670 -0.7136
 1520SOL     OW16192   2.671   0.135  14.451 -0.5899 -0.6432  0.2787
 1520SOL    HW116193   2.608   0.188  14.402 -0.6465 -1.6382 -0.7106
 1520SOL    HW216194   2.746   0.194  14.454 -1.8113  1.0239 -1.9022
 1521SOL     OW16195   4.204   4.533   2.420 -0.3593  0.9237 -0.2361
 1521SOL    HW116196   4.294   4.502   2.410 -0.2792  1.4382 -1.1100
 1521SOL    HW216197   4.169   4.467   2.480  1.6336 -0.3262 -0.4303
 1522SOL     OW16198   1.197   1.824   0.360 -0.0951  0.6159  0.2642
 1522SOL    HW116199   1.253   1.868   0.297  0.9899 -0.0108  0.7908
 1522SOL    HW216200   1.145   1.899   0.388  1.4475  2.0729 -0.7901
 1523SOL     OW16201   0.781   1.490  14.355  0.0974 -0.3614  0.2114
 1523SOL    HW116202   0.703   1.443  14.325  1.0060 -1.8029  0.1250
 1523SOL    HW216203   0.744   1.574  14.383  1.7722  0.8337 -1.1695
 1524SOL     OW16204   3.704   1.736   3.093 -0.2908 -0.2854  0.1814
 1524SOL    HW116205   3.724   1.673   3.024 -2.7037  1.9184 -2.5568
 1524SOL    HW216206   3.639   1.795   3.054 -0.3953 -0.4177  0.1514
 1525SOL     OW16207   1.024   4.427   2.537  0.4103 -0.2433  0.8516
 1525SOL    HW116208   1.080   4.495   2.575 -0.8430  1.0666  0.3530
 1525SOL    HW216209   1.015   4.463   2.449  0.1429 -0.6164  0.7261
 1526SOL     OW16210   2.565   0.031   2.248  0.3621  0.1334 -0.1504
 1526SOL    HW116211   2.529   0.110   2.289  3.5760  1.2475  0.5097
 1526SOL    HW216212   2.657   0.040   2.274  0.3686 -1.1967  0.3094
 1527SOL     OW16213   0.886   1.148   2.232  0.0534 -0.5670  0.4733
 1527SOL    HW116214   0.810   1.089   2.228 -0.4927  0.1849 -0.2728
 1527SOL    HW216215   0.925   1.130   2.146 -0.1050 -0.2588  0.3355
 1528SOL     OW16216   2.488   1.030  16.683  0.5213 -0.3216 -0.4893
 1528SOL    HW116217   2.555   1.088  16.648  1.4884 -1.9582 -1.3713
 1528SOL    HW216218   2.416   1.028  16.620  0.9934 -1.7697 -0.9990
 1529SOL     OW16219   3.894   2.404   5.869  0.2258  0.0615 -0.2933
 1529SOL    HW116220   3.933   2.491   5.859  0.5849  0.0741  1.2681
 1529SOL    HW216221   3.963   2.345   5.838 -0.0361 -0.8143  0.7966
 1530SOL     OW16222   1.144   4.336   8.220 -0.3676 -0.0478 -0.3400
 1530SOL    HW116223   1.189   4.386   8.287 -2.2266  0.3940  0.5884
 1530SOL    HW216224   1.149   4.246   8.252 -0.3765  0.4814  1.1332
 1531SOL     OW16225   3.912   0.370   7.922  0.2728 -0.3968 -0.3752
 1531SOL    HW116226   3.921   0.280   7.891  1.3323 -0.2981 -0.3546
 1531SOL    HW216227   3.918   0.361   8.017 -0.3388  1.0164 -0.2029
 1532SOL     OW16228   1.480   1.476  13.736 -0.2717 -0.4649  0.4458
 1532SOL    HW116229   1.401   1.511  13.694 -1.2961 -3.5607 -0.2140
 1532SOL    HW216230   1.476   1.497  13.829 -2.1511 -0.9757  0.4825
 1533SOL     OW16231   4.550   4.144   3.852  0.2134 -0.0941  0.4306
 1533SOL    HW116232   4.511   4.148   3.764  1.1419 -0.3220  0.0028
 1533SOL    HW216233   4.588   4.056   3.851 -2.1508 -1.1243  1.7756
 1534SOL     OW16234   4.171   1.275   6.086 -0.0496 -0.1156 -0.2822
 1534SOL    HW116235   4.235   1.309   6.023  0.5779 -1.1351 -0.1941
 1534SOL    HW216236   4.202   1.314   6.168 -2.8330  1.3295  0.0929
 1535SOL     OW16237   0.607   1.227   4.725 -0.0757 -0.5885  0.4546
 1535SOL    HW116238   0.580   1.316   4.751 -0.9735 -0.5034 -0.8146
 1535SOL    HW216239   0.693   1.229   4.682  0.2379  1.4187  1.1562
 1536SOL     OW16240   2.980   4.565  11.051 -0.0088  0.5080 -0.6556
 1536SOL    HW116241   3.033   4.626  11.103  0.8922  0.0558 -1.0467
 1536SOL    HW216242   3.007   4.577  10.960  2.7159  1.6421  0.3024
 1537SOL     OW16243   4.662   2.862  11.409 -0.2995 -0.4689 -0.3413
 1537SOL    HW116244   4.574   2.875  11.445 -0.3347  1.3670 -1.0972
 1537SOL    HW216245   4.717   2.886  11.483  0.1716  0.6485 -1.0558
 1538SOL     OW16246   2.052   1.540   5.082  0.3408  0.4715  0.5354
 1538SOL    HW116247   2.084   1.623   5.119 -0.8531  0.2932  1.9753
 1538SOL    HW216248   2.131   1.500   5.047 -1.9197 -2.1011 -1.6212
 1539SOL     OW16249   1.994   3.293   1.249 -0.1458  0.2978  0.0181
 1539SOL    HW116250   1.919   3.317   1.304 -0.2049  0.1847 -0.0122
 1539SOL    HW216251   1.985   3.198   1.248 -2.4839  0.5112  0.5161
 1540SOL     OW16252   4.119   2.564   7.150 -0.4973  0.5066  0.6355
 1540SOL    HW116253   4.213   2.552   7.154 -0.9529 -2.9728  1.0755
 1540SOL    HW216254   4.102   2.565   7.056 -0.0055  0.1882  0.5445
 1541SOL     OW16255   2.138   0.775   3.060 -0.5283 -0.0020  0.2370
 1541SOL    HW116256   2.194   0.827   3.002 -0.8716  0.4521  0.3191
 1541SOL    HW216257   2.163   0.684   3.042 -0.1421  0.4085 -1.3606
 1542SOL     OW16258   3.811   0.451   9.576  0.3346  0.0343  0.1833
 1542SOL    HW116259   3.798   0.498   9.494 -3.8852 -1.5213 -0.0169
 1542SOL    HW216260   3.723   0.418   9.594  1.1563 -0.7982  2.6887
 1543SOL     OW16261   0.961   2.766   5.697  0.7772 -0.7133  0.1078
 1543SOL    HW116262   1.032   2.703   5.681  2.2761  1.4898 -1.8576
 1543SOL    HW216263   0.968   2.807   5.611 -0.6986  0.6486  0.6494
 1544SOL     OW16264   2.806   3.515   5.573  0.3232  0.4663  0.2658
 1544SOL    HW116265   2.883   3.572   5.581  0.6533  0.1735 -0.8559
 1544SOL    HW216266   2.840   3.468   5.497  2.7627  2.9031 -0.1640
 1545SOL     OW16267   3.499   1.396  17.201  0.7042  0.8505  0.5020
 1545SOL    HW116268   3.487   1.468  17.139 -0.4626  0.4867  0.3055
 1545SOL    HW216269   3.588   1.380  17.169  0.5915 -2.5302  1.8505
 1546SOL     OW16270   2.254   0.278  11.575 -1.0336  0.4969 -0.1021
 1546SOL    HW116271   2.211   0.234  11.647  1.6854 -0.9681  0.6446
 1546SOL    HW216272   2.314   0.206  11.557 -0.3211  0.9373  0.4843
 1547SOL     OW16273   1.935   2.274  11.727  0.0110 -0.5192 -0.8722
 1547SOL    HW116274   1.945   2.326  11.648 -0.7614  0.5351 -0.2804
 1547SOL    HW216275   1.963   2.316  11.809  1.8523  0.8690 -2.2272
 1548SOL     OW16276   4.250   3.762   9.816  0.1452 -0.3713  0.5035
 1548SOL    HW116277   4.338   3.739   9.788 -0.8215  0.1443 -3.0214
 1548SOL    HW216278   4.223   3.670   9.823  1.8450 -0.7704  1.7902
 1549SOL     OW16279   4.373   1.720  13.307 -0.2216  0.0334 -0.0439
 1549SOL    HW116280   4.390   1.719  13.401 -0.2504  1.5524 -0.0238
 1549SOL    HW216281   4.414   1.797  13.268 -0.4980  0.1393 -0.1220
 1550SOL     OW16282   3.759   4.470   4.789  0.2927  0.6216 -0.0305
 1550SOL    HW116283   3.765   4.453   4.695  0.2858 -0.2634  0.1340
 1550SOL    HW216284   3.693   4.540   4.785  0.4668  0.7439 -0.7584
 1551SOL     OW16285   3.332   4.601  10.308 -0.0664  0.3753  0.1389
 1551SOL    HW116286   3.301   4.523  10.355  0.2932  0.1159 -0.0551
 1551SOL    HW216287   3.411   4.565  10.268 -0.4540 -0.6071  0.2529
 1552SOL     OW16288   0.652   0.841  12.820  0.2344 -0.2213 -0.2930
 1552SOL    HW116289   0.645   0.769  12.883 -4.7805 -0.2399 -0.8706
 1552SOL    HW216290   0.579   0.820  12.762 -0.3742 -0.9949  0.7470
 1553SOL     OW16291   4.158   1.126   8.041 -0.1783 -1.1207  0.1752
 1553SOL    HW116292   4.073   1.142   8.080 -0.2089 -0.7255 -0.0596
 1553SOL    HW216293   4.157   1.176   7.960 -3.3542 -1.5973 -0.0610
 1554SOL     OW16294   3.325   4.435   3.901 -0.2445 -0.5657 -0.1184
 1554SOL    HW116295   3.269   4.500   3.943 -0.1108 -1.1585  0.9800
 1554SOL    HW216296   3.280   4.447   3.817 -1.5161 -1.3341  0.4470
 1555SOL     OW16297   2.296   1.152   8.903 -0.4523  0.2780 -0.1906
 1555SOL    HW116298   2.387   1.175   8.883 -1.1619  2.2660 -1.1066
 1555SOL    HW216299   2.308   1.058   8.916 -0.2225  0.3262 -0.0483
 1556SOL     OW16300   4.123   3.326   6.211 -0.2098 -0.0649  0.3335
 1556SOL    HW116301   4.200   3.367   6.251  0.5860 -0.7396 -0.5149
 1556SOL    HW216302   4.078   3.291   6.288 -0.2987  1.0552  0.7879
 1557SOL     OW16303   3.036   2.595   8.295 -0.5134 -0.2101 -0.3653
 1557SOL    HW116304   2.994   2.539   8.230  0.6819  0.5075 -1.7646
 1557SOL    HW216305   3.076   2.523   8.343 -1.5942 -0.5529  0.0338
 1558SOL     OW16306   0.506   3.006   1.594 -0.6022 -0.1760  0.0287
 1558SOL    HW116307   0.512   2.982   1.686 -0.5109 -1.4082 -0.3030
 1558SOL    HW216308   0.496   3.101   1.601 -0.7317 -0.3495  2.1609
 1559SOL     OW16309   3.220   1.967   0.445  0.3177 -0.1149  0.7357
 1559SOL    HW116310   3.269   1.887   0.465  0.3423  0.2859  2.2862
 1559SOL    HW216311   3.143   1.956   0.501  0.6274  0.8584  1.3662
 1560SOL     OW16312   1.683   4.520  16.879 -0.0247  0.2993 -1.1120
 1560SOL    HW116313   1.617   4.455  16.903 -1.8380  1.5086 -2.8439
 1560SOL    HW216314   1.761   4.491  16.927 -1.3490 -1.6142 -0.1144
 1561SOL     OW16315   0.039   1.932  15.969  0.7792  0.6418 -0.1084
 1561SOL    HW116316   0.120   1.928  16.019  1.3638 -2.5375 -1.3247
 1561SOL    HW216317   0.052   2.011  15.915  0.4206 -0.8489 -2.3737
 1562SOL     OW16318   4.734   2.364   9.413  0.3586 -0.3697  0.2470
 1562SOL    HW116319   4.688   2.443   9.441 -0.2786 -0.2749 -1.0526
 1562SOL    HW216320   4.683   2.295   9.457  0.1780 -1.5375 -1.7967
 1563SOL     OW16321   3.621   4.160   0.025 -0.4223  0.0777  0.4484
 1563SOL    HW116322   3.662   4.073   0.027 -2.1568 -0.7092  1.1681
 1563SOL    HW216323   3.662   4.208   0.097  0.0011  1.5681 -0.7790
 1564SOL     OW16324   3.420   0.603   9.127  0.3446 -0.4418 -0.4515
 1564SOL    HW116325   3.396   0.539   9.060 -1.6997  0.6102 -0.7147
 1564SOL    HW216326   3.513   0.624   9.124  0.4705 -0.9999 -0.5857
 1565SOL     OW16327   0.111   2.817   3.763  0.0171  0.1584 -0.5496
 1565SOL    HW116328   0.178   2.840   3.698  2.3573 -2.8550  0.8147
 1565SOL    HW216329   0.054   2.759   3.712 -0.3443  1.2370 -1.3915
 1566SOL     OW16330   1.914   1.619   0.633  0.3032  0.8404 -0.0180
 1566SOL    HW116331   1.954   1.704   0.655 -0.7240  0.4948  3.2530
 1566SOL    HW216332   1.996   1.571   0.641  1.3060  2.4604 -0.4173
 1567SOL     OW16333   0.104   0.919   8.173  0.2015 -0.3586  0.5439
 1567SOL    HW116334   0.031   0.957   8.223  0.7412 -0.4584  1.4065
 1567SOL    HW216335   0.090   0.967   8.092  0.7736  2.5538  2.1353
 1568SOL     OW16336   2.611   2.632   0.668 -0.2506  0.0524 -0.1480
 1568SOL    HW116337   2.531   2.580   0.669  1.1298 -2.0393  0.5661
 1568SOL    HW216338   2.590   2.694   0.597  2.2836  0.1542 -0.8119
 1569SOL     OW16339   1.690   2.321   4.442 -0.2583 -0.4570 -0.2298
 1569SOL    HW116340   1.688   2.392   4.506  1.1516  1.3852 -2.2390
 1569SOL    HW216341   1.783   2.300   4.448 -0.6374 -1.6562  1.5226
 1570SOL     OW16342   3.610   2.335  16.913  0.1867 -0.0405 -0.0722
 1570SOL    HW116343   3.575   2.251  16.943  0.3522  0.5452  1.7728
 1570SOL    HW216344   3.537   2.370  16.863 -1.1230 -2.1076  0.3659
 1571SOL     OW16345   2.941   2.401   1.969 -0.2976  0.3901 -0.2926
 1571SOL    HW116346   2.869   2.345   2.001 -0.2935  0.9589  0.7003
 1571SOL    HW216347   3.005   2.395   2.040 -0.6845  0.1918  0.0430
 1572SOL     OW16348   4.564   3.582   9.445 -0.4033  0.4376 -0.2883
 1572SOL    HW116349   4.544   3.619   9.531  1.7212  1.3996 -0.2064
 1572SOL    HW216350   4.565   3.661   9.392  0.8154  1.1210  0.7595
 1573SOL     OW16351   2.854   3.931   5.067 -0.0513 -0.3651 -0.5709
 1573SOL    HW116352   2.915   3.871   5.025  1.0163 -0.4147  1.0248
 1573SOL    HW216353   2.769   3.895   5.043  0.3305 -0.7538 -1.3380
 1574SOL     OW16354   1.539   2.456   7.027  0.2383 -0.5552  0.4398
 1574SOL    HW116355   1.584   2.416   6.953  0.8916 -1.7030  1.4514
 1574SOL    HW216356   1.482   2.388   7.063 -2.6016  1.7166  0.2483
 1575SOL     OW16357   4.549   1.308   2.498  0.4223 -0.3758 -0.6916
 1575SOL    HW116358   4.537   1.347   2.412 -2.2121 -0.2215 -0.2300
 1575SOL    HW216359   4.643   1.295   2.486  0.6519  1.2352 -0.7071
 1576SOL     OW16360   1.631   1.390   5.394  0.0123 -0.0484  0.0150
 1576SOL    HW116361   1.666   1.307   5.361  0.4025  0.3737 -0.6344
 1576SOL    HW216362   1.678   1.446   5.333  2.0759  0.5785  2.1874
 1577SOL     OW16363   3.632   1.700   5.552 -0.1507  0.2056  0.0698
 1577SOL    HW116364   3.562   1.641   5.524 -1.4050  2.3222 -1.2393
 1577SOL    HW216365   3.605   1.784   5.515  1.7298  1.7593  2.2282
 1578SOL     OW16366   1.627   3.321   9.146 -0.0693  0.2624 -0.1751
 1578SOL    HW116367   1.542   3.281   9.161 -1.3671  1.9926 -2.8382
 1578SOL    HW216368   1.635   3.367   9.229  0.4619 -0.5038  0.2033
 1579SOL     OW16369   4.636   1.364   5.505  0.4794  0.0795  0.3402
 1579SOL    HW116370   4.714   1.352   5.451  0.2846 -0.0703  0.0917
 1579SOL    HW216371   4.641   1.453   5.539 -2.2855 -0.3246  1.8011
 1580SOL     OW16372   1.854   2.991   5.731  0.1593 -0.2018 -0.1491
 1580SOL    HW116373   1.914   3.004   5.804 -1.1172  1.1429  0.6549
 1580SOL    HW216374   1.864   3.072   5.682 -0.2895 -0.4719 -0.6960
 1581SOL     OW16375   4.445   2.216   8.126  0.0552 -0.5272 -0.0868
 1581SOL    HW116376   4.468   2.220   8.219 -0.5910  1.2437 -0.0002
 1581SOL    HW216377   4.374   2.151   8.126  0.7228 -1.2585  2.4373
 1582SOL     OW16378   3.606   3.466   7.001 -0.7697  0.0943 -0.4693
 1582SOL    HW116379   3.543   3.412   6.953 -2.3740  1.6075 -0.0866
 1582SOL    HW216380   3.549   3.469   7.077  1.9604 -0.9144  1.6034
 1583SOL     OW16381   3.340   0.331   6.073 -0.3487  0.5957 -0.6174
 1583SOL    HW116382   3.335   0.274   6.150  0.7697 -0.2076 -1.1409
 1583SOL    HW216383   3.365   0.412   6.118  0.1167  0.2364 -0.2254
 1584SOL     OW16384   0.134   2.981   6.781 -0.0494  0.0129 -0.2196
 1584SOL    HW116385   0.167   3.070   6.794  0.0478 -0.2478  1.3224
 1584SOL    HW216386   0.155   2.968   6.689  1.4922 -0.1029  0.1588
 1585SOL     OW16387   4.637   3.955   7.340 -0.2559  0.1928 -0.4371
 1585SOL    HW116388   4.601   4.016   7.275  0.6172 -0.3068 -1.3855
 1585SOL    HW216389   4.727   3.987   7.346  0.5627 -2.8307  3.8130
 1586SOL     OW16390   2.906   1.624   7.294  0.0617 -0.0384 -0.0333
 1586SOL    HW116391   2.822   1.612   7.251 -0.7482  2.5015  0.7812
 1586SOL    HW216392   2.878   1.626   7.386 -1.0376 -1.9434 -0.3253
 1587SOL     OW16393   0.524   1.058   6.748  0.1728 -0.2759  0.5529
 1587SOL    HW116394   0.585   1.001   6.796 -0.0532 -1.0344 -0.0644
 1587SOL    HW216395   0.501   0.989   6.686 -0.7972 -0.1246  0.7433
 1588SOL     OW16396   1.096   1.749   7.919  0.0233 -0.7006 -0.1623
 1588SOL    HW116397   1.026   1.762   7.855 -0.9384 -1.7728  0.6729
 1588SOL    HW216398   1.143   1.831   7.902  0.2816 -0.6187  0.9442
 1589SOL     OW16399   3.628   0.367   6.336  0.3703 -0.3827  0.0392
 1589SOL    HW116400   3.534   0.370   6.317  0.3513  1.7124  0.4590
 1589SOL    HW216401   3.654   0.457   6.315  3.8767 -0.8092  2.4570
 1590SOL     OW16402   1.129   0.094   2.677 -0.0204  0.7437 -0.2467
 1590SOL    HW116403   1.164   0.040   2.606  1.0672  0.3717  0.5696
 1590SOL    HW216404   1.132   0.180   2.634 -0.2074 -0.8211 -3.3392
 1591SOL     OW16405   0.953   2.053   5.088  0.1360  0.3278  0.5395
 1591SOL    HW116406   0.988   2.104   5.161 -1.1532  1.6015  0.2667
 1591SOL    HW216407   0.886   2.112   5.055 -0.1391  0.1502  0.7836
 1592SOL     OW16408   4.623   1.460   8.671 -0.0553  0.3462  0.1104
 1592SOL    HW116409   4.651   1.551   8.686 -2.9872  1.5209 -1.6151
 1592SOL    HW216410   4.587   1.450   8.583 -0.4587 -0.4387  0.3708
 1593SOL     OW16411   4.144   2.509   4.953 -0.4468  0.0798  0.0816
 1593SOL    HW116412   4.172   2.597   4.978 -0.5285 -0.1775  1.0779
 1593SOL    HW216413   4.184   2.496   4.866  1.5618  0.5458  0.9303
 1594SOL     OW16414   1.077   3.836   8.600 -0.0037  1.0161 -0.1058
 1594SOL    HW116415   1.075   3.928   8.571 -1.7215  1.2216  0.6727
 1594SOL    HW216416   1.044   3.847   8.689 -0.0150 -2.7834  0.3514
 1595SOL     OW16417   3.748   1.663   2.402  0.2294  0.1663  0.0913
 1595SOL    HW116418   3.741   1.669   2.307  1.2951 -2.3828 -0.1518
 1595SOL    HW216419   3.842   1.642   2.401  0.5872  1.6381  2.6108
 1596SOL     OW16420   2.585   1.792   5.519 -0.4316  0.6705  0.2129
 1596SOL    HW116421   2.657   1.733   5.543  1.4194  3.0999  0.5481
 1596SOL    HW216422   2.615   1.878   5.545  0.0749  0.8720 -1.0281
 1597SOL     OW16423   3.474   3.586   8.723 -0.3352 -0.3014 -0.4682
 1597SOL    HW116424   3.423   3.646   8.668  0.2377  1.1113  0.5242
 1597SOL    HW216425   3.485   3.636   8.804  1.6074  1.1314 -1.6193
 1598SOL     OW16426   2.157   1.009   9.811 -0.3772  0.0198  0.7043
 1598SOL    HW116427   2.109   0.992   9.892  0.3220  1.3069  1.3823
 1598SOL    HW216428   2.092   1.055   9.757 -0.2992 -1.6507 -0.8268
 1599SOL     OW16429   0.555   4.258   2.081 -0.1803 -1.0293 -0.3998
 1599SOL    HW116430   0.498   4.257   2.004  0.3724  1.2296 -0.8404
 1599SOL    HW216431   0.625   4.207   2.041  2.0549  0.1531  2.0319
 1600SOL     OW16432   3.409   0.986   7.032 -0.0912 -0.5642 -0.5579
 1600SOL    HW116433   3.454   1.005   6.950  1.4640  2.6639  1.0297
 1600SOL    HW216434   3.393   1.073   7.069  0.5867 -1.5315  2.0390
 1601SOL     OW16435   4.215   0.214   8.414 -0.2030 -0.7461 -0.6298
 1601SOL    HW116436   4.260   0.278   8.469  2.1704 -2.9448  0.0030
 1601SOL    HW216437   4.231   0.132   8.460 -1.6881 -0.2069  0.8408
 1602SOL     OW16438   1.967   4.320   6.015 -0.1392 -0.5457 -0.1135
 1602SOL    HW116439   1.939   4.261   5.945  0.0494 -1.5113  0.6423
 1602SOL    HW216440   2.005   4.256   6.075  1.9384  0.3010 -0.5344
 1603SOL     OW16441   1.954   2.370   4.942 -0.2706 -0.1677 -0.0358
 1603SOL    HW116442   1.900   2.431   4.891  0.0992 -0.3543 -0.6567
 1603SOL    HW216443   1.904   2.360   5.023 -0.3231 -1.7737 -0.2593
 1604SOL     OW16444   2.680   3.622   1.704  0.0853 -0.3486  0.3334
 1604SOL    HW116445   2.695   3.640   1.611 -0.7615  2.9087  0.8241
 1604SOL    HW216446   2.752   3.565   1.730 -1.3796 -2.0333  0.6611
 1605SOL     OW16447   1.751   1.325  13.745  0.6218 -0.9459 -0.3332
 1605SOL    HW116448   1.664   1.363  13.759  0.9007 -0.9456  1.4352
 1605SOL    HW216449   1.796   1.364  13.820  2.6269 -2.4150 -0.7923
 1606SOL     OW16450   1.277   3.216  16.741  0.1077  0.4044  0.4692
 1606SOL    HW116451   1.237   3.140  16.783 -0.9831  0.8678  0.2555
 1606SOL    HW216452   1.204   3.249  16.688  1.1852 -1.3427 -2.1502
 1607SOL     OW16453   2.058   1.138   9.170 -0.0833 -0.3072 -0.5594
 1607SOL    HW116454   2.037   1.167   9.082 -0.6315 -0.9438 -0.6342
 1607SOL    HW216455   1.973   1.131   9.213 -0.0071 -1.5167 -0.6034
 1608SOL     OW16456   2.681   0.352   3.848  0.0473 -0.0569  0.2843
 1608SOL    HW116457   2.704   0.363   3.940  1.0228 -3.3790  0.4481
 1608SOL    HW216458   2.649   0.441   3.831 -1.2055 -0.6296 -0.3660
 1609SOL     OW16459   3.882   3.355   4.450 -0.0668  0.1239 -0.5971
 1609SOL    HW116460   3.843   3.369   4.536 -0.0607  0.1298 -0.5953
 1609SOL    HW216461   3.922   3.269   4.464  2.4706  1.0461 -2.1407
 1610SOL     OW16462   2.482   3.182   5.590 -0.3923  0.0165  0.4015
 1610SOL    HW116463   2.478   3.092   5.622  1.4625  0.3162  1.4294
 1610SOL    HW216464   2.551   3.226   5.639 -0.3920 -0.0831  0.4902
 1611SOL     OW16465   0.274   2.718  11.715  0.2863  0.7953  0.0932
 1611SOL    HW116466   0.264   2.776  11.791 -2.9704  0.2044  0.1457
 1611SOL    HW216467   0.346   2.666  11.748  0.5196  0.2341 -1.2981
 1612SOL     OW16468   0.465   2.210  10.157 -0.4196 -0.1549 -0.2892
 1612SOL    HW116469   0.414   2.224  10.077  1.2587 -0.3307 -1.3736
 1612SOL    HW216470   0.446   2.116  10.164 -1.6596  0.0164 -1.3618
 1613SOL     OW16471   2.132   2.742   0.114 -0.2491 -0.3283  0.5669
 1613SOL    HW116472   2.134   2.830   0.077  2.0923 -0.5362  0.2017
 1613SOL    HW216473   2.059   2.762   0.172  1.0834  0.2067  2.0458
 1614SOL     OW16474   0.708   3.332   5.604  0.3149  0.2808  0.2772
 1614SOL    HW116475   0.793   3.352   5.643 -0.6541  0.0406  2.5066
 1614SOL    HW216476   0.668   3.404   5.652 -2.3049  0.1274 -1.6600
 1615SOL     OW16477   3.659   2.514   5.495 -0.5305 -0.5096  0.0888
 1615SOL    HW116478   3.706   2.431   5.487  0.5112 -0.0898  1.7646
 1615SOL    HW216479   3.665   2.549   5.407  2.4692  0.3704  0.6315
 1616SOL     OW16480   1.820   3.293  15.031 -0.6570 -0.0647  0.4100
 1616SOL    HW116481   1.794   3.272  15.120  0.9956 -0.7664  0.7305
 1616SOL    HW216482   1.841   3.386  15.037  1.6192 -0.6857  2.1944
 1617SOL     OW16483   0.562   1.565   2.789  0.0089 -0.1691 -0.0732
 1617SOL    HW116484   0.479   1.558   2.741  1.4426  0.2057 -2.5890
 1617SOL    HW216485   0.603   1.480   2.774 -0.3693 -0.7310  2.0599
 1618SOL     OW16486   0.379   0.263   8.911 -0.5595 -0.8994 -0.6148
 1618SOL    HW116487   0.298   0.223   8.878 -1.6619 -1.1006  2.3758
 1618SOL    HW216488   0.333   0.318   8.975  1.1877  0.5631 -0.6145
 1619SOL     OW16489   1.998   0.738  13.376 -0.1678  0.3828  1.0318
 1619SOL    HW116490   2.040   0.824  13.383 -1.4308  1.0372  0.5953
 1619SOL    HW216491   1.910   0.761  13.347 -0.4239  0.0762  1.5527
 1620SOL     OW16492   4.454   1.415   1.721  0.3245 -0.7279  0.1624
 1620SOL    HW116493   4.386   1.385   1.781 -0.9579  0.0760 -0.9038
 1620SOL    HW216494   4.491   1.327   1.711 -1.9920 -1.7214  0.4138
 1621SOL     OW16495   0.468   3.903   0.070 -0.1365  0.1150  0.4401
 1621SOL    HW116496   0.522   3.884   0.147  0.3571 -2.1221 -0.4634
 1621SOL    HW216497   0.379   3.898   0.105 -0.5643 -0.3632 -0.7317
 1622SOL     OW16498   3.018   2.584   6.910  0.4020 -0.2344 -0.0258
 1622SOL    HW116499   3.056   2.591   6.997 -2.0497 -1.5974  1.1542
 1622SOL    HW216500   3.047   2.668   6.875 -0.2161 -0.3756 -0.8894
 1623SOL     OW16501   4.707   1.592   0.474 -0.0274 -0.3303  0.3169
 1623SOL    HW116502   4.713   1.662   0.539  0.7041 -1.3023  1.3160
 1623SOL    HW216503   0.060   1.568   0.471 -0.0315 -0.2547 -0.3330
 1624SOL     OW16504   2.895   4.406   6.322 -0.2579  0.0730  0.1568
 1624SOL    HW116505   2.903   4.357   6.241 -0.6736 -1.2235  0.8971
 1624SOL    HW216506   2.802   4.398   6.342 -0.7466  2.4971 -1.2218
 1625SOL     OW16507   0.381   3.596   2.631 -0.5042 -0.1339 -0.1697
 1625SOL    HW116508   0.351   3.578   2.541 -1.4270  0.0742  0.1006
 1625SOL    HW216509   0.372   3.510   2.673 -1.0607 -0.8668 -1.7441
 1626SOL     OW16510   4.299   3.146   8.067  0.0351 -0.3507  0.4202
 1626SOL    HW116511   4.267   3.212   8.005 -0.2194  0.9987  1.9999
 1626SOL    HW216512   4.393   3.141   8.052  0.0843  2.9857 -0.4020
 1627SOL     OW16513   1.461   4.366  15.439 -0.3444  0.2586  0.4841
 1627SOL    HW116514   1.466   4.300  15.369  0.4662  0.1750  0.6222
 1627SOL    HW216515   1.405   4.429  15.394 -2.7036 -1.5028  0.9155
 1628SOL     OW16516   4.082   2.764  11.901  0.3978  0.2092 -0.1495
 1628SOL    HW116517   4.102   2.679  11.861 -1.7535 -1.1770  1.7164
 1628SOL    HW216518   4.015   2.800  11.842 -1.6950  0.7511  2.5837
 1629SOL     OW16519   1.566   3.706  15.099 -0.2807 -0.5307 -0.1871
 1629SOL    HW116520   1.591   3.794  15.074  0.4886 -1.2812 -2.0455
 1629SOL    HW216521   1.568   3.713  15.195 -1.9253  2.0730 -0.3538
 1630SOL     OW16522   3.964   2.903   2.894 -0.1504 -0.2928 -0.4417
 1630SOL    HW116523   4.058   2.906   2.874  0.2606  0.9859  1.7110
 1630SOL    HW216524   3.942   2.810   2.885  0.5905 -0.7955  2.7806
 1631SOL     OW16525   3.547   3.728   4.292 -0.1356  0.7631  0.2055
 1631SOL    HW116526   3.634   3.688   4.295 -0.9211 -0.9755 -0.4404
 1631SOL    HW216527   3.496   3.678   4.355  1.4429  1.4964  2.0468
 1632SOL     OW16528   3.572   4.597   1.636 -0.0122 -0.3494  0.1863
 1632SOL    HW116529   3.543   4.535   1.703  0.1070  1.1847  1.6331
 1632SOL    HW216530   3.666   4.583   1.653  0.2710  1.3676  0.0179
 1633SOL     OW16531   0.380   1.396   5.728 -0.4043  0.6544 -0.1132
 1633SOL    HW116532   0.394   1.395   5.633  1.7850 -1.0539  0.2315
 1633SOL    HW216533   0.374   1.491   5.734  0.3301  0.5960  1.5004
 1634SOL     OW16534   3.879   3.552   8.454 -0.4095  0.0159 -0.0672
 1634SOL    HW116535   3.924   3.505   8.384 -0.2349  0.6567 -0.3867
 1634SOL    HW216536   3.946   3.546   8.523  0.4265 -4.9843 -1.3127
 1635SOL     OW16537   2.196   3.901   7.885  0.3387 -0.1787  0.9856
 1635SOL    HW116538   2.189   3.807   7.899 -2.8756  0.2767  2.6075
 1635SOL    HW216539   2.128   3.896   7.818  0.8061  2.7165  0.2932
 1636SOL     OW16540   0.124   0.036   0.402 -0.3504 -0.4461  0.0296
 1636SOL    HW116541   0.199   0.093   0.418  1.2682 -2.2264 -1.2102
 1636SOL    HW216542   0.104   0.072   0.316  0.9848  3.7485  1.4504
 1637SOL     OW16543   4.184   3.370   8.582 -0.4283 -0.5986 -0.1101
 1637SOL    HW116544   4.172   3.464   8.590 -0.8467 -0.7145  0.5596
 1637SOL    HW216545   4.166   3.345   8.672  1.0765 -1.4272 -0.0425
 1638SOL     OW16546   1.910   1.361   1.352  0.1035 -0.3380  0.3351
 1638SOL    HW116547   1.967   1.290   1.322  1.1659  1.3228 -1.5448
 1638SOL    HW216548   1.907   1.418   1.276 -0.2541  0.5933  1.0530
 1639SOL     OW16549   0.059   1.879  10.232  0.4439 -0.8172 -0.2564
 1639SOL    HW116550   4.716   1.834  10.247  1.0711 -1.9580 -0.2644
 1639SOL    HW216551   0.040   1.929  10.152  1.2840  0.2922  0.2372
 1640SOL     OW16552   3.492   1.208   3.606  0.3628  0.1116  0.1936
 1640SOL    HW116553   3.529   1.284   3.652  1.8232 -1.3053  1.3626
 1640SOL    HW216554   3.424   1.186   3.670  0.0934 -0.4435 -0.2840
 1641SOL     OW16555   3.491   0.654   6.028  0.1180 -0.4173  0.5613
 1641SOL    HW116556   3.398   0.674   6.041  0.4121  1.2264  0.2074
 1641SOL    HW216557   3.540   0.668   6.110  1.4997  0.4281 -0.4014
 1642SOL     OW16558   1.430   0.697  11.541  0.0603 -0.3294 -0.3550
 1642SOL    HW116559   1.422   0.626  11.605  0.5950  0.2117  0.3077
 1642SOL    HW216560   1.354   0.745  11.573 -1.2583 -1.2754 -2.0714
 1643SOL     OW16561   2.363   0.114   3.597  0.4877  0.5378  0.3458
 1643SOL    HW116562   2.339   0.186   3.538  1.8601  0.7709  0.0547
 1643SOL    HW216563   2.344   0.158   3.680 -0.8638  1.4875 -0.4643
 1644SOL     OW16564   2.283   0.862   6.267  0.3376  0.2559  0.5986
 1644SOL    HW116565   2.224   0.916   6.319 -0.2771  0.1253  0.0435
 1644SOL    HW216566   2.273   0.893   6.177 -1.0196 -1.5321  0.1354
 1645SOL     OW16567   4.433   3.821   2.831 -0.3418 -0.2126 -0.2695
 1645SOL    HW116568   4.371   3.878   2.786 -1.1158 -2.2672 -1.7699
 1645SOL    HW216569   4.514   3.871   2.833 -0.2355 -0.4232  0.6680
 1646SOL     OW16570   4.703   2.020   4.584  0.1166 -0.2653 -0.6127
 1646SOL    HW116571   4.690   1.926   4.592  1.7929 -0.4400  0.0929
 1646SOL    HW216572   4.640   2.029   4.512 -1.0712 -2.0323  0.2159
 1647SOL     OW16573   1.077   2.714   6.259 -0.2347  0.3294  0.1151
 1647SOL    HW116574   1.095   2.790   6.315 -3.5409  0.9777  0.3440
 1647SOL    HW216575   1.091   2.764   6.178 -1.3671 -0.4410 -0.5547
 1648SOL     OW16576   1.595   1.946   3.157 -0.0260  0.2735 -0.2508
 1648SOL    HW116577   1.663   1.881   3.173  0.5112  1.7606  3.2500
 1648SOL    HW216578   1.574   1.924   3.066 -2.1458  1.0403  0.0452
 1649SOL     OW16579   1.262   3.162   6.097 -0.2101 -0.5996  0.3021
 1649SOL    HW116580   1.330   3.214   6.055 -1.3730  1.0393  0.4184
 1649SOL    HW216581   1.181   3.208   6.075  0.7959  0.6106 -0.8412
 1650SOL     OW16582   2.922   3.305  12.364 -0.2780 -0.0307  0.3134
 1650SOL    HW116583   2.890   3.392  12.390  3.0452  1.3656 -0.3082
 1650SOL    HW216584   3.015   3.327  12.355  0.0984 -2.4681 -1.5184
 1651SOL     OW16585   0.691   3.449   7.423  0.1134  0.4977  0.6749
 1651SOL    HW116586   0.760   3.394   7.461 -0.3230 -0.9862 -0.7113
 1651SOL    HW216587   0.693   3.425   7.331  2.2608  3.3542 -0.0395
 1652SOL     OW16588   2.686   2.704  10.673  0.0473  0.0144  0.0789
 1652SOL    HW116589   2.677   2.635  10.739 -1.8027 -1.3765 -1.6388
 1652SOL    HW216590   2.632   2.775  10.709  1.6681  0.4896  1.5604
 1653SOL     OW16591   0.271   2.407  12.708  0.8384  0.0003 -0.1679
 1653SOL    HW116592   0.271   2.412  12.804 -2.4215 -1.7256 -0.0825
 1653SOL    HW216593   0.275   2.315  12.683 -0.8548  0.0850 -0.7310
 1654SOL     OW16594   3.062   3.182  13.359 -0.7261 -0.0048 -0.0548
 1654SOL    HW116595   3.017   3.147  13.436 -1.6120  2.3117  0.4598
 1654SOL    HW216596   3.153   3.157  13.373 -0.1416  1.6715 -0.8881
 1655SOL     OW16597   4.185   2.148   7.369  0.2691  1.0853 -0.4578
 1655SOL    HW116598   4.209   2.055   7.358 -1.6968  0.2626  2.3485
 1655SOL    HW216599   4.090   2.145   7.372  0.3968 -1.0448  1.4071
 1656SOL     OW16600   2.304   2.137   2.012 -0.4768 -0.7459  0.1684
 1656SOL    HW116601   2.290   2.210   2.072  0.8098  0.5240 -1.0630
 1656SOL    HW216602   2.247   2.163   1.939 -1.1964  1.8894  1.6682
 1657SOL     OW16603   3.190   2.508   4.634 -0.3914  0.3612 -0.2706
 1657SOL    HW116604   3.178   2.521   4.728  0.4368  0.5721 -0.1967
 1657SOL    HW216605   3.251   2.435   4.634  0.4741  1.0826 -0.4329
 1658SOL     OW16606   0.238   1.377   6.847  0.3468 -0.0284 -0.0313
 1658SOL    HW116607   0.181   1.453   6.841  0.5742  0.3000  2.2293
 1658SOL    HW216608   0.203   1.331   6.923  2.7550  1.6588  2.0881
 1659SOL     OW16609   4.619   1.372   2.113  0.0125 -0.5490 -0.2223
 1659SOL    HW116610   4.681   1.373   2.040 -2.1004 -0.9757 -2.0277
 1659SOL    HW216611   4.565   1.294   2.098  0.0470 -0.6730  0.2863
 1660SOL     OW16612   0.561   3.207   5.421 -0.5948 -0.9021  0.1531
 1660SOL    HW116613   0.604   3.123   5.408 -0.7235 -0.4993 -2.7949
 1660SOL    HW216614   0.593   3.239   5.506 -1.0414  0.7409 -0.2956
 1661SOL     OW16615   2.570   1.945   7.635 -0.2513  0.0919 -0.4080
 1661SOL    HW116616   2.561   2.035   7.667 -1.9403 -0.2848  0.1495
 1661SOL    HW216617   2.659   1.916   7.658 -0.3270 -0.7182 -1.1135
 1662SOL     OW16618   2.144   4.234   5.288 -0.4862  0.2454  0.2239
 1662SOL    HW116619   2.235   4.257   5.269 -0.3362 -1.0493 -0.5457
 1662SOL    HW216620   2.093   4.287   5.227 -0.9609 -0.0751  0.3454
 1663SOL     OW16621   1.466   4.338  16.952  0.0017  0.6226 -0.6103
 1663SOL    HW116622   1.438   4.250  16.976 -1.4546  0.7315 -1.8893
 1663SOL    HW216623   1.459   4.389  17.033 -2.7261 -0.1791 -0.3609
 1664SOL     OW16624   2.303   2.903  14.820 -0.6084  0.3352  0.0458
 1664SOL    HW116625   2.362   2.848  14.768  1.7396  2.5965  0.3182
 1664SOL    HW216626   2.267   2.831  14.873 -1.6365  1.0888  0.3586
 1665SOL     OW16627   2.235   2.146   4.535  0.2097  0.3975  0.2189
 1665SOL    HW116628   2.241   2.090   4.457  1.4245 -0.2728  0.7897
 1665SOL    HW216629   2.178   2.096   4.594 -1.8661  2.9510  0.3644
 1666SOL     OW16630   2.299   1.920   3.060  0.3657  0.0795 -0.1647
 1666SOL    HW116631   2.378   1.883   3.098  0.1948 -2.0566 -1.9062
 1666SOL    HW216632   2.270   1.975   3.133 -1.1906 -0.9814  0.0179
 1667SOL     OW16633   0.920   3.072   2.557  0.2513  0.2148 -0.1355
 1667SOL    HW116634   0.932   2.981   2.584 -0.9216  0.5968  1.6356
 1667SOL    HW216635   0.827   3.059   2.536  0.4396 -1.4012  0.0797
 1668SOL     OW16636   2.835   3.714   3.871  0.2833  0.2810 -0.2909
 1668SOL    HW116637   2.741   3.700   3.857  0.5053 -1.5205  0.0654
 1668SOL    HW216638   2.842   3.806   3.844  2.4920 -0.0497 -0.8870
 1669SOL     OW16639   0.900   2.968   7.530 -0.2891 -0.3475 -0.3335
 1669SOL    HW116640   0.936   2.899   7.586  0.9014 -0.9729 -1.8778
 1669SOL    HW216641   0.880   3.037   7.593 -2.4833 -0.6817 -0.6409
 1670SOL     OW16642   0.096   3.076   7.978  0.5608  0.3628  0.3403
 1670SOL    HW116643   0.100   2.984   7.953 -3.6152  1.2605 -3.5425
 1670SOL    HW216644   0.178   3.087   8.026  0.7475  4.2423 -0.8588
 1671SOL     OW16645   1.172   0.670   2.171  0.0413 -0.2647  0.5601
 1671SOL    HW116646   1.081   0.695   2.189  0.5781  0.4646  2.2482
 1671SOL    HW216647   1.167   0.578   2.146  2.2764 -0.6362  1.4629
 1672SOL     OW16648   0.168   1.905  11.688 -0.3936 -0.4739 -0.9073
 1672SOL    HW116649   0.145   1.813  11.671 -0.1484 -0.7178  0.1217
 1672SOL    HW216650   0.199   1.926  11.600  0.7305  0.7371 -0.2194
 1673SOL     OW16651   0.659   0.183  11.752  0.6469  0.2565 -0.1768
 1673SOL    HW116652   0.671   0.201  11.845 -2.2863 -0.2493  0.3105
 1673SOL    HW216653   0.571   0.145  11.756  0.4614  0.9983  3.1063
 1674SOL     OW16654   4.328   2.879   6.847  0.5498  0.6177 -0.0098
 1674SOL    HW116655   4.293   2.861   6.934 -0.5522 -0.6411 -0.7200
 1674SOL    HW216656   4.421   2.893   6.866  0.2475  2.3387  0.1576
 1675SOL     OW16657   3.286   0.300   7.068  0.7109  0.2841 -0.1544
 1675SOL    HW116658   3.245   0.355   7.136 -2.3918  0.0717 -1.8695
 1675SOL    HW216659   3.208   0.306   7.014  1.3865  1.8589 -0.9470
 1676SOL     OW16660   1.987   3.965  12.915 -0.5082  0.0623 -0.1308
 1676SOL    HW116661   2.054   3.992  12.978 -2.2401 -0.3488  1.8966
 1676SOL    HW216662   1.923   4.035  12.925 -0.0245  0.3706  0.8723
 1677SOL     OW16663   1.611   2.210   3.167 -0.0187 -0.3090  0.1155
 1677SOL    HW116664   1.607   2.233   3.260 -0.0769 -1.8132  0.4767
 1677SOL    HW216665   1.604   2.115   3.157  0.0632 -0.5188  2.2100
 1678SOL     OW16666   2.819   1.416  11.767 -0.2523  0.1848 -0.5868
 1678SOL    HW116667   2.888   1.350  11.756  0.7297  1.2216 -0.7468
 1678SOL    HW216668   2.746   1.372  11.724  1.0727 -1.6275 -1.0129
 1679SOL     OW16669   3.973   2.089   3.637  0.0233 -0.4112  0.7591
 1679SOL    HW116670   3.948   2.026   3.705 -1.1536 -0.8747 -0.1104
 1679SOL    HW216671   3.981   2.038   3.556  3.5107  2.2015 -0.5382
 1680SOL     OW16672   1.006   2.876   5.998 -0.4612  0.2801 -0.3031
 1680SOL    HW116673   0.978   2.806   5.940  1.1543  0.8296 -1.7336
 1680SOL    HW216674   1.075   2.919   5.947 -1.4935  1.7593 -0.4537
 1681SOL     OW16675   2.638   3.713   5.429  0.5877  0.4833  0.0278
 1681SOL    HW116676   2.716   3.730   5.376  0.5495  1.3617  0.2607
 1681SOL    HW216677   2.680   3.655   5.492 -0.0165 -0.8579 -0.7863
 1682SOL     OW16678   4.498   3.540  12.664 -0.5820  0.3797  0.4755
 1682SOL    HW116679   4.557   3.615  12.674  1.0020 -0.5888 -1.7340
 1682SOL    HW216680   4.439   3.567  12.594  0.1985  1.7745  0.3513
 1683SOL     OW16681   4.624   1.294   5.168  0.0771 -0.2341 -0.2574
 1683SOL    HW116682   4.538   1.260   5.196 -0.3046  1.1978  0.3064
 1683SOL    HW216683   4.672   1.259   5.243  0.5138  1.2126  0.1317
 1684SOL     OW16684   3.547   1.790   4.192  0.0890 -0.1250 -0.7998
 1684SOL    HW116685   3.560   1.884   4.184  3.3811 -0.7363 -2.2398
 1684SOL    HW216686   3.451   1.790   4.203  0.1726 -0.2283 -0.0673
 1685SOL     OW16687   0.532   3.567   0.201 -1.0790 -0.5284 -0.7439
 1685SOL    HW116688   0.586   3.488   0.210 -0.9109 -0.7257 -3.5685
 1685SOL    HW216689   0.586   3.608   0.134 -0.4397  1.7283  1.1396
 1686SOL     OW16690   4.306   1.987   5.779 -0.1366  0.2534 -0.7749
 1686SOL    HW116691   4.382   2.027   5.821 -0.2794 -0.5433  0.2409
 1686SOL    HW216692   4.335   1.948   5.696 -0.6800  0.9330 -1.2881
 1687SOL     OW16693   0.434   2.577  14.782 -0.2884  0.3469  0.1107
 1687SOL    HW116694   0.446   2.643  14.850  1.1407  1.0002 -0.7820
 1687SOL    HW216695   0.517   2.530  14.798 -0.4597  0.5416  1.5711
 1688SOL     OW16696   0.726   2.755   5.842  0.2530 -0.0620  0.7438
 1688SOL    HW116697   0.805   2.752   5.788 -0.0176  0.6372  0.3005
 1688SOL    HW216698   0.715   2.850   5.839 -1.7014 -0.2932  1.0537
 1689SOL     OW16699   4.049   1.416   9.453 -0.4647 -0.2554  0.8066
 1689SOL    HW116700   3.990   1.342   9.468  0.1739 -0.2591  3.3440
 1689SOL    HW216701   4.132   1.398   9.497  0.6784 -0.3747 -1.4090
 1690SOL     OW16702   2.993   1.835   2.312  0.0325 -0.2805  0.0395
 1690SOL    HW116703   2.929   1.807   2.378 -0.0235  0.5066  0.3245
 1690SOL    HW216704   3.070   1.818   2.366  0.6067  0.4828 -0.5390
 1691SOL     OW16705   0.769   3.656   7.892 -0.1343  0.2168 -0.1824
 1691SOL    HW116706   0.723   3.640   7.809 -1.8602 -0.0346  0.8411
 1691SOL    HW216707   0.792   3.748   7.879  2.6587 -0.2174  1.7927
 1692SOL     OW16708   4.041   4.565  11.616 -0.4682 -0.0815  0.2217
 1692SOL    HW116709   3.957   4.604  11.592  0.6752  1.9071 -0.6001
 1692SOL    HW216710   4.109   4.591  11.554 -1.3882  0.3398 -0.6098
 1693SOL     OW16711   2.081   2.699   4.903 -0.7794  0.3402  0.3975
 1693SOL    HW116712   2.057   2.742   4.985  0.7178  0.1282  0.9533
 1693SOL    HW216713   2.118   2.615   4.931  2.5044  2.3898  2.2830
 1694SOL     OW16714   3.466   0.345   8.969  0.0359  0.4782  0.0860
 1694SOL    HW116715   3.466   0.315   9.060 -3.0555 -1.2593 -0.4850
 1694SOL    HW216716   3.374   0.340   8.945  0.1726  0.0002 -0.3192
 1695SOL     OW16717   4.469   0.958   8.721  0.0359 -0.2218 -0.3771
 1695SOL    HW116718   4.562   0.977   8.709  0.0668  0.7092  1.2519
 1695SOL    HW216719   4.468   0.864   8.736  1.0649 -0.1930 -0.1262
 1696SOL     OW16720   2.717   3.254  10.939 -0.2189 -0.4996 -0.6219
 1696SOL    HW116721   2.752   3.183  10.885 -2.1880  0.2641 -2.9018
 1696SOL    HW216722   2.675   3.199  11.005  1.4826 -1.2032 -0.1170
 1697SOL     OW16723   3.844   1.636   2.853  0.0845 -0.3493  0.1722
 1697SOL    HW116724   3.831   1.710   2.793  1.5596 -0.7094 -0.6086
 1697SOL    HW216725   3.864   1.571   2.785 -1.3480  1.1846 -1.7289
 1698SOL     OW16726   2.844   4.204   9.369 -0.6528  0.5479  0.5207
 1698SOL    HW116727   2.885   4.182   9.452 -0.8341  0.5134  0.6028
 1698SOL    HW216728   2.919   4.193   9.310 -1.7473  0.1986 -0.8208
 1699SOL     OW16729   0.731   0.655   5.838  0.2866  0.1801 -0.0308
 1699SOL    HW116730   0.789   0.690   5.906 -0.9052  1.7202  0.1991
 1699SOL    HW216731   0.681   0.730   5.805 -0.7902 -0.5395 -0.0310
 1700SOL     OW16732   4.738   1.856   8.902 -0.3643 -0.5055 -0.8041
 1700SOL    HW116733   4.725   1.947   8.877  0.5790  0.2125  1.4201
 1700SOL    HW216734   0.085   1.857   8.942 -1.4778  0.7809  1.5875
 1701SOL     OW16735   3.726   1.285   9.727 -0.2344 -0.3630 -1.0040
 1701SOL    HW116736   3.649   1.325   9.687 -0.5557  0.3996  0.4102
 1701SOL    HW216737   3.677   1.206   9.749 -0.2237  0.1135  0.6651
 1702SOL     OW16738   1.352   2.130  17.421 -0.0646  0.1349  0.2230
 1702SOL    HW116739   1.291   2.074  17.469  1.2158 -0.5286  1.1087
 1702SOL    HW216740   1.315   2.217  17.438  0.1686  0.6048 -1.6798
 1703SOL     OW16741   2.954   0.514   7.544  0.6546 -0.2755 -0.1997
 1703SOL    HW116742   2.978   0.489   7.633  0.2691  0.9826  0.2635
 1703SOL    HW216743   3.034   0.549   7.506  0.7972  0.9809  1.2623
 1704SOL     OW16744   2.785   1.296  14.545 -0.2266  0.7670  0.2548
 1704SOL    HW116745   2.841   1.234  14.499 -1.7060  0.5596 -1.2533
 1704SOL    HW216746   2.803   1.264  14.634  1.7464 -1.3453 -0.9018
 1705SOL     OW16747   0.298   2.839   1.592 -0.2802 -0.2091 -0.5457
 1705SOL    HW116748   0.333   2.765   1.642  0.2245 -0.1002 -0.7355
 1705SOL    HW216749   0.375   2.896   1.585  0.5094 -1.3390 -1.1464
 1706SOL     OW16750   2.553   0.366   2.828  0.3999  0.0862 -0.1638
 1706SOL    HW116751   2.619   0.366   2.759 -0.9531 -2.6432 -1.4180
 1706SOL    HW216752   2.591   0.434   2.885  0.1246 -0.9324  1.2420
 1707SOL     OW16753   0.069   2.267   3.128 -0.2653  0.2840  0.2785
 1707SOL    HW116754   0.054   2.173   3.118  0.0303  0.1471  1.1143
 1707SOL    HW216755   0.002   2.300   3.068  0.8884 -0.0857 -1.1943
 1708SOL     OW16756   0.126   2.458   5.284  0.3991 -0.3660 -0.3997
 1708SOL    HW116757   0.118   2.378   5.334 -1.3445 -0.0328 -0.1503
 1708SOL    HW216758   0.197   2.421   5.231  0.5287 -0.1329 -0.3922
 1709SOL     OW16759   4.399   3.157   5.714  0.4181  0.0161  0.1287
 1709SOL    HW116760   4.494   3.155   5.705  0.7609  1.9403  3.0954
 1709SOL    HW216761   4.387   3.243   5.675  4.1725 -0.1063 -1.2035
 1710SOL     OW16762   0.127   1.296  14.326 -0.7444 -0.6887 -0.3973
 1710SOL    HW116763   0.118   1.230  14.394  0.4976 -0.2595  0.1826
 1710SOL    HW216764   0.147   1.374  14.379 -1.6696  0.0899 -1.1822
 1711SOL     OW16765   4.471   4.177   7.552  0.0496 -0.4922  0.0889
 1711SOL    HW116766   4.521   4.095   7.560 -0.4382 -0.9746 -1.8179
 1711SOL    HW216767   4.407   4.161   7.621 -0.5475  0.6700 -0.2035
 1712SOL     OW16768   0.498   4.126  13.109  0.1629  0.3130  0.2575
 1712SOL    HW116769   0.458   4.040  13.115 -0.9882  0.7687 -0.7292
 1712SOL    HW216770   0.574   4.112  13.164 -0.3870 -0.0726  0.9168
 1713SOL     OW16771   4.725   0.608   6.249 -0.0780  0.3036  0.2734
 1713SOL    HW116772   4.651   0.617   6.189 -3.0566 -0.9386  3.7828
 1713SOL    HW216773   4.716   0.521   6.286 -3.1597  1.0657  1.3443
 1714SOL     OW16774   3.147   1.689   5.752 -0.3096 -0.6011 -0.0522
 1714SOL    HW116775   3.088   1.761   5.776 -0.6995 -1.3112  1.1051
 1714SOL    HW216776   3.131   1.695   5.657 -0.6508 -1.2095 -0.0285
 1715SOL     OW16777   3.336   3.327  15.084 -0.5983  0.0046 -0.2072
 1715SOL    HW116778   3.396   3.341  15.010  0.8255  2.8985  1.4844
 1715SOL    HW216779   3.351   3.405  15.138  1.2265 -0.4071 -0.1104
 1716SOL     OW16780   2.442   2.910  12.687  0.0865  0.1498  0.0115
 1716SOL    HW116781   2.417   2.818  12.698 -1.1733  0.4027 -0.7474
 1716SOL    HW216782   2.482   2.928  12.772  0.5040 -3.1831  0.5261
 1717SOL     OW16783   4.095   4.176   8.728 -0.0720 -0.2702  0.3283
 1717SOL    HW116784   4.186   4.166   8.700 -0.2699 -0.2193 -0.3387
 1717SOL    HW216785   4.095   4.108   8.794 -0.4519  0.1457  0.7561
 1718SOL     OW16786   3.829   0.574   0.512 -0.7870  0.2718  0.5599
 1718SOL    HW116787   3.864   0.569   0.601  1.2710  0.4972 -0.2356
 1718SOL    HW216788   3.743   0.602   0.544 -1.2269  0.8597 -1.1465
 1719SOL     OW16789   0.555   4.652   2.044 -0.2694 -0.2260 -0.4987
 1719SOL    HW116790   0.528   4.736   2.082  1.3702  0.2843 -0.4699
 1719SOL    HW216791   0.475   4.611   2.012 -0.8375  2.0366 -1.9998
 1720SOL     OW16792   1.885   1.620   3.107  0.1894 -0.1825 -0.2277
 1720SOL    HW116793   1.928   1.535   3.106  1.1783  0.3223  0.5356
 1720SOL    HW216794   1.798   1.604   3.069 -1.0020  4.4842  0.4592
 1721SOL     OW16795   4.036   2.199  17.002  0.3694 -1.2043  0.2986
 1721SOL    HW116796   3.972   2.200  16.932  0.0085 -2.6184  0.6126
 1721SOL    HW216797   4.109   2.167  16.949  1.8311  2.2779  0.2151
 1722SOL     OW16798   1.218   3.682   6.115  0.3840  0.4423  0.0484
 1722SOL    HW116799   1.288   3.746   6.099 -0.1888  0.4588 -2.4809
 1722SOL    HW216800   1.258   3.635   6.188  0.5876 -0.8185 -0.8708
 1723SOL     OW16801   0.454   2.003   0.578  0.4019  0.0440  0.7327
 1723SOL    HW116802   0.372   1.996   0.529  1.6033 -0.3799 -1.2130
 1723SOL    HW216803   0.494   2.085   0.548 -0.7228  0.8033  1.2781
 1724SOL     OW16804   1.321   3.200  17.646 -0.2398 -0.4982 -0.0792
 1724SOL    HW116805   1.297   3.123  17.697  0.4458 -0.0279  0.9784
 1724SOL    HW216806   1.344   3.167  17.560 -4.4051 -1.9966 -0.6188
 1725SOL     OW16807   4.286   3.500   4.294  0.0734 -1.0753  0.3254
 1725SOL    HW116808   4.300   3.511   4.200  0.9399  0.5415  0.6513
 1725SOL    HW216809   4.325   3.584   4.314 -1.0709 -0.3737 -0.3889
 1726SOL     OW16810   4.600   1.421   4.003  0.0924  0.1264 -0.0549
 1726SOL    HW116811   4.665   1.356   3.975 -0.9534  0.4249 -3.1163
 1726SOL    HW216812   4.649   1.503   4.009  1.0551 -0.5138  0.8355
 1727SOL     OW16813   1.098   0.303   3.649 -0.4366 -0.7561  1.1623
 1727SOL    HW116814   1.019   0.335   3.606  0.1800  0.1048  0.6624
 1727SOL    HW216815   1.159   0.374   3.628 -0.7411  0.1290  3.3082
 1728SOL     OW16816   2.774   0.332   2.689  0.3170 -0.6123 -0.6917
 1728SOL    HW116817   2.781   0.408   2.631 -0.8172 -0.2239 -0.3205
 1728SOL    HW216818   2.831   0.267   2.648  0.8201 -0.5131 -0.1416
 1729SOL     OW16819   2.951   3.078   7.514  0.1476  0.6405  0.3282
 1729SOL    HW116820   3.012   3.095   7.441 -0.7169 -1.8849 -0.9998
 1729SOL    HW216821   2.947   3.162   7.558  1.5717  0.4766  0.7876
 1730SOL     OW16822   1.434   2.826   1.364 -0.0526 -0.0943 -0.0052
 1730SOL    HW116823   1.340   2.823   1.343  1.2097 -0.4343 -5.3708
 1730SOL    HW216824   1.461   2.757   1.304  0.7304  0.3786 -0.1954
 1731SOL     OW16825   2.917   1.877  14.978  0.6886 -0.0066 -0.0172
 1731SOL    HW116826   2.855   1.919  15.038 -1.8966 -2.2349 -1.0951
 1731SOL    HW216827   2.856   1.845  14.911 -0.9167  0.1529  1.3808
 1732SOL     OW16828   2.603   3.466   4.034 -0.0804 -0.1471 -0.2741
 1732SOL    HW116829   2.598   3.371   4.041  1.2539 -0.2822 -1.1572
 1732SOL    HW216830   2.573   3.488   4.122 -1.6808  0.5137 -0.9892
 1733SOL     OW16831   2.405   2.509   1.678  0.3656 -0.0705 -0.1884
 1733SOL    HW116832   2.413   2.429   1.731 -3.1230 -0.7506 -0.6853
 1733SOL    HW216833   2.491   2.507   1.637  0.5507 -0.1836  0.2043
 1734SOL     OW16834   2.805   4.392   7.279 -0.2486 -0.7041 -0.2973
 1734SOL    HW116835   2.715   4.399   7.249 -0.5966 -2.0374  0.4442
 1734SOL    HW216836   2.852   4.367   7.200  1.1786  1.5948 -0.1786
 1735SOL     OW16837   4.332   1.560   1.534  0.0680 -0.3809 -0.1095
 1735SOL    HW116838   4.270   1.503   1.489 -1.0940 -0.4550  1.5929
 1735SOL    HW216839   4.356   1.510   1.613  1.1415  0.9820  0.4236
 1736SOL     OW16840   4.626   3.487   2.602  0.0865 -0.0957 -0.0466
 1736SOL    HW116841   4.682   3.414   2.578  0.8397 -0.0164  1.4629
 1736SOL    HW216842   4.549   3.451   2.647 -0.3711 -0.5763 -1.2072
 1737SOL     OW16843   1.016   2.821   0.257 -0.1715  0.5952 -0.3306
 1737SOL    HW116844   1.035   2.746   0.201  1.3573  0.8382 -0.1279
 1737SOL    HW216845   0.925   2.807   0.283  0.1491 -0.4370  0.2757
 1738SOL     OW16846   2.726   3.416   7.737  0.1505  0.3490 -0.3730
 1738SOL    HW116847   2.736   3.375   7.823  0.4360  0.4199 -0.3743
 1738SOL    HW216848   2.757   3.503   7.762 -1.1328  0.7413 -0.1289
 1739SOL     OW16849   1.949   1.360   3.136 -0.0371  0.2802 -0.0103
 1739SOL    HW116850   1.964   1.314   3.054  2.2784 -0.6073  0.9057
 1739SOL    HW216851   1.980   1.298   3.202  2.3925  1.2806 -0.2091
 1740SOL     OW16852   3.768   4.111   4.743 -0.1104  0.5153  0.5605
 1740SOL    HW116853   3.859   4.088   4.759  0.0814  0.1160 -1.0372
 1740SOL    HW216854   3.788   4.175   4.674  1.8979 -1.5133 -0.7405
 1741SOL     OW16855   3.704   1.689   1.659 -0.6523  0.3138  0.0377
 1741SOL    HW116856   3.682   1.779   1.682  0.2316  0.0166  2.0248
 1741SOL    HW216857   3.783   1.699   1.605 -0.9661  0.0756 -0.4662
 1742SOL     OW16858   0.336   3.948   6.927 -0.0604 -0.0048 -0.0119
 1742SOL    HW116859   0.281   4.016   6.889  1.9349  0.6568 -1.7112
 1742SOL    HW216860   0.346   3.971   7.019  0.7283 -1.7795  0.3455
 1743SOL     OW16861   2.509   0.911  15.712 -0.1128 -0.1120  0.0398
 1743SOL    HW116862   2.556   0.887  15.632  0.2762 -1.2140  0.5950
 1743SOL    HW216863   2.439   0.966  15.678 -0.3643  0.6296  1.7752
 1744SOL     OW16864   2.729   3.219   6.181 -0.1999 -0.3264 -0.0531
 1744SOL    HW116865   2.771   3.199   6.265 -2.4772  2.2949  1.7210
 1744SOL    HW216866   2.741   3.145   6.122 -2.2898 -0.6086 -0.1354
 1745SOL     OW16867   0.072   0.115   6.369  0.1980 -0.0422  0.1222
 1745SOL    HW116868   0.130   0.186   6.399 -1.2413  1.0874  0.2183
 1745SOL    HW216869   4.739   0.127   6.430 -1.7759 -1.9101 -1.8623
 1746SOL     OW16870   2.636   4.736  16.939  0.1322  0.3797  0.1000
 1746SOL    HW116871   2.573   0.065  16.916 -0.7363 -0.5666 -0.3218
 1746SOL    HW216872   2.687   0.029  17.014  1.2948  0.5799 -0.7883
 1747SOL     OW16873   4.135   0.282   9.451  0.3316 -0.2057  0.5140
 1747SOL    HW116874   4.159   0.353   9.392  1.2274 -0.0468  1.0773
 1747SOL    HW216875   4.046   0.271   9.417  1.6831 -0.6977 -2.8326
 1748SOL     OW16876   1.152   0.487   4.284  0.1366  0.1948 -0.8811
 1748SOL    HW116877   1.163   0.582   4.277  0.6797  0.1631 -0.4204
 1748SOL    HW216878   1.067   0.476   4.241  0.2378 -2.2279 -0.4516
 1749SOL     OW16879   1.049   0.745   6.862 -0.6550  0.1584  0.4252
 1749SOL    HW116880   1.127   0.695   6.841  1.7243  3.4200  1.3813
 1749SOL    HW216881   1.053   0.819   6.801 -0.8433 -0.7865 -0.7277
 1750SOL     OW16882   3.402   4.126   5.141  0.1031 -0.3596 -0.1493
 1750SOL    HW116883   3.444   4.160   5.221  2.8317 -0.1320 -1.6668
 1750SOL    HW216884   3.336   4.192   5.122  0.6180  0.1605 -0.1117
 1751SOL     OW16885   2.624   0.424   6.820 -0.2591  0.2148  0.1876
 1751SOL    HW116886   2.602   0.397   6.909  0.8955 -1.0599  0.0880
 1751SOL    HW216887   2.713   0.456   6.837 -0.5754  0.7677  0.8133
 1752SOL     OW16888   3.494   1.511  16.914  0.0281 -0.0217  0.5584
 1752SOL    HW116889   3.455   1.559  16.840  0.2399 -1.8633 -0.7398
 1752SOL    HW216890   3.424   1.517  16.979 -0.6118 -0.9917 -0.0365
 1753SOL     OW16891   1.867   0.969   4.110 -0.7557  0.7061  0.2090
 1753SOL    HW116892   1.814   0.923   4.175 -0.1277  1.9847  1.6334
 1753SOL    HW216893   1.812   1.044   4.088 -0.9868  0.7396  0.9101
 1754SOL     OW16894   1.764   2.592  16.597 -0.3591 -0.4118 -0.0511
 1754SOL    HW116895   1.759   2.597  16.501 -1.1277 -1.0735 -0.0535
 1754SOL    HW216896   1.855   2.566  16.608  0.0525  0.7116 -0.7983
 1755SOL     OW16897   1.297   1.774   3.952 -0.0191 -0.1701  0.4039
 1755SOL    HW116898   1.367   1.709   3.954  1.4884  1.5331  2.6861
 1755SOL    HW216899   1.354   1.850   3.942  0.6637 -0.3949  2.6072
 1756SOL     OW16900   2.773   3.741  17.371  0.6649 -0.0986 -0.3160
 1756SOL    HW116901   2.723   3.661  17.359  1.8690 -1.5021  4.0029
 1756SOL    HW216902   2.862   3.708  17.355  1.4997  2.5225 -1.1002
 1757SOL     OW16903   0.211   1.749   4.810 -0.7890  0.5915 -0.1896
 1757SOL    HW116904   0.163   1.705   4.880  2.0426  0.6108  1.7748
 1757SOL    HW216905   0.168   1.834   4.811  1.5999  1.8220 -1.1210
 1758SOL     OW16906   2.900   1.716   8.315  0.1673  0.2207  0.0128
 1758SOL    HW116907   2.854   1.650   8.368 -2.1532  1.2364 -0.7171
 1758SOL    HW216908   2.966   1.665   8.269 -1.3378 -0.8080 -1.0175
 1759SOL     OW16909   2.383   4.248   8.323 -0.2377  0.4929  0.6752
 1759SOL    HW116910   2.465   4.286   8.291 -0.5443  1.0067  0.4986
 1759SOL    HW216911   2.399   4.154   8.318  0.5006  0.7150 -1.1139
 1760SOL     OW16912   2.588   2.551   9.263  0.0139 -0.1187 -0.3507
 1760SOL    HW116913   2.606   2.644   9.270 -2.4611  0.3268  0.2159
 1760SOL    HW216914   2.578   2.526   9.355  1.8712  2.1715  0.4812
 1761SOL     OW16915   4.160   4.498  13.428 -0.2095  0.2925 -0.2107
 1761SOL    HW116916   4.137   4.406  13.433  0.9581  0.0598  0.8378
 1761SOL    HW216917   4.074   4.530  13.456  0.4364  1.0475  0.9333
 1762SOL     OW16918   2.958   4.151   4.412  0.3636 -0.1285  0.4717
 1762SOL    HW116919   3.013   4.184   4.482 -2.6158  1.2556  2.1528
 1762SOL    HW216920   2.869   4.142   4.447 -0.1925 -1.3587 -1.2342
 1763SOL     OW16921   3.215   3.658   2.149 -0.1877  0.2506 -0.2621
 1763SOL    HW116922   3.222   3.751   2.173  2.1672  0.0701 -0.1934
 1763SOL    HW216923   3.174   3.616   2.225 -0.0821 -1.0250 -0.9169
 1764SOL     OW16924   2.704   3.695   6.217  0.4601  0.2491  0.2348
 1764SOL    HW116925   2.736   3.671   6.304 -2.7861 -2.5113  0.6639
 1764SOL    HW216926   2.783   3.719   6.168 -1.0281  0.1901 -2.1820
 1765SOL     OW16927   2.463   1.161  13.349 -0.1116 -0.0495  0.1442
 1765SOL    HW116928   2.413   1.173  13.268  1.1092  0.6747 -0.4898
 1765SOL    HW216929   2.549   1.191  13.319 -0.1792 -0.4715 -0.4758
 1766SOL     OW16930   3.783   2.103   4.979  0.7011 -0.2546 -0.5748
 1766SOL    HW116931   3.723   2.078   5.049  0.2454  1.3176 -0.4194
 1766SOL    HW216932   3.746   2.187   4.952  5.7580  2.1122 -0.0707
 1767SOL     OW16933   1.928   4.298  13.441  0.0365  0.2553 -0.2467
 1767SOL    HW116934   1.879   4.327  13.518 -0.8953 -0.4008 -0.5936
 1767SOL    HW216935   1.964   4.385  13.423  4.3021 -1.3755  0.5660
 1768SOL     OW16936   3.440   2.170   6.671  0.1696 -0.2485  0.0031
 1768SOL    HW116937   3.358   2.129   6.697 -0.1511  0.5013  0.1719
 1768SOL    HW216938   3.468   2.203   6.756 -1.0500  1.1823 -0.1399
 1769SOL     OW16939   0.949   2.662   1.819  0.0947 -0.0524  0.3905
 1769SOL    HW116940   0.924   2.619   1.901 -0.9472  0.2582  0.2408
 1769SOL    HW216941   1.034   2.697   1.847 -0.5228 -0.4113  2.7842
 1770SOL     OW16942   3.066   4.673   8.868  0.0740  0.2702 -0.0393
 1770SOL    HW116943   3.109   4.592   8.895 -1.2204  0.3873  2.3879
 1770SOL    HW216944   2.977   4.647   8.892  0.2633  0.3684  0.7684
 1771SOL     OW16945   0.835   4.650   6.458 -1.2431  0.3160  0.1195
 1771SOL    HW116946   0.784   4.726   6.487 -0.8397  0.0774  1.4658
 1771SOL    HW216947   0.844   4.595   6.536 -2.4257  0.9689  0.7081
 1772SOL     OW16948   4.163   0.103   0.099 -0.4244  0.0274  0.2708
 1772SOL    HW116949   4.227   0.172   0.082  2.7311 -2.5464  1.7557
 1772SOL    HW216950   4.080   0.137   0.066 -1.2572  0.0875  2.4742
 1773SOL     OW16951   0.354   0.056   2.642  0.4020  0.2900 -0.3369
 1773SOL    HW116952   0.397   4.724   2.690 -1.9221 -0.4961  0.5477
 1773SOL    HW216953   0.426   0.108   2.607  1.1152 -0.8534 -0.5794
 1774SOL     OW16954   1.053   4.267   7.793  0.1445 -0.5581 -0.0092
 1774SOL    HW116955   1.099   4.343   7.828  0.3146 -1.4026  1.5867
 1774SOL    HW216956   1.030   4.229   7.877  0.9920  2.2694  1.5290
 1775SOL     OW16957   2.364   0.523  11.488  0.1625 -0.1827 -0.2767
 1775SOL    HW116958   2.357   0.587  11.559 -0.0871 -0.7435  0.2091
 1775SOL    HW216959   2.313   0.453  11.530 -2.0212  2.1389  0.9636
 1776SOL     OW16960   0.855   1.124   5.833 -0.2857  0.1653  0.1218
 1776SOL    HW116961   0.773   1.136   5.883  0.7095  2.3605  1.2166
 1776SOL    HW216962   0.816   1.089   5.753 -0.8768 -3.0259  1.8245
 1777SOL     OW16963   3.065   0.841   7.178 -0.2312 -0.4420  0.2130
 1777SOL    HW116964   2.993   0.892   7.215  0.0002 -0.1516  0.2623
 1777SOL    HW216965   3.027   0.753   7.180 -2.1184  0.3798 -0.1178
 1778SOL     OW16966   0.605   2.330  11.694  0.5272  0.1978 -0.3783
 1778SOL    HW116967   0.627   2.316  11.602  0.6408 -0.9174 -0.1737
 1778SOL    HW216968   0.669   2.267  11.726  0.7258  0.8375  0.4901
 1779SOL     OW16969   0.169   1.354   6.487 -0.5935  0.4324 -0.1661
 1779SOL    HW116970   0.125   1.346   6.403 -0.2979 -0.8580 -0.2062
 1779SOL    HW216971   0.090   1.376   6.537  1.1203  3.7855  1.0916
 1780SOL     OW16972   1.721   2.522  13.812 -0.3122  0.0469 -0.3930
 1780SOL    HW116973   1.724   2.431  13.841 -2.1454  0.2710  0.4979
 1780SOL    HW216974   1.791   2.527  13.746  0.5536 -0.7158  0.4660
 1781SOL     OW16975   3.076   0.318   6.897 -0.1564 -0.3646 -0.6488
 1781SOL    HW116976   3.034   0.400   6.922 -0.0631 -0.7552  0.7915
 1781SOL    HW216977   3.000   0.262   6.913 -0.0070  0.0308  1.4345
 1782SOL     OW16978   1.758   4.414   6.146 -0.2754 -0.2775 -0.0291
 1782SOL    HW116979   1.824   4.376   6.088  1.8020  0.7355  1.6558
 1782SOL    HW216980   1.753   4.506   6.121 -0.9718  0.3127  2.2986
 1783SOL     OW16981   4.094   0.602   3.645  0.2245  0.0850  0.0703
 1783SOL    HW116982   4.140   0.518   3.635 -0.7062 -0.1804 -1.8950
 1783SOL    HW216983   4.018   0.598   3.587 -1.4152  1.1695  2.1904
 1784SOL     OW16984   2.005   3.808   9.731  0.6969 -0.4280  0.1670
 1784SOL    HW116985   2.033   3.763   9.652  1.6802 -0.8306  0.7473
 1784SOL    HW216986   1.932   3.861   9.698  0.0517 -0.8109  0.9786
 1785SOL     OW16987   1.795   4.003   4.592  0.5487  0.5157 -0.1711
 1785SOL    HW116988   1.744   3.941   4.644  2.7482 -0.2819  1.0039
 1785SOL    HW216989   1.866   3.953   4.552  0.7634 -0.1904  1.1282
 1786SOL     OW16990   4.536   0.581  10.014  0.3870 -0.2497  0.4090
 1786SOL    HW116991   4.451   0.611   9.982  0.1240 -0.8509  0.5511
 1786SOL    HW216992   4.535   0.596  10.109  1.3504  0.6563  0.2840
 1787SOL     OW16993   1.354   4.387   6.107  0.6994 -0.2823  0.4618
 1787SOL    HW116994   1.302   4.308   6.091  0.6860 -0.4095  1.1213
 1787SOL    HW216995   1.325   4.403   6.197 -0.5628 -0.6012  0.1206
 1788SOL     OW16996   4.335   0.739   9.628  0.0594  0.0989  0.9933
 1788SOL    HW116997   4.319   0.762   9.720  0.9041  1.3974  0.8215
 1788SOL    HW216998   4.427   0.714   9.622 -0.5241 -1.4940 -1.1990
 1789SOL     OW16999   3.911   0.774   6.659  0.2514 -0.0516 -0.1172
 1789SOL    HW117000   3.905   0.679   6.652 -1.9684  0.1929 -1.5340
 1789SOL    HW217001   3.965   0.790   6.736 -0.3410  3.1792 -0.3732
 1790SOL     OW17002   0.712   0.838   7.213  0.1622  0.3280 -0.1496
 1790SOL    HW117003   0.661   0.919   7.216 -0.4176 -0.0359 -0.1980
 1790SOL    HW217004   0.791   0.861   7.164 -0.0058  0.3704 -0.4001
 1791SOL     OW17005   4.547   4.254  11.694  0.4100 -0.0869  0.5126
 1791SOL    HW117006   4.523   4.179  11.640  0.7262  0.9220 -1.0103
 1791SOL    HW217007   4.485   4.248  11.766 -0.6384  1.2844 -0.2746
 1792SOL     OW17008   0.153   2.135   2.272 -0.1067 -0.1936  0.2182
 1792SOL    HW117009   0.072   2.142   2.222  0.2799 -0.0074 -0.3781
 1792SOL    HW217010   0.134   2.198   2.342 -3.5685  2.2517 -2.9370
 1793SOL     OW17011   4.256   4.357   9.562  0.5873 -0.3834  0.1183
 1793SOL    HW117012   4.195   4.284   9.548 -0.1739  0.8220 -2.8652
 1793SOL    HW217013   4.210   4.396   9.636  0.5358 -1.6147  0.7316
 1794SOL     OW17014   1.590   1.006   6.936  0.1673  0.3803 -0.1740
 1794SOL    HW117015   1.503   1.037   6.912 -0.8282 -0.7618  2.0176
 1794SOL    HW217016   1.578   0.933   6.875 -0.0698 -0.2143  0.5872
 1795SOL     OW17017   0.285   3.373   3.124  0.3992  0.4484 -0.3408
 1795SOL    HW117018   0.374   3.401   3.145 -0.2326  1.8767  0.4495
 1795SOL    HW217019   0.229   3.451   3.123 -1.4207 -0.8367  0.9195
 1796SOL     OW17020   3.745   3.095   2.715 -0.4654 -0.3219 -0.4452
 1796SOL    HW117021   3.783   3.007   2.714  1.7502  0.6226  0.0005
 1796SOL    HW217022   3.769   3.128   2.801  2.0567 -1.4034 -0.7115
 1797SOL     OW17023   2.080   1.522   1.594 -0.4733  0.6051  0.0625
 1797SOL    HW117024   2.102   1.580   1.521  0.9718 -3.1552 -2.4828
 1797SOL    HW217025   1.986   1.538   1.603 -1.1827 -2.9741 -1.3375
 1798SOL     OW17026   0.885   3.812   9.186  0.4471 -0.8636 -0.1853
 1798SOL    HW117027   0.970   3.851   9.205  0.1533 -0.0799 -0.4945
 1798SOL    HW217028   0.863   3.852   9.102  2.0559 -3.5778 -1.9122
 1799SOL     OW17029   0.220   0.815  14.632  0.0878 -0.1999  0.2263
 1799SOL    HW117030   0.164   0.870  14.687 -0.5219 -0.0627 -0.5235
 1799SOL    HW217031   0.164   0.809  14.554 -1.3720 -1.6447  1.4054
 1800SOL     OW17032   0.729   2.340   1.631  0.0303  0.0594 -0.4650
 1800SOL    HW117033   0.710   2.283   1.705  0.1207  0.9846  0.2795
 1800SOL    HW217034   0.708   2.423   1.674  1.3871 -0.2204  0.7231
 1801SOL     OW17035   0.642   2.647  14.583 -0.4248 -0.6717 -0.2198
 1801SOL    HW117036   0.658   2.666  14.676  0.7657 -2.3546 -0.0858
 1801SOL    HW217037   0.556   2.609  14.595  0.0007 -1.5708 -0.0419
 1802SOL     OW17038   3.078   3.945   3.460 -0.2524 -0.2118 -0.0026
 1802SOL    HW117039   3.109   3.866   3.503  0.9499  0.3226  0.1148
 1802SOL    HW217040   3.140   3.962   3.389  2.3276  0.3689  2.3644
 1803SOL     OW17041   4.135   1.667   4.073 -0.5536  0.1554 -0.1234
 1803SOL    HW117042   4.065   1.633   4.017  0.5685  0.1609 -1.5541
 1803SOL    HW217043   4.187   1.586   4.080 -1.6255 -0.3778  1.4579
 1804SOL     OW17044   4.432   2.928  16.275 -0.7024  0.8096 -0.1027
 1804SOL    HW117045   4.401   2.839  16.264  1.1374  0.0920  0.5953
 1804SOL    HW217046   4.351   2.977  16.293 -0.8036  1.2561 -1.8270
 1805SOL     OW17047   0.078   0.817   5.580 -0.1714  0.2803 -0.3021
 1805SOL    HW117048   0.032   0.744   5.538  0.5098 -0.3746  0.0685
 1805SOL    HW217049   0.049   0.806   5.671  2.0293 -0.1382  0.3678
 1806SOL     OW17050   3.508   1.158   4.277  0.0011  0.3038  0.3398
 1806SOL    HW117051   3.547   1.225   4.221  1.0062 -0.2351  0.4055
 1806SOL    HW217052   3.417   1.188   4.279 -0.2798 -0.5583  0.6755
 1807SOL     OW17053   3.192   3.408   4.649 -0.3443  0.0313 -0.0109
 1807SOL    HW117054   3.175   3.397   4.743  1.1637  0.0115  0.2639
 1807SOL    HW217055   3.281   3.443   4.651 -0.3545  0.0391  0.3437
 1808SOL     OW17056   0.471   4.015   5.514 -0.1181 -0.0925 -0.2424
 1808SOL    HW117057   0.428   4.093   5.476 -1.0258 -0.5531 -0.1711
 1808SOL    HW217058   0.412   3.978   5.579  0.3286  0.0221  0.2259
 1809SOL     OW17059   0.831   1.911  11.531 -0.2436 -0.5106 -0.1499
 1809SOL    HW117060   0.804   1.831  11.486 -0.0198 -0.6558 -0.0242
 1809SOL    HW217061   0.762   1.972  11.506  0.5719  0.2136 -0.6391
 1810SOL     OW17062   0.962   2.689   8.579  0.1132  0.1475  0.4610
 1810SOL    HW117063   0.914   2.705   8.498 -0.1893  1.1930  0.8525
 1810SOL    HW217064   0.998   2.776   8.596  0.7967 -0.3734  1.7163
 1811SOL     OW17065   4.274   1.741   1.331 -0.4917 -0.3162  0.4267
 1811SOL    HW117066   4.292   1.834   1.342  0.2949 -0.3456 -0.7386
 1811SOL    HW217067   4.298   1.718   1.421 -2.0320  0.8516  1.1367
 1812SOL     OW17068   1.144   0.054   3.530 -0.0762 -0.4247 -0.4343
 1812SOL    HW117069   1.139   0.058   3.435  1.0809 -0.7502 -0.5018
 1812SOL    HW217070   1.136   0.145   3.561  0.5701  0.0427 -1.6448
 1813SOL     OW17071   3.166   2.549  10.516 -0.4073  0.6227 -0.2071
 1813SOL    HW117072   3.196   2.638  10.534  0.8837  0.2054 -0.2719
 1813SOL    HW217073   3.154   2.507  10.602 -0.5917  0.1804 -0.4498
 1814SOL     OW17074   0.969   1.707  16.334 -0.0755 -0.2204 -0.3011
 1814SOL    HW117075   1.029   1.633  16.318  0.4066  0.4311 -1.5256
 1814SOL    HW217076   1.013   1.782  16.293 -2.9576  0.6838 -1.6854
 1815SOL     OW17077   4.580   1.272   7.531 -0.3992  0.5151 -0.2572
 1815SOL    HW117078   4.641   1.212   7.576  0.1304 -1.5152 -3.6746
 1815SOL    HW217079   4.557   1.335   7.599  1.3087  1.6669 -0.7366
 1816SOL     OW17080   1.826   2.348   8.924 -0.5352 -0.3187 -0.1152
 1816SOL    HW117081   1.818   2.279   8.859  1.0723  2.1661 -2.9618
 1816SOL    HW217082   1.856   2.289   8.992 -2.4162 -0.0421  0.9589
 1817SOL     OW17083   1.690   4.374   0.798 -0.1293 -0.4573  0.0826
 1817SOL    HW117084   1.751   4.325   0.742 -0.0704  0.5002 -0.6992
 1817SOL    HW217085   1.728   4.348   0.881  2.6268  1.8343 -0.4812
 1818SOL     OW17086   0.013   3.023  15.797 -0.4027  0.5970 -0.2889
 1818SOL    HW117087   0.050   2.943  15.834  0.5888  2.2852  2.3408
 1818SOL    HW217088   4.675   3.036  15.851  0.2974  2.9926  0.1348
 1819SOL     OW17089   0.015   0.592  11.660 -0.2902  0.4868 -0.0277
 1819SOL    HW117090   4.721   0.678  11.685  1.6090  1.0428  0.5791
 1819SOL    HW217091   4.682   0.553  11.610 -0.0683  0.5082 -0.3680
 1820SOL     OW17092   1.253   0.407   4.776 -0.1638 -0.4757  0.0857
 1820SOL    HW117093   1.298   0.472   4.830 -0.0379 -0.8145  0.3901
 1820SOL    HW217094   1.189   0.374   4.839 -0.4651 -1.1148 -0.5572
 1821SOL     OW17095   3.006   3.229   9.116  0.1159 -0.4466  0.1522
 1821SOL    HW117096   2.941   3.209   9.183 -0.6527 -0.8332 -0.7053
 1821SOL    HW217097   3.050   3.304   9.155  0.8857 -1.4595  1.2259
 1822SOL     OW17098   4.543   2.596  16.045  0.2690 -0.0656 -0.6076
 1822SOL    HW117099   4.498   2.539  16.108 -0.0903  1.4356  0.4798
 1822SOL    HW217100   4.529   2.552  15.962  0.4510 -0.1412 -0.5990
 1823SOL     OW17101   0.110   2.968   2.948 -0.4322 -0.3318 -0.2990
 1823SOL    HW117102   0.037   3.011   2.992  0.1873 -1.7653  2.1276
 1823SOL    HW217103   0.151   2.924   3.022 -2.3444  0.2402  1.0896
 1824SOL     OW17104   0.189   0.708  11.387  0.3772 -0.0012  0.8320
 1824SOL    HW117105   0.125   0.745  11.327  0.5955 -1.0760 -0.0873
 1824SOL    HW217106   0.237   0.783  11.421  1.3762  0.3426 -1.2931
 1825SOL     OW17107   1.934   0.555   6.223 -0.7366 -0.5106 -0.3225
 1825SOL    HW117108   1.879   0.604   6.284  1.2338  0.7221  0.4712
 1825SOL    HW217109   1.918   0.614   6.149 -1.1586  0.1071  0.2588
 1826SOL     OW17110   2.248   3.374   4.804 -0.0416  0.1040  0.1677
 1826SOL    HW117111   2.198   3.367   4.886  0.4223  0.8997  0.5168
 1826SOL    HW217112   2.184   3.337   4.744 -1.6303 -1.3193  2.7600
 1827SOL     OW17113   3.466   2.002   0.643  0.0346  0.1856  0.1585
 1827SOL    HW117114   3.479   2.078   0.588  2.6906 -0.7460 -0.4753
 1827SOL    HW217115   3.397   1.966   0.586  1.0728 -0.7170 -0.5190
 1828SOL     OW17116   1.216   4.435  11.996 -0.1336 -0.0791  0.3777
 1828SOL    HW117117   1.260   4.364  11.950  1.7833 -0.1830  2.3611
 1828SOL    HW217118   1.219   4.504  11.930 -0.6479 -1.3521 -0.9617
 1829SOL     OW17119   4.074   1.008   2.436  0.2461 -0.2189  0.0904
 1829SOL    HW117120   4.132   0.996   2.511  2.8914  2.8883 -1.4808
 1829SOL    HW217121   4.129   0.981   2.362  0.3822 -2.5188  1.0262
 1830SOL     OW17122   3.220   4.461   7.642  0.1417 -0.5838 -0.2836
 1830SOL    HW117123   3.197   4.454   7.549  0.0589 -0.2281 -0.2901
 1830SOL    HW217124   3.315   4.471   7.635  0.4634 -1.8872  2.3407
 1831SOL     OW17125   4.727   0.717   9.881  0.3423 -0.6541 -0.1489
 1831SOL    HW117126   0.073   0.673   9.887 -0.0401 -1.3716 -0.0262
 1831SOL    HW217127   4.665   0.680   9.943  1.0138 -0.6143  0.5467
 1832SOL     OW17128   3.741   1.363   4.669 -0.1241  0.1931  0.4633
 1832SOL    HW117129   3.780   1.423   4.733  1.1450 -0.5952  0.4282
 1832SOL    HW217130   3.803   1.359   4.596 -1.5177 -0.1244 -0.6852
 1833SOL     OW17131   1.056   0.986   4.107 -0.1768 -0.1640 -0.5728
 1833SOL    HW117132   0.963   0.967   4.114 -0.0267 -0.4800  0.6970
 1833SOL    HW217133   1.067   1.015   4.198  5.1216 -2.8980 -0.3675
 1834SOL     OW17134   3.047   2.035  16.147  0.2663 -0.1450  0.5887
 1834SOL    HW117135   2.958   1.998  16.152  0.0586  0.6627  2.5939
 1834SOL    HW217136   3.072   2.025  16.055 -0.2187  0.7097  0.3664
 1835SOL     OW17137   3.003   0.128   2.867  0.5462 -0.4023 -0.2092
 1835SOL    HW117138   2.944   0.180   2.922  0.0026 -0.3244 -0.8678
 1835SOL    HW217139   3.062   0.101   2.938  1.6123  3.4283  0.4026
 1836SOL     OW17140   3.977   0.092   7.914 -0.6307 -0.0037  0.2619
 1836SOL    HW117141   3.932   0.010   7.892 -0.9878  0.1541  0.4152
 1836SOL    HW217142   3.973   0.090   8.010  0.8706 -1.0890  0.3071
 1837SOL     OW17143   0.761   0.732   4.794  0.2518 -0.2041  0.2092
 1837SOL    HW117144   0.752   0.663   4.861  0.0540 -1.5918 -1.2452
 1837SOL    HW217145   0.831   0.785   4.832 -0.8037  0.4155  1.3212
 1838SOL     OW17146   0.316   4.307   7.030  0.4676 -0.4119  0.1023
 1838SOL    HW117147   0.268   4.332   7.108  0.2194  1.0690 -0.5320
 1838SOL    HW217148   0.266   4.358   6.967 -0.7426  0.2887  1.6226
 1839SOL     OW17149   1.536   1.602   3.531 -0.5808  0.4369  0.4865
 1839SOL    HW117150   1.624   1.588   3.566 -1.4014 -1.2847  1.8766
 1839SOL    HW217151   1.535   1.585   3.437 -0.9059  1.3895  0.3149
 1840SOL     OW17152   1.709   2.904   7.608  0.0945 -0.2346  0.5245
 1840SOL    HW117153   1.781   2.880   7.549  0.1643 -0.8042  0.8375
 1840SOL    HW217154   1.648   2.937   7.542 -0.0948 -0.0674  0.7835
 1841SOL     OW17155   1.555   1.196  13.241  0.4584 -0.4096  0.3673
 1841SOL    HW117156   1.556   1.280  13.287  1.2812  0.4054 -1.1068
 1841SOL    HW217157   1.638   1.155  13.265  1.0777  1.3138  1.1753
 1842SOL     OW17158   1.969   0.744   9.740  0.0595  0.1562  0.0380
 1842SOL    HW117159   1.953   0.651   9.728  2.2195 -0.1896  0.0147
 1842SOL    HW217160   1.888   0.782   9.775 -1.1316 -1.1741 -1.3049
 1843SOL     OW17161   4.130   1.489   8.285  0.2308  0.2094  0.1447
 1843SOL    HW117162   4.184   1.554   8.329 -0.4451  1.2677 -0.6107
 1843SOL    HW217163   4.204   1.435   8.258 -1.4890 -2.0421 -0.1747
 1844SOL     OW17164   1.133   0.102   2.269 -0.0350 -0.2729  0.1569
 1844SOL    HW117165   1.192   0.152   2.325 -0.4818  1.7387 -1.1591
 1844SOL    HW217166   1.058   0.092   2.327  0.8552 -1.0503  1.1629
 1845SOL     OW17167   2.684   3.593   0.839  0.1056 -0.3511 -0.1851
 1845SOL    HW117168   2.678   3.688   0.826  0.2720 -0.4163 -0.7739
 1845SOL    HW217169   2.592   3.569   0.848  0.5664 -1.9500  0.2728
 1846SOL     OW17170   4.420   2.607   0.237  0.1372  0.2120 -0.3342
 1846SOL    HW117171   4.386   2.614   0.326  0.0772  0.3166 -0.3642
 1846SOL    HW217172   4.367   2.540   0.195  0.0161  0.0972  0.0096
 1847SOL     OW17173   0.713   1.947   1.491 -0.0074  0.3911  0.0676
 1847SOL    HW117174   0.652   1.883   1.525  0.8820  0.4707  1.7905
 1847SOL    HW217175   0.782   1.919   1.551 -1.3428 -1.9743  0.5064
 1848SOL     OW17176   4.121   1.651   5.398 -0.6718 -0.1121  0.4188
 1848SOL    HW117177   4.039   1.690   5.431 -1.2380 -2.5405  1.8758
 1848SOL    HW217178   4.176   1.723   5.367 -2.8052  1.2827 -0.1438
 1849SOL     OW17179   2.644   3.260   4.969  0.7955  0.7983  0.7750
 1849SOL    HW117180   2.552   3.240   4.980  0.8123  0.0940 -0.3118
 1849SOL    HW217181   2.665   3.291   5.057  1.0242 -0.5867  1.2079
 1850SOL     OW17182   2.698   1.443   7.446  0.3148  0.2132  0.4919
 1850SOL    HW117183   2.623   1.384   7.432 -0.0774  0.9178 -0.3847
 1850SOL    HW217184   2.690   1.467   7.538 -2.0195 -0.8240  0.5642
 1851SOL     OW17185   2.628   0.288   3.547 -0.0292 -0.5644  0.0826
 1851SOL    HW117186   2.643   0.290   3.641 -2.2010 -2.1525  0.4842
 1851SOL    HW217187   2.571   0.365   3.539 -0.0229 -0.4356  1.3287
 1852SOL     OW17188   1.466   0.792   4.758 -0.5630 -0.3891 -0.2840
 1852SOL    HW117189   1.514   0.720   4.718 -3.4868 -1.7814 -1.2767
 1852SOL    HW217190   1.533   0.830   4.815 -0.1439 -0.6876 -0.5805
 1853SOL     OW17191   3.099   1.515   8.294  0.0359 -0.9401 -0.7830
 1853SOL    HW117192   3.065   1.425   8.292 -1.8014 -0.2515  0.3118
 1853SOL    HW217193   3.164   1.505   8.224  0.7286 -0.7867 -0.1635
 1854SOL     OW17194   1.544   0.068   5.977 -0.0506  0.1166 -0.7965
 1854SOL    HW117195   1.460   0.052   5.934 -1.1123 -1.1546  1.6930
 1854SOL    HW217196   1.513   0.075   6.068 -1.1220  1.3804 -1.2619
 1855SOL     OW17197   3.420   0.521   4.017 -0.2260  0.3551  0.7203
 1855SOL    HW117198   3.413   0.478   4.103  0.7940  1.0884  1.1692
 1855SOL    HW217199   3.487   0.586   4.038  2.2370 -1.4891 -1.5160
 1856SOL     OW17200   3.728   2.689   1.734 -0.2581  0.0787 -0.2055
 1856SOL    HW117201   3.687   2.634   1.801  0.4063  1.3048  1.1730
 1856SOL    HW217202   3.820   2.666   1.738 -0.2577  0.3865  1.5918
 1857SOL     OW17203   3.716   4.521   6.683 -0.2028  0.0420 -0.1895
 1857SOL    HW117204   3.754   4.556   6.603 -2.4513 -1.6800 -1.9736
 1857SOL    HW217205   3.794   4.525   6.739 -0.4259 -0.3325  0.1488
 1858SOL     OW17206   0.268   4.720   5.347  0.4594  0.0043  0.2068
 1858SOL    HW117207   0.226   0.053   5.392  1.9229 -0.2090  1.9243
 1858SOL    HW217208   0.350   4.718   5.397  1.6099 -1.3395 -1.7107
 1859SOL     OW17209   3.398   0.551   2.223 -0.5339  0.4422 -0.0818
 1859SOL    HW117210   3.444   0.630   2.251  2.1720 -1.3205  0.3418
 1859SOL    HW217211   3.474   0.494   2.235 -1.4530 -0.7924 -0.0879
 1860SOL     OW17212   4.520   2.949   4.047  0.7402 -0.3811 -0.2971
 1860SOL    HW117213   4.482   2.898   4.119 -0.7796  0.2013 -0.6877
 1860SOL    HW217214   4.615   2.936   4.043  0.9718  1.2313  0.0041
 1861SOL     OW17215   0.537   3.593   3.448  0.7310 -0.8444  0.1551
 1861SOL    HW117216   0.587   3.515   3.426  1.1499 -0.3180 -0.7744
 1861SOL    HW217217   0.605   3.649   3.486  1.9617 -0.3660 -2.8046
 1862SOL     OW17218   2.992   3.265   6.358 -0.8596 -0.0965  0.6917
 1862SOL    HW117219   2.987   3.170   6.350  1.7781 -0.2077  0.6870
 1862SOL    HW217220   3.085   3.284   6.359 -0.9780  0.5313 -0.3935
 1863SOL     OW17221   4.466   1.626  15.294  0.1179 -0.0229 -0.1746
 1863SOL    HW117222   4.399   1.675  15.342  2.8839  3.8842 -0.3169
 1863SOL    HW217223   4.431   1.537  15.290 -0.0521  0.0265  0.2157
 1864SOL     OW17224   1.105   4.286   5.443  0.1584  0.5038  0.5738
 1864SOL    HW117225   1.082   4.314   5.354 -0.1567 -0.7064  0.2678
 1864SOL    HW217226   1.175   4.344   5.472 -1.4462  2.3743  0.6813
 1865SOL     OW17227   4.211   0.799   4.303 -0.6240 -0.4347 -0.2478
 1865SOL    HW117228   4.193   0.804   4.397  1.6352 -3.2214  0.3510
 1865SOL    HW217229   4.307   0.796   4.306 -0.5646  3.9133  0.9734
 1866SOL     OW17230   1.583   1.932   8.141  0.5066 -0.8698 -0.1789
 1866SOL    HW117231   1.548   1.962   8.057  0.4816 -0.9845 -0.2101
 1866SOL    HW217232   1.498   1.938   8.184  1.8977  0.6922  2.4019
 1867SOL     OW17233   2.483   0.448   8.329  0.0782  0.6939  0.4629
 1867SOL    HW117234   2.464   0.372   8.274 -2.2447  0.5987  1.3578
 1867SOL    HW217235   2.435   0.417   8.406  0.0781 -2.2471 -0.7039
 1868SOL     OW17236   1.209   2.807   3.461 -0.1375 -0.0966  0.3304
 1868SOL    HW117237   1.254   2.727   3.487  0.9233  0.1335 -0.8164
 1868SOL    HW217238   1.246   2.827   3.375 -0.4300 -0.5733  0.0915
 1869SOL     OW17239   0.497   3.882   2.532  0.4467  0.4763 -1.0054
 1869SOL    HW117240   0.478   3.803   2.480  2.3490 -1.4184  1.1752
 1869SOL    HW217241   0.408   3.913   2.547  0.6970  1.1931 -1.0320
 1870SOL     OW17242   3.177   1.962   8.797  0.3238  0.6794  0.1003
 1870SOL    HW117243   3.234   1.902   8.845  1.0665  0.4638 -1.0536
 1870SOL    HW217244   3.157   2.028   8.864 -1.0538 -0.3221  0.6714
 1871SOL     OW17245   1.890   2.257  12.324 -0.0932  0.2168  0.0050
 1871SOL    HW117246   1.836   2.188  12.285 -0.5219  0.8072 -0.4380
 1871SOL    HW217247   1.835   2.332  12.347 -0.4826 -0.3978  1.0868
 1872SOL     OW17248   0.181   0.480   5.150 -0.1603 -0.3580 -0.0187
 1872SOL    HW117249   0.174   0.559   5.203  0.7912  0.8198 -1.6647
 1872SOL    HW217250   0.089   0.459   5.136 -1.1421  0.9441  4.5113
 1873SOL     OW17251   1.123   2.356   8.255 -0.5912  0.0372  0.2037
 1873SOL    HW117252   1.165   2.442   8.268 -1.7395  0.4027  1.4511
 1873SOL    HW217253   1.058   2.378   8.321 -1.4507 -0.4166 -0.4976
 1874SOL     OW17254   4.145   4.647  17.107 -0.1315 -0.1643 -0.4576
 1874SOL    HW117255   4.197   4.631  17.028 -1.6208  2.4378 -1.9767
 1874SOL    HW217256   4.163   0.000  17.124  1.3389 -0.6729  0.7290
 1875SOL     OW17257   1.290   2.387   2.389 -0.5956  0.4260  0.0854
 1875SOL    HW117258   1.350   2.459   2.411 -0.2783 -0.0946  0.9282
 1875SOL    HW217259   1.343   2.358   2.315  1.2581 -0.7674  1.8837
 1876SOL     OW17260   4.174   4.626   2.738  0.3838 -0.0257 -0.0561
 1876SOL    HW117261   4.123   4.552   2.703  2.0315 -0.1994 -2.0713
 1876SOL    HW217262   4.260   4.608   2.701 -1.8031 -2.5666 -3.9038
 1877SOL     OW17263   3.826   0.847   9.181 -0.2201 -0.3697  0.3918
 1877SOL    HW117264   3.872   0.837   9.264  1.5532  0.8693 -0.4425
 1877SOL    HW217265   3.743   0.882   9.213  0.1406  0.3388  0.5405
 1878SOL     OW17266   0.878   1.636   3.566 -0.2598 -0.7173  0.1027
 1878SOL    HW117267   0.931   1.672   3.495  0.8153 -0.6456  0.9342
 1878SOL    HW217268   0.797   1.684   3.547 -0.2741 -0.4187  0.8973
 1879SOL     OW17269   0.687   1.002  13.075 -0.6574  0.0859 -0.2190
 1879SOL    HW117270   0.683   1.094  13.049 -0.5704  0.0545 -0.3458
 1879SOL    HW217271   0.701   0.948  12.997  0.1660  1.1211 -0.7771
 1880SOL     OW17272   1.974   3.312  16.466  0.1375  0.2489  0.5879
 1880SOL    HW117273   1.915   3.306  16.392  0.9715 -0.0485 -0.0494
 1880SOL    HW217274   2.019   3.396  16.455 -0.0603  0.4356  1.2164
 1881SOL     OW17275   0.239   0.202   4.543 -0.0404  0.9788  0.1954
 1881SOL    HW117276   0.322   0.198   4.590  0.0725  1.3076  0.0303
 1881SOL    HW217277   0.259   0.276   4.485  3.1418 -1.5480 -1.9199
 1882SOL     OW17278   2.019   0.464   9.421  0.2798 -0.3333  0.0067
 1882SOL    HW117279   1.981   0.547   9.451 -1.1964 -0.6509 -1.0001
 1882SOL    HW217280   1.939   0.424   9.387 -0.2179  1.2741 -0.7443
 1883SOL     OW17281   2.327   1.835   4.131 -0.2592  0.0380 -0.2466
 1883SOL    HW117282   2.317   1.813   4.038  1.0271  0.7731 -0.5648
 1883SOL    HW217283   2.422   1.828   4.139 -0.7457 -2.7284  2.6294
 1884SOL     OW17284   1.705   2.062   4.952 -0.5384 -0.5509  0.4038
 1884SOL    HW117285   1.694   2.153   4.977  0.3584  0.0275 -1.2764
 1884SOL    HW217286   1.623   2.021   4.981 -0.5290 -1.0549 -0.2889
 1885SOL     OW17287   0.401   0.305  11.975  0.1998  0.6226  0.2290
 1885SOL    HW117288   0.392   0.220  11.931  1.2390  0.0252  1.1929
 1885SOL    HW217289   0.418   0.370  11.907  1.4585  1.8205  1.7052
 1886SOL     OW17290   1.350   3.784   7.762 -0.2829 -0.3487  0.1518
 1886SOL    HW117291   1.306   3.707   7.799  0.5129 -1.3349 -0.9711
 1886SOL    HW217292   1.326   3.856   7.821  1.2172 -0.8347  1.3370
 1887SOL     OW17293   3.028   0.650   6.075 -0.0659 -0.4068  0.6363
 1887SOL    HW117294   2.982   0.728   6.108  0.1229 -0.3355  0.7292
 1887SOL    HW217295   3.117   0.685   6.071 -0.2599  0.1617  1.2596
 1888SOL     OW17296   3.550   2.757   4.147  0.0025 -0.4445 -0.2074
 1888SOL    HW117297   3.629   2.794   4.107 -0.3426  0.0624 -0.4152
 1888SOL    HW217298   3.511   2.832   4.191 -0.5791 -1.4744  1.0304
 1889SOL     OW17299   4.085   3.255  15.319 -0.1084 -0.0669  0.0703
 1889SOL    HW117300   4.167   3.267  15.271  0.6304 -0.2071  1.3043
 1889SOL    HW217301   4.113   3.222  15.404  1.6660 -0.0174 -0.5046
 1890SOL     OW17302   1.742   2.623   6.477  0.1438 -0.0770 -0.1114
 1890SOL    HW117303   1.685   2.654   6.407  0.1093 -1.2825 -0.6311
 1890SOL    HW217304   1.690   2.607   6.556  0.7232  1.2440  0.5333
 1891SOL     OW17305   2.594   1.195   2.590 -0.3396  0.2523  0.0085
 1891SOL    HW117306   2.641   1.241   2.519  1.0581  3.1693  2.8220
 1891SOL    HW217307   2.591   1.108   2.550 -2.7804  0.6206 -0.5926
 1892SOL     OW17308   4.678   3.903   8.832  0.1635  1.0159 -0.1432
 1892SOL    HW117309   4.688   3.872   8.742 -1.3895 -1.7196  0.6269
 1892SOL    HW217310   4.601   3.959   8.821  1.1214  2.5907  1.2742
 1893SOL     OW17311   3.148   3.663  13.030 -0.4996 -0.1306 -0.0425
 1893SOL    HW117312   3.212   3.723  13.069  0.1289 -0.2968 -0.8308
 1893SOL    HW217313   3.061   3.683  13.064 -1.1394 -0.0404 -1.7238
 1894SOL     OW17314   3.688   2.364   4.947 -0.8647  0.1379 -0.0235
 1894SOL    HW117315   3.666   2.372   4.855 -1.7459 -0.9342  0.0904
 1894SOL    HW217316   3.727   2.449   4.968 -1.4979  0.8078 -1.5619
 1895SOL     OW17317   3.523   1.478   8.221  0.2348 -0.3869  0.6366
 1895SOL    HW117318   3.433   1.472   8.189 -0.3918 -0.2576  2.3756
 1895SOL    HW217319   3.561   1.526   8.147 -1.2752  2.8956  1.9517
 1896SOL     OW17320   3.949   1.069  11.026  0.4010 -0.3799 -0.1269
 1896SOL    HW117321   4.030   1.116  11.046  1.2984 -1.8085 -0.4394
 1896SOL    HW217322   3.904   1.076  11.110  1.5501  2.4559  0.2519
 1897SOL     OW17323   1.802   4.512  14.739  0.1982 -0.1301  0.6982
 1897SOL    HW117324   1.835   4.507  14.828 -0.4198  0.5141  0.9618
 1897SOL    HW217325   1.708   4.509  14.754  0.0633  0.5154 -0.0228
 1898SOL     OW17326   1.179   1.499  11.159  0.4954 -0.1148 -0.7597
 1898SOL    HW117327   1.272   1.480  11.167 -0.2926 -3.5975  0.4323
 1898SOL    HW217328   1.152   1.423  11.107  2.0503 -0.5994 -0.8428
 1899SOL     OW17329   1.621   2.373   3.751 -0.5350  0.0986 -0.1099
 1899SOL    HW117330   1.598   2.312   3.681  1.9681 -0.1762 -0.6804
 1899SOL    HW217331   1.658   2.316   3.819  1.3420  0.8876 -0.4964
 1900SOL     OW17332   2.394   3.195   6.141 -0.0517  0.6137 -0.0338
 1900SOL    HW117333   2.394   3.125   6.206 -1.3175  0.8798  0.2603
 1900SOL    HW217334   2.433   3.267   6.191 -0.6634  1.1693 -0.3602
 1901SOL     OW17335   0.081   4.291   7.853 -0.4344  0.1644  0.4207
 1901SOL    HW117336   4.729   4.318   7.864 -0.2039  0.7258  0.9613
 1901SOL    HW217337   0.066   4.226   7.784 -0.6792 -1.5915  2.1019
 1902SOL     OW17338   1.031   0.535  10.688 -0.3704 -0.5565 -0.2452
 1902SOL    HW117339   1.023   0.630  10.675  0.1486 -0.1327  2.4350
 1902SOL    HW217340   1.040   0.536  10.783  1.3884  0.6061 -0.4158
 1903SOL     OW17341   1.936   1.082  16.097  0.1971 -0.5102 -0.4074
 1903SOL    HW117342   1.855   1.061  16.049  0.8215  2.3966 -2.7661
 1903SOL    HW217343   1.985   1.121  16.024  0.3891  0.5730  0.2953
 1904SOL     OW17344   3.748   1.692   7.263  0.4002 -0.1082 -1.0184
 1904SOL    HW117345   3.660   1.685   7.299  1.3066 -2.6084  0.7482
 1904SOL    HW217346   3.757   1.611   7.212 -0.5167 -0.4319 -0.6501
 1905SOL     OW17347   2.522   4.463  11.194 -0.3641  0.2204  0.3336
 1905SOL    HW117348   2.562   4.549  11.179  0.9857 -0.4699 -0.0393
 1905SOL    HW217349   2.596   4.424  11.241 -0.5811 -2.5054 -1.6216
 1906SOL     OW17350   3.541   1.696   7.898  0.2625  0.3913  0.1644
 1906SOL    HW117351   3.604   1.712   7.969  2.0471 -0.8439 -1.1377
 1906SOL    HW217352   3.521   1.784   7.866 -0.2853 -0.3551 -1.4937
 1907SOL     OW17353   4.494   2.791   6.346  0.0144  0.1122  0.0681
 1907SOL    HW117354   4.443   2.754   6.418  1.4453  1.3651  1.7216
 1907SOL    HW217355   4.442   2.758   6.272 -1.0418 -0.3590  1.0180
 1908SOL     OW17356   1.986   3.160   2.506 -0.5634 -0.0823  0.5783
 1908SOL    HW117357   1.940   3.244   2.506  0.7886  0.6447 -0.9950
 1908SOL    HW217358   2.011   3.167   2.414 -0.5697 -0.3255  0.5580
 1909SOL     OW17359   3.900   1.697   8.902  0.0018  0.1111  0.5620
 1909SOL    HW117360   3.828   1.637   8.883  0.5959  0.0300 -1.3682
 1909SOL    HW217361   3.965   1.631   8.928 -0.3693 -0.9197 -1.1103
 1910SOL     OW17362   0.168   1.270   6.020 -0.2197 -0.5704 -0.0905
 1910SOL    HW117363   0.117   1.293   5.942  1.4988 -1.3617 -1.4841
 1910SOL    HW217364   0.170   1.356   6.062 -1.6007  0.1303 -1.4604
 1911SOL     OW17365   2.905   2.642   7.429 -0.2914  0.3457 -0.0578
 1911SOL    HW117366   2.863   2.719   7.467  1.4341  0.4730  1.6104
 1911SOL    HW217367   2.991   2.681   7.420  0.2130 -0.3790  1.4954
 1912SOL     OW17368   0.628   1.831  15.241 -0.2271 -0.3737 -0.1429
 1912SOL    HW117369   0.719   1.854  15.226  0.0640  0.0489  2.3518
 1912SOL    HW217370   0.592   1.893  15.305 -0.1391 -1.1917  0.6981
 1913SOL     OW17371   1.192   2.043   1.948 -0.1598 -0.3800 -0.2636
 1913SOL    HW117372   1.100   2.068   1.942 -0.6654 -1.9075  1.1183
 1913SOL    HW217373   1.233   2.124   1.978 -1.4234  0.8418 -1.8081
 1914SOL     OW17374   3.521   3.110  11.463  0.2776 -0.0683  0.4023
 1914SOL    HW117375   3.502   3.192  11.417  0.7138 -0.6249 -0.7675
 1914SOL    HW217376   3.598   3.078  11.415 -0.0767  0.1832 -0.3491
 1915SOL     OW17377   4.373   4.260   7.087 -0.1851 -0.5261  0.5727
 1915SOL    HW117378   4.279   4.261   7.067  0.0085 -0.2564 -0.3347
 1915SOL    HW217379   4.373   4.305   7.171  0.0920 -0.4372  0.5263
 1916SOL     OW17380   3.127   0.999   5.341  0.1852  0.3398 -0.0106
 1916SOL    HW117381   3.067   0.925   5.334 -0.0355  0.5440 -0.2523
 1916SOL    HW217382   3.166   0.997   5.254 -1.5897  0.0370 -0.7989
 1917SOL     OW17383   0.077   2.164   6.742  0.1991 -0.1127 -0.0036
 1917SOL    HW117384   0.024   2.190   6.818 -1.1306  0.6723 -1.1996
 1917SOL    HW217385   0.014   2.135   6.676  0.8246  0.2715 -0.7644
 1918SOL     OW17386   1.262   2.505   1.057 -0.1634 -0.7730 -0.0172
 1918SOL    HW117387   1.346   2.495   1.101 -0.5641 -0.9239  0.7085
 1918SOL    HW217388   1.202   2.493   1.130 -1.2876 -2.3755 -1.1876
 1919SOL     OW17389   1.587   2.090   3.653 -0.2723 -0.4825  0.4642
 1919SOL    HW117390   1.536   2.009   3.655 -1.1677  0.1552  4.1217
 1919SOL    HW217391   1.660   2.052   3.604  1.1482 -0.2639  2.3855
 1920SOL     OW17392   0.448   3.808   6.037  0.1551  0.0913  0.1237
 1920SOL    HW117393   0.367   3.835   5.994  0.4517 -0.0837 -0.5499
 1920SOL    HW217394   0.438   3.854   6.120  2.3277  0.6382  0.0850
 1921SOL     OW17395   3.105   4.626  17.482  0.1284  0.3262 -0.4430
 1921SOL    HW117396   3.185   4.641  17.432  0.7116 -0.4082  0.2731
 1921SOL    HW217397   3.082   4.537  17.455  2.0631 -0.8065  1.6094
 1922SOL     OW17398   1.332   1.515   7.780 -0.1048 -0.1881  0.7503
 1922SOL    HW117399   1.427   1.516   7.766 -0.5402 -0.6735 -2.2647
 1922SOL    HW217400   1.328   1.602   7.819  2.1533 -0.7220  2.1439
 1923SOL     OW17401   1.980   0.951   8.849 -0.2595  0.0427 -0.2042
 1923SOL    HW117402   1.967   1.042   8.879 -0.2593 -0.6396  1.8840
 1923SOL    HW217403   1.918   0.907   8.908 -0.1783  1.6694  1.1103
 1924SOL     OW17404   2.213   2.534   6.068  0.5043 -0.2943 -0.5471
 1924SOL    HW117405   2.184   2.451   6.105 -2.7886  0.9786 -0.2509
 1924SOL    HW217406   2.135   2.554   6.016 -1.1105 -2.3593  1.0907
 1925SOL     OW17407   1.870   1.023   6.961 -0.3141  0.3944 -0.1680
 1925SOL    HW117408   1.883   0.965   7.035 -0.3011  1.1579  0.4228
 1925SOL    HW217409   1.776   1.041   6.957 -0.6342 -0.9414  1.2845
 1926SOL     OW17410   0.427   2.750   2.299 -0.5737  0.3779  0.4947
 1926SOL    HW117411   0.466   2.814   2.359 -1.0445  0.7680  0.3897
 1926SOL    HW217412   0.336   2.767   2.325 -1.3988 -0.6254 -1.7504
 1927SOL     OW17413   4.507   0.907   2.996 -0.6641 -0.6019  0.5604
 1927SOL    HW117414   4.528   0.868   2.912  0.0007  0.7705  0.0883
 1927SOL    HW217415   4.493   0.999   2.974 -1.2780 -0.8465 -0.0577
 1928SOL     OW17416   3.176   4.222   2.183  0.0361  0.5734  0.4342
 1928SOL    HW117417   3.230   4.231   2.104 -0.2577  1.0348  0.2829
 1928SOL    HW217418   3.107   4.284   2.159  0.0107  0.4864  0.2809
 1929SOL     OW17419   0.963   0.549   8.555 -0.4909  0.2856  0.4006
 1929SOL    HW117420   0.924   0.555   8.642  0.1947  1.0828  0.6547
 1929SOL    HW217421   0.993   0.635   8.529 -0.2080  0.7790  2.3396
 1930SOL     OW17422   3.632   3.907   4.567 -0.5611  0.5224  0.6322
 1930SOL    HW117423   3.668   3.892   4.654 -1.3546 -0.1791  0.8400
 1930SOL    HW217424   3.653   3.828   4.519 -2.5366  0.6371 -0.4543
 1931SOL     OW17425   1.268   3.417   3.136 -0.4531  0.3209 -0.1265
 1931SOL    HW117426   1.218   3.449   3.061 -0.8055  0.4023  0.1379
 1931SOL    HW217427   1.228   3.330   3.133  1.3518 -0.5148  0.1196
 1932SOL     OW17428   0.175   3.026   4.803  0.2403 -0.8228  0.7134
 1932SOL    HW117429   0.143   3.075   4.878  0.9968 -0.4306  0.7799
 1932SOL    HW217430   0.202   3.100   4.748  0.3252 -0.4021  1.3318
 1933SOL     OW17431   1.245   3.146   3.921 -0.0709 -0.1912  0.3501
 1933SOL    HW117432   1.230   3.097   3.840  0.9708 -1.9800  1.2169
 1933SOL    HW217433   1.325   3.103   3.952  1.0064  1.8465  0.3826
 1934SOL     OW17434   3.856   2.874   3.707  0.1537 -0.0932  0.0575
 1934SOL    HW117435   3.880   2.796   3.756 -1.7406 -2.1070 -2.2092
 1934SOL    HW217436   3.897   2.870   3.621 -0.2856 -1.4166 -0.0880
 1935SOL     OW17437   1.249   0.537   3.538 -0.2036  0.5208 -0.1035
 1935SOL    HW117438   1.261   0.483   3.460  2.8871  0.3932  0.4562
 1935SOL    HW217439   1.240   0.624   3.499  0.9999  0.3669 -0.7201
 1936SOL     OW17440   2.353   3.820   3.125  0.1985 -0.0858  0.1688
 1936SOL    HW117441   2.438   3.803   3.167 -0.9938 -0.0489  2.6086
 1936SOL    HW217442   2.328   3.735   3.088 -0.8556  0.3713 -0.1492
 1937SOL     OW17443   2.231   2.311   0.447  0.0271 -0.1154 -0.6960
 1937SOL    HW117444   2.191   2.354   0.372 -2.1324 -1.1470 -0.1435
 1937SOL    HW217445   2.303   2.263   0.406  2.6821  0.4562  3.3016
 1938SOL     OW17446   4.234   0.394  11.843  0.2361  0.1075 -0.0621
 1938SOL    HW117447   4.154   0.420  11.797 -0.3626 -2.5766 -0.5346
 1938SOL    HW217448   4.280   0.352  11.770 -1.9351 -0.9002 -0.8305
 1939SOL     OW17449   2.124   0.422   4.095 -0.3578  0.3393  0.3044
 1939SOL    HW117450   2.033   0.441   4.071  0.3022  0.9929 -1.7202
 1939SOL    HW217451   2.121   0.326   4.089  1.9487  0.2639  0.4458
 1940SOL     OW17452   0.364   1.759   6.470  0.5708  0.0526  0.1356
 1940SOL    HW117453   0.283   1.783   6.514 -0.9216 -1.8752 -1.5388
 1940SOL    HW217454   0.374   1.821   6.398 -0.4377  2.0620  1.7450
 1941SOL     OW17455   3.539   2.283   2.864  0.1413  0.1794  0.1843
 1941SOL    HW117456   3.508   2.205   2.910  0.2638  0.5845  0.9523
 1941SOL    HW217457   3.496   2.352   2.914 -1.3616 -0.5508 -0.0831
 1942SOL     OW17458   3.951   4.070   9.991  0.5085  0.4604 -0.4939
 1942SOL    HW117459   4.009   4.076   9.915  0.2212 -0.4263 -0.7870
 1942SOL    HW217460   3.930   3.976   9.995  1.5446  0.3305  1.7887
 1943SOL     OW17461   2.448   2.242  16.926  0.0191 -0.3865 -0.4757
 1943SOL    HW117462   2.404   2.210  16.847 -2.9703 -0.7168  1.3205
 1943SOL    HW217463   2.473   2.329  16.897 -1.9231 -0.7718 -3.2883
 1944SOL     OW17464   2.390   4.317   3.945 -0.3877  0.2390  0.1959
 1944SOL    HW117465   2.409   4.232   3.905 -0.9541 -0.4309  1.3628
 1944SOL    HW217466   2.318   4.287   3.999 -0.3818 -1.3337 -0.6711
 1945SOL     OW17467   3.185   2.296  13.227  0.6894 -0.5156  0.0980
 1945SOL    HW117468   3.240   2.371  13.204 -0.8691  0.3665 -0.7751
 1945SOL    HW217469   3.100   2.322  13.190  0.7003  0.7803  1.0006
 1946SOL     OW17470   4.586   2.837   7.727  0.3704  0.2238 -0.6188
 1946SOL    HW117471   4.565   2.847   7.820 -0.5265  1.3624 -0.9360
 1946SOL    HW217472   4.500   2.842   7.684  0.0164  0.4166  0.1086
 1947SOL     OW17473   4.376   4.612   8.394  0.0152 -0.3860  0.7384
 1947SOL    HW117474   4.342   4.639   8.479  0.7929  1.6906  0.3783
 1947SOL    HW217475   4.469   4.606   8.413  0.5265  1.2270 -1.2140
 1948SOL     OW17476   0.482   1.279   6.920  0.2696 -0.3692 -0.2624
 1948SOL    HW117477   0.483   1.202   6.863  0.1596 -0.6292  0.0879
 1948SOL    HW217478   0.413   1.335   6.883 -1.4295 -1.1738  1.7204
 1949SOL     OW17479   2.893   2.371   9.010 -0.0096  0.2410  0.1436
 1949SOL    HW117480   2.812   2.348   9.055 -1.1375  1.5456 -1.2625
 1949SOL    HW217481   2.909   2.457   9.050 -0.9336  0.3884  0.1776
 1950SOL     OW17482   0.499   2.969   8.408 -0.2277  0.0805  0.0292
 1950SOL    HW117483   0.594   2.982   8.417 -0.5879  2.3986  0.4674
 1950SOL    HW217484   0.476   3.054   8.372 -1.1790 -0.0806  0.2654
 1951SOL     OW17485   0.782   2.076  14.422  0.0675 -0.3062 -0.1501
 1951SOL    HW117486   0.693   2.100  14.446  0.9390  0.0978  2.6931
 1951SOL    HW217487   0.775   2.054  14.329  1.9441 -1.4890 -0.0090
 1952SOL     OW17488   2.337   2.219   5.639 -0.1728  0.5454  0.0072
 1952SOL    HW117489   2.386   2.159   5.696 -1.8336 -1.6537 -0.8861
 1952SOL    HW217490   2.249   2.219   5.678  0.1833 -0.4207  0.8146
 1953SOL     OW17491   4.565   1.862  14.379 -0.5272 -0.3041  0.3502
 1953SOL    HW117492   4.491   1.834  14.432 -0.5658 -0.9978 -0.0673
 1953SOL    HW217493   4.560   1.956  14.397 -1.9289 -0.2006 -0.6048
 1954SOL     OW17494   2.166   2.966   6.619  0.0348  0.1043 -0.5123
 1954SOL    HW117495   2.231   3.034   6.599  1.1528 -1.0306 -0.7299
 1954SOL    HW217496   2.110   2.971   6.542 -1.1185 -2.8258  0.1424
 1955SOL     OW17497   2.222   2.488   4.988  0.7955  0.2804 -0.4217
 1955SOL    HW117498   2.303   2.439   4.970 -0.1202 -0.6282 -2.0033
 1955SOL    HW217499   2.157   2.422   4.966 -0.5905  0.9020  1.8599
 1956SOL     OW17500   1.698   1.585   1.644 -0.3567 -0.1648  0.5238
 1956SOL    HW117501   1.689   1.510   1.586 -1.4327  1.5109 -1.4866
 1956SOL    HW217502   1.742   1.639   1.577 -0.6929 -2.0479 -1.1983
 1957SOL     OW17503   4.254   4.199  10.442  0.3319  0.2592  0.0756
 1957SOL    HW117504   4.343   4.219  10.411  0.6063 -1.5695 -0.3723
 1957SOL    HW217505   4.207   4.187  10.359 -0.7972  2.1274  0.4734
 1958SOL     OW17506   4.003   0.131   2.711 -0.2861 -0.5047 -0.1949
 1958SOL    HW117507   4.061   0.055   2.715  1.0288  0.5223  0.1866
 1958SOL    HW217508   4.070   0.194   2.685 -1.8535  1.1172 -0.3751
 1959SOL     OW17509   4.288   2.641   3.333  0.4162 -0.3976  0.2027
 1959SOL    HW117510   4.207   2.598   3.307  0.0059  0.3180  0.3070
 1959SOL    HW217511   4.302   2.687   3.251  0.1947  0.3958  0.6078
 1960SOL     OW17512   3.168   0.645   3.560  0.5144 -0.2891 -0.3538
 1960SOL    HW117513   3.251   0.649   3.512  0.5625 -0.2906 -0.2697
 1960SOL    HW217514   3.204   0.633   3.648 -1.8675 -0.6566  0.5630
 1961SOL     OW17515   0.722   2.459   0.210  0.1425  0.3425 -0.2567
 1961SOL    HW117516   0.648   2.482   0.154 -0.0915  1.5896  0.5495
 1961SOL    HW217517   0.746   2.372   0.181  3.0879  2.0798 -3.0075
 1962SOL     OW17518   2.274   3.865   2.344  0.1905 -0.2658 -0.6320
 1962SOL    HW117519   2.257   3.918   2.422  1.4541  1.3062 -1.4496
 1962SOL    HW217520   2.332   3.922   2.294  0.3725 -2.2624 -2.6928
 1963SOL     OW17521   4.036   2.230  13.671  0.1031  0.0081  0.6353
 1963SOL    HW117522   4.048   2.135  13.673 -1.4587 -0.2111 -0.3819
 1963SOL    HW217523   4.061   2.252  13.761 -0.6593  1.8849  0.3841
 1964SOL     OW17524   0.930   2.748   3.526  0.0591 -0.1668 -0.5507
 1964SOL    HW117525   1.010   2.785   3.488  0.2765 -0.0542  0.0193
 1964SOL    HW217526   0.923   2.659   3.492 -1.2794  0.9148 -3.0840
 1965SOL     OW17527   3.888   1.453   2.663 -0.3963  0.1577 -0.6540
 1965SOL    HW117528   3.898   1.516   2.591 -0.0971  1.0856  0.2073
 1965SOL    HW217529   3.887   1.370   2.616 -0.9943 -0.6944  0.8680
 1966SOL     OW17530   2.291   1.108   3.287 -0.1115  0.0555 -0.0830
 1966SOL    HW117531   2.352   1.092   3.214  1.0410  0.2740  0.8231
 1966SOL    HW217532   2.299   1.037   3.352 -2.2331 -0.1496 -0.0453
 1967SOL     OW17533   3.306   4.734   4.803  0.2133  0.1462 -0.2920
 1967SOL    HW117534   3.334   4.643   4.790 -2.8613 -0.8238 -0.2032
 1967SOL    HW217535   3.382   0.038   4.765 -0.5271 -0.2330 -2.2221
 1968SOL     OW17536   1.176   4.181  16.072 -0.3818 -0.6698 -0.0482
 1968SOL    HW117537   1.262   4.168  16.034 -1.0278  2.8045 -2.6467
 1968SOL    HW217538   1.148   4.258  16.023  1.9123  0.7248  0.8258
 1969SOL     OW17539   3.500   1.418   9.609 -0.1602  0.6812 -0.5345
 1969SOL    HW117540   3.458   1.460   9.684 -0.7369 -0.5389 -0.1707
 1969SOL    HW217541   3.483   1.481   9.539 -3.2505  0.6562  0.1915
 1970SOL     OW17542   0.801   1.959   9.891 -0.1898 -0.3393  0.2448
 1970SOL    HW117543   0.866   1.925   9.953  0.6681 -2.6356 -1.9204
 1970SOL    HW217544   0.794   1.874   9.847  1.1268 -0.5845  0.5165
 1971SOL     OW17545   0.128   4.598   3.188 -0.1532  0.3518 -0.5375
 1971SOL    HW117546   0.206   4.551   3.158  0.5338  1.7328 -0.9163
 1971SOL    HW217547   0.065   4.585   3.117 -2.0632  1.1251  1.0467
 1972SOL     OW17548   2.774   1.915   4.338  0.2833 -0.5527  0.0878
 1972SOL    HW117549   2.784   1.956   4.424 -0.6488 -1.6370  0.7117
 1972SOL    HW217550   2.737   1.991   4.294  0.8881 -1.5527 -2.1284
 1973SOL     OW17551   3.948   1.704  14.440  0.2885 -0.6290  0.1810
 1973SOL    HW117552   3.885   1.652  14.391 -2.2572  2.3832  0.2802
 1973SOL    HW217553   3.901   1.767  14.494  0.1155 -0.6672  0.0745
 1974SOL     OW17554   0.735   1.041   8.134 -0.0973 -0.5377  0.8283
 1974SOL    HW117555   0.816   1.036   8.083 -2.0828 -2.9838 -2.0968
 1974SOL    HW217556   0.675   0.991   8.079  0.3721  1.4007 -1.4821
 1975SOL     OW17557   4.185   4.632   4.758  0.2489  0.3925  0.2980
 1975SOL    HW117558   4.161   4.695   4.691 -2.0028  1.3712  2.0316
 1975SOL    HW217559   4.267   4.669   4.791  0.6407  0.1830 -0.4549
 1976SOL     OW17560   4.169   4.353  12.788  0.0184 -0.4320 -0.2500
 1976SOL    HW117561   4.125   4.383  12.709 -0.3921  0.0318  0.1515
 1976SOL    HW217562   4.178   4.434  12.839  1.5882 -1.2601  0.7942
 1977SOL     OW17563   3.995   2.816   7.187 -0.6278  0.1944  0.5589
 1977SOL    HW117564   3.907   2.802   7.152  0.4277 -1.7582 -1.2137
 1977SOL    HW217565   4.009   2.725   7.212 -0.9062  1.0209  3.8644
 1978SOL     OW17566   2.297   4.140   7.285  0.3222  0.1446  0.2761
 1978SOL    HW117567   2.219   4.161   7.233 -1.9477 -0.0160  3.6075
 1978SOL    HW217568   2.286   4.192   7.365 -2.5462 -1.0812  0.6798
 1979SOL     OW17569   0.053   0.531  10.807  0.3165 -0.5652 -0.1771
 1979SOL    HW117570   0.001   0.453  10.827  1.0802 -1.2764 -0.9891
 1979SOL    HW217571   0.135   0.496  10.773  0.5643 -0.8154  0.6689
 1980SOL     OW17572   3.896   3.926   6.651 -0.1631 -0.1611  0.4734
 1980SOL    HW117573   3.908   3.970   6.567 -0.8882 -3.0420 -1.1441
 1980SOL    HW217574   3.917   3.839   6.617 -1.5761 -1.0383  1.8608
 1981SOL     OW17575   1.530   0.775   8.893  0.3043  0.0321  0.4065
 1981SOL    HW117576   1.524   0.860   8.849  1.6191 -0.3517 -0.5208
 1981SOL    HW217577   1.596   0.728   8.841 -0.4923 -0.5146 -0.1079
 1982SOL     OW17578   2.519   4.528   2.111  0.1464  0.1654  0.4945
 1982SOL    HW117579   2.545   4.606   2.159 -1.7330  0.7104  0.6045
 1982SOL    HW217580   2.429   4.517   2.142 -0.8686  0.3571 -2.3271
 1983SOL     OW17581   4.579   3.885   2.542  0.1965 -0.2576  0.2620
 1983SOL    HW117582   4.550   3.810   2.490 -0.2617  1.6683 -2.2612
 1983SOL    HW217583   4.494   3.929   2.551 -0.3907 -1.2613 -0.2925
 1984SOL     OW17584   2.119   4.630   9.474  0.2736 -0.0235  0.0494
 1984SOL    HW117585   2.042   4.583   9.440  0.1108  2.2558 -2.8076
 1984SOL    HW217586   2.157   4.672   9.397  1.5400 -2.1664 -0.5057
 1985SOL     OW17587   2.537   3.588  13.988 -0.3012  0.5308  0.2045
 1985SOL    HW117588   2.563   3.573  14.079 -0.0988  1.4395  0.2910
 1985SOL    HW217589   2.468   3.523  13.973 -1.4146  1.6765  0.4249
 1986SOL     OW17590   1.244   0.588   6.762 -0.4809 -0.5137  0.1404
 1986SOL    HW117591   1.329   0.558   6.793  0.7519  2.2476 -0.5888
 1986SOL    HW217592   1.276   0.664   6.713  1.9436 -1.6314 -0.0056
 1987SOL     OW17593   2.048   2.143   7.938  0.1572 -0.1770 -0.0693
 1987SOL    HW117594   1.961   2.184   7.937  0.3534  0.2857  0.8792
 1987SOL    HW217595   2.018   2.064   7.982 -1.6655  1.8637  2.4342
 1988SOL     OW17596   1.076   0.598   3.849 -0.3698  0.1842 -0.0152
 1988SOL    HW117597   1.015   0.647   3.903 -0.3719  1.6286 -1.3127
 1988SOL    HW217598   1.077   0.662   3.778  2.2402 -0.3429 -0.4841
 1989SOL     OW17599   1.563   1.268   9.611  0.1565 -0.1162  0.5321
 1989SOL    HW117600   1.476   1.232   9.596 -0.0179  1.3541 -2.0357
 1989SOL    HW217601   1.567   1.352   9.566  0.2425 -1.0359 -1.2059
 1990SOL     OW17602   3.073   1.290   6.308  0.6213  0.5592 -0.1584
 1990SOL    HW117603   2.987   1.330   6.321  1.7716  2.6229  1.0418
 1990SOL    HW217604   3.061   1.252   6.221 -1.0940  2.3166 -0.6854
 1991SOL     OW17605   1.628   3.768   1.169  0.1851  0.1628  0.1519
 1991SOL    HW117606   1.551   3.755   1.224 -0.7641  2.2065 -0.6785
 1991SOL    HW217607   1.627   3.692   1.111  1.8363 -0.3491  0.7750
 1992SOL     OW17608   1.416   3.117   7.968  0.0772  0.3399  0.1696
 1992SOL    HW117609   1.384   3.094   8.056 -0.8020  0.0256 -0.2321
 1992SOL    HW217610   1.386   3.040   7.920  1.3239 -0.3583  0.5202
 1993SOL     OW17611   3.590   4.390   6.109 -0.0781  0.1170  0.1504
 1993SOL    HW117612   3.522   4.325   6.090  0.2225 -0.5919  1.5115
 1993SOL    HW217613   3.588   4.440   6.028 -0.1320  0.2345  0.2240
 1994SOL     OW17614   0.561   2.124   6.339  0.5616 -0.7811 -0.2351
 1994SOL    HW117615   0.520   2.047   6.298  1.8529 -1.2317 -0.7004
 1994SOL    HW217616   0.535   2.091   6.425 -1.4972  1.0170 -0.1605
 1995SOL     OW17617   2.247   2.178   8.515  0.4203  0.4830 -0.4283
 1995SOL    HW117618   2.225   2.105   8.457 -0.1229  0.8477 -0.6772
 1995SOL    HW217619   2.246   2.247   8.449 -0.5901  1.1637  0.3206
 1996SOL     OW17620   1.225   0.531  13.862  0.0083 -0.5569  0.1129
 1996SOL    HW117621   1.237   0.604  13.801  0.0237  0.0193  0.7987
 1996SOL    HW217622   1.211   0.455  13.806 -1.7719 -0.3993  0.3362
 1997SOL     OW17623   4.289   1.643   9.309 -0.1329  0.1921 -0.2268
 1997SOL    HW117624   4.210   1.609   9.267 -1.5948 -0.0286  2.7277
 1997SOL    HW217625   4.328   1.692   9.237  1.3708 -0.9864 -0.1991
 1998SOL     OW17626   3.465   3.227   6.906  0.1190 -0.0807  0.2988
 1998SOL    HW117627   3.471   3.256   6.815 -3.5141 -0.1411  0.0737
 1998SOL    HW217628   3.453   3.133   6.895  3.3267 -0.5658  0.8674
 1999SOL     OW17629   3.154   2.792   5.865  0.4446  0.0616 -0.3600
 1999SOL    HW117630   3.171   2.820   5.955 -1.9801  0.9837 -0.1836
 1999SOL    HW217631   3.065   2.757   5.869  0.0951  1.1188  1.2667
 2000SOL     OW17632   4.202   3.319  13.491 -0.4815  0.0573 -0.0061
 2000SOL    HW117633   4.201   3.229  13.524  0.7107 -0.1276 -0.4748
 2000SOL    HW217634   4.270   3.363  13.542 -0.9285  1.0001 -0.2193
 2001SOL     OW17635   0.506   3.069   1.280 -0.1435 -0.3164 -0.8164
 2001SOL    HW117636   0.492   3.029   1.366  0.7967 -1.8299 -1.3677
 2001SOL    HW217637   0.492   3.158   1.311 -3.1172 -0.3868 -1.9929
 2002SOL     OW17638   2.449   0.123   8.927 -0.4855  0.2977  0.0172
 2002SOL    HW117639   2.404   0.046   8.893 -1.0237  0.4028  0.4843
 2002SOL    HW217640   2.386   0.195   8.920  0.0549  0.8273  0.5829
 2003SOL     OW17641   4.126   3.253   1.946 -0.2827  0.2245  0.1456
 2003SOL    HW117642   4.115   3.249   1.851 -1.5710  0.1742  0.2960
 2003SOL    HW217643   4.202   3.196   1.955 -0.2661  0.5907  2.2715
 2004SOL     OW17644   2.334   2.773  10.591  0.4306  0.4458 -0.4002
 2004SOL    HW117645   2.324   2.805  10.501  2.7290 -0.4972 -0.9908
 2004SOL    HW217646   2.385   2.844  10.630 -0.5187  1.1211 -0.3733
 2005SOL     OW17647   0.461   1.578   8.394 -0.5253  0.2353  0.5978
 2005SOL    HW117648   0.368   1.556   8.389 -0.5784  0.3564  1.0892
 2005SOL    HW217649   0.464   1.672   8.374 -0.9001 -0.0564 -0.8357
 2006SOL     OW17650   4.103   4.131   7.941 -0.3936 -0.3154 -0.6217
 2006SOL    HW117651   4.026   4.123   7.997 -0.1574 -1.2422 -0.4255
 2006SOL    HW217652   4.122   4.225   7.941  1.0841 -0.5957  1.8468
 2007SOL     OW17653   0.007   2.465  13.436 -0.0664  0.3923 -0.5665
 2007SOL    HW117654   0.048   2.392  13.482  1.3157  0.9227 -0.9667
 2007SOL    HW217655   0.002   2.527  13.510  0.4142 -0.6286  0.3202
 2008SOL     OW17656   2.780   2.402   7.544  0.1118 -0.0408 -0.1566
 2008SOL    HW117657   2.805   2.364   7.460  0.0382  0.2198 -0.2963
 2008SOL    HW217658   2.819   2.489   7.534  1.0681 -0.2045  2.1654
 2009SOL     OW17659   0.027   3.195   4.994  0.1602  0.3816  0.1203
 2009SOL    HW117660   0.041   3.220   5.086 -1.3691  0.1036  0.4334
 2009SOL    HW217661   4.682   3.153   5.010  1.5064 -2.1545  0.5037
 2010SOL     OW17662   4.532   2.994   3.751 -0.3326  0.0802 -0.0599
 2010SOL    HW117663   4.510   2.970   3.841  0.1160 -1.5184 -0.3654
 2010SOL    HW217664   4.505   3.086   3.757 -1.1899 -0.3194  2.0623
 2011SOL     OW17665   0.683   4.658   4.263  0.5626 -0.0272  0.1433
 2011SOL    HW117666   0.671   0.014   4.266  3.4759  0.3118  0.4002
 2011SOL    HW217667   0.778   4.666   4.257  0.4281  2.4878  1.4618
 2012SOL     OW17668   3.515   2.045   4.768 -0.0794 -0.3747 -0.3072
 2012SOL    HW117669   3.542   1.961   4.805  0.4667  1.0277  2.4762
 2012SOL    HW217670   3.574   2.046   4.692  2.3277 -2.4194  1.5151
 2013SOL     OW17671   1.328   2.294   1.953 -0.3364 -0.1312 -0.5005
 2013SOL    HW117672   1.376   2.342   1.886 -0.1123 -1.7654 -1.5281
 2013SOL    HW217673   1.382   2.303   2.031  0.8809 -0.8053 -1.2688
 2014SOL     OW17674   4.043   0.875   6.900 -0.4178  0.4377 -0.0217
 2014SOL    HW117675   3.991   0.879   6.981 -1.9161 -1.6106 -0.8957
 2014SOL    HW217676   4.091   0.794   6.916 -1.3894 -0.2524 -0.5401
 2015SOL     OW17677   2.113   2.809   5.363 -0.1465 -0.5533  0.0579
 2015SOL    HW117678   2.112   2.894   5.406  0.8098 -0.8260  0.6114
 2015SOL    HW217679   2.067   2.817   5.280 -1.5059 -0.6439  0.7979
 2016SOL     OW17680   2.522   0.753   3.616  0.0986 -0.1847  0.5404
 2016SOL    HW117681   2.617   0.749   3.601  0.0174 -2.2239  0.5406
 2016SOL    HW217682   2.515   0.743   3.711  0.0925  0.9242  0.6525
 2017SOL     OW17683   2.061   2.334   3.466  0.0523  0.0403 -0.2612
 2017SOL    HW117684   2.066   2.259   3.525 -0.7059 -0.2651 -0.5896
 2017SOL    HW217685   1.977   2.370   3.493 -0.6951 -0.8275 -1.3984
 2018SOL     OW17686   1.827   0.295   6.295  0.1132  0.1589 -0.0604
 2018SOL    HW117687   1.872   0.379   6.305 -0.3260  0.2950  0.7310
 2018SOL    HW217688   1.904   0.246   6.265  1.0304  3.0860 -2.4835
 2019SOL     OW17689   3.679   3.540   2.254 -0.3191 -0.2969  0.5892
 2019SOL    HW117690   3.631   3.598   2.195  1.8664 -1.0824 -1.9672
 2019SOL    HW217691   3.653   3.455   2.219 -0.0146 -0.7325  1.4236
 2020SOL     OW17692   1.805   2.950   6.138  0.1325 -0.0581 -0.3589
 2020SOL    HW117693   1.846   2.867   6.113 -1.9582 -0.5014 -2.2689
 2020SOL    HW217694   1.821   3.004   6.061  1.9942 -0.7335 -0.4574
 2021SOL     OW17695   2.035   0.486   2.660  0.3381  0.2434  0.2737
 2021SOL    HW117696   1.974   0.557   2.680  0.9200  0.9988 -0.6726
 2021SOL    HW217697   2.125   0.513   2.677  1.3621 -2.5745 -0.6720
 2022SOL     OW17698   3.156   2.565   4.152  0.0570 -0.4258  0.1346
 2022SOL    HW117699   3.150   2.478   4.192  0.8947 -1.7553 -2.6336
 2022SOL    HW217700   3.231   2.549   4.095  1.1203  0.9490  1.1452
 2023SOL     OW17701   3.430   0.308   4.633  0.0745  0.1599 -0.2969
 2023SOL    HW117702   3.486   0.235   4.605  1.1338  0.8694 -0.0610
 2023SOL    HW217703   3.462   0.375   4.572 -1.4102  1.1747  0.0517
 2024SOL     OW17704   2.859   0.105  11.204  0.3476 -0.1856  0.3770
 2024SOL    HW117705   2.846   0.049  11.281  0.1720 -2.6509 -1.4215
 2024SOL    HW217706   2.951   0.088  11.183 -0.3396 -2.5861 -0.6676
 2025SOL     OW17707   2.410   0.985   3.011 -0.5530  0.2380  0.0253
 2025SOL    HW117708   2.427   0.894   2.987  1.6068  0.4007  0.9142
 2025SOL    HW217709   2.499   1.016   3.028 -1.0221  1.8149 -0.4408
 2026SOL     OW17710   2.758   3.054   2.460  0.1197 -0.4736  0.6156
 2026SOL    HW117711   2.787   3.127   2.405  0.2633  0.8721  2.4783
 2026SOL    HW217712   2.724   2.998   2.390 -1.3150 -0.6737  1.4637
 2027SOL     OW17713   3.664   3.825   8.115 -0.0737  0.0328  0.5061
 2027SOL    HW117714   3.751   3.826   8.073  0.1189 -0.3762  0.8955
 2027SOL    HW217715   3.637   3.917   8.107 -0.6848 -0.1254  0.8224
 2028SOL     OW17716   3.778   1.922  12.712 -0.0402 -0.1833  0.4045
 2028SOL    HW117717   3.841   1.856  12.683  0.5077  0.5138 -0.0128
 2028SOL    HW217718   3.760   1.972  12.632  3.0928 -0.3297 -0.3986
 2029SOL     OW17719   3.827   1.325   3.825  0.1099  0.0695 -0.6619
 2029SOL    HW117720   3.832   1.262   3.897 -0.7328  0.9024  0.1476
 2029SOL    HW217721   3.818   1.268   3.749 -2.6664 -1.2252  0.6529
 2030SOL     OW17722   1.384   2.234   5.330 -0.1147  0.6338  0.1443
 2030SOL    HW117723   1.424   2.152   5.301  2.0771  1.4252  0.8662
 2030SOL    HW217724   1.448   2.276   5.388  1.3965 -1.6298  0.1174
 2031SOL     OW17725   4.054   1.502   5.654 -0.0418 -0.2363  0.2549
 2031SOL    HW117726   4.081   1.569   5.718 -0.7040 -1.2497  1.5726
 2031SOL    HW217727   4.102   1.538   5.579 -0.9215 -0.4003 -0.3764
 2032SOL     OW17728   0.880   4.673   5.265  0.1613 -0.2789  1.1264
 2032SOL    HW117729   0.912   4.611   5.330 -0.4959 -2.2029 -0.3879
 2032SOL    HW217730   0.843   4.734   5.329  0.0435 -1.3407  2.0547
 2033SOL     OW17731   1.830   2.145   7.632  0.4732  0.3416  0.2621
 2033SOL    HW117732   1.830   2.082   7.559  1.8650  0.9789 -0.2999
 2033SOL    HW217733   1.908   2.200   7.618 -1.1725  2.6724  0.2791
 2034SOL     OW17734   0.790   0.810   7.477  0.1186  0.1849  0.2746
 2034SOL    HW117735   0.774   0.799   7.384  0.1357  1.1797  0.1573
 2034SOL    HW217736   0.729   0.877   7.507  0.2198  0.7002 -0.6963
 2035SOL     OW17737   0.176   3.980   7.258  0.5703 -0.6087  0.3880
 2035SOL    HW117738   0.247   3.986   7.321 -0.2812  0.5082  1.2422
 2035SOL    HW217739   0.198   3.892   7.228  1.8742 -0.0438 -0.3097
 2036SOL     OW17740   4.123   1.173   6.531 -0.0020 -0.2240 -0.7578
 2036SOL    HW117741   4.065   1.238   6.490  0.3791 -0.0482 -1.0149
 2036SOL    HW217742   4.208   1.189   6.490  0.5351  1.0358  0.8739
 2037SOL     OW17743   4.580   0.225   5.499  0.1388 -0.2894  0.1023
 2037SOL    HW117744   4.601   0.134   5.479  1.4476  0.3901 -1.6177
 2037SOL    HW217745   4.494   0.198   5.531 -0.0721  0.1534 -0.0742
 2038SOL     OW17746   2.739   0.042   8.906 -0.8235 -0.0333  0.1929
 2038SOL    HW117747   2.707   0.067   8.993  0.3909 -0.4916  0.7744
 2038SOL    HW217748   2.783   4.698   8.923 -0.0780  0.4283  0.5262
 2039SOL     OW17749   2.779   1.645   3.263  0.5925  0.1255  0.0770
 2039SOL    HW117750   2.721   1.598   3.323  0.6058  2.2070  1.7283
 2039SOL    HW217751   2.792   1.732   3.301 -0.3280 -0.9182  2.7995
 2040SOL     OW17752   4.352   1.916   9.765 -0.0133  0.3082  0.0040
 2040SOL    HW117753   4.288   1.845   9.773 -1.0734  1.2103 -0.5019
 2040SOL    HW217754   4.430   1.866   9.788 -1.6740 -1.8468  0.9136
 2041SOL     OW17755   3.204   2.032   4.697  0.3754 -0.8720  0.1186
 2041SOL    HW117756   3.113   2.005   4.707  0.9360 -2.5828  0.7144
 2041SOL    HW217757   3.247   1.948   4.679  0.7457 -0.0447 -2.8162
 2042SOL     OW17758   4.625   3.085   3.299 -0.0008 -0.3379 -0.2241
 2042SOL    HW117759   4.624   3.173   3.337  3.7055 -0.2082 -0.4797
 2042SOL    HW217760   4.600   3.098   3.208 -3.8269  1.2480  1.0178
 2043SOL     OW17761   2.152   3.187  15.114 -0.0535 -0.2864  0.1638
 2043SOL    HW117762   2.129   3.108  15.162  0.2569 -1.7104 -2.0583
 2043SOL    HW217763   2.175   3.253  15.179  0.7116 -0.4331  0.0379
 2044SOL     OW17764   4.190   2.207   3.946  0.7237 -0.1768 -0.0949
 2044SOL    HW117765   4.223   2.229   3.859  1.2046  0.2841  0.2005
 2044SOL    HW217766   4.275   2.214   3.991  0.4875  1.3827  0.0971
 2045SOL     OW17767   0.828   2.209  14.744  0.1179  0.2163  0.4618
 2045SOL    HW117768   0.909   2.227  14.696 -0.0036 -3.9373 -1.3141
 2045SOL    HW217769   0.807   2.120  14.715 -1.9008 -0.0940  2.8647
 2046SOL     OW17770   1.275   4.179   0.602  0.0743 -0.3234  0.5290
 2046SOL    HW117771   1.263   4.271   0.625 -2.7358 -0.6833  0.5086
 2046SOL    HW217772   1.369   4.173   0.586 -0.0774  0.3644 -0.6304
 2047SOL     OW17773   2.837   4.387   3.235  0.1200  0.2023  0.0794
 2047SOL    HW117774   2.789   4.437   3.301  0.8204  3.0528 -1.5768
 2047SOL    HW217775   2.774   4.375   3.163 -1.3137 -0.6680  1.4741
 2048SOL     OW17776   0.955   4.725  11.316 -0.0254  0.0501 -0.3209
 2048SOL    HW117777   0.877   4.738  11.370  0.8322 -0.0523  0.9352
 2048SOL    HW217778   0.984   4.644  11.357  0.7758  1.9371  2.7669
 2049SOL     OW17779   4.356   0.965  15.295 -0.1520  0.5133 -0.3647
 2049SOL    HW117780   4.395   0.987  15.210  1.7084 -0.0047  0.3483
 2049SOL    HW217781   4.435   0.980  15.346  0.6494 -1.6827 -0.9657
 2050SOL     OW17782   1.826   0.607   2.770  0.4493 -0.2789  0.1752
 2050SOL    HW117783   1.843   0.660   2.848  1.9452 -1.9149  0.9579
 2050SOL    HW217784   1.787   0.527   2.806 -0.6435 -0.8986 -2.4208
 2051SOL     OW17785   2.237   2.046  13.358  0.4011 -0.1941 -0.2444
 2051SOL    HW117786   2.234   2.130  13.404 -0.3796 -1.0903  1.3688
 2051SOL    HW217787   2.145   2.023  13.374  0.8237 -0.2160  2.2337
 2052SOL     OW17788   3.752   2.932   6.661  0.7118 -0.2881 -0.0320
 2052SOL    HW117789   3.845   2.920   6.679  0.8977  0.3580 -0.5358
 2052SOL    HW217790   3.763   2.950   6.567  2.5699 -2.7567 -0.2822
 2053SOL     OW17791   3.301   3.023   1.893  0.0706  0.6988 -0.7307
 2053SOL    HW117792   3.388   3.058   1.907  0.8050 -0.5572 -2.1368
 2053SOL    HW217793   3.318   2.932   1.918 -0.6392  0.5857 -0.6318
 2054SOL     OW17794   2.217   3.274   3.207  0.1262 -0.5075  0.2042
 2054SOL    HW117795   2.284   3.338   3.233 -0.1706  0.0800 -0.4586
 2054SOL    HW217796   2.217   3.285   3.112 -0.3313 -2.0871  0.0247
 2055SOL     OW17797   4.453   0.925   5.305  0.5810 -0.3717 -0.3715
 2055SOL    HW117798   4.502   0.903   5.226  0.8479 -0.4288 -0.1908
 2055SOL    HW217799   4.482   0.846   5.352 -1.7780 -1.2392 -0.3572
 2056SOL     OW17800   4.108   0.384  14.153 -0.4605  0.0962 -1.0098
 2056SOL    HW117801   4.032   0.408  14.206 -0.1146 -0.4787 -0.2518
 2056SOL    HW217802   4.056   0.379  14.072  0.5218 -0.4315 -1.6065
 2057SOL     OW17803   4.486   2.513   0.861 -0.0503  0.1205 -0.0665
 2057SOL    HW117804   4.515   2.525   0.770 -1.7943 -1.6797 -0.8565
 2057SOL    HW217805   4.414   2.574   0.852  0.6151  0.6040 -2.1544
 2058SOL     OW17806   0.257   4.690   6.139 -0.2716  0.1011 -0.0782
 2058SOL    HW117807   0.198   0.012   6.183  0.0536  1.1008 -1.0280
 2058SOL    HW217808   0.325   4.683   6.206 -0.9696 -3.4707  0.2761
 2059SOL     OW17809   2.369   2.292   8.066  0.0977  0.0394  0.2549
 2059SOL    HW117810   2.305   2.308   8.136 -1.9483  0.3008 -1.6884
 2059SOL    HW217811   2.341   2.358   8.003 -1.4550 -0.1446  0.7415
 2060SOL     OW17812   0.441   2.073   4.992  0.1849  0.0827  0.0281
 2060SOL    HW117813   0.426   2.158   5.033  2.4138  1.4715 -2.0960
 2060SOL    HW217814   0.519   2.036   5.032  0.2849  2.3803  1.9630
 2061SOL     OW17815   1.141   0.186   3.911 -0.1402  0.1783  0.0193
 2061SOL    HW117816   1.221   0.236   3.928  0.6242 -0.9011 -0.4095
 2061SOL    HW217817   1.124   0.232   3.829  0.8602  2.6737  1.1970
 2062SOL     OW17818   0.258   1.974  11.453  0.2669 -0.9936  0.6256
 2062SOL    HW117819   0.204   2.031  11.399  1.8911  0.8834  0.9773
 2062SOL    HW217820   0.294   1.908  11.393  1.1872  1.5632 -1.6235
 2063SOL     OW17821   4.192   2.773   8.385 -0.7588 -0.1170 -0.8957
 2063SOL    HW117822   4.181   2.837   8.456  0.5053 -0.0501 -0.7664
 2063SOL    HW217823   4.192   2.835   8.312 -2.7831  0.1711 -0.6668
 2064SOL     OW17824   1.628   1.948   5.607 -0.4810  0.4091  0.6513
 2064SOL    HW117825   1.664   2.021   5.657 -0.7410  1.8559 -1.2660
 2064SOL    HW217826   1.694   1.917   5.545 -0.9688  0.8777 -0.0967
 2065SOL     OW17827   0.949   2.638   2.099  0.1038  0.5313 -0.4224
 2065SOL    HW117828   0.968   2.553   2.140  1.9518  0.8722 -0.5704
 2065SOL    HW217829   0.926   2.698   2.169  1.9049 -0.0748  0.7060
 2066SOL     OW17830   3.433   1.033   3.062 -0.4499  0.1279  0.1344
 2066SOL    HW117831   3.457   1.063   3.150  1.0691  1.1226 -0.6207
 2066SOL    HW217832   3.496   1.076   3.005 -1.3316  0.5896 -0.4743
 2067SOL     OW17833   2.196   1.897   6.731 -0.1811  0.0789 -0.2092
 2067SOL    HW117834   2.217   1.979   6.777  1.1177 -0.3530 -0.0079
 2067SOL    HW217835   2.280   1.879   6.688  0.5450 -0.4968  1.4516
 2068SOL     OW17836   3.370   1.194   5.767 -0.0122  0.6137 -0.4100
 2068SOL    HW117837   3.327   1.228   5.689 -1.8359 -2.1532 -0.6484
 2068SOL    HW217838   3.460   1.225   5.758  0.3265  0.0301  0.8259
 2069SOL     OW17839   0.066   3.367   3.886  0.2691  1.0991 -0.4194
 2069SOL    HW117840   0.142   3.317   3.917 -2.1420 -1.0872  1.9156
 2069SOL    HW217841   0.037   3.301   3.822  0.3930  1.1576 -0.5365
 2070SOL     OW17842   1.714   1.448  12.012  0.5389  0.2228  0.1327
 2070SOL    HW117843   1.733   1.529  11.966  1.3478  0.6114  1.1553
 2070SOL    HW217844   1.758   1.388  11.951 -1.1011  1.8999 -2.6986
 2071SOL     OW17845   0.845   3.188   9.582 -0.9845  0.2685 -0.5563
 2071SOL    HW117846   0.935   3.191   9.614 -1.2967 -0.3977  0.3777
 2071SOL    HW217847   0.795   3.241   9.644  0.0230  1.0380 -0.4050
 2072SOL     OW17848   4.126   3.063   6.923  0.2395  0.1775 -0.1896
 2072SOL    HW117849   4.195   3.040   6.985 -0.0806  0.1421  0.1497
 2072SOL    HW217850   4.175   3.119   6.862  0.2746 -0.6063 -0.8828
 2073SOL     OW17851   4.630   4.678   6.012 -0.0403 -0.1132 -0.1107
 2073SOL    HW117852   4.563   4.622   5.972  0.7148 -1.6720  0.7818
 2073SOL    HW217853   4.580   4.738   6.068 -2.9923 -2.1652 -0.5359
 2074SOL     OW17854   3.933   0.510   6.640 -0.2696  0.2916 -0.1033
 2074SOL    HW117855   4.008   0.500   6.581 -1.6035 -0.3350 -1.6951
 2074SOL    HW217856   3.905   0.419   6.644  0.8584 -0.0203  0.9299
 2075SOL     OW17857   4.367   0.164   5.085  0.3680  0.1800  0.4862
 2075SOL    HW117858   4.460   0.169   5.110  0.5631 -2.1179  0.1705
 2075SOL    HW217859   4.358   0.149   4.991 -0.3024 -0.1534  0.6072
 2076SOL     OW17860   3.018   0.574   5.802  0.4591  0.3783 -0.8639
 2076SOL    HW117861   2.955   0.632   5.843 -0.9415  0.0282 -2.5291
 2076SOL    HW217862   3.041   0.518   5.877  2.1678  0.4084 -1.3466
 2077SOL     OW17863   1.113   0.169  10.257 -0.0768  0.3075  0.8198
 2077SOL    HW117864   1.158   0.136  10.179 -2.8291  0.2318 -0.7185
 2077SOL    HW217865   1.064   0.089  10.275  1.7502 -0.7954  0.9037
 2078SOL     OW17866   4.493   4.501  12.337  0.4295  0.5601  0.3736
 2078SOL    HW117867   4.400   4.480  12.344  1.0216 -1.3211  2.9583
 2078SOL    HW217868   4.523   4.493  12.428 -2.9140  4.1614  1.7926
 2079SOL     OW17869   2.830   0.946  12.825  0.1961 -0.1975  0.4194
 2079SOL    HW117870   2.880   0.988  12.755 -0.4559  2.1996  1.3914
 2079SOL    HW217871   2.838   0.854  12.798  0.1797  0.4190 -1.6732
 2080SOL     OW17872   0.958   3.875   1.950  0.0134  0.3052  0.4189
 2080SOL    HW117873   0.896   3.826   1.895  0.3551 -0.9283  1.1294
 2080SOL    HW217874   1.047   3.863   1.916  0.9645  2.3159  2.2760
 2081SOL     OW17875   0.474   0.034   6.588  0.4236  0.2030  0.0665
 2081SOL    HW117876   0.400   0.094   6.589  0.6161  0.4657 -1.2045
 2081SOL    HW217877   0.472   0.001   6.678 -2.7112  0.7762  0.1876
 2082SOL     OW17878   3.233   2.112  13.014 -0.1842  0.1323  0.3172
 2082SOL    HW117879   3.190   2.190  12.979  2.1021  1.4888  0.5438
 2082SOL    HW217880   3.237   2.132  13.107  0.1315 -0.5299  0.4458
 2083SOL     OW17881   3.211   3.508   6.293 -0.1027 -0.6578  0.0293
 2083SOL    HW117882   3.172   3.534   6.376  2.6184 -0.0256  1.1372
 2083SOL    HW217883   3.229   3.596   6.261 -0.1807 -0.6628 -0.0272
 2084SOL     OW17884   1.367   1.638   6.707  0.1709  0.1367 -0.3515
 2084SOL    HW117885   1.389   1.597   6.791 -0.7326  1.4224  0.5285
 2084SOL    HW217886   1.379   1.565   6.647 -0.2602 -0.5740  0.4297
 2085SOL     OW17887   0.879   4.175   7.377  0.1581 -0.9213 -0.0473
 2085SOL    HW117888   0.814   4.186   7.447  1.8935  2.8453  0.9980
 2085SOL    HW217889   0.914   4.089   7.400  1.1528 -0.4456  0.2142
 2086SOL     OW17890   4.454   1.618   2.164  0.2557 -0.4101  0.1055
 2086SOL    HW117891   4.536   1.661   2.186  0.0790  0.0329 -0.0940
 2086SOL    HW217892   4.478   1.538   2.118  1.7812  0.8012 -1.1832
 2087SOL     OW17893   1.469   0.588   4.079  0.5404  0.0544  0.2643
 2087SOL    HW117894   1.562   0.591   4.055 -0.4106  1.1032 -3.2829
 2087SOL    HW217895   1.441   0.612   3.991  0.5505  0.1819  0.2962
 2088SOL     OW17896   2.487   3.407   3.167 -0.9120 -0.1840  0.5481
 2088SOL    HW117897   2.538   3.477   3.207 -0.2947 -0.5220  0.3585
 2088SOL    HW217898   2.555   3.366   3.114 -0.7416  0.7295  0.0578
 2089SOL     OW17899   4.411   1.762   6.684  0.3599 -0.0714 -0.1838
 2089SOL    HW117900   4.349   1.782   6.755 -0.1390  1.5131 -1.0659
 2089SOL    HW217901   4.408   1.667   6.692 -1.4829  0.3020  3.8945
 2090SOL     OW17902   0.900   1.479   2.291  0.5416 -0.3622 -0.1951
 2090SOL    HW117903   0.874   1.520   2.373  0.2613 -0.6677 -0.1308
 2090SOL    HW217904   0.938   1.395   2.315 -0.1210 -0.6656 -0.1977
 2091SOL     OW17905   1.767   0.697  11.767 -0.9081 -0.3259 -0.5556
 2091SOL    HW117906   1.813   0.624  11.726  4.3939  3.0449 -0.7180
 2091SOL    HW217907   1.842   0.757  11.766  0.5654 -2.1563 -0.0083
 2092SOL     OW17908   2.062   1.067  17.274 -0.1382  0.2211  0.4372
 2092SOL    HW117909   1.985   1.011  17.267  1.6545 -2.2178  0.0021
 2092SOL    HW217910   2.119   1.021  17.212  0.8060  0.9374  0.7668
 2093SOL     OW17911   2.438   0.015  15.171  0.2127  0.4439  0.5828
 2093SOL    HW117912   2.492   4.676  15.159  1.0012  1.4155 -2.2696
 2093SOL    HW217913   2.503   0.082  15.152  1.0915 -0.9735 -1.4889
 2094SOL     OW17914   4.118   4.401   4.411 -0.2732 -0.5666  0.0580
 2094SOL    HW117915   4.186   4.468   4.417 -2.4063  1.7884 -2.5143
 2094SOL    HW217916   4.050   4.440   4.465  0.9560  0.5648  0.7686
 2095SOL     OW17917   1.855   3.565  10.869  0.0123 -0.2108 -0.2399
 2095SOL    HW117918   1.944   3.573  10.837  0.3254 -0.6333  0.5202
 2095SOL    HW217919   1.810   3.597  10.791 -0.1032 -0.2538 -0.1923
 2096SOL     OW17920   2.311   2.259  11.529 -0.0125 -0.4109 -0.4555
 2096SOL    HW117921   2.385   2.253  11.468  0.1608 -1.0148 -0.1864
 2096SOL    HW217922   2.366   2.226  11.600  0.5184 -1.0785 -1.1725
 2097SOL     OW17923   1.122   2.526   1.285  0.0908  0.0608  0.2356
 2097SOL    HW117924   1.091   2.437   1.301 -1.1717  0.2810 -1.0061
 2097SOL    HW217925   1.119   2.562   1.374 -0.1311 -0.7031  0.5368
 2098SOL     OW17926   2.981   4.704  17.709 -0.2244 -0.2479  0.1106
 2098SOL    HW117927   3.012   4.665  17.627 -1.2075  0.8698 -0.7877
 2098SOL    HW217928   2.982   0.060  17.698  0.1739 -0.2856 -0.1857
 2099SOL     OW17929   1.541   4.183   5.972 -0.4971  0.8810 -0.0160
 2099SOL    HW117930   1.519   4.267   6.012  2.3382  1.1995  0.9090
 2099SOL    HW217931   1.599   4.153   6.042 -1.6038 -2.0636 -0.3477
 2100SOL     OW17932   2.056   4.054   6.543 -0.4877 -0.0993 -0.0579
 2100SOL    HW117933   1.965   4.070   6.568 -0.5852 -0.1659 -0.3664
 2100SOL    HW217934   2.070   4.127   6.481 -0.2537 -0.4330 -0.3973
 2101SOL     OW17935   4.351   0.693   5.683 -0.5354 -0.0607 -0.3876
 2101SOL    HW117936   4.336   0.600   5.699  0.4760 -0.4673 -1.7746
 2101SOL    HW217937   4.278   0.736   5.727  0.0592  0.7356 -0.1767
 2102SOL     OW17938   0.804   2.119   3.020  0.1367 -0.7984 -0.5174
 2102SOL    HW117939   0.871   2.154   3.078 -1.5642  2.0884 -0.2948
 2102SOL    HW217940   0.806   2.187   2.953 -0.2580 -0.1760  0.1048
 2103SOL     OW17941   4.539   3.373   6.180 -0.2072  0.3821  0.7480
 2103SOL    HW117942   4.631   3.352   6.162 -0.3581 -0.9269  1.4587
 2103SOL    HW217943   4.535   3.468   6.186  1.5809  0.6530 -2.6741
 2104SOL     OW17944   1.932   3.860   6.035  0.0445  0.3584 -0.6217
 2104SOL    HW117945   1.914   3.902   6.119  0.5554 -1.0760  0.2134
 2104SOL    HW217946   1.990   3.790   6.064 -1.8438 -0.7608  0.4564
 2105SOL     OW17947   4.471   0.854   4.402 -0.3047 -0.3707  0.6552
 2105SOL    HW117948   4.477   0.917   4.474 -3.3464 -0.8638  1.3474
 2105SOL    HW217949   4.509   0.780   4.451  3.1344  1.2096  0.3181
 2106SOL     OW17950   2.604   2.126   5.149  0.3161  0.2666  0.2385
 2106SOL    HW117951   2.545   2.126   5.073 -0.2403 -1.7191  0.6761
 2106SOL    HW217952   2.661   2.201   5.130 -0.4909  1.1538  1.3246
 2107SOL     OW17953   2.901   1.065   7.269 -0.0006  0.2386  0.4352
 2107SOL    HW117954   2.828   1.063   7.207 -0.2318 -2.7276  0.8169
 2107SOL    HW217955   2.967   1.101   7.210  0.6657  1.9100  2.2006
 2108SOL     OW17956   1.414   1.750  17.650 -0.0525  0.3633  0.2153
 2108SOL    HW117957   1.433   1.807  17.724  1.2064  0.5964 -0.2858
 2108SOL    HW217958   1.502   1.720  17.625  0.9026  0.9216  2.8772
 2109SOL     OW17959   1.517   3.295   0.275 -0.6993  0.2696 -0.7191
 2109SOL    HW117960   1.489   3.225   0.216 -2.8305 -0.1570  0.8050
 2109SOL    HW217961   1.534   3.231   0.344 -1.5706  0.3409 -0.4399
 2110SOL     OW17962   3.242   1.422   2.112  0.2180  0.1159 -0.3953
 2110SOL    HW117963   3.306   1.374   2.059  0.0135 -0.7126  0.1074
 2110SOL    HW217964   3.176   1.353   2.118  0.8163 -0.3069  1.1926
 2111SOL     OW17965   0.797   2.732   1.268  0.1110 -0.2488 -0.4947
 2111SOL    HW117966   0.872   2.792   1.265  1.9578 -2.5330 -0.1549
 2111SOL    HW217967   0.773   2.734   1.361 -2.6009 -0.3497 -1.1892
 2112SOL     OW17968   1.707   4.649  16.646 -0.1211 -0.3950  0.4514
 2112SOL    HW117969   1.723   4.615  16.734  0.0928 -1.9004 -0.1669
 2112SOL    HW217970   1.616   4.626  16.630  0.6730 -3.6916  0.5757
 2113SOL     OW17971   3.272   2.143   9.292  0.4563 -0.1784  0.4084
 2113SOL    HW117972   3.232   2.215   9.245 -0.3843 -2.0014 -1.6845
 2113SOL    HW217973   3.365   2.161   9.303 -0.4045  3.8078  1.0107
 2114SOL     OW17974   2.060   2.667   1.170  0.1551 -0.2045  0.3894
 2114SOL    HW117975   2.090   2.758   1.174 -0.5442 -0.0521  2.2351
 2114SOL    HW217976   2.131   2.625   1.121  0.4123 -0.1062  0.6767
 2115SOL     OW17977   4.205   0.378   9.003  0.5432  0.6149  0.3883
 2115SOL    HW117978   4.280   0.429   9.034  0.7665 -0.5947  1.8320
 2115SOL    HW217979   4.170   0.351   9.087 -1.1346  1.5315 -0.0270
 2116SOL     OW17980   4.090   4.347  13.973  0.4459  0.0943 -0.2380
 2116SOL    HW117981   4.093   4.341  14.069  0.1299 -0.5727 -0.2655
 2116SOL    HW217982   4.130   4.432  13.959 -0.6952  0.7084  0.2280
 2117SOL     OW17983   0.686   2.869   3.849 -0.3874  0.0830 -0.4519
 2117SOL    HW117984   0.633   2.800   3.811 -2.2001  0.6747  1.0288
 2117SOL    HW217985   0.639   2.883   3.931  1.1175 -0.7084  0.5502
 2118SOL     OW17986   2.702   3.036  11.477  0.0353 -0.2267 -0.0056
 2118SOL    HW117987   2.649   3.015  11.554  1.4150  1.5410  1.4111
 2118SOL    HW217988   2.638   3.059  11.410 -1.3614 -0.3336  1.2795
 2119SOL     OW17989   2.380   1.910   4.901 -0.2216  0.0729  0.1580
 2119SOL    HW117990   2.410   1.993   4.939  2.2656 -0.6594 -0.2806
 2119SOL    HW217991   2.423   1.927   4.818  0.7696 -1.4327  0.3821
 2120SOL     OW17992   2.586   0.579  15.343  0.0330  0.2818 -0.0066
 2120SOL    HW117993   2.606   0.522  15.418  2.1555 -0.0139 -0.7902
 2120SOL    HW217994   2.628   0.532  15.272 -1.8814  1.1218 -1.6893
 2121SOL     OW17995   1.772   4.431   7.610 -0.0212 -0.4759 -0.0163
 2121SOL    HW117996   1.790   4.347   7.654 -1.6794 -0.3920  0.8380
 2121SOL    HW217997   1.794   4.503   7.669 -1.1702 -0.3907  0.3093
 2122SOL     OW17998   4.043   2.877   7.498  0.0584  0.3376  0.4326
 2122SOL    HW117999   4.029   2.868   7.404  2.3684 -0.3784  0.1738
 2122SOL    HW218000   3.994   2.800   7.530 -0.1873  0.0156 -0.7228
 2123SOL     OW18001   4.438   2.888   1.449  0.3473  0.9563  0.0426
 2123SOL    HW118002   4.364   2.827   1.453 -0.6838  2.3743  2.4949
 2123SOL    HW218003   4.454   2.898   1.543 -0.1192 -1.1646  0.3592
 2124SOL     OW18004   1.050   2.419   2.235  0.0397  0.9003 -0.4087
 2124SOL    HW118005   1.047   2.354   2.165  1.1025 -0.4066  0.7562
 2124SOL    HW218006   1.130   2.407   2.287 -0.5721  0.0495  0.3334
 2125SOL     OW18007   1.707   4.284   2.264 -0.3817  0.0112  0.0374
 2125SOL    HW118008   1.648   4.287   2.339 -2.2102 -1.5864 -1.3444
 2125SOL    HW218009   1.670   4.210   2.217 -0.7314  2.3410 -3.3262
 2126SOL     OW18010   1.852   0.865   4.668  0.2399 -0.0069  0.0407
 2126SOL    HW118011   1.902   0.823   4.738  0.4735  0.9545  0.4556
 2126SOL    HW218012   1.890   0.832   4.586 -1.1067 -0.1763 -0.5237
 2127SOL     OW18013   2.258   2.148   6.868 -0.1785  0.2598 -0.2193
 2127SOL    HW118014   2.215   2.200   6.935  1.8759  1.0507  0.4916
 2127SOL    HW218015   2.277   2.223   6.811  0.7718  0.0562 -0.1755
 2128SOL     OW18016   1.185   1.016   2.774  0.3009  0.4477 -0.1442
 2128SOL    HW118017   1.218   1.035   2.687  0.4425 -0.8087 -0.3632
 2128SOL    HW218018   1.189   0.920   2.776  0.8265  0.4781  0.5464
 2129SOL     OW18019   3.126   0.389   3.988 -0.1954 -0.5565 -0.0794
 2129SOL    HW118020   3.182   0.327   4.035  0.1396  0.1303  0.4331
 2129SOL    HW218021   3.144   0.363   3.898  0.9955 -0.7789  0.2352
 2130SOL     OW18022   2.615   3.931   4.847 -0.6610 -0.2323  0.2437
 2130SOL    HW118023   2.674   3.928   4.772 -0.6950 -1.6597  0.2668
 2130SOL    HW218024   2.550   3.991   4.812 -0.3237  0.1099  0.2023
 2131SOL     OW18025   1.578   2.639   6.791 -0.4190 -0.6908 -0.3461
 2131SOL    HW118026   1.614   2.550   6.792  3.2260  0.8760  3.9704
 2131SOL    HW218027   1.485   2.640   6.813 -0.6640  0.1576 -1.4179
 2132SOL     OW18028   0.721   2.390   9.582  0.1303  0.2324 -0.3348
 2132SOL    HW118029   0.761   2.329   9.644 -0.3756 -0.4317 -0.6664
 2132SOL    HW218030   0.686   2.447   9.650 -0.5354  0.2353 -0.6788
 2133SOL     OW18031   0.774   4.730   6.752  0.3443 -0.0823 -0.5923
 2133SOL    HW118032   0.766   4.642   6.789 -1.9378  0.3623  0.0023
 2133SOL    HW218033   0.736   0.046   6.820  0.8535 -0.6935  0.1831
 2134SOL     OW18034   3.247   1.225   4.318  0.9150 -0.1472 -0.3377
 2134SOL    HW118035   3.228   1.195   4.407  1.0131 -1.3399 -0.7145
 2134SOL    HW218036   3.209   1.151   4.270  2.1086  1.4132 -3.6968
 2135SOL     OW18037   3.725   4.368   8.164 -0.3406  0.5000 -0.5846
 2135SOL    HW118038   3.712   4.448   8.215  2.0437  0.9072 -0.6390
 2135SOL    HW218039   3.648   4.373   8.106 -0.7512 -0.9841 -0.1687
 2136SOL     OW18040   4.727   1.967  12.802 -0.1093  0.0051  0.1175
 2136SOL    HW118041   4.663   1.959  12.731 -1.6217  1.3829  1.3327
 2136SOL    HW218042   4.696   2.042  12.853  0.4432 -1.2295  2.2875
 2137SOL     OW18043   1.460   1.569   0.348  0.1576 -0.4030  0.0249
 2137SOL    HW118044   1.434   1.590   0.437  0.5750  0.4616 -0.0567
 2137SOL    HW218045   1.477   1.475   0.359 -1.3216 -0.8809 -1.8284
 2138SOL     OW18046   3.742   0.415   3.019 -0.2544  0.7002  0.2328
 2138SOL    HW118047   3.740   0.403   2.924  2.9687  2.1879 -0.0087
 2138SOL    HW218048   3.689   0.337   3.039  0.6040  0.4532  1.5313
 2139SOL     OW18049   4.496   2.539   2.238 -0.2739  0.0763  0.4929
 2139SOL    HW118050   4.479   2.447   2.218  2.0488 -0.1610 -0.3528
 2139SOL    HW218051   4.517   2.540   2.332  1.1377 -1.6507  0.1904
 2140SOL     OW18052   2.238   2.329  10.702  0.3714 -0.1447  0.4379
 2140SOL    HW118053   2.211   2.421  10.698 -0.5312 -0.5611 -3.4916
 2140SOL    HW218054   2.271   2.310  10.614 -0.3596 -3.6829  0.9336
 2141SOL     OW18055   4.083   3.002   7.869  0.4964 -0.0933  0.0563
 2141SOL    HW118056   4.149   2.941   7.901  1.4949  0.7959 -0.3034
 2141SOL    HW218057   4.137   3.072   7.832 -0.1193 -0.3247 -1.3018
 2142SOL     OW18058   0.880   4.711   9.093  0.6964 -0.2977 -0.1173
 2142SOL    HW118059   0.798   4.663   9.083  1.2023 -1.2859  0.4633
 2142SOL    HW218060   0.926   4.672   9.168 -0.1260 -1.7096 -0.3477
 2143SOL     OW18061   2.163   0.701   3.335 -0.4085 -0.3141  0.5124
 2143SOL    HW118062   2.159   0.726   3.243 -0.4955 -0.2221  0.5411
 2143SOL    HW218063   2.240   0.645   3.330  0.1992  0.5955 -0.1720
 2144SOL     OW18064   1.280   0.604   2.456 -0.3172 -0.4498  0.2988
 2144SOL    HW118065   1.331   0.540   2.407 -0.7250 -0.7806  0.3148
 2144SOL    HW218066   1.239   0.648   2.381 -0.0127 -0.6830 -0.0027
 2145SOL     OW18067   1.350   1.717  12.147 -0.8801  0.5790  0.2920
 2145SOL    HW118068   1.301   1.666  12.211 -0.1314  0.2051  0.5655
 2145SOL    HW218069   1.326   1.805  12.178 -0.2156  0.7685  0.2738
 2146SOL     OW18070   0.627   0.539   5.585 -0.2324 -0.1130 -0.5395
 2146SOL    HW118071   0.694   0.558   5.650 -0.5274 -0.4419 -0.1403
 2146SOL    HW218072   0.548   0.549   5.637 -0.5058  1.2180 -1.2281
 2147SOL     OW18073   1.860   4.019   4.058 -0.0932  0.3484 -0.3355
 2147SOL    HW118074   1.946   3.990   4.026  1.3208  2.5529  1.4140
 2147SOL    HW218075   1.858   3.972   4.141 -0.2828 -1.3033 -1.2786
 2148SOL     OW18076   3.424   3.869  11.613  0.4348  0.0384 -0.2811
 2148SOL    HW118077   3.381   3.954  11.607 -1.9438 -1.1774 -0.3071
 2148SOL    HW218078   3.466   3.893  11.695  0.1969  3.0209 -1.0429
 2149SOL     OW18079   0.022   2.097  10.920 -0.3359 -0.3034 -0.2152
 2149SOL    HW118080   4.720   2.120  10.837  0.9201 -0.4181 -0.8675
 2149SOL    HW218081   0.069   2.016  10.903 -1.4016 -0.8477 -0.5070
 2150SOL     OW18082   0.769   3.562   9.133  0.2909 -0.1602 -0.4626
 2150SOL    HW118083   0.808   3.640   9.172  1.5807 -2.4456  2.8484
 2150SOL    HW218084   0.792   3.587   9.044  2.3339 -1.1226 -0.2201
 2151SOL     OW18085   1.296   4.613  10.042 -0.6883 -0.0395  0.3439
 2151SOL    HW118086   1.282   4.623  10.136 -1.3536 -0.3868  0.2834
 2151SOL    HW218087   1.321   4.703  10.020  0.7318 -0.1890  1.3685
 2152SOL     OW18088   0.176   4.284   2.225  0.0820  0.7094 -0.1307
 2152SOL    HW118089   0.109   4.348   2.200 -1.2982 -0.8299 -0.4171
 2152SOL    HW218090   0.248   4.346   2.233 -0.6965  1.3957  1.6097
 2153SOL     OW18091   2.691   3.345   1.033 -0.0554  0.2241  0.0168
 2153SOL    HW118092   2.622   3.398   0.993  0.2839  0.9777  0.4341
 2153SOL    HW218093   2.692   3.264   0.981  2.0832  1.7393 -2.2977
 2154SOL     OW18094   3.548   1.960   3.591  0.4146  0.1550 -0.6198
 2154SOL    HW118095   3.524   1.875   3.629  1.4118  0.6135  1.0260
 2154SOL    HW218096   3.582   2.001   3.670 -2.1700  2.6797 -0.8129
 2155SOL     OW18097   4.180   4.170  11.689  0.2749 -0.1467  0.2961
 2155SOL    HW118098   4.254   4.154  11.630  1.2408  2.2384  0.8788
 2155SOL    HW218099   4.231   4.197  11.766  0.4599 -0.0023  0.1201
 2156SOL     OW18100   4.335   3.576   7.844 -0.4242  0.5182  0.3387
 2156SOL    HW118101   4.399   3.598   7.776 -0.8097  1.6275  0.3422
 2156SOL    HW218102   4.254   3.612   7.808 -0.5249  0.7527  0.8008
 2157SOL     OW18103   2.119   1.718   8.948  0.3415  0.0285 -0.0627
 2157SOL    HW118104   2.184   1.663   8.993  0.3334 -0.3176 -0.4724
 2157SOL    HW218105   2.095   1.776   9.020 -1.0668  2.0638 -2.1636
 2158SOL     OW18106   4.699   2.694   3.331 -0.2974  0.1864  0.0389
 2158SOL    HW118107   0.006   2.760   3.280 -0.8568  0.8082  0.3337
 2158SOL    HW218108   4.649   2.756   3.384 -0.9095  0.4140 -0.7898
 2159SOL     OW18109   3.379   3.822  14.274  0.2012  0.1942 -0.5238
 2159SOL    HW118110   3.349   3.875  14.200  2.1096 -0.5940 -1.8915
 2159SOL    HW218111   3.439   3.882  14.318  1.1045 -0.5030 -0.8083
 2160SOL     OW18112   3.257   0.175   7.500 -0.3498  0.2069  0.3827
 2160SOL    HW118113   3.330   0.201   7.443  0.1493 -1.1175  0.4143
 2160SOL    HW218114   3.182   0.218   7.459 -1.3537 -0.9309  1.0020
 2161SOL     OW18115   0.807   3.519  11.515 -0.3861  0.5705  0.1375
 2161SOL    HW118116   0.717   3.547  11.500 -0.3570  1.3353  1.4000
 2161SOL    HW218117   0.860   3.584  11.468  0.0684  1.9982  2.6495
 2162SOL     OW18118   0.940   0.395   7.293 -0.4434  0.2245  0.2776
 2162SOL    HW118119   0.862   0.363   7.249  0.0464  1.0755 -1.2309
 2162SOL    HW218120   0.962   0.459   7.225 -1.1430  0.5491  0.3569
 2163SOL     OW18121   0.037   2.881   4.027 -0.4214 -0.4164 -0.2821
 2163SOL    HW118122   0.119   2.869   4.076 -0.0835  0.0465 -0.7208
 2163SOL    HW218123   0.066   2.868   3.936 -0.4092  1.6881 -0.5932
 2164SOL     OW18124   1.831   2.508   7.515 -0.0521 -0.5536  0.3241
 2164SOL    HW118125   1.848   2.550   7.599  0.3284 -2.1168  1.0305
 2164SOL    HW218126   1.918   2.511   7.475 -0.4962  1.5160 -0.4660
 2165SOL     OW18127   2.187   4.144  12.429  0.3969 -0.8150  0.6025
 2165SOL    HW118128   2.109   4.196  12.409  0.9596  0.5681  2.0069
 2165SOL    HW218129   2.154   4.117  12.515  1.1236 -2.8299  0.2418
 2166SOL     OW18130   3.664   2.423   4.676 -0.2097 -0.0156 -0.0206
 2166SOL    HW118131   3.584   2.382   4.644  1.4346 -2.8619 -0.5056
 2166SOL    HW218132   3.625   2.504   4.708  0.1561  0.8589 -1.8268
 2167SOL     OW18133   4.554   1.666   1.695 -0.4028  0.0563 -0.5083
 2167SOL    HW118134   4.556   1.571   1.700  1.4297  0.1519  0.7342
 2167SOL    HW218135   4.554   1.678   1.600 -0.2229 -0.3639 -0.5600
 2168SOL     OW18136   1.680   4.625  13.611 -0.6062  0.2604  0.1620
 2168SOL    HW118137   1.592   4.652  13.636 -2.1376 -0.5171 -4.4386
 2168SOL    HW218138   1.676   4.588  13.523 -0.9700  2.2106 -0.6530
 2169SOL     OW18139   3.544   0.517   8.754 -0.6625  0.2117  0.3068
 2169SOL    HW118140   3.493   0.471   8.687 -2.1993  1.6938  0.4694
 2169SOL    HW218141   3.521   0.458   8.826 -1.1344  0.2199  0.1614
 2170SOL     OW18142   0.104   3.212   8.533  0.7064  0.1774 -0.0260
 2170SOL    HW118143   0.026   3.240   8.580  0.5960 -0.0933 -0.0491
 2170SOL    HW218144   0.155   3.293   8.541  0.6956 -0.0722  2.5819
 2171SOL     OW18145   3.084   2.155   3.421 -0.4053  0.3475  0.2165
 2171SOL    HW118146   3.095   2.231   3.479  0.3232  1.5856 -1.5249
 2171SOL    HW218147   3.047   2.201   3.346 -2.0808 -0.7690  0.3717
 2172SOL     OW18148   2.882   3.167   1.785 -0.2041  0.6376 -0.9021
 2172SOL    HW118149   2.845   3.083   1.812  0.6039 -0.4959 -3.2767
 2172SOL    HW218150   2.954   3.149   1.724  0.8820  2.2212 -0.1035
 2173SOL     OW18151   3.407   0.387   4.238  0.1281 -0.0297 -0.2551
 2173SOL    HW118152   3.347   0.444   4.286 -1.5583 -1.0451 -1.1423
 2173SOL    HW218153   3.484   0.394   4.294 -0.5143 -0.2707  0.6537
 2174SOL     OW18154   1.234   3.145   5.432 -0.2238 -0.3715  0.3358
 2174SOL    HW118155   1.185   3.142   5.514 -0.0654  0.2092  0.4544
 2174SOL    HW218156   1.173   3.138   5.358 -0.3499 -1.4184  0.5457
 2175SOL     OW18157   3.605   2.982  16.753 -0.1472 -0.0577 -0.3880
 2175SOL    HW118158   3.627   2.895  16.787  2.1677 -0.1395 -2.0768
 2175SOL    HW218159   3.509   2.976  16.759 -0.2986 -1.0105 -3.5391
 2176SOL     OW18160   2.055   0.102   4.109 -0.7074 -0.4662 -0.0420
 2176SOL    HW118161   1.974   0.112   4.159 -1.4272 -0.9745 -1.0983
 2176SOL    HW218162   2.030   0.022   4.062 -2.4741 -0.0396  0.1908
 2177SOL     OW18163   0.222   3.611   5.838 -0.8026 -0.2907  0.3157
 2177SOL    HW118164   0.223   3.665   5.759 -0.4332 -1.8719 -0.7657
 2177SOL    HW218165   0.171   3.665   5.898  0.8538 -1.7162  2.9947
 2178SOL     OW18166   0.671   1.795   3.439 -0.7708  0.7228 -0.4324
 2178SOL    HW118167   0.713   1.848   3.372  1.6357  0.6800  1.0345
 2178SOL    HW218168   0.639   1.723   3.384  0.6126  0.6375 -1.1113
 2179SOL     OW18169   1.834   4.487  11.461 -0.5552  0.1024  0.5954
 2179SOL    HW118170   1.756   4.434  11.476  0.0052 -0.7391  0.5290
 2179SOL    HW218171   1.817   4.502  11.368 -0.8917  2.2979  1.0211
 2180SOL     OW18172   0.252   1.658   4.561 -0.2861  0.1178  0.4551
 2180SOL    HW118173   0.164   1.624   4.544 -1.7356  3.2279  1.6962
 2180SOL    HW218174   0.241   1.698   4.647  0.3547  0.4248  0.3904
 2181SOL     OW18175   4.396   2.925   4.307 -0.5761 -0.6623 -0.2510
 2181SOL    HW118176   4.485   2.893   4.317 -0.8526 -0.8402  1.5409
 2181SOL    HW218177   4.347   2.859   4.356  1.0464  0.1226  2.3606
 2182SOL     OW18178   0.841   0.821   5.589  0.1750 -0.5202 -0.0340
 2182SOL    HW118179   0.807   0.732   5.597  0.4709 -0.5116  1.3208
 2182SOL    HW218180   0.921   0.815   5.535 -0.3286  0.5964 -0.9131
 2183SOL     OW18181   3.090   1.665   3.328 -0.5060 -0.1341  0.1140
 2183SOL    HW118182   3.142   1.731   3.375 -1.5939  1.0654 -0.3647
 2183SOL    HW218183   3.045   1.638   3.408  0.8277  0.6802  1.1365
 2184SOL     OW18184   4.543   0.451   0.780  0.7041  0.2444 -0.0305
 2184SOL    HW118185   4.495   0.509   0.721 -0.5814 -1.3488 -0.5560
 2184SOL    HW218186   4.511   0.363   0.763 -1.5415  0.4904  2.7990
 2185SOL     OW18187   4.369   0.203   1.767  0.0232 -0.6074 -0.1320
 2185SOL    HW118188   4.393   0.141   1.698 -0.1660  0.4618 -1.1520
 2185SOL    HW218189   4.435   0.173   1.830  0.2111 -0.9953 -0.5104
 2186SOL     OW18190   1.985   2.887   0.535  0.0540 -0.5537  0.4066
 2186SOL    HW118191   2.059   2.831   0.511  2.2122  2.4748 -0.0429
 2186SOL    HW218192   1.936   2.879   0.453  2.1151 -1.8566 -0.7049
 2187SOL     OW18193   1.340   4.459   8.589 -0.0784 -0.0325  0.1714
 2187SOL    HW118194   1.405   4.390   8.580  0.0469  0.1994 -0.7505
 2187SOL    HW218195   1.346   4.511   8.509  0.3628 -1.2259 -0.5573
 2188SOL     OW18196   1.800   3.369   6.951 -0.3682 -0.4045 -0.5385
 2188SOL    HW118197   1.844   3.284   6.961  1.9586  0.7905 -0.6310
 2188SOL    HW218198   1.861   3.436   6.984 -0.3792 -0.6543 -0.0019
 2189SOL     OW18199   4.162   3.708   6.077  0.3297  0.1876 -0.0983
 2189SOL    HW118200   4.112   3.785   6.048  0.8098 -0.1870 -1.9733
 2189SOL    HW218201   4.231   3.760   6.118 -0.4662  2.3716 -1.5323
 2190SOL     OW18202   1.221   2.939   3.724  0.4364  0.1822 -0.0755
 2190SOL    HW118203   1.240   2.916   3.634 -0.3159  0.3074 -0.2657
 2190SOL    HW218204   1.132   2.911   3.745  0.3604  0.6335  0.2246
 2191SOL     OW18205   0.655   2.916  14.018 -0.1635  0.2343 -0.0650
 2191SOL    HW118206   0.648   2.995  14.071  0.8783 -0.1613  0.6585
 2191SOL    HW218207   0.567   2.879  14.023 -1.2225  2.3742 -2.9832
 2192SOL     OW18208   2.438   1.940  15.755  0.3515 -0.2502  0.7752
 2192SOL    HW118209   2.392   1.856  15.743  0.0526  0.4050 -2.7953
 2192SOL    HW218210   2.361   1.997  15.745  0.1057 -0.3768  1.9322
 2193SOL     OW18211   3.936   1.227   7.308  0.1084 -0.4511 -0.3824
 2193SOL    HW118212   4.029   1.204   7.308  0.4715  1.0296 -0.0289
 2193SOL    HW218213   3.915   1.230   7.401  1.7235 -4.0891  0.1136
 2194SOL     OW18214   3.600   0.241   8.481 -0.0923 -0.0368 -0.0741
 2194SOL    HW118215   3.547   0.163   8.466 -0.4526 -0.0724  1.4196
 2194SOL    HW218216   3.538   0.289   8.536 -0.3416  0.3301 -0.6690
 2195SOL     OW18217   4.615   1.816   8.226  0.2767 -0.9033  0.0448
 2195SOL    HW118218   4.694   1.817   8.280  0.6641  0.0067 -0.5505
 2195SOL    HW218219   4.626   1.734   8.177 -0.5034 -1.0594  0.1164
 2196SOL     OW18220   4.620   3.824   8.582  0.6542  0.6205 -0.2047
 2196SOL    HW118221   4.599   3.803   8.490  0.8990 -1.2583  0.1687
 2196SOL    HW218222   4.532   3.842   8.614  1.1112  3.0897 -0.3161
 2197SOL     OW18223   2.602   0.014   5.880 -0.0561 -0.0237  0.0531
 2197SOL    HW118224   2.518   4.711   5.865 -0.3279  0.4309  0.3036
 2197SOL    HW218225   2.649   4.685   5.927  1.3292 -0.6920 -2.3181
 2198SOL     OW18226   3.146   2.504   6.152  0.2838  0.2593  0.2738
 2198SOL    HW118227   3.202   2.547   6.217  1.1114  1.4658 -1.2592
 2198SOL    HW218228   3.189   2.521   6.068 -0.1676  1.9316  0.3933
 2199SOL     OW18229   2.963   4.400   1.237 -0.1661  0.4484  0.1759
 2199SOL    HW118230   2.877   4.411   1.277 -0.5480 -0.2709 -0.4543
 2199SOL    HW218231   2.938   4.401   1.145 -1.4964 -1.4745  0.5170
 2200SOL     OW18232   4.475   0.380   4.349 -0.0725 -0.3717 -0.5459
 2200SOL    HW118233   4.385   0.352   4.362 -0.7026  1.5048 -0.7522
 2200SOL    HW218234   4.512   0.295   4.327 -0.6793 -1.1752  1.5563
 2201SOL     OW18235   1.754   4.618   0.931 -0.2592 -0.3733 -0.4825
 2201SOL    HW118236   1.724   4.528   0.916  0.1724 -0.4853 -0.6948
 2201SOL    HW218237   1.670   4.663   0.932 -0.7856 -1.3747  0.0302
 2202SOL     OW18238   1.296   0.233   4.246 -0.0549 -0.5718  0.2247
 2202SOL    HW118239   1.248   0.313   4.267 -1.2136 -0.9783 -0.9404
 2202SOL    HW218240   1.323   0.262   4.159 -0.2391 -0.6512  0.1436
 2203SOL     OW18241   2.219   3.670   4.615  0.1245  0.1442  0.1477
 2203SOL    HW118242   2.260   3.598   4.663 -0.6854 -1.3360 -1.3581
 2203SOL    HW218243   2.298   3.703   4.571  1.8721 -1.6663  1.9540
 2204SOL     OW18244   3.377   1.478   0.401  0.1901  0.0539 -0.1885
 2204SOL    HW118245   3.419   1.392   0.400  0.1424  0.0469 -1.2251
 2204SOL    HW218246   3.298   1.467   0.348 -0.4984  2.3373  0.3668
 2205SOL     OW18247   1.980   1.646   6.469 -0.0397 -0.7283  0.0503
 2205SOL    HW118248   1.999   1.734   6.436 -1.4656  0.2720  1.9469
 2205SOL    HW218249   1.909   1.657   6.532 -0.5088  1.2876 -0.8345
 2206SOL     OW18250   0.034   0.989   9.854 -0.2460 -0.4006 -0.0518
 2206SOL    HW118251   0.010   0.989   9.762 -0.3612 -1.9984 -0.0250
 2206SOL    HW218252   0.025   0.898   9.883  2.8026 -1.2209 -1.7505
 2207SOL     OW18253   4.543   1.431   7.952  0.0563 -0.1033 -0.3220
 2207SOL    HW118254   4.521   1.419   7.859 -0.0158 -0.1442 -0.2998
 2207SOL    HW218255   4.479   1.495   7.981  0.2504  0.5168 -1.2594
 2208SOL     OW18256   3.048   0.820   7.557 -0.4962 -0.2674 -0.1579
 2208SOL    HW118257   3.032   0.738   7.510  0.3286 -0.4771 -0.0679
 2208SOL    HW218258   3.134   0.849   7.526  0.2649 -1.2453  1.0011
 2209SOL     OW18259   2.873   0.864   3.180  0.0843 -0.0345 -0.3734
 2209SOL    HW118260   2.888   0.801   3.251  2.2282  0.3119 -0.5230
 2209SOL    HW218261   2.951   0.847   3.129  0.4975 -0.7695  0.4923
 2210SOL     OW18262   1.822   1.802   6.987  0.5732  0.3342 -0.0620
 2210SOL    HW118263   1.901   1.822   7.039  1.0834 -0.0042 -0.7029
 2210SOL    HW218264   1.757   1.864   7.017 -1.5354 -0.8250 -2.2305
 2211SOL     OW18265   2.421   0.700   8.473  0.5796  0.2838  0.5415
 2211SOL    HW118266   2.404   0.642   8.399  0.7609  1.1437 -0.1805
 2211SOL    HW218267   2.390   0.661   8.554  0.4634  1.5634  1.1145
 2212SOL     OW18268   0.375   0.054  13.903  0.3678  0.2283 -0.2297
 2212SOL    HW118269   0.424   0.089  13.829 -2.0619  0.5187 -1.6921
 2212SOL    HW218270   0.408   0.110  13.972 -2.6103  0.9861  0.5939
 2213SOL     OW18271   2.672   2.803   0.008  0.2636  0.1000  0.5177
 2213SOL    HW118272   2.745   2.865   0.013  0.6304 -0.1485 -1.8574
 2213SOL    HW218273   2.614   2.845   0.072  2.1520  0.2949  2.1033
 2214SOL     OW18274   2.091   1.925   1.129  0.0179 -0.3572  0.0429
 2214SOL    HW118275   2.101   1.933   1.224  0.1927  2.5439 -0.2095
 2214SOL    HW218276   2.052   2.012   1.118  1.0523  0.0476 -0.5088
 2215SOL     OW18277   3.242   3.305  15.351  0.0865 -0.1295 -0.2984
 2215SOL    HW118278   3.248   3.395  15.317 -0.2517 -0.1888 -0.5076
 2215SOL    HW218279   3.268   3.253  15.276 -2.5843  2.1932 -2.8222
 2216SOL     OW18280   0.359   0.013  17.418  0.6791  0.4319  0.3376
 2216SOL    HW118281   0.345   4.719  17.506  0.1835  0.9358  0.4519
 2216SOL    HW218282   0.439   0.066  17.418  1.6498 -1.0457  0.6686
 2217SOL     OW18283   1.832   0.402  12.758  0.4749  0.0328  0.0984
 2217SOL    HW118284   1.752   0.395  12.706  1.5021 -0.7940 -1.3936
 2217SOL    HW218285   1.824   0.337  12.828  0.5759 -1.8686 -1.6445
 2218SOL     OW18286   4.486   3.658   6.109  0.2343  0.1957  0.3692
 2218SOL    HW118287   4.538   3.736   6.088  1.4056  0.1026  2.9417
 2218SOL    HW218288   4.450   3.693   6.191 -2.7263 -4.0336  0.8769
 2219SOL     OW18289   1.645   3.212   3.692 -0.3256  0.5206  0.2699
 2219SOL    HW118290   1.619   3.196   3.783 -0.9937 -0.2607 -0.0571
 2219SOL    HW218291   1.740   3.214   3.703 -0.4343  1.5439  1.1024
 2220SOL     OW18292   0.349   1.052   4.329 -0.7161  0.1781  0.2773
 2220SOL    HW118293   0.361   0.962   4.299 -2.4931 -0.1143  0.4501
 2220SOL    HW218294   0.378   1.040   4.420  0.0918 -2.1284 -0.2969
 2221SOL     OW18295   4.378   4.375   9.307  0.0137  0.1869  0.1193
 2221SOL    HW118296   4.375   4.373   9.403 -0.1006 -0.1555  0.1069
 2221SOL    HW218297   4.364   4.468   9.286 -0.8756 -0.1706 -0.8591
 2222SOL     OW18298   1.356   2.264   6.300  0.1116 -0.2202 -0.2106
 2222SOL    HW118299   1.419   2.202   6.264  0.5078 -0.2388  0.5183
 2222SOL    HW218300   1.351   2.231   6.390  3.6652  2.5563  0.9904
 2223SOL     OW18301   4.539   0.514   8.006 -0.0052 -0.1799 -0.0853
 2223SOL    HW118302   4.529   0.531   8.099 -0.4425 -0.7391 -0.0349
 2223SOL    HW218303   4.622   0.556   7.979 -0.5808  1.0552  0.0536
 2224SOL     OW18304   1.130   4.114  16.915 -0.0171  0.5495 -0.1622
 2224SOL    HW118305   1.055   4.075  16.869 -0.8182  0.4424  1.2239
 2224SOL    HW218306   1.088   4.196  16.944 -2.4598 -0.4647 -0.7804
 2225SOL     OW18307   4.017   1.473   8.046  0.9203 -0.0123 -0.8020
 2225SOL    HW118308   4.067   1.525   7.983  3.8862  0.7232  2.1378
 2225SOL    HW218309   4.049   1.508   8.129  1.0070  1.3919 -1.4304
 2226SOL     OW18310   3.456   2.425   3.551  0.0006 -0.2477  0.1360
 2226SOL    HW118311   3.474   2.483   3.625 -0.2706  0.3169 -0.2454
 2226SOL    HW218312   3.445   2.337   3.589  0.7802 -0.7415 -0.7747
 2227SOL     OW18313   3.910   2.487   1.081 -0.2863 -0.2788 -0.3245
 2227SOL    HW118314   4.002   2.472   1.062  0.4725  1.2831  2.0003
 2227SOL    HW218315   3.876   2.421   1.021  4.3701 -2.2799 -0.7177
 2228SOL     OW18316   3.016   3.479  12.048  0.4612  0.3603 -0.3152
 2228SOL    HW118317   3.027   3.484  12.142 -3.4202  2.6080  0.0194
 2228SOL    HW218318   2.934   3.527  12.036 -0.3433 -0.3992  2.2758
 2229SOL     OW18319   1.884   2.836   1.529 -0.4881  0.6098 -0.2583
 2229SOL    HW118320   1.951   2.805   1.468  0.9384  1.6899  0.7642
 2229SOL    HW218321   1.862   2.926   1.505 -2.1605  0.8098  1.9650
 2230SOL     OW18322   4.483   2.752   8.256 -0.5613 -0.7115  0.3039
 2230SOL    HW118323   4.415   2.701   8.301 -1.7789 -0.3764 -1.1181
 2230SOL    HW218324   4.485   2.838   8.296 -0.1941 -1.0437  1.0029
 2231SOL     OW18325   3.874   3.557   8.056  0.0465  0.0041 -0.5746
 2231SOL    HW118326   3.824   3.576   7.977  0.2889  0.5369 -0.5996
 2231SOL    HW218327   3.887   3.648   8.082  0.3400 -0.6182  1.4602
 2232SOL     OW18328   1.832   1.553   6.024 -0.0580  0.2376  0.1538
 2232SOL    HW118329   1.856   1.644   6.042  1.3394 -0.3277  1.0875
 2232SOL    HW218330   1.779   1.551   5.944 -1.0777 -2.2296  0.8838
 2233SOL     OW18331   4.568   4.660   2.264  0.4346  0.1963 -0.3561
 2233SOL    HW118332   4.492   4.715   2.249  0.4062  0.7100  1.6854
 2233SOL    HW218333   4.527   4.575   2.281  2.2416 -0.6081 -0.0026
 2234SOL     OW18334   0.816   4.054   3.058  0.0796  0.0952  0.3493
 2234SOL    HW118335   0.872   4.112   3.110  1.6362 -0.8083 -0.3267
 2234SOL    HW218336   0.753   4.032   3.126 -1.0565  2.2839  0.0065
 2235SOL     OW18337   0.306   3.832   1.078 -0.0833 -0.4432 -0.1810
 2235SOL    HW118338   0.237   3.835   1.011  0.7386 -0.7285 -1.0482
 2235SOL    HW218339   0.327   3.921   1.106 -4.5750  1.0496 -1.4811
 2236SOL     OW18340   4.353   3.764   1.655 -0.6995  0.3231 -0.7596
 2236SOL    HW118341   4.350   3.692   1.592 -0.9763 -0.0808 -0.2792
 2236SOL    HW218342   4.274   3.806   1.621 -0.4874  1.3660  0.0525
 2237SOL     OW18343   4.284   0.697   8.543  0.2840  0.1841 -0.2349
 2237SOL    HW118344   4.207   0.732   8.589  1.6561  0.3709  1.9093
 2237SOL    HW218345   4.250   0.688   8.454  4.2520  0.7043 -1.7987
 2238SOL     OW18346   0.341   4.196   6.730 -0.0887  0.0480 -0.4509
 2238SOL    HW118347   0.271   4.154   6.681 -0.9925  0.8931  0.1036
 2238SOL    HW218348   0.294   4.278   6.747 -0.3309 -0.6236  2.1870
 2239SOL     OW18349   0.305   4.679   7.559  0.2712 -0.1847  0.0548
 2239SOL    HW118350   0.218   4.639   7.565 -0.3683  0.8364 -2.6027
 2239SOL    HW218351   0.363   4.641   7.625 -0.1408 -0.4235  0.2772
 2240SOL     OW18352   3.415   3.731   7.125  0.7136  0.0036 -0.0299
 2240SOL    HW118353   3.358   3.708   7.052  0.0835  1.5916 -0.0384
 2240SOL    HW218354   3.368   3.802   7.169 -0.6821 -1.6545  1.1605
 2241SOL     OW18355   3.716   1.101   0.349 -0.1978 -0.2857  0.0860
 2241SOL    HW118356   3.712   1.022   0.294 -2.2247 -1.6947  2.2704
 2241SOL    HW218357   3.780   1.149   0.297 -0.1000 -2.8536 -2.1437
 2242SOL     OW18358   1.852   2.914   7.363  0.2662  0.0455  0.0867
 2242SOL    HW118359   1.827   2.830   7.323 -0.5989  1.2386 -1.8517
 2242SOL    HW218360   1.894   2.960   7.291  2.6271 -2.0200  0.1540
 2243SOL     OW18361   1.715   4.094   3.818 -0.7472  0.0095  0.0817
 2243SOL    HW118362   1.763   4.102   3.900 -1.9271  0.4477  0.7363
 2243SOL    HW218363   1.654   4.025   3.846  0.0989 -0.1352  1.5622
 2244SOL     OW18364   4.134   0.515   5.660  0.2795 -0.2939  0.1039
 2244SOL    HW118365   4.060   0.499   5.719  0.8633 -0.8067  0.7006
 2244SOL    HW218366   4.155   0.436   5.611 -0.9761 -1.6306  1.7389
 2245SOL     OW18367   2.220   2.698   1.652 -0.3904  0.4209  0.6918
 2245SOL    HW118368   2.274   2.755   1.597 -1.4730  0.8265  0.0619
 2245SOL    HW218369   2.291   2.635   1.665  0.3682  1.5543  2.0417
 2246SOL     OW18370   2.507   4.070   9.499 -0.1967 -0.3595 -0.2193
 2246SOL    HW118371   2.564   4.087   9.575 -2.7085 -0.0858  1.6230
 2246SOL    HW218372   2.565   4.094   9.427  1.8181  0.0454  1.5282
 2247SOL     OW18373   1.942   1.628   5.680  0.5064  0.0947  0.3475
 2247SOL    HW118374   1.997   1.552   5.662  0.1243 -0.1447  0.2112
 2247SOL    HW218375   1.883   1.610   5.753  1.4723  0.2308  1.1688
 2248SOL     OW18376   0.214   1.353   7.516  0.0975  0.3916 -0.1606
 2248SOL    HW118377   0.231   1.347   7.610 -2.2062 -0.4823  0.2068
 2248SOL    HW218378   0.138   1.412   7.520 -2.1033 -2.2922 -2.3805
 2249SOL     OW18379   2.520   2.282   0.496  0.3266 -0.1599  0.1083
 2249SOL    HW118380   2.579   2.354   0.472  0.0580  0.8888  2.6057
 2249SOL    HW218381   2.468   2.323   0.565 -1.1728  1.5155 -1.9761
 2250SOL     OW18382   2.539   0.718  17.028  0.3658  0.6280  0.0067
 2250SOL    HW118383   2.477   0.786  17.055  0.3349  0.2600  0.8716
 2250SOL    HW218384   2.504   0.687  16.945 -1.5483  1.9632  0.3317
 2251SOL     OW18385   4.443   3.645   3.057  0.4957 -0.1088 -0.7338
 2251SOL    HW118386   4.514   3.694   3.098 -1.4134  0.9398  1.3224
 2251SOL    HW218387   4.419   3.690   2.975  2.2932  0.5391 -0.8897
 2252SOL     OW18388   0.997   2.925   2.800 -0.3645  0.5977  0.1472
 2252SOL    HW118389   1.049   3.000   2.829 -0.6403  1.2902 -1.1324
 2252SOL    HW218390   0.994   2.878   2.883  2.4235  0.6885  0.3220
 2253SOL     OW18391   3.402   0.308   8.674 -0.3636  0.2868 -0.0525
 2253SOL    HW118392   3.440   0.235   8.722 -0.9368 -0.7373 -1.1634
 2253SOL    HW218393   3.325   0.318   8.731 -1.3279  0.3244 -1.3494
 2254SOL     OW18394   1.452   0.055  13.678  0.2733  0.6375 -0.1816
 2254SOL    HW118395   1.495   0.062  13.764  1.6967 -1.9539 -0.6688
 2254SOL    HW218396   1.407   0.139  13.681  1.3887  1.2297 -0.1157
 2255SOL     OW18397   4.671   0.024   5.354 -0.3848 -0.0177  0.0544
 2255SOL    HW118398   0.013   4.734   5.394  1.0230  1.7802 -1.4557
 2255SOL    HW218399   4.701   0.036   5.264  2.9941 -2.5705  0.8355
 2256SOL     OW18400   2.833   3.362   4.774  0.2053 -0.2518  0.3264
 2256SOL    HW118401   2.759   3.367   4.834 -1.1504  1.3567 -1.4666
 2256SOL    HW218402   2.795   3.294   4.718  0.6403  1.7577 -2.4270
 2257SOL     OW18403   2.706   1.895   1.087  0.0349  0.1744 -0.3130
 2257SOL    HW118404   2.767   1.934   1.025  0.1387 -1.9341 -1.5394
 2257SOL    HW218405   2.663   1.970   1.128  0.2033  0.9262 -1.5093
 2258SOL     OW18406   4.472   0.531   1.055  0.0220 -0.4022 -0.3599
 2258SOL    HW118407   4.417   0.608   1.045  0.4416 -0.0940 -0.3241
 2258SOL    HW218408   4.469   0.495   0.967  1.1541  0.8241 -0.8902
 2259SOL     OW18409   2.310   1.988   8.909 -0.2778  0.1337 -0.5998
 2259SOL    HW118410   2.362   1.984   8.829 -0.0454 -1.6190 -0.3538
 2259SOL    HW218411   2.235   2.037   8.875 -1.4264 -0.2145  1.4212
 2260SOL     OW18412   1.402   1.987   1.726 -0.1093 -0.1157  0.1355
 2260SOL    HW118413   1.333   2.046   1.694  0.9787  0.3394 -1.3822
 2260SOL    HW218414   1.355   1.954   1.803  1.0529 -1.5299  0.2330
 2261SOL     OW18415   2.498   3.149   7.756  0.1406  0.5424  0.4376
 2261SOL    HW118416   2.404   3.166   7.758  0.0330 -0.0320  0.3272
 2261SOL    HW218417   2.527   3.183   7.840 -0.3986  0.4335  0.6700
 2262SOL     OW18418   2.251   1.870   7.947  0.0664 -0.0127  0.4134
 2262SOL    HW118419   2.241   1.965   7.955  1.0205 -0.1322  2.8255
 2262SOL    HW218420   2.230   1.851   7.855  0.6579  0.1205  0.2521
 2263SOL     OW18421   3.064   3.623   2.380  0.5397  0.6411  0.0084
 2263SOL    HW118422   2.985   3.659   2.421  2.5614  2.3815  2.4021
 2263SOL    HW218423   3.129   3.642   2.448  2.2337 -2.6130 -0.7083
 2264SOL     OW18424   1.149   2.980   0.421 -0.2992 -0.0445 -0.2058
 2264SOL    HW118425   1.148   2.935   0.505 -1.5833 -1.9035 -1.2095
 2264SOL    HW218426   1.093   2.916   0.377 -1.6249  1.3396 -0.5689
 2265SOL     OW18427   0.840   0.688   0.376  0.0868 -0.1580 -0.1051
 2265SOL    HW118428   0.793   0.623   0.323 -2.2485  0.5001  1.1469
 2265SOL    HW218429   0.824   0.653   0.463 -3.4434  0.8053 -0.3310
 2266SOL     OW18430   0.378   0.303   5.173 -0.2158 -0.4053  0.8484
 2266SOL    HW118431   0.329   0.236   5.125  0.6467  1.0990 -2.1642
 2266SOL    HW218432   0.310   0.371   5.178 -0.4326 -0.5116 -0.6627
 2267SOL     OW18433   1.233   0.728   5.089 -0.3324 -0.1199 -0.2973
 2267SOL    HW118434   1.235   0.757   4.997  0.6636 -0.1013 -0.2680
 2267SOL    HW218435   1.140   0.709   5.101 -0.1590 -0.3042  0.7227
 2268SOL     OW18436   1.842   1.921  12.473  0.0946 -0.8277  0.0656
 2268SOL    HW118437   1.840   1.848  12.535 -1.5758 -1.4967 -0.7811
 2268SOL    HW218438   1.753   1.912  12.438 -1.1723  1.3467  2.6753
 2269SOL     OW18439   3.852   0.421   2.376  0.1864  0.2015  0.3779
 2269SOL    HW118440   3.846   0.517   2.377  3.4434  0.4043 -0.3306
 2269SOL    HW218441   3.762   0.401   2.348  0.8314  0.0474 -1.5430
 2270SOL     OW18442   2.440   1.058  11.519 -0.4855  0.3246  0.1264
 2270SOL    HW118443   2.386   1.079  11.594 -2.5396 -1.5269 -0.8607
 2270SOL    HW218444   2.392   0.977  11.502 -0.8233  0.5282  0.1095
 2271SOL     OW18445   3.889   1.604   7.463  0.1894  0.1508 -0.7614
 2271SOL    HW118446   3.833   1.630   7.537  1.3959  2.4853 -0.6452
 2271SOL    HW218447   3.867   1.673   7.400  0.0883  0.2914 -0.5727
 2272SOL     OW18448   1.997   4.495   4.816  0.6246 -0.8282 -0.3432
 2272SOL    HW118449   1.913   4.515   4.857  0.3491  0.8884 -1.7237
 2272SOL    HW218450   1.983   4.539   4.732 -1.4394  0.4062  0.6472
 2273SOL     OW18451   1.804   1.546   3.569  1.2460  0.3352 -0.5684
 2273SOL    HW118452   1.868   1.618   3.566  1.6820 -0.0375 -0.2706
 2273SOL    HW218453   1.861   1.470   3.556  0.4410 -0.3822  0.1088
 2274SOL     OW18454   2.226   1.951   8.356  0.4347 -0.4342  0.3988
 2274SOL    HW118455   2.307   1.942   8.306  0.5865  0.3611  0.5052
 2274SOL    HW218456   2.189   1.863   8.352 -0.0099 -0.3765  3.2804
 2275SOL     OW18457   3.487   3.424   5.733 -0.3623  0.3767  0.6744
 2275SOL    HW118458   3.401   3.459   5.757  0.9594  2.8806  1.7857
 2275SOL    HW218459   3.477   3.454   5.642 -2.0509  0.2931  0.8291
 2276SOL     OW18460   0.389   2.013   7.461 -0.4759 -0.3018 -0.6513
 2276SOL    HW118461   0.425   2.029   7.548  0.1186  0.6836 -1.0704
 2276SOL    HW218462   0.380   2.107   7.446 -2.9388 -0.1184  1.9641
 2277SOL     OW18463   3.568   0.076   3.747  0.0216  0.1176 -0.2341
 2277SOL    HW118464   3.600   0.034   3.667  0.9369  2.1725 -0.9586
 2277SOL    HW218465   3.485   0.092   3.702 -1.8194 -0.6037  2.9781
 2278SOL     OW18466   4.044   0.576  11.304  0.3197  0.4356 -0.3045
 2278SOL    HW118467   4.076   0.612  11.387 -0.8096 -0.6175  0.5911
 2278SOL    HW218468   3.988   0.654  11.296 -1.5894 -0.7540  1.3739
 2279SOL     OW18469   3.101   0.884  14.368 -0.3249  0.0383 -0.0009
 2279SOL    HW118470   3.009   0.888  14.342 -0.0330 -1.0004 -1.1573
 2279SOL    HW218471   3.133   0.837  14.291 -0.8726  2.4991 -1.7148
 2280SOL     OW18472   4.481   2.499   2.503 -0.6517  0.0364 -0.5507
 2280SOL    HW118473   4.515   2.581   2.538 -1.3328  0.3991 -0.7383
 2280SOL    HW218474   4.501   2.440   2.576 -0.6496 -0.6808 -1.1290
 2281SOL     OW18475   2.169   0.557   7.541  0.0802  0.6675  0.0655
 2281SOL    HW118476   2.233   0.498   7.502 -2.4146 -1.1744 -1.2578
 2281SOL    HW218477   2.208   0.644   7.533  0.1794  0.6589  0.4484
 2282SOL     OW18478   3.295   2.371   7.045 -0.6633 -0.0860  0.5510
 2282SOL    HW118479   3.323   2.307   7.110 -1.1645 -0.0936  0.7596
 2282SOL    HW218480   3.225   2.408   7.098 -3.4047 -0.4215 -2.8040
 2283SOL     OW18481   3.034   2.972   6.259 -0.3935 -0.2069  0.1420
 2283SOL    HW118482   3.037   2.881   6.231  1.2032 -0.8170  2.3188
 2283SOL    HW218483   3.009   2.968   6.351 -1.2331 -2.9718 -0.2079
 2284SOL     OW18484   0.613   0.443   5.196 -0.8348 -0.5403  0.2866
 2284SOL    HW118485   0.574   0.523   5.160 -0.2956 -0.8056 -0.9047
 2284SOL    HW218486   0.546   0.377   5.178 -1.1560 -0.2657  0.4952
 2285SOL     OW18487   2.975   3.856  16.603  0.0743  0.2385  0.3301
 2285SOL    HW118488   2.886   3.882  16.581  0.0608  0.1747  0.3087
 2285SOL    HW218489   3.022   3.897  16.531 -0.1069 -0.7992 -0.3856
 2286SOL     OW18490   3.995   3.574  10.145  0.4047 -0.4480  0.2997
 2286SOL    HW118491   4.087   3.565  10.174 -0.1763 -1.2872  1.9072
 2286SOL    HW218492   3.942   3.558  10.223 -0.2897  1.8234  0.2929
 2287SOL     OW18493   3.362   2.625   6.941  0.5996 -0.0700  0.8223
 2287SOL    HW118494   3.318   2.684   6.881  0.7006 -2.1245 -1.2904
 2287SOL    HW218495   3.350   2.538   6.904 -0.4573  0.0307  0.9498
 2288SOL     OW18496   1.403   2.470   9.011  0.6743 -0.2257  0.0855
 2288SOL    HW118497   1.376   2.555   9.044 -0.7325  0.6420 -3.2706
 2288SOL    HW218498   1.398   2.425   9.095  1.3183  2.1822  1.4034
 2289SOL     OW18499   2.819   4.632  11.408 -0.0380  0.0802 -0.1816
 2289SOL    HW118500   2.907   4.617  11.443 -0.1168  0.6503  0.2788
 2289SOL    HW218501   2.792   4.542  11.390 -0.5417  0.0121  0.9061
 2290SOL     OW18502   3.944   2.082  16.433  0.1788  0.0847 -0.2508
 2290SOL    HW118503   3.861   2.085  16.387 -1.0725 -1.8548  1.8909
 2290SOL    HW218504   3.953   2.166  16.478 -2.5527  0.8976 -1.2512
 2291SOL     OW18505   0.437   4.454   3.491  0.3295 -0.1335 -0.4298
 2291SOL    HW118506   0.342   4.468   3.484  0.4046  0.5525 -0.0806
 2291SOL    HW218507   0.469   4.510   3.421 -0.6456 -0.0065 -0.7681
 2292SOL     OW18508   3.359   0.120   3.587 -0.1252  0.3715 -0.0690
 2292SOL    HW118509   3.311   0.038   3.572 -0.8827  0.2712  2.9006
 2292SOL    HW218510   3.353   0.168   3.504 -2.0541  0.7556  0.2840
 2293SOL     OW18511   3.076   2.311  12.926  0.0255 -0.0806 -0.4667
 2293SOL    HW118512   3.082   2.398  12.965 -0.8726 -0.0204 -0.4595
 2293SOL    HW218513   2.987   2.314  12.892  0.0680 -0.2368 -0.5929
 2294SOL     OW18514   2.466   1.323   7.457  0.2355 -0.2627  0.0985
 2294SOL    HW118515   2.419   1.389   7.508 -1.5454 -1.7112  0.3163
 2294SOL    HW218516   2.490   1.264   7.529 -0.6288 -0.7852 -0.0417
 2295SOL     OW18517   1.210   1.958   7.762 -0.1595  0.5254  1.3485
 2295SOL    HW118518   1.195   1.930   7.672  1.7190 -1.8244  1.7749
 2295SOL    HW218519   1.204   2.054   7.765  2.0551  0.6934  0.7812
 2296SOL     OW18520   2.548   2.619  10.428  0.0309 -0.0592  0.4807
 2296SOL    HW118521   2.581   2.618  10.518 -2.2496 -2.0685  1.3105
 2296SOL    HW218522   2.467   2.669  10.432 -1.4348 -2.2542 -1.4811
 2297SOL     OW18523   4.086   1.507   8.978  0.0736 -0.1691  0.0590
 2297SOL    HW118524   4.062   1.416   8.960  0.2982 -0.0449 -0.8797
 2297SOL    HW218525   4.178   1.507   8.949 -0.5136 -0.0740 -1.8021
 2298SOL     OW18526   2.671   1.082   9.002 -0.3693 -0.1088  0.2394
 2298SOL    HW118527   2.741   1.016   8.999  1.0949  1.3736  1.4940
 2298SOL    HW218528   2.595   1.034   9.033 -0.6238  0.6593  0.8345
 2299SOL     OW18529   3.482   0.465  16.324  0.2333  0.3081  0.3217
 2299SOL    HW118530   3.485   0.370  16.314  0.0248  0.3107  0.2466
 2299SOL    HW218531   3.466   0.497  16.236  0.4218 -1.5077 -0.3676
 2300SOL     OW18532   4.679   2.361  15.146 -0.1776  0.2909 -0.0068
 2300SOL    HW118533   4.627   2.397  15.074 -0.0362  1.3088  0.4033
 2300SOL    HW218534   0.016   2.341  15.092  0.1635 -0.3135  0.6925
 2301SOL     OW18535   1.378   3.384  10.302 -0.2122 -0.0533 -0.1307
 2301SOL    HW118536   1.473   3.379  10.318 -0.5099 -0.5320  1.4699
 2301SOL    HW218537   1.370   3.356  10.211  1.2612 -0.2930 -0.1828
 2302SOL     OW18538   2.636   2.573   8.004 -0.5663  0.1272 -0.3078
 2302SOL    HW118539   2.657   2.483   8.028 -1.5345 -0.3211 -1.0983
 2302SOL    HW218540   2.627   2.574   7.909  0.0764  0.6060 -0.3627
 2303SOL     OW18541   1.586   1.452   4.814 -0.1626 -0.2573  0.4027
 2303SOL    HW118542   1.667   1.459   4.864  0.4871 -0.7276 -0.5618
 2303SOL    HW218543   1.604   1.437   4.721 -0.9708  2.1112 -0.1287
 2304SOL     OW18544   2.486   3.405   6.313  0.0017 -0.1852  0.2907
 2304SOL    HW118545   2.507   3.490   6.274  1.9248 -1.3050 -1.1220
 2304SOL    HW218546   2.569   3.378   6.352 -0.3859 -1.4941  0.1989
 2305SOL     OW18547   1.896   4.505   9.364  0.6053  0.0860  0.0819
 2305SOL    HW118548   1.917   4.516   9.271 -0.1302 -2.4715 -0.3912
 2305SOL    HW218549   1.873   4.412   9.369  1.4836 -0.2641 -2.2784
 2306SOL     OW18550   2.136   1.417  14.299  0.3109 -0.6528 -0.4332
 2306SOL    HW118551   2.086   1.479  14.351  0.9975 -1.7617  1.5548
 2306SOL    HW218552   2.205   1.398  14.363  0.4695 -1.2979 -0.8001
 2307SOL     OW18553   2.771   4.384  11.358 -0.3263  0.1351 -0.6539
 2307SOL    HW118554   2.834   4.373  11.287 -0.5845  0.4953 -0.9395
 2307SOL    HW218555   2.775   4.296  11.397 -0.5495  0.0614 -0.7962
 2308SOL     OW18556   0.464   2.475   7.602  0.0411  0.4120 -0.4061
 2308SOL    HW118557   0.443   2.482   7.695  1.5066  1.2724 -0.1467
 2308SOL    HW218558   0.541   2.418   7.600  0.5405  1.1810 -3.0759
 2309SOL     OW18559   2.003   4.673   5.186  0.8662 -0.3373  0.5773
 2309SOL    HW118560   1.910   4.676   5.206  0.9166 -0.3442  0.8057
 2309SOL    HW218561   2.045   4.718   5.259  0.9725 -0.3446  0.5208
 2310SOL     OW18562   0.938   1.408   1.302 -0.4164  0.2987  0.0225
 2310SOL    HW118563   0.973   1.445   1.383  0.9038  0.3388 -0.5645
 2310SOL    HW218564   1.024   1.393   1.264 -1.1806 -2.3254 -0.6759
 2311SOL     OW18565   0.077   0.800   8.990  0.0853 -0.3126  0.3746
 2311SOL    HW118566   0.171   0.801   9.006  0.2431  0.2051 -0.6147
 2311SOL    HW218567   0.081   0.754   8.907  0.3087  1.3452 -0.5490
 2312SOL     OW18568   3.859   3.341   8.825  0.3618 -0.1707 -0.2939
 2312SOL    HW118569   3.917   3.265   8.840  2.7103  1.6015 -0.3372
 2312SOL    HW218570   3.776   3.295   8.837  0.0997  0.7689  1.4951
 2313SOL     OW18571   3.425   0.369  16.736 -0.3663  0.2872  0.7883
 2313SOL    HW118572   3.442   0.276  16.753  0.2000  0.0136 -1.3076
 2313SOL    HW218573   3.333   0.356  16.712 -0.3098  1.8894 -0.2294
 2314SOL     OW18574   2.673   1.202   6.619  0.0598  0.4512 -0.8359
 2314SOL    HW118575   2.691   1.196   6.525 -0.7146 -0.2440 -0.9343
 2314SOL    HW218576   2.635   1.117   6.639 -0.5957  0.7887 -0.6663
 2315SOL     OW18577   2.317   0.792   2.015 -0.5390  0.1061  0.1358
 2315SOL    HW118578   2.280   0.809   1.929  0.8999  2.0379 -0.1181
 2315SOL    HW218579   2.240   0.757   2.060 -0.5970 -0.0348 -0.0744
 2316SOL     OW18580   3.246   4.250   6.322 -0.5883 -0.1378 -0.1586
 2316SOL    HW118581   3.297   4.206   6.390  1.4398  0.7960 -1.0605
 2316SOL    HW218582   3.180   4.300   6.371  0.5438  0.5171  0.7009
 2317SOL     OW18583   4.085   4.245   7.080 -0.1684  0.1202 -0.1641
 2317SOL    HW118584   4.075   4.168   7.024  0.4147  0.2728 -0.4795
 2317SOL    HW218585   4.018   4.305   7.047 -0.3411 -0.0836 -0.1775
 2318SOL     OW18586   1.174   3.858   3.145 -0.3089  0.4034  0.1833
 2318SOL    HW118587   1.143   3.837   3.057 -2.0528  0.8273  0.6932
 2318SOL    HW218588   1.256   3.901   3.122  0.0190 -0.0791  0.4685
 2319SOL     OW18589   3.849   0.486   4.799 -0.4665  0.3023  0.5655
 2319SOL    HW118590   3.901   0.407   4.815  0.1332  0.8676  1.4342
 2319SOL    HW218591   3.918   0.547   4.827  2.1082 -1.9334 -0.9368
 2320SOL     OW18592   3.256   3.089   3.500 -0.2784  0.3002 -0.1982
 2320SOL    HW118593   3.184   3.036   3.534  1.6358 -2.2756 -0.2111
 2320SOL    HW218594   3.282   3.044   3.420  0.1179 -1.7353  1.0715
 2321SOL     OW18595   4.445   2.018   0.832  0.4760  0.3637 -0.0412
 2321SOL    HW118596   4.501   1.942   0.847 -0.0700  0.5456  3.0584
 2321SOL    HW218597   4.474   2.063   0.753  2.0445 -0.8050 -0.1193
 2322SOL     OW18598   1.992   0.508  11.137  0.0433  0.2436  0.0130
 2322SOL    HW118599   2.028   0.547  11.057  1.6579  2.3633  1.7762
 2322SOL    HW218600   1.971   0.583  11.191 -2.0896  0.3250 -0.9273
 2323SOL     OW18601   4.338   1.470   5.292 -0.0613  0.0311  0.2857
 2323SOL    HW118602   4.393   1.394   5.308  2.0019  0.9678 -2.2061
 2323SOL    HW218603   4.309   1.493   5.380 -0.7802  0.0021  0.0552
 2324SOL     OW18604   0.827   2.883   1.975  0.1416  0.4577  0.0156
 2324SOL    HW118605   0.837   2.795   2.010  3.9309  0.5249 -0.8690
 2324SOL    HW218606   0.906   2.900   1.923  1.3399 -1.4941  1.1932
 2325SOL     OW18607   4.539   0.432   4.050 -0.3158 -0.3429 -0.3982
 2325SOL    HW118608   4.503   0.473   4.128  1.6851  2.8809 -1.1922
 2325SOL    HW218609   4.507   0.342   4.058  0.0522 -0.4503 -0.1939
 2326SOL     OW18610   1.426   2.468   4.382 -0.5575 -0.0389  0.1298
 2326SOL    HW118611   1.465   2.380   4.377  0.1655  0.3296 -0.8412
 2326SOL    HW218612   1.360   2.464   4.313 -0.4144 -1.4870  0.0690
 2327SOL     OW18613   1.658   4.390   3.963  0.0223  0.0796 -0.0094
 2327SOL    HW118614   1.610   4.419   3.884  1.5353 -1.0843 -1.3493
 2327SOL    HW218615   1.607   4.314   3.989  2.3506 -1.6580 -0.5741
 2328SOL     OW18616   4.171   2.446   8.574  0.0143 -0.0278 -0.0404
 2328SOL    HW118617   4.094   2.502   8.567  0.3113  0.4778  0.7930
 2328SOL    HW218618   4.141   2.403   8.653  0.5512 -2.8901 -1.3999
 2329SOL     OW18619   2.963   0.622   2.195 -0.3711 -0.1743  0.6578
 2329SOL    HW118620   2.961   0.713   2.168  1.7789 -0.2793  0.1674
 2329SOL    HW218621   3.021   0.620   2.271 -0.5726 -1.9645  0.7787
 2330SOL     OW18622   0.851   2.248   3.453  0.1105 -0.4410  0.7246
 2330SOL    HW118623   0.942   2.267   3.472  0.8870 -3.1790 -0.1454
 2330SOL    HW218624   0.864   2.179   3.387 -1.1988 -0.4661  0.4865
 2331SOL     OW18625   1.687   3.054   1.500 -0.2215 -0.3976 -0.2282
 2331SOL    HW118626   1.680   3.140   1.459  0.9620 -1.1148 -1.9285
 2331SOL    HW218627   1.597   3.034   1.526  0.1876 -0.8687  0.8137
 2332SOL     OW18628   3.871   4.342   5.013 -0.0975 -0.1335 -0.1703
 2332SOL    HW118629   3.816   4.380   4.944 -0.4059  0.7918  0.5855
 2332SOL    HW218630   3.908   4.423   5.048 -0.9032 -0.6566  1.8557
 2333SOL     OW18631   2.419   3.227   8.501 -0.0743  0.0002 -0.3152
 2333SOL    HW118632   2.511   3.232   8.525 -0.2919 -2.2476  1.0511
 2333SOL    HW218633   2.389   3.145   8.542 -1.8131 -0.0800 -1.7116
 2334SOL     OW18634   4.099   3.349  11.727  0.1136  0.1915  0.0233
 2334SOL    HW118635   4.117   3.442  11.719  0.1371  0.2111  0.3355
 2334SOL    HW218636   4.182   3.307  11.747  0.0692  0.2131  0.2497
 2335SOL     OW18637   0.961   4.362   3.453 -0.1524 -0.5964  0.5318
 2335SOL    HW118638   1.012   4.281   3.452 -0.4546 -0.7432 -1.8026
 2335SOL    HW218639   0.990   4.399   3.537 -1.6525 -1.7982  1.5788
 2336SOL     OW18640   0.938   3.335   2.105 -0.6497 -0.0617 -0.1493
 2336SOL    HW118641   0.866   3.272   2.120  1.1128 -2.0154  0.1411
 2336SOL    HW218642   0.897   3.394   2.042 -1.6210  0.8232  1.2886
 2337SOL     OW18643   2.181   1.282   4.777  0.0604  0.1999 -0.8718
 2337SOL    HW118644   2.188   1.210   4.714  2.8962 -0.1907 -0.1116
 2337SOL    HW218645   2.133   1.237   4.846 -0.1076  0.4036 -0.8558
 2338SOL     OW18646   3.649   4.575   4.566  0.1584  0.4074  0.4117
 2338SOL    HW118647   3.631   4.668   4.551  2.6310  0.7389 -0.4944
 2338SOL    HW218648   3.559   4.544   4.559  1.7201 -3.9239 -0.9127
 2339SOL     OW18649   0.536   1.045  16.037 -0.4638 -0.5323  0.5191
 2339SOL    HW118650   0.557   1.139  16.043 -2.5670 -0.0275  0.0239
 2339SOL    HW218651   0.446   1.055  16.069  0.5911  3.0858  2.3838
 2340SOL     OW18652   3.038   4.233   8.316  0.6591 -0.4327 -0.0612
 2340SOL    HW118653   2.949   4.205   8.296  0.1698  1.0629  0.0620
 2340SOL    HW218654   3.070   4.157   8.366  1.4818  0.1589  0.3030
 2341SOL     OW18655   2.168   1.555   1.846  0.4228  0.1651 -0.2146
 2341SOL    HW118656   2.145   1.544   1.754  0.7851 -2.5730  0.0165
 2341SOL    HW218657   2.150   1.471   1.888 -0.2647  0.4699  0.0888
 2342SOL     OW18658   3.873   1.000   2.819  1.0044 -0.6460  0.0809
 2342SOL    HW118659   3.879   1.054   2.740 -1.2086  0.0621  0.3932
 2342SOL    HW218660   3.919   1.055   2.882  0.8031 -0.0339 -0.2966
 2343SOL     OW18661   4.540   4.434  15.818  0.3469  0.2325 -0.4290
 2343SOL    HW118662   4.510   4.348  15.846  1.4437 -0.7279 -2.2199
 2343SOL    HW218663   4.551   4.418  15.724  2.2959  1.0749 -0.3495
 2344SOL     OW18664   4.698   2.603   0.198  0.2683 -0.9914  0.3527
 2344SOL    HW118665   4.694   2.645   0.284 -2.2551 -0.7719  0.1093
 2344SOL    HW218666   4.604   2.606   0.182  0.4770  2.0397 -0.2404
 2345SOL     OW18667   3.251   0.392  17.122 -0.9532  0.0969  0.1452
 2345SOL    HW118668   3.238   0.434  17.207 -0.9379  0.2762  0.0596
 2345SOL    HW218669   3.284   0.455  17.058 -2.0182 -0.3256 -0.8174
 2346SOL     OW18670   3.824   0.313  14.575 -0.5727 -0.3801  0.4142
 2346SOL    HW118671   3.743   0.334  14.622 -1.1533 -1.0374 -0.3041
 2346SOL    HW218672   3.876   0.272  14.645 -0.7088 -2.1230 -0.5013
 2347SOL     OW18673   4.518   0.742  16.493 -0.4223 -0.3361 -0.4913
 2347SOL    HW118674   4.566   0.670  16.453 -1.8511 -1.1905 -0.6701
 2347SOL    HW218675   4.582   0.808  16.466 -0.1282 -0.1230  0.7613
 2348SOL     OW18676   0.921   0.988  12.488 -0.1014  0.2943 -0.0048
 2348SOL    HW118677   0.871   1.069  12.494 -0.9767 -0.1750 -0.9749
 2348SOL    HW218678   0.965   0.989  12.574  0.2613  2.6961 -0.2205
 2349SOL     OW18679   0.159   3.967   3.228  0.0350  0.3103  0.5790
 2349SOL    HW118680   0.151   4.032   3.297 -3.7509 -0.8794  1.2784
 2349SOL    HW218681   0.227   3.914   3.271  0.7203  0.5025 -0.2656
 2350SOL     OW18682   2.004   2.017  12.825  0.1589  0.4895 -0.5377
 2350SOL    HW118683   2.046   2.042  12.743  0.5200  4.0413  0.7365
 2350SOL    HW218684   1.915   2.047  12.808 -0.1728  0.4791  1.1021
 2351SOL     OW18685   2.152   1.051   2.152 -0.0251 -0.1780  0.2801
 2351SOL    HW118686   2.142   1.138   2.191 -2.5182  0.3657 -1.5596
 2351SOL    HW218687   2.067   1.011   2.166  1.1926 -3.8740 -2.8952
 2352SOL     OW18688   2.935   4.184   5.088 -0.7150 -0.4462  0.0684
 2352SOL    HW118689   2.903   4.212   5.002  2.2702 -1.0842 -1.2407
 2352SOL    HW218690   2.898   4.096   5.088  1.9462 -1.5484  1.2053
 2353SOL     OW18691   2.913   4.411   0.943 -1.1785  0.0260 -0.3236
 2353SOL    HW118692   3.002   4.443   0.927 -2.0006  2.3250 -0.3042
 2353SOL    HW218693   2.876   4.412   0.855 -1.4562  0.5200 -0.2013
 2354SOL     OW18694   2.564   1.301   5.001 -0.2670  0.6580 -0.1829
 2354SOL    HW118695   2.610   1.380   5.030  0.9630 -1.1073  2.6384
 2354SOL    HW218696   2.536   1.337   4.917  0.1212 -0.0639 -0.6173
 2355SOL     OW18697   2.068   1.883  12.312  0.2777  0.5291  0.3543
 2355SOL    HW118698   2.054   1.801  12.264  0.4742  0.7019 -0.0040
 2355SOL    HW218699   1.979   1.890  12.346  0.1390 -1.0303  0.3233
 2356SOL     OW18700   3.090   1.474   4.995 -1.0916 -0.0961  0.1133
 2356SOL    HW118701   3.027   1.547   4.996 -1.4109 -0.3905  2.3081
 2356SOL    HW218702   3.059   1.417   5.066 -2.5760 -2.6239 -2.5689
 2357SOL     OW18703   3.373   2.317   4.707 -0.0991  0.4480  0.4985
 2357SOL    HW118704   3.398   2.380   4.775 -1.8035  0.3836  1.1692
 2357SOL    HW218705   3.383   2.233   4.751 -2.1062  0.3814  0.8016
 2358SOL     OW18706   4.386   3.578  11.653  0.5433 -0.8811  0.3445
 2358SOL    HW118707   4.449   3.625  11.707 -0.4362 -0.4935  1.1462
 2358SOL    HW218708   4.300   3.605  11.686  1.1340  2.0480 -0.5143
 2359SOL     OW18709   0.789   2.251   4.979 -0.1820 -0.0959  0.1989
 2359SOL    HW118710   0.791   2.345   4.996  0.1420  0.0249 -0.5401
 2359SOL    HW218711   0.813   2.246   4.887  0.0184 -0.8956  0.2882
 2360SOL     OW18712   0.477   3.359  11.586 -0.3415 -0.4888  0.7248
 2360SOL    HW118713   0.388   3.324  11.583 -0.9008  1.0659 -0.3843
 2360SOL    HW218714   0.457   3.444  11.547  0.8046 -0.4414  0.2338
 2361SOL     OW18715   1.696   0.382   2.882  0.7597 -0.2252 -0.5337
 2361SOL    HW118716   1.660   0.406   2.967  1.3220  2.3891 -1.0047
 2361SOL    HW218717   1.622   0.393   2.822 -0.5835 -0.5631  1.0896
 2362SOL     OW18718   1.008   4.135   2.533 -0.2593  0.0919  0.4811
 2362SOL    HW118719   1.054   4.127   2.617  0.0346  0.0434  0.3153
 2362SOL    HW218720   0.986   4.228   2.536 -1.0905 -0.0748 -0.8007
 2363SOL     OW18721   0.460   2.362   3.328 -0.4691 -0.3697  0.1449
 2363SOL    HW118722   0.506   2.339   3.408  0.8291 -1.3765 -0.9085
 2363SOL    HW218723   0.515   2.329   3.258 -1.1378  2.2696 -1.6404
 2364SOL     OW18724   4.571   3.682  11.830  0.3384 -0.1054 -0.0840
 2364SOL    HW118725   4.594   3.775  11.831  0.0957 -0.0306 -3.5757
 2364SOL    HW218726   4.504   3.669  11.897 -1.9298  0.0138 -2.3366
 2365SOL     OW18727   0.363   3.139   2.918  0.6676  0.0680 -0.2007
 2365SOL    HW118728   0.342   3.198   2.991 -2.6654 -2.7032  1.0490
 2365SOL    HW218729   0.283   3.087   2.924  1.8189 -1.5226  1.2334
 2366SOL     OW18730   2.228   4.286   2.152 -0.0433  0.1563  0.0713
 2366SOL    HW118731   2.219   4.382   2.151  0.6076  0.2206  0.5089
 2366SOL    HW218732   2.193   4.269   2.064  1.5328  1.1544 -0.7553
 2367SOL     OW18733   4.167   0.302   3.757  0.2144 -0.1410 -0.0113
 2367SOL    HW118734   4.189   0.218   3.718 -0.7331  0.4602 -1.8613
 2367SOL    HW218735   4.256   0.335   3.764  0.3186 -0.6348  1.0342
 2368SOL     OW18736   3.420   4.294   9.780  0.0516  0.0938  0.6534
 2368SOL    HW118737   3.342   4.308   9.832 -1.3868  0.2032 -1.5373
 2368SOL    HW218738   3.402   4.244   9.701  2.7031 -1.1250  0.8071
 2369SOL     OW18739   4.125   3.544   3.624  0.4163 -1.0170 -0.2142
 2369SOL    HW118740   4.150   3.617   3.567  1.8443 -1.4062 -0.0860
 2369SOL    HW218741   4.208   3.502   3.644  0.9842 -0.7618 -2.0131
 2370SOL     OW18742   1.304   3.484  17.204  0.0050 -0.3042 -0.2151
 2370SOL    HW118743   1.212   3.503  17.221  0.6028  0.6628  1.8914
 2370SOL    HW218744   1.338   3.560  17.250  0.1731  1.0751 -2.6156
 2371SOL     OW18745   4.015   0.644  10.577 -0.1762 -0.2006 -0.0504
 2371SOL    HW118746   4.041   0.705  10.647 -0.7110 -1.1912  1.0103
 2371SOL    HW218747   3.982   0.569  10.626  1.4575 -1.2816 -0.6320
 2372SOL     OW18748   2.179   3.007   8.975  0.1832 -0.0182  0.5005
 2372SOL    HW118749   2.257   3.047   8.935  0.7107 -1.8162 -0.3050
 2372SOL    HW218750   2.147   2.952   8.903 -1.9224  1.0297  0.6510
 2373SOL     OW18751   2.788   3.241   8.004 -0.3688  0.1283  0.3711
 2373SOL    HW118752   2.775   3.327   8.046  0.8167  1.0465 -1.1201
 2373SOL    HW218753   2.883   3.238   8.006 -0.5016 -2.8524  1.6294
 2374SOL     OW18754   1.361   4.484   6.367  0.0978 -0.0060  0.6886
 2374SOL    HW118755   1.440   4.454   6.411 -0.6275 -0.1917  1.8565
 2374SOL    HW218756   1.293   4.479   6.434 -0.9720 -1.1676 -0.4667
 2375SOL     OW18757   1.463   2.720   0.710 -0.2837  0.0569 -0.1864
 2375SOL    HW118758   1.453   2.652   0.643 -0.5478 -0.9852  0.9164
 2375SOL    HW218759   1.556   2.709   0.731 -0.8714 -0.4570  2.1602
 2376SOL     OW18760   1.835   4.689  13.934  0.1365  0.3984 -0.4665
 2376SOL    HW118761   1.824   0.012  14.006  2.9243  1.4631 -0.9810
 2376SOL    HW218762   1.854   0.010  13.862  2.3140 -0.9988 -1.0443
 2377SOL     OW18763   2.221   3.155   7.788 -0.1871  0.1998  0.0262
 2377SOL    HW118764   2.200   3.167   7.881  0.1041 -1.0164  0.2504
 2377SOL    HW218765   2.186   3.235   7.750 -1.4874 -0.9394 -1.1766
 2378SOL     OW18766   3.901   1.184  17.679  0.1146 -0.1198 -0.2760
 2378SOL    HW118767   3.909   1.152  17.589  0.4204 -1.1357  0.1019
 2378SOL    HW218768   3.810   1.159  17.694  0.3264  0.2892  1.6786
 2379SOL     OW18769   0.247   3.527   6.727  0.0482  0.2145 -0.0809
 2379SOL    HW118770   0.288   3.501   6.645 -2.1149 -2.0435 -0.4600
 2379SOL    HW218771   0.159   3.491   6.732  0.1118 -0.0642 -1.0631
 2380SOL     OW18772   1.295   1.542   5.325  0.3710  0.1712 -0.0933
 2380SOL    HW118773   1.204   1.526   5.299  0.1038  0.1613  0.8569
 2380SOL    HW218774   1.333   1.459   5.294  1.5716  0.3423  0.9188
 2381SOL     OW18775   0.815   4.489   3.217 -0.1597 -0.6188  0.3739
 2381SOL    HW118776   0.825   4.402   3.179 -0.8030  0.3183 -1.9379
 2381SOL    HW218777   0.877   4.482   3.290  3.2916  1.8089 -2.2756
 2382SOL     OW18778   2.762   3.473   0.330  0.5011 -0.2040 -0.2965
 2382SOL    HW118779   2.855   3.460   0.315  0.2600 -1.8231 -0.3206
 2382SOL    HW218780   2.745   3.468   0.425  0.7008 -2.1306 -0.3678
 2383SOL     OW18781   2.075   4.586   4.561  0.1229 -0.3180  0.3514
 2383SOL    HW118782   1.994   4.597   4.511  0.1747  0.0297  0.3426
 2383SOL    HW218783   2.093   4.671   4.600 -0.4112  1.4460 -3.2236
 2384SOL     OW18784   3.215   3.752   7.959 -0.4187  0.4620 -0.1333
 2384SOL    HW118785   3.216   3.663   7.995 -4.7884  1.0107  1.2648
 2384SOL    HW218786   3.196   3.736   7.867  0.9376  2.1173 -0.6938
 2385SOL     OW18787   0.473   3.892  15.008 -0.3192  0.1953  0.1189
 2385SOL    HW118788   0.392   3.841  15.006 -0.5161  0.4722  0.7515
 2385SOL    HW218789   0.471   3.946  14.929 -0.5464 -0.8722 -0.5949
 2386SOL     OW18790   3.553   0.542   5.204  0.2666 -0.0089  0.3275
 2386SOL    HW118791   3.585   0.581   5.285 -2.3326  1.1782  0.7627
 2386SOL    HW218792   3.473   0.498   5.231  0.2785  0.2890  0.8534
 2387SOL     OW18793   3.378   0.228  14.540 -0.0722 -0.0994 -0.0075
 2387SOL    HW118794   3.374   0.179  14.458 -0.3349  0.7726 -0.5082
 2387SOL    HW218795   3.310   0.294  14.540 -0.3624 -0.3972  1.1224
 2388SOL     OW18796   0.176   3.749   9.385 -0.1695 -0.1289  0.4897
 2388SOL    HW118797   0.207   3.799   9.310  0.3442  0.6339  1.2191
 2388SOL    HW218798   0.139   3.674   9.338  1.6627 -1.3006  0.9133
 2389SOL     OW18799   1.087   3.638   4.156 -0.2775  0.6547  0.3282
 2389SOL    HW118800   1.083   3.543   4.145 -2.1262  0.9561 -1.5969
 2389SOL    HW218801   1.145   3.655   4.230 -0.2710  0.9118  0.2630
 2390SOL     OW18802   3.898   0.666   2.989 -0.1329  0.4106 -0.0674
 2390SOL    HW118803   3.988   0.653   2.959 -0.4726  0.0490 -0.9313
 2390SOL    HW218804   3.859   0.583   2.962  2.6903 -0.7349 -0.5903
 2391SOL     OW18805   1.111   3.524   2.912 -0.4994 -0.2494  0.4339
 2391SOL    HW118806   1.033   3.470   2.899 -0.1368 -1.2841  2.5215
 2391SOL    HW218807   1.094   3.589   2.844  1.4558 -0.4580 -0.2642
 2392SOL     OW18808   1.423   4.355   2.803 -0.0945 -0.4571  1.0330
 2392SOL    HW118809   1.513   4.330   2.825  1.1288  0.6550 -2.6494
 2392SOL    HW218810   1.379   4.306   2.872 -0.4813  0.3022  1.3247
 2393SOL     OW18811   1.463   1.487   5.598  0.4458 -0.4613  0.5763
 2393SOL    HW118812   1.518   1.458   5.525 -2.0065 -3.8120  0.0694
 2393SOL    HW218813   1.397   1.539   5.552  0.3454 -0.9054  0.2149
 2394SOL     OW18814   0.462   2.640   5.215  0.3237 -0.5860  0.0392
 2394SOL    HW118815   0.440   2.549   5.238 -1.0704 -0.1106  0.6223
 2394SOL    HW218816   0.414   2.644   5.132 -1.9347  1.9486  1.4995
 2395SOL     OW18817   3.464   4.561  13.572 -0.4458 -0.1018  0.1961
 2395SOL    HW118818   3.558   4.574  13.586 -0.1337 -2.2471  0.0659
 2395SOL    HW218819   3.455   4.592  13.482  2.9884  0.2555 -0.0444
 2396SOL     OW18820   3.475   4.229   4.026  0.6118  0.3140  0.3859
 2396SOL    HW118821   3.418   4.280   3.968 -0.8208 -2.2141 -0.4006
 2396SOL    HW218822   3.559   4.270   4.004  1.1640 -1.4433 -0.7330
 2397SOL     OW18823   2.843   2.471   6.455 -0.2248  0.0264 -0.1778
 2397SOL    HW118824   2.881   2.386   6.435  0.3388  0.1262  0.4935
 2397SOL    HW218825   2.858   2.464   6.549 -1.3126 -0.5156 -0.0494
 2398SOL     OW18826   1.722   1.815   7.819  0.5100  0.1155  0.4764
 2398SOL    HW118827   1.780   1.870   7.873  1.0525 -1.7499  1.7839
 2398SOL    HW218828   1.661   1.876   7.778  2.9826  1.0696 -1.7250
 2399SOL     OW18829   2.449   2.674   4.446  0.0490 -0.5555  0.1887
 2399SOL    HW118830   2.408   2.597   4.484 -1.6029  0.4496  0.4513
 2399SOL    HW218831   2.377   2.726   4.411 -0.9684 -2.4551 -0.5618
 2400SOL     OW18832   1.536   1.286  15.265 -0.1079  0.2703 -0.5397
 2400SOL    HW118833   1.449   1.281  15.227 -0.6999  1.3609  0.6616
 2400SOL    HW218834   1.583   1.257  15.186 -0.9036  3.3794 -2.1672
 2401SOL     OW18835   2.188   0.332   5.570  0.4646  0.0350  0.7679
 2401SOL    HW118836   2.175   0.243   5.602  0.6564  0.3412  1.7021
 2401SOL    HW218837   2.109   0.366   5.612 -0.0006 -0.2430  0.1232
 2402SOL     OW18838   0.561   0.090   7.825 -0.0366  0.9180 -0.0315
 2402SOL    HW118839   0.632   0.080   7.889 -0.6934 -0.2064  0.5193
 2402SOL    HW218840   0.496   0.140   7.874 -1.1508  1.2416 -1.8301
 2403SOL     OW18841   4.160   4.680  12.505  0.4042 -0.0324 -0.2317
 2403SOL    HW118842   4.095   4.647  12.566 -0.6349  1.0803 -0.7372
 2403SOL    HW218843   4.170   0.025  12.547  0.5961  1.2145 -2.7762
 2404SOL     OW18844   4.164   1.621  16.044 -0.2118 -0.3673  0.0028
 2404SOL    HW118845   4.075   1.598  16.070  0.5278 -2.6447  0.5515
 2404SOL    HW218846   4.195   1.533  16.023 -2.8249 -1.2500 -0.1384
 2405SOL     OW18847   4.306   0.488   4.602  0.1853  0.0364  0.2426
 2405SOL    HW118848   4.274   0.578   4.603  0.2888  0.1115 -2.0874
 2405SOL    HW218849   4.258   0.451   4.527 -0.3255  1.9204 -0.3722
 2406SOL     OW18850   0.333   1.858   5.507 -0.2116  0.9424  0.2355
 2406SOL    HW118851   0.329   1.836   5.414 -1.7993 -1.5552  0.8936
 2406SOL    HW218852   0.397   1.928   5.506 -0.4081  1.1194  0.1770
 2407SOL     OW18853   2.629   0.675   4.175 -0.2402  0.0906  0.0928
 2407SOL    HW118854   2.575   0.621   4.118  1.3137 -2.8801  1.4449
 2407SOL    HW218855   2.577   0.673   4.256 -1.4424  1.9774 -0.6292
 2408SOL     OW18856   4.310   0.273  16.013 -0.0308 -0.3052  0.2855
 2408SOL    HW118857   4.282   0.340  15.950 -0.6188  1.1150  2.0531
 2408SOL    HW218858   4.279   0.194  15.969  0.1705 -1.3173  1.9326
 2409SOL     OW18859   4.153   2.933  14.689 -0.2665 -0.3429  0.0194
 2409SOL    HW118860   4.132   2.863  14.627 -1.5617  0.2497 -0.2108
 2409SOL    HW218861   4.211   2.988  14.635  0.2171 -0.6982  0.1758
 2410SOL     OW18862   0.063   0.897  14.408 -0.4005  0.4856 -0.6116
 2410SOL    HW118863   4.714   0.899  14.372 -1.0079  0.5264  0.8899
 2410SOL    HW218864   0.085   0.805  14.395  1.5066  0.6632  1.3006
 2411SOL     OW18865   1.746   1.556   9.190 -0.5067 -0.1663  0.1202
 2411SOL    HW118866   1.732   1.637   9.240  0.3138 -0.6637  1.1624
 2411SOL    HW218867   1.754   1.475   9.240 -0.5137  0.9508  1.9189
 2412SOL     OW18868   2.557   1.287   8.520 -0.4392 -0.0099  0.2795
 2412SOL    HW118869   2.466   1.294   8.547 -0.8966 -0.4161 -1.1972
 2412SOL    HW218870   2.598   1.292   8.607 -1.9399  0.5245  0.9479
 2413SOL     OW18871   4.398   3.694   8.941 -0.1137  0.4681  0.4861
 2413SOL    HW118872   4.392   3.788   8.959 -0.2238 -0.0140  2.8871
 2413SOL    HW218873   4.408   3.659   9.029 -0.7993  2.6621  1.4433
 2414SOL     OW18874   0.651   4.625   1.588  0.1435  0.3205  0.2184
 2414SOL    HW118875   0.639   4.531   1.601  2.3028  0.0514  0.2903
 2414SOL    HW218876   0.596   4.661   1.658 -1.4521  0.0507 -0.8977
 2415SOL     OW18877   2.671   3.541   3.636 -0.0402 -0.0551  0.1422
 2415SOL    HW118878   2.749   3.488   3.625  0.3036  0.8805 -1.9228
 2415SOL    HW218879   2.647   3.564   3.546 -0.4865  0.6385  0.4281
 2416SOL     OW18880   3.981   1.263   8.915 -0.1401  0.2033 -0.5727
 2416SOL    HW118881   3.890   1.279   8.940 -0.3205  2.1169 -2.5127
 2416SOL    HW218882   3.983   1.167   8.907 -1.3956  0.1153  0.0821
 2417SOL     OW18883   4.002   0.400   5.952 -0.2187 -0.4388 -0.2679
 2417SOL    HW118884   3.939   0.382   6.022 -0.6135  0.5071 -0.3864
 2417SOL    HW218885   3.962   0.355   5.877 -2.0282  4.0367 -1.9790
 2418SOL     OW18886   3.255   3.733   4.264 -0.0590 -0.8522  0.3460
 2418SOL    HW118887   3.338   3.746   4.218 -0.2070 -2.1738 -0.3107
 2418SOL    HW218888   3.259   3.798   4.334 -0.0813 -1.9341  1.3620
 2419SOL     OW18889   1.080   4.472  16.675  0.3224  0.9002 -0.1079
 2419SOL    HW118890   1.129   4.409  16.622  0.5700  1.2969 -0.3535
 2419SOL    HW218891   1.152   4.509  16.726  0.6190  0.4790 -0.2249
 2420SOL     OW18892   2.835   0.271  15.822  0.1327  0.4953 -0.3946
 2420SOL    HW118893   2.836   0.288  15.728  1.6647 -0.8603 -0.6200
 2420SOL    HW218894   2.838   0.176  15.828  0.1070  0.4084 -1.6640
 2421SOL     OW18895   2.110   2.414  11.525  0.3574  0.3447  0.1296
 2421SOL    HW118896   2.184   2.353  11.521  0.4720  0.4298  1.0199
 2421SOL    HW218897   2.110   2.434  11.431 -1.2589 -0.5803 -0.0581
 2422SOL     OW18898   1.196   3.391  13.407 -0.2592  0.1754 -0.0790
 2422SOL    HW118899   1.285   3.380  13.373  0.0450 -1.1385  1.1353
 2422SOL    HW218900   1.160   3.303  13.392 -2.0396  1.3363 -2.5707
 2423SOL     OW18901   1.542   3.237  13.664  0.2203 -0.0479 -0.1172
 2423SOL    HW118902   1.458   3.225  13.707  0.4845  1.4883  0.8163
 2423SOL    HW218903   1.544   3.153  13.617 -0.5353 -0.6313  0.8872
 2424SOL     OW18904   3.093   2.631   7.667  0.0196 -0.2990  0.4016
 2424SOL    HW118905   3.029   2.663   7.730 -0.6565  1.7281 -1.3234
 2424SOL    HW218906   3.137   2.714   7.648 -3.0376  1.8303  2.6636
 2425SOL     OW18907   3.514   1.592   6.531 -0.4004 -0.3376 -0.3705
 2425SOL    HW118908   3.480   1.665   6.479 -1.7261 -2.0038 -1.8234
 2425SOL    HW218909   3.462   1.519   6.498  1.3842 -0.8124 -2.1078
 2426SOL     OW18910   3.762   0.716  11.368  0.3031  0.0441  0.3701
 2426SOL    HW118911   3.825   0.769  11.318  0.1697  0.3500  0.5267
 2426SOL    HW218912   3.712   0.784  11.412 -0.7475  0.1552 -0.9934
 2427SOL     OW18913   2.300   4.120   2.666 -0.0003 -0.4469 -0.0919
 2427SOL    HW118914   2.322   4.062   2.739 -0.6249  1.6280  1.7366
 2427SOL    HW218915   2.381   4.168   2.646  0.1215 -0.7520 -0.3413
 2428SOL     OW18916   0.824   1.786  13.726  0.6182 -0.6015  0.0355
 2428SOL    HW118917   0.816   1.803  13.632 -0.0233  0.4905  0.2836
 2428SOL    HW218918   0.885   1.859  13.743 -0.2308  0.7200 -2.6718
 2429SOL     OW18919   1.414   0.021   3.657 -0.1507 -0.0233  0.1830
 2429SOL    HW118920   1.322   0.002   3.636  0.0289 -0.8010  0.1110
 2429SOL    HW218921   1.444   0.051   3.572 -0.6964  0.0886  0.0313
 2430SOL     OW18922   0.170   4.402   6.772 -0.3305  0.3328  0.0013
 2430SOL    HW118923   0.083   4.430   6.800 -0.7041 -0.6758 -0.1616
 2430SOL    HW218924   0.184   4.469   6.705 -0.0313  0.1363 -0.1281
 2431SOL     OW18925   1.963   4.168  15.838 -0.1372  0.2068  0.1066
 2431SOL    HW118926   1.916   4.095  15.797 -3.6306  0.3864  3.7453
 2431SOL    HW218927   1.972   4.224  15.761  1.3672 -0.9774 -0.5687
 2432SOL     OW18928   1.541   2.054   0.789  0.3612 -0.8392  0.5157
 2432SOL    HW118929   1.538   2.016   0.877  0.0006 -0.4159  0.6885
 2432SOL    HW218930   1.472   2.012   0.738  0.7340  0.9607 -1.5081
 2433SOL     OW18931   1.589   2.498   2.210 -0.0080 -0.1322 -0.0623
 2433SOL    HW118932   1.574   2.403   2.213  2.9701 -0.5017  2.1442
 2433SOL    HW218933   1.606   2.512   2.303  0.3610 -2.0448  0.1549
 2434SOL     OW18934   3.759   2.710   7.064 -0.5925  0.2275  0.1011
 2434SOL    HW118935   3.741   2.620   7.036  1.2370  0.4435 -1.7509
 2434SOL    HW218936   3.690   2.766   7.027  0.7201  2.4272  0.9612
 2435SOL     OW18937   4.619   2.704   0.448 -0.6121 -0.3855 -0.0819
 2435SOL    HW118938   4.677   2.688   0.522 -0.2908  1.0774 -0.0243
 2435SOL    HW218939   4.617   2.797   0.469  1.6462  0.1650 -2.3315
 2436SOL     OW18940   3.130   4.056   7.074  0.1158  0.4344 -0.0121
 2436SOL    HW118941   3.182   4.027   7.000  1.3201 -0.3559  1.1496
 2436SOL    HW218942   3.180   4.130   7.107 -0.3847 -0.4183  2.6653
 2437SOL     OW18943   1.930   1.185   4.721 -0.3982 -0.0136  0.1297
 2437SOL    HW118944   2.004   1.126   4.706 -2.0765 -1.8590 -0.9344
 2437SOL    HW218945   1.921   1.209   4.628 -0.2724  0.3599  0.2148
 2438SOL     OW18946   0.058   4.508  13.078 -0.1264  0.9101 -0.5850
 2438SOL    HW118947   0.031   4.529  13.167  1.8364  2.5610 -0.3670
 2438SOL    HW218948   0.153   4.519  13.084 -0.0215 -0.3886  0.0805
 2439SOL     OW18949   1.020   0.288   8.504 -0.2832 -0.0755 -0.1723
 2439SOL    HW118950   0.999   0.379   8.523 -0.5995 -0.6298  2.1500
 2439SOL    HW218951   0.939   0.262   8.461 -0.4537  2.3936 -1.3481
 2440SOL     OW18952   3.719   2.497   6.698  0.4338 -0.0063 -0.3783
 2440SOL    HW118953   3.805   2.537   6.681 -0.9444  2.5239 -1.4846
 2440SOL    HW218954   3.728   2.478   6.791 -1.8289 -2.3605 -0.6586
 2441SOL     OW18955   0.610   2.272   2.658 -0.1601 -0.0633 -0.5130
 2441SOL    HW118956   0.676   2.308   2.716 -0.5754 -0.4796  0.2110
 2441SOL    HW218957   0.561   2.237   2.732 -1.8530 -1.1929 -2.1624
 2442SOL     OW18958   3.270   3.907   9.806 -0.3154 -0.4613 -0.1653
 2442SOL    HW118959   3.277   3.824   9.853  1.8192  1.8977  3.6146
 2442SOL    HW218960   3.354   3.925   9.764 -0.2087  1.8359  1.0398
 2443SOL     OW18961   1.068   4.215   4.945  0.1724  0.2373 -0.6503
 2443SOL    HW118962   0.992   4.172   4.905 -0.3464  1.1305 -0.6095
 2443SOL    HW218963   1.090   4.279   4.877 -0.2542 -0.2034 -1.2019
 2444SOL     OW18964   1.822   1.239   7.707 -0.3297  0.6795 -0.1413
 2444SOL    HW118965   1.812   1.279   7.793  0.4036 -0.9732  0.7196
 2444SOL    HW218966   1.899   1.184   7.723 -0.1449  0.5649 -1.4119
 2445SOL     OW18967   2.351   4.577   2.870 -0.1949 -0.0667  0.5634
 2445SOL    HW118968   2.269   4.617   2.839  0.5942  1.7842  0.8603
 2445SOL    HW218969   2.369   4.644   2.936  2.8509 -0.6678  0.3422
 2446SOL     OW18970   3.498   0.806   1.850  0.7112  0.1667  0.0913
 2446SOL    HW118971   3.552   0.820   1.927 -1.2301 -1.5256  1.7479
 2446SOL    HW218972   3.528   0.724   1.811 -0.8330 -0.3122 -0.0884
 2447SOL     OW18973   1.331   1.510   1.629 -0.3449 -0.1591 -0.9131
 2447SOL    HW118974   1.280   1.454   1.687 -1.6310  0.3188 -1.5913
 2447SOL    HW218975   1.412   1.482   1.672 -2.0703  0.4458  2.6737
 2448SOL     OW18976   3.036   2.268   4.729 -0.8124 -0.0268 -0.3291
 2448SOL    HW118977   3.047   2.320   4.809  0.3934 -0.4846 -0.1902
 2448SOL    HW218978   3.125   2.235   4.718 -1.0541 -1.3955  1.8035
 2449SOL     OW18979   2.383   0.578   5.689  0.0758  0.2903 -0.0394
 2449SOL    HW118980   2.467   0.601   5.730  0.8471 -1.7528 -0.4639
 2449SOL    HW218981   2.376   0.485   5.711 -1.0806  0.1785 -0.8888
 2450SOL     OW18982   4.443   2.216   0.631 -0.5620  0.1178  0.3200
 2450SOL    HW118983   4.383   2.208   0.556  0.3767  1.6293 -0.5787
 2450SOL    HW218984   4.483   2.302   0.622 -0.4933  0.0544  0.0291
 2451SOL     OW18985   0.091   4.603  13.728 -0.0942 -0.4881  0.3653
 2451SOL    HW118986   0.041   4.524  13.708  1.1065 -1.5253  1.4021
 2451SOL    HW218987   0.149   4.604  13.651  4.3390 -1.3776  3.7031
 2452SOL     OW18988   0.446   4.591   2.796  0.7414  0.3157 -0.2576
 2452SOL    HW118989   0.541   4.600   2.811  0.3933  2.2202  0.7733
 2452SOL    HW218990   0.438   4.500   2.769  1.5778 -0.3871  1.8403
 2453SOL     OW18991   1.594   2.173  17.619 -0.6040 -0.0735  0.0531
 2453SOL    HW118992   1.600   2.107  17.688 -0.7194 -0.0582  0.0763
 2453SOL    HW218993   1.519   2.149  17.565 -1.9175  2.1705  0.8811
 2454SOL     OW18994   0.029   3.240  16.023 -0.2843  0.3379 -0.3823
 2454SOL    HW118995   4.698   3.203  16.076  0.1559  0.3438  0.2006
 2454SOL    HW218996   4.729   3.327  16.011 -3.2434 -0.8859  0.4126
 2455SOL     OW18997   0.186   2.112   1.352 -0.6662 -0.1886 -0.5517
 2455SOL    HW118998   0.147   2.027   1.371 -1.4842  0.4292  0.5782
 2455SOL    HW218999   0.198   2.155   1.437  0.9394 -0.2063 -0.7699
 2456SOL     OW19000   2.509   3.670   1.225  0.0359 -0.0969  0.1952
 2456SOL    HW119001   2.544   3.683   1.313 -0.4550 -0.0003  0.3698
 2456SOL    HW219002   2.584   3.655   1.167  0.3653 -0.1834  0.6445
 2457SOL     OW19003   1.952   1.197  16.348  0.3627 -0.4757  0.4879
 2457SOL    HW119004   1.959   1.132  16.419 -0.2204 -0.4253  0.5952
 2457SOL    HW219005   1.907   1.149  16.278  1.1529 -0.7746  0.1830
 2458SOL     OW19006   2.280   1.170   6.367 -0.2636 -0.0792  0.2329
 2458SOL    HW119007   2.332   1.207   6.438  2.2116  0.4903 -1.8854
 2458SOL    HW219008   2.196   1.162   6.414 -0.4057 -0.4802 -0.0861
 2459SOL     OW19009   1.513   2.111   8.545 -0.1876 -0.5261  0.3953
 2459SOL    HW119010   1.476   2.147   8.626 -0.4914 -2.5745  1.1741
 2459SOL    HW219011   1.440   2.090   8.487  0.3396 -1.7169  0.1791
 2460SOL     OW19012   0.634   1.856   2.577  0.0704  0.0429  0.3532
 2460SOL    HW119013   0.678   1.896   2.653 -3.7488  3.0256  1.0160
 2460SOL    HW219014   0.704   1.860   2.512 -1.5279  3.5780 -1.1802
 2461SOL     OW19015   3.729   1.148  13.252  0.3009  0.3390 -0.0945
 2461SOL    HW119016   3.753   1.057  13.273 -0.5622 -0.0410 -0.7537
 2461SOL    HW219017   3.747   1.193  13.334  0.8000 -1.8846  1.0171
 2462SOL     OW19018   2.437   4.621   0.513 -0.5545  0.6486 -0.7601
 2462SOL    HW119019   2.392   4.695   0.554  0.2596 -0.2211  1.6749
 2462SOL    HW219020   2.529   4.646   0.515 -0.6167  0.9728 -2.0073
 2463SOL     OW19021   0.861   0.225   8.996  0.0564 -0.2862  0.1426
 2463SOL    HW119022   0.916   0.219   8.917 -0.1048 -0.9758  0.0773
 2463SOL    HW219023   0.847   0.133   9.020 -2.4882  0.3689  1.0722
 2464SOL     OW19024   0.934   1.064   5.076 -0.3955 -0.4101 -0.2359
 2464SOL    HW119025   0.878   1.137   5.101  0.8294  0.3408  0.3416
 2464SOL    HW219026   0.917   1.048   4.984  0.6360  0.7852 -0.6382
 2465SOL     OW19027   4.461   0.448  11.310 -0.3454 -0.5808  0.7593
 2465SOL    HW119028   4.380   0.461  11.261  0.3539  1.4541  0.1154
 2465SOL    HW219029   4.521   0.496  11.252  0.3395 -2.5136 -0.1281
 2466SOL     OW19030   4.120   3.277   4.725  0.0898 -0.2034  0.2280
 2466SOL    HW119031   4.145   3.341   4.657 -0.0643  0.9800  1.2832
 2466SOL    HW219032   4.193   3.215   4.728 -0.6964 -1.1037  0.3187
 2467SOL     OW19033   0.740   0.576   8.308 -0.3243 -0.2198 -0.9704
 2467SOL    HW119034   0.764   0.587   8.216  0.7382 -3.1208 -1.0117
 2467SOL    HW219035   0.818   0.585   8.363  0.9767 -0.6426 -2.7423
 2468SOL     OW19036   3.131   3.156   6.051 -0.2918  0.1271  0.0363
 2468SOL    HW119037   3.211   3.106   6.033  1.1206  1.8122  1.5787
 2468SOL    HW219038   3.082   3.098   6.110 -0.0682  0.8030  0.9003
 2469SOL     OW19039   1.408   0.164   3.137  0.2967  0.8952  0.4400
 2469SOL    HW119040   1.477   0.102   3.112  0.0829  0.6127  0.5411
 2469SOL    HW219041   1.387   0.212   3.057 -4.0261  0.2109  1.1456
 2470SOL     OW19042   0.206   4.415   4.118  0.2470  0.3093  0.3390
 2470SOL    HW119043   0.117   4.384   4.138  0.1864  0.4492  0.2874
 2470SOL    HW219044   0.239   4.421   4.207  0.8890  2.4325 -0.0418
 2471SOL     OW19045   4.255   1.848   6.450  0.0947 -0.3640  0.3311
 2471SOL    HW119046   4.302   1.832   6.532  0.6064 -1.6182 -0.2004
 2471SOL    HW219047   4.300   1.783   6.396  0.7540  1.8648 -1.7804
 2472SOL     OW19048   1.153   1.994   3.537 -0.5254  0.2843  0.2986
 2472SOL    HW119049   1.154   2.079   3.582  1.4502  0.4653 -0.0872
 2472SOL    HW219050   1.155   1.923   3.600 -3.3813 -0.1234 -0.0795
 2473SOL     OW19051   3.385   2.926  17.213 -0.4377  0.4718 -0.2463
 2473SOL    HW119052   3.361   3.004  17.263 -2.7563 -0.6125  0.3269
 2473SOL    HW219053   3.475   2.946  17.187  0.3962 -2.7200  0.1584
 2474SOL     OW19054   3.627   3.659   6.739  0.3143 -0.2481 -0.8252
 2474SOL    HW119055   3.598   3.739   6.695  1.2620 -0.0305 -1.0475
 2474SOL    HW219056   3.558   3.595   6.723 -0.0634 -0.4177  1.4053
 2475SOL     OW19057   3.626   1.302   6.198  0.6745  0.4089 -0.1193
 2475SOL    HW119058   3.683   1.338   6.130 -2.1651  2.3938 -1.4283
 2475SOL    HW219059   3.686   1.237   6.235 -2.1074 -2.0550  0.0547
 2476SOL     OW19060   4.697   2.172   4.211 -0.3214  0.1843  0.0978
 2476SOL    HW119061   0.013   2.241   4.176 -0.6415  0.7665  0.7353
 2476SOL    HW219062   0.014   2.095   4.199  1.1154  1.0903  1.0923
 2477SOL     OW19063   2.784   0.241   9.528  0.0317 -0.0144 -0.9028
 2477SOL    HW119064   2.836   0.304   9.478  1.8135 -0.9079 -0.1680
 2477SOL    HW219065   2.758   0.294   9.603  0.2128  0.3745 -1.1108
 2478SOL     OW19066   1.606   2.760   3.187  0.1253 -0.3445 -0.1356
 2478SOL    HW119067   1.701   2.775   3.191 -0.1363  0.3973  3.5133
 2478SOL    HW219068   1.582   2.853   3.186  0.6556 -0.1934  0.7456
 2479SOL     OW19069   3.910   0.397   7.575  0.1643  0.1731 -0.1954
 2479SOL    HW119070   3.972   0.326   7.559 -0.6509 -0.6132  0.1387
 2479SOL    HW219071   3.960   0.442   7.643  1.9832  1.5166 -2.4263
 2480SOL     OW19072   4.660   1.820   2.342  0.1398  0.0686  0.4301
 2480SOL    HW119073   4.621   1.857   2.422 -0.6988 -1.7942  0.8851
 2480SOL    HW219074   0.004   1.785   2.373 -0.3470 -0.4130  1.2004
 2481SOL     OW19075   1.021   1.517   4.297 -0.9278 -0.0356 -0.6096
 2481SOL    HW119076   1.046   1.489   4.209 -1.7636 -1.2957 -0.4415
 2481SOL    HW219077   0.928   1.493   4.299 -0.6276 -1.0367  1.4498
 2482SOL     OW19078   3.615   2.094   3.808 -0.8234 -0.2297  0.5415
 2482SOL    HW119079   3.555   2.141   3.864 -0.9830 -0.9831  1.0054
 2482SOL    HW219080   3.687   2.157   3.803 -1.8435  1.1389  3.3468
 2483SOL     OW19081   1.756   0.400   8.445 -0.5945  0.1231 -0.4287
 2483SOL    HW119082   1.844   0.422   8.414 -0.5082 -1.3007 -1.1932
 2483SOL    HW219083   1.783   0.333   8.509  0.3309 -1.0033 -1.9763
 2484SOL     OW19084   2.392   1.502  12.208 -0.0825  0.6698 -0.6223
 2484SOL    HW119085   2.447   1.520  12.285 -2.0584 -0.7046  1.1138
 2484SOL    HW219086   2.427   1.558  12.138 -0.9003 -0.5195 -1.9668
 2485SOL     OW19087   4.719   1.028   4.760 -0.3096 -0.5084  0.5575
 2485SOL    HW119088   4.628   1.049   4.779 -0.3163  1.7492 -1.9804
 2485SOL    HW219089   0.027   1.052   4.840 -0.5890 -0.3694  0.6822
 2486SOL     OW19090   3.874   1.734   5.998 -0.1318  0.0097 -0.1097
 2486SOL    HW119091   3.879   1.808   6.058  2.5081 -0.7482  0.6344
 2486SOL    HW219092   3.942   1.756   5.934 -0.5993  0.5619 -0.4146
 2487SOL     OW19093   2.557   4.267   7.063 -0.3601 -0.6626  0.6215
 2487SOL    HW119094   2.540   4.295   7.153 -0.5327 -0.3998  0.5058
 2487SOL    HW219095   2.549   4.353   7.022 -1.8064 -0.7008  0.8327
 2488SOL     OW19096   3.525   2.503   6.087  0.3784 -0.1656  0.4270
 2488SOL    HW119097   3.588   2.432   6.080  0.0343 -0.3317 -1.1279
 2488SOL    HW219098   3.529   2.526   6.179  0.6218  2.7535 -0.3084
 2489SOL     OW19099   0.366   3.264  17.001 -0.1065 -0.7699 -0.1026
 2489SOL    HW119100   0.351   3.307  16.916  0.7123 -0.4603 -0.0939
 2489SOL    HW219101   0.285   3.289  17.045 -0.6294 -1.8050 -0.4715
 2490SOL     OW19102   2.195   1.930   1.667 -0.3450  0.1031 -0.4137
 2490SOL    HW119103   2.226   2.020   1.674  0.7244 -0.3832  1.2406
 2490SOL    HW219104   2.124   1.934   1.732 -1.8492  1.7375 -2.1702
 2491SOL     OW19105   3.666   4.099   8.161 -0.0493  0.0502 -0.3967
 2491SOL    HW119106   3.678   4.075   8.253 -1.3179 -1.2964 -0.5822
 2491SOL    HW219107   3.681   4.193   8.146  0.4331  0.1955  1.0212
 2492SOL     OW19108   1.397   1.779   7.870 -0.0567  0.7661 -0.0452
 2492SOL    HW119109   1.313   1.804   7.831 -0.0263  0.8933 -0.0318
 2492SOL    HW219110   1.456   1.840   7.826 -0.3296  0.3758 -0.9355
 2493SOL     OW19111   1.724   1.326   6.873  0.1957 -0.3859  0.3511
 2493SOL    HW119112   1.749   1.417   6.886 -0.5136 -0.2069  0.4432
 2493SOL    HW219113   1.657   1.311   6.940 -0.0535  1.0796  0.4396
 2494SOL     OW19114   0.011   0.036   8.592 -0.2044  0.4781  0.2061
 2494SOL    HW119115   4.686   0.050   8.662 -2.4154 -1.9232 -1.3560
 2494SOL    HW219116   0.084   0.003   8.645 -0.2978  1.1921  0.7747
 2495SOL     OW19117   0.494   4.391   7.586  0.6317  0.1365 -0.2299
 2495SOL    HW119118   0.479   4.453   7.657 -0.8482 -0.7107  0.2068
 2495SOL    HW219119   0.565   4.428   7.534  0.4436 -1.9004 -1.9448
 2496SOL     OW19120   1.497   0.417   7.011 -0.0182  0.0259  0.2657
 2496SOL    HW119121   1.579   0.425   6.962 -1.2611 -2.2294 -2.1557
 2496SOL    HW219122   1.449   0.356   6.955 -1.4550  0.8257  0.6265
 2497SOL     OW19123   3.008   3.835   6.783  0.6682 -0.4478 -0.0364
 2497SOL    HW119124   2.989   3.764   6.723 -0.3448  0.6079 -0.9622
 2497SOL    HW219125   2.959   3.802   6.858 -0.4716  3.0984  0.7904
 2498SOL     OW19126   2.978   2.695   6.374  0.0319  0.0733  0.1651
 2498SOL    HW119127   2.912   2.628   6.393 -0.2938  0.6962  1.2318
 2498SOL    HW219128   3.053   2.648   6.413  0.8625  3.0036  2.0441
 2499SOL     OW19129   4.181   3.056  16.262  0.0069  0.8340 -0.2927
 2499SOL    HW119130   4.172   3.148  16.286  2.4962  1.1767 -0.6715
 2499SOL    HW219131   4.181   3.060  16.167  1.0850 -0.0968 -0.3325
 2500SOL     OW19132   1.168   2.217   7.705  0.6565 -0.0945 -0.0003
 2500SOL    HW119133   1.092   2.263   7.668  0.1706  0.1911  1.3549
 2500SOL    HW219134   1.242   2.247   7.653 -0.1366  1.1053 -0.4394
 2501SOL     OW19135   3.177   2.778   6.801 -0.2725 -0.0392 -0.1525
 2501SOL    HW119136   3.185   2.866   6.836  0.2880 -0.1755  0.0630
 2501SOL    HW219137   3.187   2.794   6.708  0.3493  0.3362 -0.0197
 2502SOL     OW19138   4.006   1.546   4.615  0.3619  0.2661 -0.3752
 2502SOL    HW119139   4.045   1.620   4.662 -0.1181  0.1723  0.1632
 2502SOL    HW219140   3.975   1.596   4.540  0.1881  0.0265 -0.4627
 2503SOL     OW19141   2.321   2.922  13.005 -0.2708  0.0494 -0.3307
 2503SOL    HW119142   2.322   3.013  12.976  2.3451  0.6491  1.7303
 2503SOL    HW219143   2.414   2.906  13.020 -0.6672  0.9986  3.1621
 2504SOL     OW19144   1.630   1.451   3.051 -0.0225 -0.0444  0.2469
 2504SOL    HW119145   1.652   1.364   3.019  2.6337  0.8159 -0.3255
 2504SOL    HW219146   1.606   1.498   2.971 -2.0061  0.2361  1.0041
 2505SOL     OW19147   2.530   3.558  16.575 -0.4637 -0.1821  0.3143
 2505SOL    HW119148   2.537   3.619  16.502  1.3371  0.9582  1.4315
 2505SOL    HW219149   2.546   3.619  16.648  0.3240  0.1753 -0.1499
 2506SOL     OW19150   0.822   0.531   9.261 -0.2239 -0.2929  0.2763
 2506SOL    HW119151   0.806   0.595   9.192  2.3315  1.2542  1.1275
 2506SOL    HW219152   0.732   0.509   9.285 -0.6807 -1.2242 -2.2320
 2507SOL     OW19153   1.535   4.360   3.229  0.2190  0.1142 -0.1423
 2507SOL    HW119154   1.479   4.438   3.232  0.6755  0.4324  0.2496
 2507SOL    HW219155   1.553   4.356   3.136 -3.0578 -0.9579 -0.7280
 2508SOL     OW19156   2.098   3.320   5.024 -0.0034  0.2638  0.4533
 2508SOL    HW119157   2.056   3.235   5.023 -1.3209  0.9221  0.3846
 2508SOL    HW219158   2.052   3.375   5.087 -1.5060  0.1882 -0.5856
 2509SOL     OW19159   0.794   3.628  12.503  0.2440 -0.4635 -0.0368
 2509SOL    HW119160   0.814   3.656  12.414 -0.1295  2.4883  0.8080
 2509SOL    HW219161   0.861   3.559  12.502  2.6580  1.8712 -0.9302
 2510SOL     OW19162   1.649   3.061   5.514 -0.2964  0.6765 -0.2744
 2510SOL    HW119163   1.682   3.017   5.593 -0.2212 -1.0221 -1.2338
 2510SOL    HW219164   1.647   3.155   5.527 -1.3333  0.8608 -1.6991
 2511SOL     OW19165   3.737   3.477   5.505 -0.6955 -0.5854  0.3124
 2511SOL    HW119166   3.729   3.451   5.413 -0.3000  0.4663 -0.0289
 2511SOL    HW219167   3.679   3.414   5.546 -1.1109  0.1732  0.8920
 2512SOL     OW19168   1.555   0.592  15.400  0.0070  0.6279 -0.0396
 2512SOL    HW119169   1.533   0.554  15.485  1.0705 -1.4718 -0.6900
 2512SOL    HW219170   1.496   0.538  15.348  2.3209  0.7452 -2.7819
 2513SOL     OW19171   1.639   3.494  11.737  0.2410  0.1681  0.2232
 2513SOL    HW119172   1.621   3.435  11.811 -0.8379  1.6165  1.1313
 2513SOL    HW219173   1.734   3.501  11.741  0.5427 -3.4183 -0.9440
 2514SOL     OW19174   1.652   1.303   8.036  0.4455  0.0063  0.5876
 2514SOL    HW119175   1.630   1.221   8.080 -0.0628  0.8077  1.7956
 2514SOL    HW219176   1.581   1.365   8.050 -0.2269 -0.7075  0.3204
 2515SOL     OW19177   1.714   4.235  15.987 -0.6393 -0.4267  0.1785
 2515SOL    HW119178   1.800   4.198  15.968 -1.2699 -2.2349  0.7634
 2515SOL    HW219179   1.737   4.327  15.976  0.9439 -0.7507  0.7455
 2516SOL     OW19180   2.103   0.388  11.391 -0.1873  0.3331 -0.7217
 2516SOL    HW119181   2.172   0.360  11.451 -0.1054 -1.6258 -1.7087
 2516SOL    HW219182   2.074   0.310  11.344  0.1739 -0.3720  0.2331
 2517SOL     OW19183   3.698   2.511   8.782  0.0194 -0.2549  0.4537
 2517SOL    HW119184   3.702   2.508   8.686 -1.1399 -2.6653  0.4792
 2517SOL    HW219185   3.784   2.497   8.821 -0.0065 -0.0836  0.5700
 2518SOL     OW19186   0.529   1.682   5.225  0.8451 -0.5115  0.2194
 2518SOL    HW119187   0.578   1.763   5.229 -2.2995  1.2494  3.0479
 2518SOL    HW219188   0.441   1.719   5.213  1.0416 -0.6190 -1.5238
 2519SOL     OW19189   1.297   2.631   2.935 -0.8131 -0.3672 -0.7329
 2519SOL    HW119190   1.319   2.714   2.892  3.2454  0.1180  2.2950
 2519SOL    HW219191   1.387   2.599   2.938 -0.9827 -0.7615  0.0724
 2520SOL     OW19192   2.531   0.367   4.174  0.4488  0.5921 -0.1866
 2520SOL    HW119193   2.543   0.314   4.096 -2.1773 -0.7036  0.2887
 2520SOL    HW219194   2.553   0.314   4.251 -2.3415  2.9148  2.1862
 2521SOL     OW19195   3.229   3.365  13.062 -0.0401  0.0590  0.2673
 2521SOL    HW119196   3.315   3.401  13.085 -0.2036  2.0985 -2.2405
 2521SOL    HW219197   3.181   3.447  13.048 -0.6352 -0.4204 -0.4384
 2522SOL     OW19198   1.165   0.162   3.249 -0.1971 -0.0567  0.4847
 2522SOL    HW119199   1.249   0.128   3.216 -0.5151 -0.5469  0.1848
 2522SOL    HW219200   1.108   0.114   3.189 -0.8288  2.4723 -0.9498
 2523SOL     OW19201   4.700   0.105   3.954 -0.3390 -0.1261 -0.2764
 2523SOL    HW119202   4.642   0.128   3.881  0.9619 -0.4739 -1.4358
 2523SOL    HW219203   4.738   0.021   3.929 -1.7145 -0.5091 -1.1055
 2524SOL     OW19204   0.443   2.031   7.728  0.3173 -0.0374 -0.1151
 2524SOL    HW119205   0.413   1.943   7.707  0.4222 -0.1681  0.2720
 2524SOL    HW219206   0.362   2.073   7.756 -1.0197 -3.2537  0.8734
 2525SOL     OW19207   3.283   4.075   1.767  0.0134  0.1390 -0.4336
 2525SOL    HW119208   3.283   3.997   1.711  0.2858 -0.6858  0.7286
 2525SOL    HW219209   3.300   4.143   1.702 -1.4588  0.4208 -0.5196
 2526SOL     OW19210   4.529   3.704   9.980  0.3881 -0.0785  0.7102
 2526SOL    HW119211   4.479   3.664  10.051  1.1463 -0.2853  1.1209
 2526SOL    HW219212   4.528   3.796  10.008  0.6961  0.4343 -0.9485
 2527SOL     OW19213   4.692   1.248   7.281 -0.1391 -0.7178  0.3494
 2527SOL    HW119214   4.678   1.281   7.370 -0.0420  1.2127 -0.3434
 2527SOL    HW219215   4.606   1.219   7.251  0.1824 -1.9130  0.6055
 2528SOL     OW19216   2.633   1.710  14.546  0.0104 -0.1036 -0.3554
 2528SOL    HW119217   2.609   1.802  14.537 -0.7148 -0.1518  1.0651
 2528SOL    HW219218   2.572   1.669  14.485 -0.1411  0.6569 -0.7121
 2529SOL     OW19219   1.083   0.229   5.938 -0.3512 -0.0923 -0.0953
 2529SOL    HW119220   1.081   0.195   6.028  0.9273 -3.6099 -1.4223
 2529SOL    HW219221   1.166   0.188   5.914  0.6721  0.7938  1.8655
 2530SOL     OW19222   4.005   3.889   5.804  0.0993 -0.2782 -0.3435
 2530SOL    HW119223   4.001   3.826   5.732 -3.3186 -3.6377  2.7943
 2530SOL    HW219224   3.913   3.894   5.828 -0.1033  1.4820 -1.5012
 2531SOL     OW19225   3.988   3.931   3.789  0.7034 -0.2282 -0.3938
 2531SOL    HW119226   3.905   3.978   3.782 -0.3271 -2.4426 -2.6826
 2531SOL    HW219227   3.966   3.838   3.798 -0.0944 -0.1246 -1.2357
 2532SOL     OW19228   2.406   2.823   6.873  0.1625  0.1298 -0.0679
 2532SOL    HW119229   2.317   2.856   6.862  1.0914  1.6494 -3.2125
 2532SOL    HW219230   2.381   2.757   6.937 -2.5209  1.1692 -0.0321
 2533SOL     OW19231   2.253   1.771  16.765  0.2613 -0.1263  0.1573
 2533SOL    HW119232   2.194   1.846  16.760 -1.8189 -1.9532 -2.5743
 2533SOL    HW219233   2.287   1.776  16.855  1.7196  1.8190 -0.4939
 2534SOL     OW19234   4.651   3.294  11.662  0.1528  0.8199  0.2242
 2534SOL    HW119235   4.577   3.247  11.701  0.4476  0.1956  0.0368
 2534SOL    HW219236   4.720   3.296  11.729 -0.6683 -2.8025  1.1797
 2535SOL     OW19237   4.220   1.381   4.077  0.2080 -0.6633  0.3115
 2535SOL    HW119238   4.182   1.295   4.096  0.7779 -1.1460 -0.7169
 2535SOL    HW219239   4.301   1.356   4.032  0.0582  1.1760 -0.9893
 2536SOL     OW19240   0.888   3.863   2.461  0.5564  0.0775  0.2438
 2536SOL    HW119241   0.853   3.823   2.541 -0.1091  1.2266  0.5292
 2536SOL    HW219242   0.927   3.946   2.490 -0.9212  1.5565 -2.0519
 2537SOL     OW19243   0.067   4.340  12.863 -0.2672  0.7182  0.0427
 2537SOL    HW119244   0.067   4.257  12.912 -0.0334 -0.5783 -2.1783
 2537SOL    HW219245   0.028   4.398  12.929  0.8235  1.2113  0.2600
 2538SOL     OW19246   2.434   4.008  12.903 -0.1524 -0.0726 -0.4201
 2538SOL    HW119247   2.377   4.000  12.980 -1.1484  0.1049 -1.1305
 2538SOL    HW219248   2.370   4.017  12.833  1.2939  1.2245 -1.5449
 2539SOL     OW19249   0.069   0.582  10.536 -0.8939  0.5396 -0.3715
 2539SOL    HW119250   0.057   0.597  10.629  1.5538 -2.0628  0.3792
 2539SOL    HW219251   0.126   0.658  10.523 -1.2418  0.7320 -0.7893
 2540SOL     OW19252   2.564   1.232   3.717 -0.2343 -0.0224  0.0184
 2540SOL    HW119253   2.627   1.304   3.716  0.8304 -0.9180  1.8721
 2540SOL    HW219254   2.620   1.158   3.692  0.9399  0.7268  0.4491
 2541SOL     OW19255   4.448   4.563  17.049 -0.2543 -0.4585  0.1635
 2541SOL    HW119256   4.417   4.479  17.083 -3.2374  0.1479 -1.0225
 2541SOL    HW219257   4.392   4.576  16.972  0.4740 -1.2059 -0.4933
 2542SOL     OW19258   0.405   0.738  12.711 -0.4751  0.1899 -0.0222
 2542SOL    HW119259   0.462   0.742  12.634 -0.7336  1.4885 -0.1460
 2542SOL    HW219260   0.367   0.652  12.693 -0.1005  0.4043 -1.8400
 2543SOL     OW19261   0.415   3.213   6.536 -0.2190  0.2279  0.2098
 2543SOL    HW119262   0.474   3.140   6.550 -1.5646 -1.5062 -3.3533
 2543SOL    HW219263   0.482   3.281   6.540  1.4533 -1.3662 -0.9348
 2544SOL     OW19264   1.397   3.423  16.974  0.2254 -0.2795 -0.6717
 2544SOL    HW119265   1.358   3.338  16.955 -0.9662  0.4077 -1.2731
 2544SOL    HW219266   1.364   3.446  17.061 -0.4085 -0.2529 -0.9143
 2545SOL     OW19267   1.926   3.253  15.419  0.0663 -0.0510 -0.0060
 2545SOL    HW119268   1.975   3.224  15.342  0.7168 -0.1496  0.4428
 2545SOL    HW219269   1.847   3.287  15.377  0.5514 -0.8566 -1.5880
 2546SOL     OW19270   2.836   4.014   2.260  0.1691 -0.1289  0.2115
 2546SOL    HW119271   2.826   3.919   2.254  1.1103 -0.2305  0.2751
 2546SOL    HW219272   2.874   4.028   2.173  2.8003 -1.2325  1.1800
 2547SOL     OW19273   4.430   0.192  10.961  0.1514  0.0429  0.0050
 2547SOL    HW119274   4.341   0.218  10.985 -0.4521 -2.2128  0.2889
 2547SOL    HW219275   4.426   0.183  10.866  1.5455 -0.4181 -0.0100
 2548SOL     OW19276   4.173   3.145   7.226  0.1142  0.0558  0.0869
 2548SOL    HW119277   4.090   3.122   7.268  0.3064  0.1863  0.5439
 2548SOL    HW219278   4.151   3.228   7.184  0.2903 -1.5152 -3.0954
 2549SOL     OW19279   0.415   4.184   7.814 -0.0307  0.1250 -0.7329
 2549SOL    HW119280   0.437   4.261   7.865  0.9851 -2.0430  2.0632
 2549SOL    HW219281   0.360   4.216   7.743  0.5326 -0.9562 -1.6628
 2550SOL     OW19282   1.711   0.727   7.071 -0.5416 -0.3606  0.8560
 2550SOL    HW119283   1.724   0.713   6.977  1.4834  2.6945  0.6664
 2550SOL    HW219284   1.667   0.812   7.068  1.6329  0.7051 -0.9697
 2551SOL     OW19285   2.741   2.527   7.229  0.5986 -0.3652 -0.1042
 2551SOL    HW119286   2.739   2.612   7.185 -1.4294  0.5043  1.6427
 2551SOL    HW219287   2.783   2.553   7.311 -1.6814 -1.2476  1.3476
 2552SOL     OW19288   2.459   2.676   8.216  0.1559 -0.3737  0.5578
 2552SOL    HW119289   2.511   2.639   8.145  2.8788  2.9973  0.8165
 2552SOL    HW219290   2.370   2.644   8.198 -0.1788 -1.0722  3.3496
 2553SOL     OW19291   2.061   1.151   8.645 -0.6541  0.2115 -0.3649
 2553SOL    HW119292   2.002   1.225   8.634  1.3918  1.9300  0.0026
 2553SOL    HW219293   2.054   1.123   8.737 -0.3859 -2.4875 -1.1804
 2554SOL     OW19294   3.876   3.426   6.941  0.1591  0.2380 -0.1061
 2554SOL    HW119295   3.783   3.422   6.963  0.2998  1.0863  0.6542
 2554SOL    HW219296   3.903   3.518   6.948 -0.6954  0.4397  0.6100
 2555SOL     OW19297   2.663   3.314   6.544  0.3928 -0.5245  0.2844
 2555SOL    HW119298   2.690   3.226   6.517  1.9566 -0.3594  1.3195
 2555SOL    HW219299   2.645   3.309   6.638  1.3752 -0.6629  0.4582
 2556SOL     OW19300   1.670   1.806   9.271 -0.4685 -0.1010 -0.4190
 2556SOL    HW119301   1.691   1.897   9.292 -0.9595 -0.0423 -0.1748
 2556SOL    HW219302   1.580   1.815   9.303 -1.1130 -1.5178 -1.8418
 2557SOL     OW19303   1.275   4.361  13.014 -0.5084  0.2655  0.2198
 2557SOL    HW119304   1.218   4.345  13.089 -1.4648  0.0614 -0.5475
 2557SOL    HW219305   1.235   4.301  12.950 -0.6770  0.9320 -0.3043
 2558SOL     OW19306   0.155   1.215  15.894 -0.4247  0.1254 -0.2628
 2558SOL    HW119307   0.227   1.211  15.831 -0.5796 -0.8556 -0.3883
 2558SOL    HW219308   0.082   1.179  15.843 -0.1415  0.4319 -0.8983
 2559SOL     OW19309   2.562   0.381   8.823 -0.2826  0.5302  0.0293
 2559SOL    HW119310   2.614   0.334   8.758 -0.1791 -1.5418  1.6475
 2559SOL    HW219311   2.500   0.315   8.854  1.7565 -1.8169 -0.9045
 2560SOL     OW19312   2.034   0.547   5.913  0.5591  0.3891 -0.0536
 2560SOL    HW119313   2.010   0.511   5.828 -0.6822  1.0649  0.0122
 2560SOL    HW219314   2.034   0.473   5.974 -1.6680  0.1726 -0.3088
 2561SOL     OW19315   2.679   0.829   7.849  0.1873 -0.3612  0.0891
 2561SOL    HW119316   2.766   0.864   7.831 -0.1812  0.5442  0.0313
 2561SOL    HW219317   2.697   0.757   7.909  0.1986 -0.1050  0.3913
 2562SOL     OW19318   4.069   1.387   7.529  0.0273  0.3573 -0.0135
 2562SOL    HW119319   4.022   1.307   7.552  1.4404 -0.2923  0.5914
 2562SOL    HW219320   3.996   1.448   7.518 -0.7903 -0.8747 -1.4924
 2563SOL     OW19321   0.352   1.982   9.039 -0.3614  0.2125  0.4154
 2563SOL    HW119322   0.375   2.039   9.113  1.1605  0.1881 -0.0376
 2563SOL    HW219323   0.392   2.032   8.968  0.6657 -0.5703  0.4499
 2564SOL     OW19324   3.250   3.322   1.247  0.1536 -0.0052 -0.0871
 2564SOL    HW119325   3.234   3.310   1.341 -0.5203  2.4307  0.1157
 2564SOL    HW219326   3.277   3.414   1.241  1.6334 -0.5174 -1.1620
 2565SOL     OW19327   3.895   1.060  14.263  0.0419 -0.7138 -0.0126
 2565SOL    HW119328   3.934   1.142  14.235 -2.1643 -0.1374 -1.3884
 2565SOL    HW219329   3.969   1.022  14.311 -0.2173 -1.5668 -0.2845
 2566SOL     OW19330   0.589   3.819   4.603  0.1045 -0.6949 -0.0848
 2566SOL    HW119331   0.604   3.913   4.599  1.2306 -0.8907 -0.3423
 2566SOL    HW219332   0.522   3.814   4.672 -0.9812 -0.7691 -1.1428
 2567SOL     OW19333   1.304   3.515  12.282 -0.1076  0.0745  0.8330
 2567SOL    HW119334   1.259   3.443  12.326 -0.1368 -0.5238 -0.1769
 2567SOL    HW219335   1.369   3.462  12.238 -2.1146 -1.5546 -0.1547
 2568SOL     OW19336   4.606   2.731   8.544 -0.2059 -0.0919 -0.2576
 2568SOL    HW119337   4.694   2.738   8.583  0.0882  1.1624 -1.1642
 2568SOL    HW219338   4.621   2.695   8.457 -2.3975 -1.9515  0.1346
 2569SOL     OW19339   3.259   4.379   4.382 -0.2854 -0.9809  0.4570
 2569SOL    HW119340   3.208   4.366   4.302 -1.9426 -0.0967  1.3727
 2569SOL    HW219341   3.340   4.333   4.357  1.6720  3.2340 -0.9906
 2570SOL     OW19342   0.243   1.053   6.351 -0.6071 -0.2354 -0.4614
 2570SOL    HW119343   0.208   1.049   6.440 -3.2047 -0.9160 -1.5315
 2570SOL    HW219344   0.165   1.057   6.296  0.0010 -0.1107 -1.3074
 2571SOL     OW19345   1.856   1.590  14.788 -0.0294 -0.4280 -0.6599
 2571SOL    HW119346   1.793   1.614  14.720  1.2335  0.8671 -1.3681
 2571SOL    HW219347   1.798   1.558  14.857  2.3374 -2.4331  0.4001
 2572SOL     OW19348   4.140   2.353   1.024 -0.0882  0.1816  0.1644
 2572SOL    HW119349   4.074   2.308   0.971  1.4506 -0.5028 -1.1896
 2572SOL    HW219350   4.207   2.286   1.042  0.0988  0.7676  1.6197
 2573SOL     OW19351   0.563   3.380   4.394  0.4034  0.1260  0.2743
 2573SOL    HW119352   0.658   3.384   4.383  0.4411 -0.9799  0.2553
 2573SOL    HW219353   0.551   3.473   4.413 -0.8473  0.0604 -0.2517
 2574SOL     OW19354   1.233   1.177   8.412 -0.2240  0.6862  0.2978
 2574SOL    HW119355   1.170   1.232   8.458 -0.3857 -0.6236  1.6404
 2574SOL    HW219356   1.174   1.159   8.339  1.0753 -0.4970 -0.4417
 2575SOL     OW19357   3.704   3.718   5.033 -0.2724  0.2403 -0.4263
 2575SOL    HW119358   3.786   3.768   5.029  0.1130 -0.2290  1.9956
 2575SOL    HW219359   3.731   3.630   5.005  0.2317 -0.1743  1.3712
 2576SOL     OW19360   4.622   0.022   9.355  0.0362 -1.2494 -0.1330
 2576SOL    HW119361   4.700   4.707   9.360  1.9461  1.3035 -2.1372
 2576SOL    HW219362   4.608   0.046   9.447 -1.1711  1.1233 -0.9410
 2577SOL     OW19363   1.153   1.065  10.650  0.7295  0.6823 -0.0147
 2577SOL    HW119364   1.088   1.134  10.662  0.4401  0.0111  2.1528
 2577SOL    HW219365   1.197   1.071  10.735 -1.1017  1.1456  0.8864
 2578SOL     OW19366   0.981   1.064  13.506  0.2196  0.2433 -0.0959
 2578SOL    HW119367   0.962   1.058  13.413 -0.2496 -0.5043  0.0409
 2578SOL    HW219368   0.934   1.145  13.524 -0.7608 -0.5274  0.8500
 2579SOL     OW19369   1.377   1.990   2.470 -0.5413 -0.3300  0.2277
 2579SOL    HW119370   1.396   1.905   2.509 -2.1978 -0.1405  1.4599
 2579SOL    HW219371   1.427   2.044   2.532  0.6747  0.0632 -1.0927
 2580SOL     OW19372   1.276   3.511  16.382 -0.4409 -0.1974  0.1548
 2580SOL    HW119373   1.181   3.511  16.393 -0.5222  2.1964 -0.5020
 2580SOL    HW219374   1.306   3.505  16.473 -0.3480  1.0789  0.2047
 2581SOL     OW19375   0.431   0.246   5.859 -0.4764 -0.4643 -0.3234
 2581SOL    HW119376   0.522   0.266   5.879 -0.3401  1.3225 -2.6669
 2581SOL    HW219377   0.451   0.234   5.766 -1.3498 -4.5116  0.0129
 2582SOL     OW19378   1.684   4.135   5.282 -1.3138 -0.1192 -0.0929
 2582SOL    HW119379   1.732   4.081   5.220 -0.7895 -2.3490  2.2527
 2582SOL    HW219380   1.715   4.102   5.366  1.1749  0.0439 -0.9407
 2583SOL     OW19381   3.854   1.744   3.551  0.2129  0.5692 -0.7092
 2583SOL    HW119382   3.881   1.654   3.534 -1.3100 -0.1185  0.5548
 2583SOL    HW219383   3.762   1.736   3.525  0.3194  2.6046 -1.6902
 2584SOL     OW19384   1.682   1.267   4.305 -0.1441 -0.3398  0.3166
 2584SOL    HW119385   1.703   1.276   4.212 -0.1429 -1.3687  0.2241
 2584SOL    HW219386   1.686   1.172   4.308 -0.3124 -0.3432  0.4047
 2585SOL     OW19387   0.695   1.067   7.610  0.0744  0.2109  0.2450
 2585SOL    HW119388   0.713   1.154   7.648 -2.6832  1.7545 -2.0094
 2585SOL    HW219389   0.600   1.066   7.621 -0.0801  1.4226 -0.9422
 2586SOL     OW19390   2.731   2.005   5.881  0.2877  0.2901 -0.9536
 2586SOL    HW119391   2.753   2.079   5.938  0.5867 -0.9602  0.5598
 2586SOL    HW219392   2.675   1.946   5.932  1.4242  0.3708  0.3988
 2587SOL     OW19393   1.848   1.307  11.832  0.3296 -0.2699 -0.0383
 2587SOL    HW119394   1.933   1.346  11.810  0.8478 -1.4362 -0.1089
 2587SOL    HW219395   1.829   1.245  11.762  0.5259  0.6680 -0.9117
 2588SOL     OW19396   0.204   2.843  10.680  0.2813  0.1945  0.1889
 2588SOL    HW119397   0.296   2.867  10.673  0.0131  1.2868  0.2987
 2588SOL    HW219398   0.175   2.908  10.745  1.8624  1.2264 -0.1335
 2589SOL     OW19399   4.034   1.142   9.978 -0.3745 -0.0570  0.4751
 2589SOL    HW119400   3.959   1.094   9.943 -0.4923  0.4645  0.0225
 2589SOL    HW219401   4.035   1.223   9.928  2.2406  0.7113  1.7630
 2590SOL     OW19402   3.651   3.295   2.555 -0.0664  0.3045  0.3215
 2590SOL    HW119403   3.665   3.221   2.614 -0.6653  0.7571  1.0358
 2590SOL    HW219404   3.713   3.283   2.484 -0.9942 -4.4240  0.3082
 2591SOL     OW19405   3.995   2.166   4.223  0.7221  0.1925 -0.1600
 2591SOL    HW119406   3.906   2.201   4.229 -0.1743 -2.2291  0.6612
 2591SOL    HW219407   3.979   2.074   4.202 -3.2016  0.8718 -0.2440
 2592SOL     OW19408   3.630   1.782   8.425  0.0606 -0.1999 -0.0370
 2592SOL    HW119409   3.714   1.826   8.411  1.1124 -1.5288  2.1379
 2592SOL    HW219410   3.614   1.801   8.517 -0.8685  0.1927 -0.2808
 2593SOL     OW19411   2.731   1.554   5.880  0.5309 -0.3325  0.1766
 2593SOL    HW119412   2.790   1.517   5.945  0.6672  0.5454  0.5582
 2593SOL    HW219413   2.800   1.593   5.827 -1.8410  0.5962 -2.2379
 2594SOL     OW19414   3.026   0.387   4.447  0.0210 -0.1306  0.0461
 2594SOL    HW119415   2.987   0.343   4.522 -1.1364 -1.6242 -1.4248
 2594SOL    HW219416   2.950   0.438   4.416 -0.9584 -0.2973  2.1975
 2595SOL     OW19417   3.139   3.785   5.240 -0.5164 -0.0661 -0.5319
 2595SOL    HW119418   3.134   3.849   5.310 -1.0113  1.0321 -1.5807
 2595SOL    HW219419   3.208   3.820   5.183 -2.2378 -0.5879 -2.9567
 2596SOL     OW19420   4.305   2.643  10.046 -0.3852 -0.0364  0.0775
 2596SOL    HW119421   4.339   2.727  10.015 -0.0635 -0.5427 -0.9090
 2596SOL    HW219422   4.216   2.662  10.077 -0.5159 -1.1810  0.3888
 2597SOL     OW19423   4.113   4.717   9.980 -0.1631  0.0556  0.7802
 2597SOL    HW119424   4.200   4.739  10.012  0.3672 -1.7144  0.5048
 2597SOL    HW219425   4.099   0.052   9.920  2.2802 -1.7097 -1.9560
 2598SOL     OW19426   4.009   2.202   6.276  0.3655  0.6450  0.0295
 2598SOL    HW119427   3.943   2.162   6.333 -2.3767  2.8460 -1.5661
 2598SOL    HW219428   4.024   2.273   6.339  0.2430 -2.4604  3.5399
 2599SOL     OW19429   0.035   0.409   2.910  0.1202 -0.0770  0.2538
 2599SOL    HW119430   0.059   0.376   2.997  1.7383  1.4128  0.3671
 2599SOL    HW219431   4.680   0.392   2.921  0.5178 -3.6156 -1.8288
 2600SOL     OW19432   3.907   2.575   2.959 -0.2542 -0.1372  0.5205
 2600SOL    HW119433   3.915   2.482   2.936  0.5306  0.3782 -1.2363
 2600SOL    HW219434   3.892   2.572   3.054 -1.7929  0.8474  0.3066
 2601SOL     OW19435   1.151   1.317  13.464 -0.0659 -0.4779 -0.1836
 2601SOL    HW119436   1.064   1.287  13.491  0.0609  0.0158  0.7798
 2601SOL    HW219437   1.215   1.276  13.523 -1.6084 -0.1199  1.7588
 2602SOL     OW19438   4.486   0.823  11.380  0.1876 -0.1971  0.1011
 2602SOL    HW119439   4.569   0.843  11.337  0.4448  0.0448  0.7113
 2602SOL    HW219440   4.436   0.793  11.305  1.9544  0.1481 -1.2030
 2603SOL     OW19441   4.433   4.582  17.487 -0.5514  0.0489  0.0717
 2603SOL    HW119442   4.392   4.659  17.448 -1.1361 -1.4067 -2.1390
 2603SOL    HW219443   4.508   4.571  17.429  0.4411  1.0055  1.1670
 2604SOL     OW19444   2.734   0.217   8.700 -0.2709  0.7691 -0.2180
 2604SOL    HW119445   2.737   0.145   8.762 -0.0479 -0.5849 -1.8118
 2604SOL    HW219446   2.825   0.244   8.686  0.8966 -1.7091  2.7891
 2605SOL     OW19447   0.920   1.756   7.700 -0.0841  0.0612 -0.6885
 2605SOL    HW119448   0.854   1.695   7.735 -2.2062  0.8264 -3.3347
 2605SOL    HW219449   0.932   1.718   7.613  1.8106  2.7324 -1.5737
 2606SOL     OW19450   3.630   4.193   2.036 -0.1347 -0.1980 -0.7854
 2606SOL    HW119451   3.569   4.231   2.099 -1.6225 -0.6158 -1.9642
 2606SOL    HW219452   3.581   4.124   1.990  0.1105  0.3519 -1.8695
 2607SOL     OW19453   0.821   1.556  15.055  0.1436  0.3518  0.0358
 2607SOL    HW119454   0.809   1.532  15.147 -0.1639 -1.3842 -0.4683
 2607SOL    HW219455   0.729   1.559  15.030 -0.4594 -1.5416  2.0961
 2608SOL     OW19456   1.935   2.927   1.926 -0.2768  0.3588 -0.1528
 2608SOL    HW119457   1.986   2.976   1.862 -1.6683 -2.1684 -3.1977
 2608SOL    HW219458   1.972   2.841   1.904 -1.2403 -0.1040  0.0264
 2609SOL     OW19459   3.193   4.351   2.439  0.4318  0.5058  0.5255
 2609SOL    HW119460   3.268   4.400   2.404  1.0655 -0.3233  0.7120
 2609SOL    HW219461   3.166   4.314   2.355  1.6186  1.2774 -0.2052
 2610SOL     OW19462   2.564   2.869   9.191 -0.3322  0.1577 -0.1181
 2610SOL    HW119463   2.620   2.941   9.160 -0.8550  0.2826 -0.7793
 2610SOL    HW219464   2.500   2.914   9.246 -1.2855 -1.8542  0.3847
 2611SOL     OW19465   1.749   2.740  17.347 -0.4095  0.3895  0.4706
 2611SOL    HW119466   1.823   2.712  17.294 -1.6049  0.5800 -1.3212
 2611SOL    HW219467   1.678   2.729  17.282  0.1210  1.3244 -0.2655
 2612SOL     OW19468   3.939   3.835   5.140  0.7571 -0.0907  0.1308
 2612SOL    HW119469   4.022   3.870   5.107  0.7202  2.1228  2.4168
 2612SOL    HW219470   3.905   3.909   5.190  3.6985 -0.0405  2.0146
 2613SOL     OW19471   3.240   3.642   6.904  0.0396 -0.0326 -0.4789
 2613SOL    HW119472   3.155   3.638   6.861  0.3624 -1.0197 -1.0189
 2613SOL    HW219473   3.233   3.566   6.961 -0.6961  0.7856  0.5127
 2614SOL     OW19474   3.222   4.076   5.703 -0.5318  0.1620 -0.3093
 2614SOL    HW119475   3.192   4.007   5.644  1.4646  0.8899 -2.1774
 2614SOL    HW219476   3.317   4.067   5.695 -0.7063 -1.5941 -0.3194
 2615SOL     OW19477   2.293   2.822  11.397  0.2838 -0.7782 -0.0374
 2615SOL    HW119478   2.250   2.889  11.345  1.2869  0.9361  1.3394
 2615SOL    HW219479   2.217   2.788  11.445  1.1415 -1.9200  0.5231
 2616SOL     OW19480   4.655   3.790   8.284  0.0273  0.8706 -0.4153
 2616SOL    HW119481   4.677   3.788   8.191 -0.5070 -1.0910 -0.5010
 2616SOL    HW219482   4.735   3.835   8.314  0.2995  0.2080 -0.1418
 2617SOL     OW19483   3.606   1.969  10.677 -0.2268 -0.1334 -0.2189
 2617SOL    HW119484   3.525   1.952  10.727  0.7580 -1.0966  1.0407
 2617SOL    HW219485   3.584   2.050  10.630  2.1439 -0.2365 -1.4715
 2618SOL     OW19486   4.522   3.010   8.317  0.2416 -0.5856  0.0716
 2618SOL    HW119487   4.492   3.099   8.334 -0.1293 -1.0051  1.5937
 2618SOL    HW219488   4.616   3.025   8.331 -0.3325  0.9995  2.1609
 2619SOL     OW19489   0.255   4.040   4.383 -0.5103  0.2592  0.0709
 2619SOL    HW119490   0.286   4.007   4.298 -0.5175 -1.8163  0.8987
 2619SOL    HW219491   0.340   4.081   4.402  0.5340 -1.9271  0.0907
 2620SOL     OW19492   2.356   2.639  12.454 -0.4461 -0.1176  0.7135
 2620SOL    HW119493   2.340   2.565  12.395  0.4598  0.0983  0.1995
 2620SOL    HW219494   2.443   2.621  12.489 -0.3478  0.5730  0.8184
 2621SOL     OW19495   2.546   4.337  13.359 -0.0843  0.1830  0.6635
 2621SOL    HW119496   2.455   4.312  13.345 -0.0817  0.4466  0.1364
 2621SOL    HW219497   2.539   4.367  13.449 -1.1087  0.5075  0.4715
 2622SOL     OW19498   1.902   3.081   3.095 -0.0004  0.2014 -0.1580
 2622SOL    HW119499   1.885   3.168   3.130 -0.1802  0.2015 -0.2455
 2622SOL    HW219500   1.994   3.082   3.120 -0.1391 -1.8440  0.4417
 2623SOL     OW19501   2.912   0.725  12.537 -0.3894  0.4594  0.2812
 2623SOL    HW119502   2.979   0.786  12.507  0.2428 -0.1644  0.4336
 2623SOL    HW219503   2.960   0.643  12.546 -3.1451 -1.5514 -3.3645
 2624SOL     OW19504   1.941   1.869   7.245 -0.5063  0.4082  0.5262
 2624SOL    HW119505   1.962   1.961   7.261  0.9841  0.2742 -0.6857
 2624SOL    HW219506   1.947   1.834   7.334  0.3377  1.1294  0.7539
 2625SOL     OW19507   1.193   1.015  16.247  0.4085  0.0907 -0.5047
 2625SOL    HW119508   1.153   1.038  16.162  1.2358  1.0505 -0.6328
 2625SOL    HW219509   1.151   1.077  16.307  1.3075  0.9667 -0.7880
 2626SOL     OW19510   4.043   0.966   7.685 -0.1879 -0.2436  0.0105
 2626SOL    HW119511   4.103   0.913   7.633  0.3289 -0.6175  0.9981
 2626SOL    HW219512   4.024   0.914   7.763 -3.0339  2.1788  0.9428
 2627SOL     OW19513   3.226   2.903  17.004  0.1633 -0.1668  0.2840
 2627SOL    HW119514   3.272   2.931  17.083 -1.8427  2.6430  0.4548
 2627SOL    HW219515   3.144   2.940  17.036 -1.7677 -3.8145 -0.4487
 2628SOL     OW19516   1.925   4.342   3.929  0.5161  0.5831 -0.1593
 2628SOL    HW119517   1.924   4.295   3.845 -0.7742  3.8066 -1.9213
 2628SOL    HW219518   1.831   4.351   3.943  0.0896 -2.7483 -0.8308
 2629SOL     OW19519   0.693   3.205  11.464  0.8245  0.2879  0.3291
 2629SOL    HW119520   0.625   3.262  11.501  1.6987  1.3111  0.3622
 2629SOL    HW219521   0.761   3.193  11.530  2.0841 -0.3905 -1.0904
 2630SOL     OW19522   3.468   3.182   2.878 -0.5344  0.0304 -0.5641
 2630SOL    HW119523   3.551   3.149   2.842 -0.4085 -1.2470  0.8919
 2630SOL    HW219524   3.412   3.127   2.823 -0.2200 -0.7359 -0.1064
 2631SOL     OW19525   4.010   0.837  16.543 -0.3010 -0.1392 -1.0711
 2631SOL    HW119526   3.974   0.910  16.595  1.4701  0.2420 -0.3883
 2631SOL    HW219527   4.053   0.786  16.612 -3.0608 -2.6963 -1.2243
 2632SOL     OW19528   4.731   0.395   4.498  0.2340 -0.1339  0.4961
 2632SOL    HW119529   0.063   0.440   4.454 -1.1428  1.1865 -0.3900
 2632SOL    HW219530   4.691   0.343   4.428 -0.3935  1.4371 -0.2988
 2633SOL     OW19531   1.748   3.252  16.300 -0.5691  0.1102 -0.0216
 2633SOL    HW119532   1.689   3.318  16.336  0.3115  1.2774 -0.6994
 2633SOL    HW219533   1.756   3.191  16.374 -1.0735  1.1196  0.8672
 2634SOL     OW19534   1.472   1.042   4.036  0.2801 -0.1014 -0.3122
 2634SOL    HW119535   1.484   0.951   4.009 -0.8562 -0.7402  1.3474
 2634SOL    HW219536   1.450   1.075   3.949  1.1139  1.5357  0.0849
 2635SOL     OW19537   1.352   1.262   8.745 -0.7857  0.6609 -0.1457
 2635SOL    HW119538   1.385   1.343   8.783 -0.9347  0.8296 -0.3738
 2635SOL    HW219539   1.278   1.301   8.697 -0.2344 -1.3523 -2.6444
 2636SOL     OW19540   4.427   3.115   8.724 -0.1832 -0.7012 -0.2757
 2636SOL    HW119541   4.517   3.146   8.714  0.2511 -1.6971  0.5654
 2636SOL    HW219542   4.438   3.049   8.792  0.8423 -0.3171 -0.0616
 2637SOL     OW19543   1.525   2.974   8.907  0.1294  0.9176 -0.5676
 2637SOL    HW119544   1.501   3.019   8.988 -3.4386 -0.3716 -0.8757
 2637SOL    HW219545   1.589   2.917   8.949  0.4599  1.9036  0.2624
 2638SOL     OW19546   1.462   4.702   6.815  0.5559  0.2907 -0.6226
 2638SOL    HW119547   1.371   4.679   6.797 -0.1520  1.5542  1.3756
 2638SOL    HW219548   1.468   4.722   6.908  1.4959  1.2568 -0.8987
 2639SOL     OW19549   3.055   2.860   2.801 -0.4749  0.0208 -0.2370
 2639SOL    HW119550   2.975   2.893   2.759 -0.9548  1.4795  1.8552
 2639SOL    HW219551   3.043   2.890   2.891 -3.2266  0.7450 -0.8508
 2640SOL     OW19552   2.508   3.043  10.967 -0.0131  0.4093  0.0614
 2640SOL    HW119553   2.417   3.024  10.990  0.5736  0.2204  2.2757
 2640SOL    HW219554   2.553   3.039  11.052  1.3945 -0.0236 -0.7184
 2641SOL     OW19555   1.218   3.691   0.198 -0.4357 -0.3621  0.5373
 2641SOL    HW119556   1.219   3.704   0.103  1.1282 -0.0220  0.6054
 2641SOL    HW219557   1.299   3.641   0.208 -0.7897 -0.9609  0.3611
 2642SOL     OW19558   2.021   0.216   8.857  0.3485 -0.1147 -0.2341
 2642SOL    HW119559   1.940   0.206   8.907  1.2202 -2.8359  0.6302
 2642SOL    HW219560   2.065   0.136   8.884  0.7257 -0.4595 -1.8806
 2643SOL     OW19561   3.400   4.522   8.323 -0.1795 -0.1598 -0.7579
 2643SOL    HW119562   3.454   4.444   8.333 -1.9015 -0.8986  2.6638
 2643SOL    HW219563   3.315   4.492   8.290  0.3907 -0.1513 -2.2363
 2644SOL     OW19564   2.599   3.561   3.343 -0.0171 -0.0625 -0.1090
 2644SOL    HW119565   2.695   3.561   3.344 -0.0227  0.4137  0.4594
 2644SOL    HW219566   2.594   3.649   3.307  0.2610  0.6265  1.5114
 2645SOL     OW19567   3.571   0.560   1.723 -0.0459  0.2218 -0.9216
 2645SOL    HW119568   3.503   0.516   1.671 -0.1373 -1.7050  0.8520
 2645SOL    HW219569   3.636   0.489   1.725  1.0544  1.2561 -0.3675
 2646SOL     OW19570   0.811   4.616   2.118  0.4607  0.1780 -0.1650
 2646SOL    HW119571   0.718   4.636   2.123 -0.0448 -1.9061 -1.5114
 2646SOL    HW219572   0.812   4.539   2.062  0.6881 -0.1410  0.2741
 2647SOL     OW19573   0.373   2.627   3.402 -0.3523 -0.2032  0.1606
 2647SOL    HW119574   0.389   2.533   3.394 -0.3212 -0.0201 -1.8953
 2647SOL    HW219575   0.411   2.657   3.319  0.2600 -2.7306 -0.4817
 2648SOL     OW19576   2.874   1.692   2.530  0.1455 -0.0139 -0.0894
 2648SOL    HW119577   2.802   1.691   2.467  0.4319 -3.5882 -0.3185
 2648SOL    HW219578   2.836   1.630   2.592 -1.3085  0.9668  0.0066
 2649SOL     OW19579   1.239   3.025  11.628 -0.1552  0.5652 -0.2815
 2649SOL    HW119580   1.329   3.015  11.597  0.2092  1.3467  0.5075
 2649SOL    HW219581   1.201   2.940  11.607  0.3605  0.4071 -0.5652
 2650SOL     OW19582   2.262   2.443   7.633  0.1231 -0.0163  0.4274
 2650SOL    HW119583   2.290   2.483   7.550  1.0747 -1.0758  0.2385
 2650SOL    HW219584   2.195   2.510   7.649  1.0569  1.0671 -0.1585
 2651SOL     OW19585   3.727   0.625   8.269 -0.5727 -0.2016 -0.2211
 2651SOL    HW119586   3.733   0.536   8.235  2.3566 -0.4725  1.0835
 2651SOL    HW219587   3.713   0.605   8.362  0.0012 -0.6277 -0.2293
 2652SOL     OW19588   3.836   1.022   8.223  0.4745 -0.2081  0.3746
 2652SOL    HW119589   3.815   0.987   8.309  0.2981 -0.5466  0.1954
 2652SOL    HW219590   3.841   1.118   8.222  0.5125 -0.1736  3.6259
 2653SOL     OW19591   1.202   2.891   9.067  0.2955  0.3603  0.2913
 2653SOL    HW119592   1.131   2.945   9.102  0.5484  0.8375  0.0643
 2653SOL    HW219593   1.206   2.915   8.974 -2.1379  0.1779  0.1494
 2654SOL     OW19594   3.963   0.109   8.186  0.4586  0.3492 -0.2578
 2654SOL    HW119595   3.890   0.149   8.232 -0.4272 -0.0535 -1.3175
 2654SOL    HW219596   3.976   0.045   8.256  1.7317 -0.1325 -0.9259
 2655SOL     OW19597   2.844   2.424   6.739 -0.6325  0.2018 -0.1621
 2655SOL    HW119598   2.871   2.340   6.775 -0.7112 -0.0754 -0.7557
 2655SOL    HW219599   2.893   2.482   6.797 -0.4297 -0.9722  0.8319
 2656SOL     OW19600   4.585   1.015   3.260  0.2740  0.0197 -0.5930
 2656SOL    HW119601   4.574   0.949   3.191  0.8759  2.0203 -2.6105
 2656SOL    HW219602   4.675   0.994   3.287  0.0179  0.7765  0.8172
 2657SOL     OW19603   2.660   2.953   1.436 -0.1970 -0.3468 -0.0850
 2657SOL    HW119604   2.607   3.002   1.498  0.8650  0.8578 -0.1405
 2657SOL    HW219605   2.703   3.023   1.388  1.7529 -2.5203 -1.5192
 2658SOL     OW19606   0.937   4.070   1.028 -0.3198 -0.2567  0.1622
 2658SOL    HW119607   0.938   4.112   0.941 -1.8958  0.0434  0.2790
 2658SOL    HW219608   0.869   4.007   1.003 -0.3035 -1.2391  2.5955
 2659SOL     OW19609   0.296   0.695   5.446  0.1934 -0.4726 -0.1639
 2659SOL    HW119610   0.228   0.755   5.478  1.5951  1.9541 -1.7492
 2659SOL    HW219611   0.321   0.727   5.360  0.1808 -0.2624 -0.0906
 2660SOL     OW19612   0.523   3.265   1.995 -0.2384 -0.2483 -0.0404
 2660SOL    HW119613   0.469   3.279   2.073  0.2979  0.7512  0.1432
 2660SOL    HW219614   0.594   3.217   2.038 -0.2771 -1.4726 -1.3701
 2661SOL     OW19615   2.570   0.080  13.306  0.2076  0.0453 -0.3109
 2661SOL    HW119616   2.565   4.734  13.263 -0.6296  0.5473 -1.2145
 2661SOL    HW219617   2.562   0.130  13.225 -0.6283 -0.3171 -0.4575
 2662SOL     OW19618   1.319   0.511  10.866 -0.2217 -0.0309  0.3779
 2662SOL    HW119619   1.394   0.496  10.922  0.8281 -1.3829 -1.4185
 2662SOL    HW219620   1.274   0.427  10.860 -0.9234  0.4054 -0.4767
 2663SOL     OW19621   1.816   3.365  10.633  0.0944 -0.0719  0.0955
 2663SOL    HW119622   1.831   3.304  10.705 -2.3258  0.6482  1.1999
 2663SOL    HW219623   1.907   3.394  10.622  0.4492 -1.1191  0.3250
 2664SOL     OW19624   1.605   3.422   8.879 -0.2479 -0.6011 -0.2007
 2664SOL    HW119625   1.580   3.364   8.951  1.1702  0.6558  1.3053
 2664SOL    HW219626   1.541   3.400   8.811 -0.3218 -0.0213 -0.3243
 2665SOL     OW19627   4.583   4.415   3.849  0.0775  0.1679  0.4069
 2665SOL    HW119628   4.509   4.439   3.792  0.8297 -0.6158 -0.8959
 2665SOL    HW219629   4.570   4.326   3.880  0.4761 -0.0343 -0.0179
 2666SOL     OW19630   1.223   1.551   2.250 -0.0329 -0.1236  0.1852
 2666SOL    HW119631   1.290   1.616   2.229  0.7069 -1.1075 -0.5181
 2666SOL    HW219632   1.148   1.599   2.214  0.3761  2.7682  3.2020
 2667SOL     OW19633   0.609   3.733  11.542 -0.6147  0.8275 -0.0652
 2667SOL    HW119634   0.533   3.685  11.576  0.8958 -3.0869 -2.1342
 2667SOL    HW219635   0.560   3.783  11.476 -1.0360 -1.3493 -1.4077
 2668SOL     OW19636   2.081   0.060   5.619 -0.1574 -0.0583 -0.1805
 2668SOL    HW119637   2.115   4.718   5.584 -3.7417 -2.0709  1.0464
 2668SOL    HW219638   1.988   0.058   5.595 -0.6712  2.4128  1.5029
 2669SOL     OW19639   3.999   1.527   6.150  0.5598  0.2664 -0.5004
 2669SOL    HW119640   3.955   1.606   6.119 -2.1082 -1.1296 -0.1878
 2669SOL    HW219641   3.949   1.462   6.101  1.7063 -0.3205 -0.8912
 2670SOL     OW19642   0.999   4.699   3.109  0.0694 -0.2987 -0.1707
 2670SOL    HW119643   0.939   4.633   3.144 -0.0503  0.8894  1.8968
 2670SOL    HW219644   1.059   4.659   3.047 -0.3586 -2.2681  0.6936
 2671SOL     OW19645   2.146   2.175   1.786 -0.0966  0.1100 -0.0299
 2671SOL    HW119646   2.156   2.252   1.730  2.1965  0.1891  0.5059
 2671SOL    HW219647   2.053   2.187   1.805 -0.1765 -2.3493  1.1775
 2672SOL     OW19648   3.659   0.199   1.011 -0.8618 -0.0961  0.3761
 2672SOL    HW119649   3.609   0.121   0.988 -1.0920  0.2370 -0.2361
 2672SOL    HW219650   3.642   0.252   0.934  0.3973  0.6480  0.6124
 2673SOL     OW19651   4.161   1.691   7.505 -0.1966  0.4805 -0.6453
 2673SOL    HW119652   4.108   1.614   7.483  0.3511  0.3318 -1.4753
 2673SOL    HW219653   4.113   1.758   7.457  1.6023  2.1184 -0.1589
 2674SOL     OW19654   0.776   1.898   3.213 -0.2415  0.0619 -0.0516
 2674SOL    HW119655   0.865   1.931   3.222 -0.1213 -0.2270 -0.2035
 2674SOL    HW219656   0.748   1.938   3.130 -1.1235 -1.8451 -0.6684
 2675SOL     OW19657   4.421   4.272   4.114 -0.2805 -0.0913 -0.1065
 2675SOL    HW119658   4.330   4.301   4.115 -0.3004 -0.1292 -0.6773
 2675SOL    HW219659   4.419   4.212   4.040 -1.1400  1.8448 -1.6616
 2676SOL     OW19660   3.565   1.748   5.134 -0.6128  0.2959  0.0304
 2676SOL    HW119661   3.546   1.654   5.125 -0.9707  0.4346 -0.7199
 2676SOL    HW219662   3.660   1.743   5.145 -0.6616 -2.7463 -0.7519
 2677SOL     OW19663   2.183   3.994   3.953 -0.2009  0.3611 -0.1853
 2677SOL    HW119664   2.134   3.930   3.901 -3.3567  0.9887  2.0138
 2677SOL    HW219665   2.274   3.973   3.932 -0.5542 -0.0136 -1.3496
 2678SOL     OW19666   0.576   0.222   3.504 -0.3238 -0.0164  0.0169
 2678SOL    HW119667   0.547   0.136   3.533 -2.2541  0.9709  0.9747
 2678SOL    HW219668   0.505   0.280   3.530  0.1632  0.1193  1.0301
 2679SOL     OW19669   2.079   0.346   3.286 -0.0982  0.8669 -0.6112
 2679SOL    HW119670   2.006   0.315   3.232 -0.4765 -0.0748  0.4445
 2679SOL    HW219671   2.028   0.384   3.357  1.0616 -0.6401  1.0029
 2680SOL     OW19672   3.790   0.496   9.308 -0.4735  0.4275  0.7449
 2680SOL    HW119673   3.843   0.424   9.273 -1.4117  1.0613 -1.9481
 2680SOL    HW219674   3.750   0.530   9.228 -0.1921  0.0728  0.4521
 2681SOL     OW19675   2.121   0.109  13.637 -0.4000 -0.2300  0.2621
 2681SOL    HW119676   2.102   0.108  13.543  0.0882  1.5822  0.1534
 2681SOL    HW219677   2.031   0.093  13.665  0.0800 -1.1510  1.2673
 2682SOL     OW19678   2.274   0.745   4.657 -0.0492  0.0168  0.4470
 2682SOL    HW119679   2.347   0.789   4.614  0.8996 -0.5656  1.4563
 2682SOL    HW219680   2.314   0.662   4.684 -2.0393 -1.3298 -0.7973
 2683SOL     OW19681   2.561   0.096   7.778  0.3393  0.2317  0.0870
 2683SOL    HW119682   2.655   0.102   7.762  0.2034  0.7454 -0.5222
 2683SOL    HW219683   2.542   0.063   7.866 -1.7078  0.0611 -0.4207
 2684SOL     OW19684   2.925   4.047   2.525 -0.0991 -0.0853 -0.4857
 2684SOL    HW119685   3.011   4.013   2.551 -0.1902  1.3242  1.6552
 2684SOL    HW219686   2.923   4.019   2.434 -2.0617  0.9750 -0.7576
 2685SOL     OW19687   0.162   4.567   3.482  0.2304  0.2251  0.1846
 2685SOL    HW119688   0.153   4.589   3.390  0.7725 -2.5229 -0.5159
 2685SOL    HW219689   0.072   4.572   3.514  1.1892  1.0453  2.8196
 2686SOL     OW19690   4.019   4.163  17.293  0.1160 -0.4194 -0.1786
 2686SOL    HW119691   4.015   4.257  17.311  2.2440 -0.5943  1.2276
 2686SOL    HW219692   4.084   4.160  17.223  0.9906 -2.5277  0.6967
 2687SOL     OW19693   4.217   1.433   4.385 -0.5216 -0.2883 -0.1460
 2687SOL    HW119694   4.275   1.417   4.310  0.8011  1.0867  0.5800
 2687SOL    HW219695   4.219   1.528   4.393  0.7403 -0.1691 -1.8118
 2688SOL     OW19696   0.129   0.134   8.864  0.0045 -0.0305  0.7056
 2688SOL    HW119697   0.142   0.046   8.900 -0.1853 -0.0444  0.7412
 2688SOL    HW219698   0.099   0.179   8.943 -1.1951 -0.6334  0.6061
 2689SOL     OW19699   4.210   1.038   1.465  0.5484  0.4821 -0.0984
 2689SOL    HW119700   4.295   1.001   1.490 -0.7280 -1.2703  1.6224
 2689SOL    HW219701   4.178   1.053   1.553  1.7846  0.6293  0.3327
 2690SOL     OW19702   0.700   0.168   2.763 -0.1087 -0.3570  0.2010
 2690SOL    HW119703   0.784   0.123   2.755  0.8787  1.6266 -0.8324
 2690SOL    HW219704   0.693   0.162   2.859  1.0707 -1.9506  0.1691
 2691SOL     OW19705   0.956   4.169  14.777  0.3611  0.2897 -1.3748
 2691SOL    HW119706   0.973   4.247  14.724  0.6347  1.4694  0.4242
 2691SOL    HW219707   1.032   4.118  14.749  1.5500  0.2595  1.8531
 2692SOL     OW19708   2.984   0.994   9.371  0.0258 -0.1930 -0.1911
 2692SOL    HW119709   2.973   1.060   9.302  0.9217  0.4896  0.3328
 2692SOL    HW219710   2.959   0.916   9.320 -2.2736 -0.6839  1.7213
 2693SOL     OW19711   1.062   0.392   5.209 -0.0941  1.4673  0.2040
 2693SOL    HW119712   0.984   0.335   5.210 -0.2278  1.6596  0.4728
 2693SOL    HW219713   1.024   0.466   5.162  3.0025  3.0365  0.2190
 2694SOL     OW19714   4.365   2.261  11.248  0.9666  0.4025  0.5651
 2694SOL    HW119715   4.358   2.354  11.269 -1.9670  0.2504  0.2562
 2694SOL    HW219716   4.431   2.262  11.179  0.3613 -2.4187 -0.0704
 2695SOL     OW19717   2.967   2.947  16.729  0.6372 -0.2916 -0.4835
 2695SOL    HW119718   2.915   3.024  16.752 -0.0691 -0.4322 -1.6295
 2695SOL    HW219719   3.038   2.983  16.675  0.1264  1.2262 -0.1355
 2696SOL     OW19720   2.881   4.197  17.013  0.2119 -0.1888  0.3487
 2696SOL    HW119721   2.904   4.106  16.992 -1.3701 -0.0722 -1.8858
 2696SOL    HW219722   2.804   4.184  17.068  0.1617 -1.4182 -0.0069
 2697SOL     OW19723   2.621   2.995   7.320 -0.4475  0.5557  0.5937
 2697SOL    HW119724   2.700   3.009   7.373 -0.0174 -0.3947  0.2069
 2697SOL    HW219725   2.552   3.041   7.368 -1.0978  0.5107 -0.2953
 2698SOL     OW19726   1.861   0.441   7.134 -0.3435  0.4960 -0.0646
 2698SOL    HW119727   1.826   0.457   7.046 -0.1110 -2.8528 -0.7748
 2698SOL    HW219728   1.790   0.483   7.181 -1.8591 -0.7551 -1.2476
 2699SOL     OW19729   1.494   4.739   6.252 -0.8261  0.2312  0.6434
 2699SOL    HW119730   1.434   4.667   6.264 -0.1953 -0.5978 -1.1264
 2699SOL    HW219731   1.570   4.713   6.304  0.8624  2.3100 -0.7446
 2700SOL     OW19732   4.729   0.034   7.809  0.0560  0.6465  0.3319
 2700SOL    HW119733   4.682   4.709   7.862 -0.1633  0.0611 -0.5759
 2700SOL    HW219734   0.000   4.732   7.723  0.0266  2.4266 -0.5409
 2701SOL     OW19735   0.705   0.424   6.638  0.5131  0.2972  0.3250
 2701SOL    HW119736   0.770   0.488   6.609  0.6240  0.4315  0.8731
 2701SOL    HW219737   0.640   0.479   6.681 -1.9232 -2.2442 -0.1226
 2702SOL     OW19738   4.340   3.731  11.963  0.4237 -0.3613  0.3684
 2702SOL    HW119739   4.249   3.735  11.994  0.5997 -1.0189  0.9697
 2702SOL    HW219740   4.329   3.799  11.897 -0.1724 -1.3513 -0.5527
 2703SOL     OW19741   2.777   2.094  11.602  0.0426  0.3943  0.3603
 2703SOL    HW119742   2.753   2.167  11.659 -0.9378 -0.1177  0.5998
 2703SOL    HW219743   2.871   2.090  11.620  0.3541  0.8860 -1.1264
 2704SOL     OW19744   3.437   2.729   8.973 -0.0851  0.1692  0.1960
 2704SOL    HW119745   3.470   2.792   8.909  1.5599 -0.6873  0.1889
 2704SOL    HW219746   3.518   2.679   8.985  0.8152  1.0189 -2.4328
 2705SOL     OW19747   0.143   2.561   2.948 -0.0333  0.5026 -0.2057
 2705SOL    HW119748   0.157   2.631   3.012 -1.3432 -0.0055  0.6335
 2705SOL    HW219749   0.056   2.528   2.972  0.1641  1.7027  2.2075
 2706SOL     OW19750   1.124   3.614   5.053 -0.3589  0.0498 -0.1020
 2706SOL    HW119751   1.112   3.674   5.127  0.2130 -0.0836  0.1034
 2706SOL    HW219752   1.160   3.680   4.993  1.0268 -0.4132  0.2074
 2707SOL     OW19753   3.302   3.021   3.082  0.7889  0.7452  0.1419
 2707SOL    HW119754   3.267   3.108   3.104 -1.4709  0.0486 -0.6948
 2707SOL    HW219755   3.234   2.956   3.097  2.4173 -0.6774  1.2642
 2708SOL     OW19756   4.359   3.868   8.621  0.7453  0.3091 -0.2953
 2708SOL    HW119757   4.267   3.856   8.596  0.6263  0.6648 -0.0246
 2708SOL    HW219758   4.357   3.963   8.620  0.1477  0.2856 -1.7399
 2709SOL     OW19759   0.110   2.943  11.608 -0.2166 -0.2050 -0.0986
 2709SOL    HW119760   0.116   3.008  11.538  1.2845 -1.4818 -1.1594
 2709SOL    HW219761   0.197   2.904  11.611  0.3391  1.1539  1.4300
 2710SOL     OW19762   4.363   0.921   4.700  0.6765 -1.3356 -0.2441
 2710SOL    HW119763   4.292   0.983   4.682  1.3810 -0.3809  0.2638
 2710SOL    HW219764   4.411   0.967   4.768  0.7718 -2.6676  0.5868
 2711SOL     OW19765   1.313   1.088  10.407 -0.4246  0.6127  0.0844
 2711SOL    HW119766   1.378   1.031  10.448 -2.1891 -2.1962 -1.0371
 2711SOL    HW219767   1.248   1.093  10.477 -3.0575 -0.9926 -2.2256
 2712SOL     OW19768   1.328   0.362   8.112 -0.2838 -0.3110  0.0355
 2712SOL    HW119769   1.422   0.379   8.117 -0.6297  0.6132  3.5555
 2712SOL    HW219770   1.292   0.447   8.138 -1.5338 -0.9377  0.3489
 2713SOL     OW19771   1.821   3.775   4.241 -0.0332  0.2172 -0.0605
 2713SOL    HW119772   1.788   3.733   4.320 -1.0693 -1.0949 -1.2036
 2713SOL    HW219773   1.915   3.780   4.260  0.1023 -0.1677 -0.6150
 2714SOL     OW19774   2.374   3.642   5.283 -0.1424 -0.3040  0.0612
 2714SOL    HW119775   2.449   3.654   5.341  3.2661  0.1063 -4.4048
 2714SOL    HW219776   2.384   3.557   5.240 -0.3430  0.2905 -1.1491
 2715SOL     OW19777   2.356   1.371   3.637 -0.6842  0.2970  0.6310
 2715SOL    HW119778   2.351   1.356   3.542 -2.8981  0.4840  0.7074
 2715SOL    HW219779   2.423   1.313   3.673 -1.6096 -1.9107 -1.1793
 2716SOL     OW19780   1.103   0.570   4.607 -0.1817 -0.4717  0.1691
 2716SOL    HW119781   1.155   0.491   4.623  0.0547 -0.1614  0.9199
 2716SOL    HW219782   1.014   0.534   4.606  0.0900 -1.2081  1.8077
 2717SOL     OW19783   3.472   3.036   8.260  0.9512 -0.4729 -0.4579
 2717SOL    HW119784   3.490   3.129   8.267  1.3829 -0.6586  0.8340
 2717SOL    HW219785   3.542   2.988   8.304  1.0525  1.4856  1.5067
 2718SOL     OW19786   0.762   1.364   6.826 -0.7038 -0.5000  0.1677
 2718SOL    HW119787   0.781   1.443   6.876  1.9331 -0.4550 -0.9173
 2718SOL    HW219788   0.679   1.393   6.788  0.8785  3.6059 -0.1383
 2719SOL     OW19789   2.566   2.901  14.060  0.6046  0.7922  0.4256
 2719SOL    HW119790   2.597   2.874  13.973 -0.7104  1.0973 -0.1377
 2719SOL    HW219791   2.472   2.910  14.045  1.0474  1.0420 -2.2136
 2720SOL     OW19792   1.720   1.026  12.276 -0.2411  0.1524 -0.1864
 2720SOL    HW119793   1.752   1.001  12.363  0.8651 -1.2841 -1.0131
 2720SOL    HW219794   1.697   1.118  12.293 -1.2729 -0.5198  2.1347
 2721SOL     OW19795   0.578   0.461  16.325 -0.1088  0.1139 -0.2155
 2721SOL    HW119796   0.485   0.436  16.327 -0.0691  0.1781  2.4878
 2721SOL    HW219797   0.582   0.555  16.343 -1.0873  0.0489  0.3708
 2722SOL     OW19798   2.265   3.659   3.956  0.4106  0.3510  0.0888
 2722SOL    HW119799   2.302   3.743   3.982  2.5898 -0.0180 -1.7825
 2722SOL    HW219800   2.336   3.632   3.897 -1.5749 -1.2023 -1.5796
 2723SOL     OW19801   1.742   2.874   1.254 -0.1733 -0.3837  0.2439
 2723SOL    HW119802   1.655   2.877   1.214 -0.1714  0.9034  0.3270
 2723SOL    HW219803   1.721   2.929   1.330  0.6662 -0.3906  0.4739
 2724SOL     OW19804   1.850   2.957   2.599 -0.2547  0.2937 -0.1102
 2724SOL    HW119805   1.825   2.990   2.685  0.1080  2.1756 -0.7207
 2724SOL    HW219806   1.884   3.035   2.555  3.0679 -2.6697 -2.7955
 2725SOL     OW19807   4.707   4.535   8.411  0.3457 -0.4220 -0.1343
 2725SOL    HW119808   4.717   4.619   8.366 -0.4003 -0.8889 -1.1657
 2725SOL    HW219809   0.058   4.512   8.432  0.4206  0.2461  0.2855
 2726SOL     OW19810   0.127   0.973  11.577 -0.6521 -0.1183 -0.6004
 2726SOL    HW119811   0.148   0.990  11.485  1.5799  0.2392 -0.0178
 2726SOL    HW219812   0.209   1.005  11.613 -0.3189 -1.2386 -0.3860
 2727SOL     OW19813   1.146   2.018   6.048 -0.1272  0.1194 -0.2764
 2727SOL    HW119814   1.095   2.018   6.129 -0.3117 -1.0836 -0.3896
 2727SOL    HW219815   1.086   1.960   6.002  0.1517  0.4589 -1.0539
 2728SOL     OW19816   1.638   1.426   3.788  0.4927 -0.5749 -0.4005
 2728SOL    HW119817   1.586   1.354   3.751  1.3153 -0.5955 -1.4965
 2728SOL    HW219818   1.679   1.459   3.709  0.9148 -0.8238 -0.2827
 2729SOL     OW19819   0.307   4.087   0.333 -0.9189  0.1697 -0.0992
 2729SOL    HW119820   0.371   4.017   0.327  1.2535  2.2344 -1.2430
 2729SOL    HW219821   0.247   4.032   0.283  0.9407 -0.5977 -1.5067
 2730SOL     OW19822   1.565   4.587   5.664 -0.0793  0.4310  0.3100
 2730SOL    HW119823   1.507   4.646   5.712  0.2247  0.5812  0.4993
 2730SOL    HW219824   1.554   4.510   5.719  2.0740 -0.7886 -0.9702
 2731SOL     OW19825   2.031   0.877   0.205  0.1905  0.0106 -0.5527
 2731SOL    HW119826   1.960   0.831   0.160 -0.0285 -1.2733  1.0562
 2731SOL    HW219827   2.089   0.800   0.202 -2.6463 -2.2093  0.9250
 2732SOL     OW19828   2.498   0.830  15.957  1.2582  0.7642  0.1967
 2732SOL    HW119829   2.539   0.744  15.951  2.4781  1.2846  0.9010
 2732SOL    HW219830   2.497   0.853  15.864 -2.2189 -1.2792 -0.2759
 2733SOL     OW19831   4.505   1.545  12.337  0.3234  0.1922 -0.1675
 2733SOL    HW119832   4.444   1.475  12.363 -0.2499  1.6680  2.4284
 2733SOL    HW219833   4.554   1.568  12.416 -0.8859 -2.0182  1.2206
 2734SOL     OW19834   3.182   2.127   2.890  0.3482  0.6772  0.0327
 2734SOL    HW119835   3.101   2.109   2.937 -0.3177  0.2151 -1.3014
 2734SOL    HW219836   3.160   2.205   2.840  1.0416  1.9040  1.6341
 2735SOL     OW19837   0.638   4.218   2.588 -0.2261  0.0952 -0.6032
 2735SOL    HW119838   0.667   4.303   2.556 -2.1909  0.8767 -0.2937
 2735SOL    HW219839   0.673   4.209   2.676  0.4372  0.4853 -0.8281
 2736SOL     OW19840   4.603   2.756   5.560 -0.2141 -0.5172 -0.3366
 2736SOL    HW119841   4.676   2.714   5.514  2.4453  0.5509  2.8554
 2736SOL    HW219842   4.613   2.846   5.529 -0.0977 -1.0731 -1.8924
 2737SOL     OW19843   1.042   4.478  11.384  0.3605  0.0966 -0.0213
 2737SOL    HW119844   1.091   4.407  11.428  1.9349  0.3879 -1.2975
 2737SOL    HW219845   1.004   4.430  11.311  1.7500 -1.6462  0.3995
 2738SOL     OW19846   3.858   1.165   2.590  0.3585  0.1206 -0.6036
 2738SOL    HW119847   3.776   1.211   2.573 -0.3126 -0.5600  0.7821
 2738SOL    HW219848   3.881   1.104   2.520  1.2491  0.2007 -0.3836
 2739SOL     OW19849   0.542   1.254   3.781  0.1311 -0.2165 -0.2135
 2739SOL    HW119850   0.601   1.224   3.712  1.3446  0.1143  0.6692
 2739SOL    HW219851   0.557   1.348   3.769 -1.5931 -0.0597 -1.0373
 2740SOL     OW19852   0.966   0.040   7.161 -0.1318 -0.4007  0.6931
 2740SOL    HW119853   0.912   0.117   7.181  1.7778  0.7263  1.4909
 2740SOL    HW219854   1.019   0.092   7.101 -1.2544  0.3816  0.3677
 2741SOL     OW19855   3.276   2.493   5.325  0.2960 -0.5645  0.5594
 2741SOL    HW119856   3.239   2.496   5.414 -0.1882 -0.1065  0.3431
 2741SOL    HW219857   3.310   2.404   5.318  0.1926 -0.5439 -0.2363
 2742SOL     OW19858   1.015   1.985   8.251  0.3806 -0.2913  0.4763
 2742SOL    HW119859   0.961   1.960   8.176 -0.1982  0.8288  0.5148
 2742SOL    HW219860   0.979   1.938   8.327 -0.4059  2.2075  1.6665
 2743SOL     OW19861   1.303   0.991  14.989 -0.0658 -0.1047 -0.3578
 2743SOL    HW119862   1.247   1.046  15.044 -2.3783 -2.7589 -0.0734
 2743SOL    HW219863   1.372   0.963  15.051  0.3751 -0.7232 -1.1323
 2744SOL     OW19864   0.059   3.534   6.422  0.0623  0.2743 -0.0790
 2744SOL    HW119865   0.030   3.443   6.436 -1.7433  0.8189 -0.3651
 2744SOL    HW219866   0.152   3.519   6.436 -0.6135 -4.5616 -0.6867
 2745SOL     OW19867   2.610   4.433   6.390 -0.3160  0.4799 -0.1239
 2745SOL    HW119868   2.545   4.465   6.329 -0.2647  0.3037 -0.2715
 2745SOL    HW219869   2.604   4.503   6.455  0.8346  0.9563 -0.5347
 2746SOL     OW19870   2.086   2.230   2.377 -0.0150 -0.0233  0.4135
 2746SOL    HW119871   2.168   2.279   2.388 -0.2048  0.1404  1.0912
 2746SOL    HW219872   2.035   2.306   2.349  1.0455  0.3285 -0.5670
 2747SOL     OW19873   2.320   2.359   6.697  0.0717  0.4975 -0.2817
 2747SOL    HW119874   2.324   2.454   6.690  2.2813  0.5404  1.5973
 2747SOL    HW219875   2.410   2.340   6.725  0.6588  0.3164 -2.3247
 2748SOL     OW19876   3.322   1.179   6.206 -0.3311  0.1760 -0.3382
 2748SOL    HW119877   3.286   1.242   6.268  0.4068  0.3053 -0.0323
 2748SOL    HW219878   3.361   1.239   6.142 -2.6357  0.8186 -1.1183
 2749SOL     OW19879   4.065   2.288   8.772  0.0271 -0.0550  0.2227
 2749SOL    HW119880   4.116   2.231   8.830 -0.9473 -2.0180 -0.8641
 2749SOL    HW219881   4.009   2.332   8.836  0.6229  1.0786 -0.0416
 2750SOL     OW19882   4.141   3.595   8.759  0.0476 -0.1232  0.1273
 2750SOL    HW119883   4.218   3.595   8.817  0.0317  1.8871  0.1630
 2750SOL    HW219884   4.076   3.568   8.823 -1.0120  0.4137 -0.7203
 2751SOL     OW19885   1.398   2.007  17.190 -0.2091 -0.8964  0.3637
 2751SOL    HW119886   1.308   2.013  17.160  0.5783  1.1033 -1.5780
 2751SOL    HW219887   1.396   2.050  17.276 -2.4628  0.5558 -0.4388
 2752SOL     OW19888   0.956   1.861   5.366  0.5507 -0.0121 -0.5847
 2752SOL    HW119889   1.025   1.902   5.419 -1.3945 -0.5801  2.4169
 2752SOL    HW219890   1.002   1.818   5.294 -1.3100  0.4251 -2.0295
 2753SOL     OW19891   3.329   3.787  13.210  0.0027 -0.3398  0.4805
 2753SOL    HW119892   3.415   3.770  13.249  0.2475 -1.1710 -0.4370
 2753SOL    HW219893   3.311   3.865  13.263 -1.2626 -0.9328  0.9232
 2754SOL     OW19894   2.171   2.104  15.229 -0.1448  0.3328 -0.1916
 2754SOL    HW119895   2.137   2.054  15.155 -1.6764  0.1639  0.6041
 2754SOL    HW219896   2.205   2.037  15.289 -1.0684 -1.3357 -1.5551
 2755SOL     OW19897   4.102   0.852   5.817 -0.4920 -0.0913  0.3873
 2755SOL    HW119898   4.074   0.833   5.728 -1.2292 -3.6541  1.3939
 2755SOL    HW219899   4.155   0.930   5.803 -1.3114  0.4504  0.3045
 2756SOL     OW19900   2.367   2.453   1.251  0.1448 -0.5622 -0.1513
 2756SOL    HW119901   2.378   2.380   1.311 -1.1793 -0.0661  0.6785
 2756SOL    HW219902   2.443   2.503   1.279  0.7720 -1.6339  0.0639
 2757SOL     OW19903   2.777   2.653   2.562 -0.1822  0.4344 -0.4299
 2757SOL    HW119904   2.752   2.738   2.597  0.4564 -0.1378  1.3990
 2757SOL    HW219905   2.870   2.666   2.543  0.7728 -0.5803  3.5557
 2758SOL     OW19906   1.592   2.381  16.865  0.1873  0.4713  0.2519
 2758SOL    HW119907   1.558   2.329  16.938 -2.7273  2.2692  0.1775
 2758SOL    HW219908   1.680   2.343  16.854  0.7396  2.0252 -0.7536
 2759SOL     OW19909   2.683   0.155   4.295  0.4128  0.4704  0.2670
 2759SOL    HW119910   2.691   0.157   4.390 -1.2397  0.4575  0.4056
 2759SOL    HW219911   2.772   0.175   4.265  0.7707  0.0144  1.0282
 2760SOL     OW19912   2.181   2.330  15.521  0.3635  0.1723 -0.3360
 2760SOL    HW119913   2.261   2.313  15.471  1.8548  1.5120  1.6134
 2760SOL    HW219914   2.191   2.258  15.584  0.9774  0.4342 -0.1318
 2761SOL     OW19915   1.698   2.773   4.589  0.1572 -0.4232 -0.1874
 2761SOL    HW119916   1.690   2.782   4.494 -2.4238 -0.7903 -0.0260
 2761SOL    HW219917   1.726   2.683   4.606 -0.2350 -0.8822 -2.0281
 2762SOL     OW19918   3.330   0.926  12.638 -0.5724  0.0992  0.1490
 2762SOL    HW119919   3.345   0.880  12.721  2.8502 -2.5777 -1.9278
 2762SOL    HW219920   3.251   0.880  12.608  0.2937 -0.8743 -0.6510
 2763SOL     OW19921   0.432   2.659   1.725  0.2957 -0.4368  0.1245
 2763SOL    HW119922   0.509   2.603   1.712  0.6881  0.5898 -1.9045
 2763SOL    HW219923   0.389   2.619   1.801  1.1569  0.6913  1.2143
 2764SOL     OW19924   2.261   3.407   8.890 -0.3552 -0.5443 -0.0249
 2764SOL    HW119925   2.298   3.323   8.862  0.2709 -0.1318 -0.4482
 2764SOL    HW219926   2.335   3.442   8.939  2.2944 -1.2148 -3.5395
 2765SOL     OW19927   2.733   2.578   4.230  0.5220 -0.4703  0.2345
 2765SOL    HW119928   2.820   2.578   4.270  0.5804 -1.0296  0.1066
 2765SOL    HW219929   2.678   2.580   4.308 -0.8182  1.7450 -0.7670
 2766SOL     OW19930   4.327   1.435   7.427 -0.0921 -0.6708  0.0482
 2766SOL    HW119931   4.240   1.411   7.461  0.1534  0.2009  1.2811
 2766SOL    HW219932   4.372   1.355   7.455  0.1185 -0.1930  1.0632
 2767SOL     OW19933   1.860   2.382  10.043 -0.1698 -0.1974 -0.1706
 2767SOL    HW119934   1.866   2.297  10.087 -0.7838 -0.5469 -0.7776
 2767SOL    HW219935   1.929   2.424  10.095 -0.6173  1.4077 -0.8800
 2768SOL     OW19936   3.810   0.999   5.266  0.9132  0.7295  0.2879
 2768SOL    HW119937   3.904   0.985   5.282  0.9980  1.4197  0.3836
 2768SOL    HW219938   3.781   1.029   5.352 -3.0731  0.8412 -1.0895
 2769SOL     OW19939   2.966   4.199   9.615  0.5002 -0.1894  0.1155
 2769SOL    HW119940   3.012   4.115   9.610 -0.1638 -0.4638 -1.6827
 2769SOL    HW219941   3.038   4.261   9.616  1.1435 -0.9352  0.1541
 2770SOL     OW19942   0.801   4.534   4.857 -0.5995 -0.1947 -0.0053
 2770SOL    HW119943   0.765   4.461   4.907  2.9821 -2.7593 -1.2040
 2770SOL    HW219944   0.766   4.609   4.906 -0.0243 -0.5914  1.0017
 2771SOL     OW19945   2.485   0.919   9.069  0.2475 -0.2218  0.0271
 2771SOL    HW119946   2.417   0.948   9.131 -0.0876 -1.9640  0.4624
 2771SOL    HW219947   2.447   0.850   9.014  0.2960  0.5123 -0.9261
 2772SOL     OW19948   0.532   4.018   3.714  0.7537 -0.3217 -0.0899
 2772SOL    HW119949   0.599   4.049   3.775 -0.9719  1.9625  0.6358
 2772SOL    HW219950   0.476   4.096   3.712 -0.2467 -1.0154  0.6361
 2773SOL     OW19951   3.986   4.505   6.536  0.5431  0.3112  0.0647
 2773SOL    HW119952   3.985   4.433   6.599  1.2287  0.7956  0.6287
 2773SOL    HW219953   4.006   4.574   6.600 -2.2412  0.9972  0.1778
 2774SOL     OW19954   2.893   0.790   2.470 -0.3665  0.0971 -0.2705
 2774SOL    HW119955   2.987   0.777   2.461 -0.4332 -0.4858 -0.1228
 2774SOL    HW219956   2.890   0.882   2.496 -0.5876  0.0667 -0.1863
 2775SOL     OW19957   3.171   2.413   3.075  0.2739 -0.3475 -0.2437
 2775SOL    HW119958   3.265   2.411   3.090  0.0640  0.0397  1.0616
 2775SOL    HW219959   3.148   2.506   3.080 -1.9207 -0.8334 -1.1096
 2776SOL     OW19960   1.599   2.076   6.730 -0.3807 -0.7934  0.1616
 2776SOL    HW119961   1.531   2.115   6.675  1.7871  2.6000 -0.1818
 2776SOL    HW219962   1.618   1.997   6.680 -0.0350 -1.9933  2.1870
 2777SOL     OW19963   1.685   1.519   6.558 -0.1577 -0.0752 -0.1057
 2777SOL    HW119964   1.707   1.495   6.468  0.7579  2.1332 -0.4565
 2777SOL    HW219965   1.592   1.497   6.553 -0.5471  1.4752  0.2612
 2778SOL     OW19966   0.071   1.658   9.931 -0.0343 -0.4611  0.1722
 2778SOL    HW119967   0.011   1.706   9.875 -0.2575 -3.0256 -1.8144
 2778SOL    HW219968   0.155   1.681   9.892 -0.6870 -0.3216 -1.1459
 2779SOL     OW19969   0.164   3.801  17.280  0.1186  0.0367  0.0750
 2779SOL    HW119970   0.199   3.887  17.256 -1.9926  1.1360  0.9157
 2779SOL    HW219971   0.239   3.754  17.315 -1.4159 -1.4411  1.3747
 2780SOL     OW19972   3.198   0.628   5.572 -0.3689  0.5325 -0.9699
 2780SOL    HW119973   3.274   0.644   5.628  2.1069  0.7516 -4.3569
 2780SOL    HW219974   3.127   0.632   5.635 -0.8866 -0.7608 -1.4620
 2781SOL     OW19975   2.673   0.268   5.882 -0.3589 -0.2385  0.2326
 2781SOL    HW119976   2.650   0.175   5.872 -0.3789 -0.2832  0.6848
 2781SOL    HW219977   2.755   0.262   5.833 -0.0366 -1.6380  0.9491
 2782SOL     OW19978   2.375   4.585   3.527 -0.2282  0.2898  0.1783
 2782SOL    HW119979   2.415   4.656   3.578 -0.0011 -0.1850  0.6666
 2782SOL    HW219980   2.357   4.637   3.449  0.2332  1.5543  0.9064
 2783SOL     OW19981   0.853   0.088   1.551  0.4240  0.2138 -0.2412
 2783SOL    HW119982   0.787   0.021   1.533  1.0066 -0.5171  0.3477
 2783SOL    HW219983   0.921   0.034   1.591 -0.0857 -0.6257 -0.5079
 2784SOL     OW19984   1.645   0.330   4.571 -0.3022  0.2955  0.3257
 2784SOL    HW119985   1.740   0.345   4.566 -0.4028  0.4111 -1.4563
 2784SOL    HW219986   1.641   0.302   4.479  0.4643  1.7132 -0.1304
 2785SOL     OW19987   3.773   3.790   9.708 -0.2963  0.0819 -0.4381
 2785SOL    HW119988   3.848   3.825   9.661 -0.7714  1.7259  0.0279
 2785SOL    HW219989   3.715   3.862   9.734 -0.2900 -0.1658  0.2408
 2786SOL     OW19990   2.777   2.826  11.045  0.4322 -0.2438 -0.4203
 2786SOL    HW119991   2.716   2.752  11.039  0.3693 -0.2475  0.3030
 2786SOL    HW219992   2.824   2.807  11.126 -2.8110  1.0956  1.7685
 2787SOL     OW19993   0.364   2.375   5.163  0.3603  0.7183 -0.1837
 2787SOL    HW119994   0.449   2.335   5.180  1.0479  1.9431 -0.7818
 2787SOL    HW219995   0.354   2.377   5.068  0.1286  0.1582 -0.1736
 2788SOL     OW19996   4.361   3.395  10.778  0.3445 -0.2759  0.3237
 2788SOL    HW119997   4.433   3.457  10.790 -0.6337  1.5613 -3.5134
 2788SOL    HW219998   4.351   3.356  10.865 -0.0382  0.3901  0.5849
 2789SOL     OW19999   3.077   4.041   6.225  0.4546  0.0116 -0.1658
 2789SOL    HW120000   2.995   4.030   6.274  0.8326  0.1855  0.4950
 2789SOL    HW220001   3.126   4.108   6.272 -1.5767  0.6583  1.0158
 2790SOL     OW20002   2.392   1.326   4.291  0.3093  0.3024  0.0774
 2790SOL    HW120003   2.377   1.397   4.229  0.8306  0.1062 -0.2785
 2790SOL    HW220004   2.405   1.248   4.236  1.1140  0.5252 -0.0584
 2791SOL     OW20005   1.631   2.582   5.308  0.1694  0.7186 -0.0387
 2791SOL    HW120006   1.664   2.644   5.374 -1.1270  1.5649 -0.1866
 2791SOL    HW220007   1.661   2.631   5.231 -2.2758 -0.2637 -1.5966
 2792SOL     OW20008   2.145   1.617   7.292  0.3202  0.4483 -0.1540
 2792SOL    HW120009   2.085   1.576   7.230  3.7452 -0.4500 -2.9018
 2792SOL    HW220010   2.087   1.682   7.332 -1.3264  0.1917 -2.1420
 2793SOL     OW20011   3.457   2.294   6.402  0.1761 -0.2435 -0.3304
 2793SOL    HW120012   3.430   2.268   6.314 -0.3181 -0.0499 -0.2341
 2793SOL    HW220013   3.458   2.211   6.449 -0.5019  0.0772  0.2549
 2794SOL     OW20014   1.655   1.937   0.028 -0.0706  0.1108 -0.1526
 2794SOL    HW120015   1.581   1.899   0.077  1.1063 -0.0083  1.5255
 2794SOL    HW220016   1.720   1.964   0.093  0.2775 -0.5153 -0.2373
 2795SOL     OW20017   3.328   0.162  16.990 -0.2250 -0.0773 -0.0791
 2795SOL    HW120018   3.284   0.233  17.036  3.2027  0.8800  1.7157
 2795SOL    HW220019   3.381   0.128  17.063 -0.7047 -0.7599 -0.0464
 2796SOL     OW20020   3.559   2.994   7.785  0.3361  0.2645 -0.5942
 2796SOL    HW120021   3.581   2.946   7.865 -0.0712  2.6215  0.9354
 2796SOL    HW220022   3.642   2.985   7.738  0.7345 -2.1458  0.5352
 2797SOL     OW20023   2.242   1.639   6.058  0.0134  0.1702  0.3542
 2797SOL    HW120024   2.315   1.602   6.108 -0.2964 -0.4680  0.3245
 2797SOL    HW220025   2.171   1.603   6.112  3.1300 -0.7448  3.8252
 2798SOL     OW20026   2.847   4.626   2.964  0.2486 -0.4471  0.0618
 2798SOL    HW120027   2.863   4.686   2.891 -3.0069 -1.1339 -1.2020
 2798SOL    HW220028   2.756   4.645   2.985  0.7895  0.0733  1.9154
 2799SOL     OW20029   2.377   0.690   7.189 -0.0616  0.1569  0.1735
 2799SOL    HW120030   2.289   0.727   7.200  0.1410  1.0065 -1.1537
 2799SOL    HW220031   2.388   0.676   7.095  1.8796  1.9156  0.1392
 2800SOL     OW20032   1.392   3.442  16.639  0.8625 -0.0199 -0.2681
 2800SOL    HW120033   1.403   3.354  16.675  1.9566  0.5786  0.8576
 2800SOL    HW220034   1.391   3.493  16.720  1.2988  0.3040 -0.4640
 2801SOL     OW20035   1.942   2.081   6.980  0.0932 -0.1710  0.0938
 2801SOL    HW120036   1.852   2.104   7.006  0.1858  0.2113  0.0760
 2801SOL    HW220037   1.929   2.035   6.897 -0.9391 -1.2341  0.8542
 2802SOL     OW20038   1.180   0.962   7.216  0.0749  0.2776 -0.2670
 2802SOL    HW120039   1.098   0.925   7.183 -0.0536  0.7811 -0.5076
 2802SOL    HW220040   1.154   0.998   7.301  1.3206 -0.8793  0.6142
 2803SOL     OW20041   4.385   0.481  17.204  0.6362 -0.3856 -0.0724
 2803SOL    HW120042   4.305   0.450  17.248  1.2439 -0.8064  0.7212
 2803SOL    HW220043   4.413   0.553  17.261 -0.7205  1.5594 -1.8369
 2804SOL     OW20044   3.235   3.329   2.933  0.9722  0.4089  0.1560
 2804SOL    HW120045   3.227   3.310   3.026 -1.2976  3.6500  0.6013
 2804SOL    HW220046   3.328   3.309   2.921  0.8960  0.2335 -0.1250
 2805SOL     OW20047   0.026   0.349  11.139 -0.1475 -0.3194 -0.3665
 2805SOL    HW120048   4.697   0.411  11.115 -1.3474 -0.2614  3.1374
 2805SOL    HW220049   0.071   0.391  11.213 -0.8065  1.6341 -1.0858
 2806SOL     OW20050   0.403   3.567  17.281  0.0861 -0.3181 -0.2568
 2806SOL    HW120051   0.399   3.579  17.186  0.9189 -0.5432 -0.3141
 2806SOL    HW220052   0.407   3.656  17.316 -2.3304  0.1070 -1.0795
 2807SOL     OW20053   2.604   3.924   8.384  0.1395  0.4182 -0.0121
 2807SOL    HW120054   2.664   3.892   8.317  0.9439  2.3970 -0.2323
 2807SOL    HW220055   2.559   3.841   8.399  2.6321 -0.7932  0.7195
 2808SOL     OW20056   1.162   1.344   1.825  0.2918  0.1138 -0.4357
 2808SOL    HW120057   1.081   1.395   1.824  0.1799  0.0883  4.0521
 2808SOL    HW220058   1.145   1.274   1.889  1.8081 -0.3916 -0.5702
 2809SOL     OW20059   3.405   2.899   4.578 -0.3189 -0.0928 -1.0386
 2809SOL    HW120060   3.431   2.986   4.606  1.2376 -1.1081  0.6828
 2809SOL    HW220061   3.325   2.926   4.533 -0.2683  0.8653 -0.5294
 2810SOL     OW20062   2.956   0.887   7.849  0.1938  0.3622  0.3735
 2810SOL    HW120063   3.017   0.879   7.775 -0.2262 -2.4520  0.3187
 2810SOL    HW220064   3.007   0.847   7.919 -1.2706 -3.6216 -0.8060
 2811SOL     OW20065   3.714   3.560   9.880 -0.6123  0.2713 -0.0153
 2811SOL    HW120066   3.717   3.608   9.797 -0.7925 -0.0536 -0.2096
 2811SOL    HW220067   3.760   3.485   9.844  0.5606  1.5267 -1.0850
 2812SOL     OW20068   2.876   2.243   0.748  0.2754 -0.6576 -0.2680
 2812SOL    HW120069   2.877   2.326   0.699 -0.4939 -1.9961 -2.5341
 2812SOL    HW220070   2.821   2.185   0.696  0.4751 -0.7052 -0.4256
 2813SOL     OW20071   2.750   1.001  10.224  0.4944  0.0089  0.1184
 2813SOL    HW120072   2.748   0.906  10.227  0.3410  0.0498  1.0882
 2813SOL    HW220073   2.840   1.025  10.205  0.8379 -0.9234  0.5929
 2814SOL     OW20074   3.037   2.722   2.519  0.7663  0.3807  0.3931
 2814SOL    HW120075   3.060   2.808   2.554 -1.9790  1.2334  0.1311
 2814SOL    HW220076   3.104   2.658   2.541  0.5535 -0.7870 -2.4133
 2815SOL     OW20077   2.595   2.708   6.509 -0.2679  0.2794 -0.0679
 2815SOL    HW120078   2.614   2.737   6.420 -0.2974  0.1218 -0.1250
 2815SOL    HW220079   2.682   2.699   6.548 -0.7090 -0.4321  0.7494
 2816SOL     OW20080   4.277   2.288   6.815 -0.7512  0.3418  0.0157
 2816SOL    HW120081   4.371   2.270   6.821 -0.8829 -0.5708 -0.8121
 2816SOL    HW220082   4.262   2.269   6.723  0.9487 -0.3974 -0.1039
 2817SOL     OW20083   2.019   2.479  12.749 -0.2032  0.1336 -0.6538
 2817SOL    HW120084   2.088   2.544  12.758 -0.5986  0.4986 -0.2244
 2817SOL    HW220085   2.049   2.430  12.673 -1.2722 -0.3709 -0.7544
 2818SOL     OW20086   1.459   2.899   2.480  0.3147 -0.0346  0.1503
 2818SOL    HW120087   1.366   2.918   2.489  0.0876 -0.7899 -0.6421
 2818SOL    HW220088   1.488   2.987   2.454 -0.6014 -0.1846 -1.3626
 2819SOL     OW20089   3.981   1.071   1.296 -0.5631 -0.2498  0.1162
 2819SOL    HW120090   3.949   0.988   1.260  0.8506 -0.8336  0.2076
 2819SOL    HW220091   4.019   1.045   1.380  0.9846  1.6945  0.0097
 2820SOL     OW20092   3.745   2.423   7.015 -0.0038  0.1791 -0.2763
 2820SOL    HW120093   3.733   2.398   7.107  3.1653 -1.6281 -0.3755
 2820SOL    HW220094   3.799   2.349   6.990  0.3619  0.2817  0.1931
 2821SOL     OW20095   0.818   1.126   6.955  0.1660 -0.7593 -0.2142
 2821SOL    HW120096   0.747   1.074   6.920  0.4578 -0.9152 -0.5737
 2821SOL    HW220097   0.791   1.218   6.946 -0.8177 -0.9230  1.2116
 2822SOL     OW20098   1.235   1.473   2.720 -0.4190 -0.2064  0.2593
 2822SOL    HW120099   1.285   1.516   2.789  1.0338  0.1996 -1.0178
 2822SOL    HW220100   1.150   1.501   2.753 -0.4230  2.0800 -1.6790
 2823SOL     OW20101   4.518   2.620   1.748  0.1445  0.3583 -0.1354
 2823SOL    HW120102   4.603   2.658   1.769 -0.1353  2.7837 -3.3437
 2823SOL    HW220103   4.549   2.538   1.708 -0.5799  1.1498 -2.3465
 2824SOL     OW20104   3.047   3.625   0.647  0.2111  0.2453  0.0530
 2824SOL    HW120105   3.006   3.701   0.606 -0.5351  0.6151  1.4687
 2824SOL    HW220106   3.028   3.553   0.588 -1.6803  0.8091 -0.0187
 2825SOL     OW20107   4.577   3.178   9.253 -0.4231  0.3376 -0.1011
 2825SOL    HW120108   4.489   3.199   9.283 -0.5218  0.5768 -0.5448
 2825SOL    HW220109   4.568   3.217   9.165 -2.3225  0.6694  0.2338
 2826SOL     OW20110   3.805   4.119   6.110 -0.1781  0.3255 -0.0627
 2826SOL    HW120111   3.716   4.088   6.092 -0.2122 -0.8165  2.0837
 2826SOL    HW220112   3.862   4.042   6.097  0.5652  1.4312 -3.3683
 2827SOL     OW20113   1.223   0.532  16.974  0.4173  0.6329 -0.1221
 2827SOL    HW120114   1.254   0.442  16.966  0.1755  0.4905  0.5869
 2827SOL    HW220115   1.290   0.567  17.032  0.5445 -0.4360  0.3824
 2828SOL     OW20116   1.697   2.436   2.466 -0.1777  0.1584  1.0071
 2828SOL    HW120117   1.717   2.348   2.496 -2.0878  0.2110  2.4507
 2828SOL    HW220118   1.677   2.484   2.547  0.1960 -0.0126  1.2006
 2829SOL     OW20119   2.695   3.591  14.239  0.6993  0.4189  0.4075
 2829SOL    HW120120   2.782   3.566  14.271  0.2312 -0.2240  1.1771
 2829SOL    HW220121   2.637   3.523  14.272 -0.2699  0.7331 -0.6626
 2830SOL     OW20122   4.022   3.217  14.571  0.3033  0.3968  0.1365
 2830SOL    HW120123   4.078   3.254  14.502  0.7869  0.9132  0.8034
 2830SOL    HW220124   4.079   3.207  14.647 -1.3223 -0.0053  1.3085
 2831SOL     OW20125   3.457   1.313  12.664  0.7651 -0.1545  0.0699
 2831SOL    HW120126   3.546   1.346  12.664  0.5103  0.5269  0.7545
 2831SOL    HW220127   3.466   1.265  12.746  0.6387  2.7608  1.8064
 2832SOL     OW20128   3.072   3.460   2.007  0.1283  0.4829  0.1258
 2832SOL    HW120129   3.124   3.522   2.058 -1.0336  1.7127 -0.1630
 2832SOL    HW220130   3.117   3.378   2.026 -1.2402 -0.4286 -0.5481
 2833SOL     OW20131   1.591   1.620   1.246  0.2568 -0.5244 -0.2321
 2833SOL    HW120132   1.507   1.664   1.262 -0.2132 -1.0031 -1.3618
 2833SOL    HW220133   1.644   1.694   1.214 -2.1127  2.0119  1.7122
 2834SOL     OW20134   1.900   4.043   8.555 -0.0157 -0.2026 -0.2181
 2834SOL    HW120135   1.889   4.043   8.650  0.3015 -1.1452 -0.1785
 2834SOL    HW220136   1.850   4.118   8.523 -0.6763 -0.9034 -0.8181
 2835SOL     OW20137   1.928   0.471   2.396  0.3479  0.1993  0.2348
 2835SOL    HW120138   1.885   0.388   2.418  1.1722  0.2045  1.8574
 2835SOL    HW220139   1.993   0.486   2.465  0.5731  3.3672 -0.6879
 2836SOL     OW20140   0.192   1.906  14.639 -0.1337 -0.4297 -0.0051
 2836SOL    HW120141   0.168   1.890  14.548  3.5962  1.0639 -1.2383
 2836SOL    HW220142   0.176   1.817  14.672 -1.6451  0.0397  0.5014
 2837SOL     OW20143   4.603   2.628  14.699  0.2740 -0.3759 -0.1871
 2837SOL    HW120144   4.576   2.699  14.758 -1.9648 -1.7593  0.4858
 2837SOL    HW220145   4.675   2.672  14.654 -0.4186 -0.0703 -0.9904
 2838SOL     OW20146   3.453   1.036   8.917 -0.0956 -0.4290  0.1575
 2838SOL    HW120147   3.511   0.961   8.928  1.4084  0.4051 -1.9970
 2838SOL    HW220148   3.465   1.097   8.990  0.2988  1.3662 -1.4108
 2839SOL     OW20149   4.608   0.738   3.716  0.0766  0.2244  0.0824
 2839SOL    HW120150   4.581   0.785   3.794 -0.9364 -0.1567 -0.0466
 2839SOL    HW220151   4.648   0.806   3.662  1.8864  1.2123  2.6542
 2840SOL     OW20152   1.044   1.096   4.397  0.0359 -0.2090  0.4211
 2840SOL    HW120153   1.091   1.014   4.412  1.6180  0.2492 -1.9466
 2840SOL    HW220154   1.113   1.156   4.425  0.3316  0.2690 -1.3036
 2841SOL     OW20155   0.720   4.489   3.645 -0.4211  0.1960 -0.2798
 2841SOL    HW120156   0.765   4.559   3.597 -2.8079  1.2388 -0.9883
 2841SOL    HW220157   0.727   4.523   3.735 -1.4948 -1.5229  0.4687
 2842SOL     OW20158   3.372   1.657   7.667 -0.6698  0.1323  0.0300
 2842SOL    HW120159   3.348   1.746   7.690  0.4711  0.3900  0.2202
 2842SOL    HW220160   3.444   1.634   7.726  0.4852  2.1879 -0.6102
 2843SOL     OW20161   4.237   1.409   2.802  0.4283  0.4964  0.6779
 2843SOL    HW120162   4.209   1.495   2.833  0.8068  1.0328 -0.4260
 2843SOL    HW220163   4.162   1.359   2.831  0.0917  0.2316 -0.6347
 2844SOL     OW20164   0.373   4.003   8.614  0.0608  0.0897  0.2225
 2844SOL    HW120165   0.407   3.940   8.678 -0.4990  0.0711  0.5051
 2844SOL    HW220166   0.336   3.944   8.549  1.1331 -1.5326  1.0838
 2845SOL     OW20167   0.863   4.276   6.185 -0.6316 -0.4370 -0.1101
 2845SOL    HW120168   0.817   4.207   6.233 -3.1340  0.6678 -0.9366
 2845SOL    HW220169   0.868   4.239   6.097 -0.3932  0.3056 -0.4090
 2846SOL     OW20170   1.921   0.186   2.129 -0.4351 -0.0059 -0.3430
 2846SOL    HW120171   1.869   0.223   2.057  0.0778  3.6292  1.1398
 2846SOL    HW220172   1.996   0.242   2.107  2.5914 -3.1451  1.8207
 2847SOL     OW20173   2.001   0.527  14.333 -0.2065  0.1625 -0.0846
 2847SOL    HW120174   2.064   0.598  14.349  1.5962 -1.2848 -0.7225
 2847SOL    HW220175   1.924   0.581  14.347  0.1459  1.2884 -2.5047
 2848SOL     OW20176   4.129   4.247   7.621  0.5421 -0.2958  0.1114
 2848SOL    HW120177   4.129   4.246   7.525  2.6272  1.1275  0.1043
 2848SOL    HW220178   4.091   4.333   7.639 -2.5882 -1.7851  0.5530
 2849SOL     OW20179   2.562   2.418   6.482  0.0386 -0.1100  0.0996
 2849SOL    HW120180   2.644   2.460   6.455  0.2557 -0.7151 -0.1840
 2849SOL    HW220181   2.540   2.476   6.555  0.6235  0.0288  0.1728
 2850SOL     OW20182   0.065   4.589   1.488  0.6230 -0.1103  0.2909
 2850SOL    HW120183   0.053   4.583   1.394 -0.0946 -2.4672  0.5346
 2850SOL    HW220184   0.150   4.633   1.489  0.5913 -0.0400 -0.1409
 2851SOL     OW20185   1.593   0.788  12.292 -0.0629 -0.3275  0.1146
 2851SOL    HW120186   1.517   0.799  12.235 -0.3607  1.1268  0.8041
 2851SOL    HW220187   1.637   0.873  12.291  2.0217 -1.3972  1.5817
 2852SOL     OW20188   0.076   2.884   4.586 -0.2750  0.0825 -0.5814
 2852SOL    HW120189   0.078   2.792   4.613  3.7501 -0.2328 -1.8642
 2852SOL    HW220190   0.094   2.934   4.665  0.2856 -1.2929  0.1771
 2853SOL     OW20191   0.940   2.060   4.516  0.1035 -0.1391  0.1540
 2853SOL    HW120192   0.977   1.975   4.538 -1.4973 -0.6423  0.9041
 2853SOL    HW220193   0.875   2.041   4.448  0.4226 -0.5313 -0.0409
 2854SOL     OW20194   0.743   1.022  11.264 -0.6759 -0.2169 -0.6942
 2854SOL    HW120195   0.763   1.099  11.318  0.7612 -0.8627 -0.3292
 2854SOL    HW220196   0.821   0.968  11.276 -0.2664  0.5631  0.1718
 2855SOL     OW20197   3.695   1.670   8.131  0.2749 -0.6655 -0.0666
 2855SOL    HW120198   3.745   1.750   8.113 -1.3032  0.0204 -1.3560
 2855SOL    HW220199   3.665   1.688   8.220  3.0333 -0.6528  0.8726
 2856SOL     OW20200   0.503   1.411   5.980 -0.1651  0.5258 -0.3507
 2856SOL    HW120201   0.442   1.376   5.916  0.4347  2.0351 -1.7376
 2856SOL    HW220202   0.554   1.472   5.927 -0.5476  0.8435 -0.3491
 2857SOL     OW20203   0.455   3.790   2.807 -0.0482  0.3347 -0.5309
 2857SOL    HW120204   0.427   3.727   2.741  0.4234  1.2322 -1.6102
 2857SOL    HW220205   0.463   3.864   2.746 -0.7929  1.6867  0.9958
 2858SOL     OW20206   3.463   2.957   5.086 -0.1679 -0.3045  0.0529
 2858SOL    HW120207   3.437   2.871   5.120  0.4617 -0.9028 -1.0002
 2858SOL    HW220208   3.433   3.018   5.154 -0.2555 -0.8379  0.4860
 2859SOL     OW20209   1.854   1.838  14.609  0.1715 -0.5094 -0.6265
 2859SOL    HW120210   1.915   1.902  14.572  0.1611 -1.7215 -2.7632
 2859SOL    HW220211   1.784   1.845  14.544 -1.0877 -0.4028  0.7497
 2860SOL     OW20212   2.473   4.119   2.286 -0.1423 -0.0005  0.0501
 2860SOL    HW120213   2.521   4.199   2.264  1.4768 -1.0568 -0.2217
 2860SOL    HW220214   2.471   4.078   2.200 -1.7491 -2.8319  1.4339
 2861SOL     OW20215   3.418   2.537   4.008 -0.6684  0.2721  0.2035
 2861SOL    HW120216   3.477   2.569   3.939 -2.9198  0.9140 -1.4040
 2861SOL    HW220217   3.435   2.599   4.079 -0.9211  2.4181 -1.5983
 2862SOL     OW20218   1.148   1.593   0.508 -0.0859  0.2493  0.0092
 2862SOL    HW120219   1.170   1.674   0.461 -0.7316  1.1586  1.2736
 2862SOL    HW220220   1.141   1.533   0.434 -1.1291 -0.3066  0.5643
 2863SOL     OW20221   3.374   0.472   6.319 -0.5278 -0.5509  0.2069
 2863SOL    HW120222   3.333   0.557   6.331 -1.2311 -0.9864  0.9714
 2863SOL    HW220223   3.315   0.413   6.366  1.8409 -0.1862  3.6128
 2864SOL     OW20224   4.550   3.390  11.040 -0.3761 -0.2775 -0.3377
 2864SOL    HW120225   4.575   3.457  10.976 -3.2048 -1.3448 -2.5267
 2864SOL    HW220226   4.617   3.411  11.105  0.5607 -1.1224 -1.0349
 2865SOL     OW20227   1.454   3.057  13.333  0.1872 -0.4056  0.3138
 2865SOL    HW120228   1.469   3.147  13.306 -0.0019 -0.3959  0.2446
 2865SOL    HW220229   1.474   3.063  13.427 -0.8631  2.6500  0.3510
 2866SOL     OW20230   3.256   2.433   7.850 -0.1230 -0.0813  0.1701
 2866SOL    HW120231   3.270   2.526   7.870 -0.3070 -0.2349  1.0262
 2866SOL    HW220232   3.175   2.445   7.801 -1.4100 -1.9090  1.8322
 2867SOL     OW20233   0.036   4.027   7.725 -0.4544  0.1614 -0.5921
 2867SOL    HW120234   4.705   3.999   7.784  1.3955 -0.3348  1.3665
 2867SOL    HW220235   0.072   3.940   7.711  0.4678  0.3091  0.9321
 2868SOL     OW20236   0.322   3.086   3.667 -0.4686  0.4445 -0.4124
 2868SOL    HW120237   0.233   3.116   3.683  0.0905  0.3008  3.0483
 2868SOL    HW220238   0.308   2.993   3.648  0.3652  0.1750  0.3025
 2869SOL     OW20239   1.566   0.818   0.604  0.1313 -0.2266  0.3703
 2869SOL    HW120240   1.544   0.847   0.692  2.7439 -0.3858  1.0726
 2869SOL    HW220241   1.486   0.824   0.552 -0.0181  0.4173  0.6794
 2870SOL     OW20242   0.998   4.264   3.120  0.4741 -0.1941  0.1285
 2870SOL    HW120243   1.027   4.338   3.067 -1.7937  2.0514  2.0162
 2870SOL    HW220244   1.073   4.231   3.170 -0.5867 -2.2813  0.3421
 2871SOL     OW20245   0.990   3.924   7.486 -0.0911 -0.0666 -0.2089
 2871SOL    HW120246   1.026   3.958   7.568 -1.3488  1.1547 -0.1588
 2871SOL    HW220247   0.999   3.831   7.505 -1.5212  0.1516  1.5443
 2872SOL     OW20248   4.444   0.387   3.787 -0.2850  0.0504 -0.2952
 2872SOL    HW120249   4.485   0.306   3.755 -1.5362  0.3227 -2.6112
 2872SOL    HW220250   4.485   0.400   3.872 -0.5522  0.8019 -0.2804
 2873SOL     OW20251   4.519   1.672   5.166 -0.1532  0.3644  0.1041
 2873SOL    HW120252   4.598   1.675   5.221 -0.0571  0.3907 -0.0367
 2873SOL    HW220253   4.465   1.606   5.210  0.7619 -2.6189 -3.2361
 2874SOL     OW20254   4.283   1.921  12.601 -0.4242  0.4199  0.5813
 2874SOL    HW120255   4.219   1.966  12.546  0.4265  0.2683 -0.5101
 2874SOL    HW220256   4.255   1.831  12.584 -0.0563  0.4101  0.0438
 2875SOL     OW20257   3.473   4.691  10.547 -0.1663  0.1429 -0.3335
 2875SOL    HW120258   3.438   4.660  10.463  1.6097  1.6416 -1.6333
 2875SOL    HW220259   3.565   4.686  10.521 -0.4666 -1.1758 -1.1458
 2876SOL     OW20260   3.246   3.493   8.080 -0.1382 -0.4040  0.2912
 2876SOL    HW120261   3.321   3.523   8.131 -0.7161  0.5616  0.5665
 2876SOL    HW220262   3.220   3.420   8.136  0.6119  0.3037  1.5599
 2877SOL     OW20263   4.341   4.484   8.939  0.0075  0.4133  0.0072
 2877SOL    HW120264   4.319   4.490   8.846 -0.4889  0.5314  0.1327
 2877SOL    HW220265   4.259   4.510   8.981  0.7554  0.6992  1.2644
 2878SOL     OW20266   3.647   3.728   0.610 -0.2061  0.2175  0.4328
 2878SOL    HW120267   3.710   3.736   0.681 -2.8879  0.7676  2.7265
 2878SOL    HW220268   3.678   3.779   0.535  0.5829 -0.9754 -0.0631
 2879SOL     OW20269   3.750   4.596   8.879 -1.2046 -0.8970  0.6683
 2879SOL    HW120270   3.819   4.534   8.859 -0.9832  0.0705 -1.5323
 2879SOL    HW220271   3.758   4.608   8.974  0.9384  2.5856  0.0727
 2880SOL     OW20272   1.805   0.963   5.955 -0.1171  0.2211  0.3828
 2880SOL    HW120273   1.878   1.019   5.929 -1.2722  0.2748 -2.7326
 2880SOL    HW220274   1.735   1.003   5.903  0.2372 -1.5057 -1.4115
 2881SOL     OW20275   0.751   1.766   8.356  0.1896  0.0095  0.2184
 2881SOL    HW120276   0.808   1.798   8.426  0.1769  1.5107 -0.4649
 2881SOL    HW220277   0.764   1.833   8.289  1.9712  0.5982  1.1511
 2882SOL     OW20278   4.374   4.474   0.915 -0.3128 -0.0118 -0.1076
 2882SOL    HW120279   4.368   4.379   0.916  0.2255 -0.0476 -0.3073
 2882SOL    HW220280   4.419   4.479   0.831  0.3325  1.1524  0.3013
 2883SOL     OW20281   1.621   3.656   3.311 -0.5598 -0.0778  0.1490
 2883SOL    HW120282   1.528   3.644   3.332 -0.4205 -2.1962 -0.4899
 2883SOL    HW220283   1.664   3.631   3.393 -0.8756  1.3352  0.7505
 2884SOL     OW20284   1.846   2.655   5.447  0.3131  0.1167  0.3643
 2884SOL    HW120285   1.916   2.696   5.397  0.5290 -0.3969  0.2470
 2884SOL    HW220286   1.876   2.565   5.434 -1.1946 -0.3511  0.0995
 2885SOL     OW20287   2.302   3.334   1.693  0.7974  0.0699 -0.0836
 2885SOL    HW120288   2.306   3.239   1.700 -0.4775  0.0887  0.7460
 2885SOL    HW220289   2.250   3.367   1.766  1.6979 -1.7735  1.3712
 2886SOL     OW20290   4.467   2.429  15.829 -0.2320  0.3163  0.5333
 2886SOL    HW120291   4.396   2.373  15.860 -2.3286  2.0963 -0.9920
 2886SOL    HW220292   4.419   2.508  15.803  1.0676  0.8515 -0.2663
 2887SOL     OW20293   4.248   2.488   4.675  0.0737  0.0056  0.3894
 2887SOL    HW120294   4.295   2.405   4.671  2.2298  1.2751 -0.7915
 2887SOL    HW220295   4.303   2.546   4.622 -1.8806  1.3833 -0.1365
 2888SOL     OW20296   1.990   3.886   3.180 -0.3993 -0.1508 -0.2140
 2888SOL    HW120297   2.008   3.927   3.095  0.1229 -2.4509 -1.2283
 2888SOL    HW220298   2.051   3.812   3.184 -1.4422 -1.1491 -2.1755
 2889SOL     OW20299   3.705   4.270  17.453  0.1854 -0.2776 -0.2490
 2889SOL    HW120300   3.715   4.218  17.533  1.5650  1.2028  0.5279
 2889SOL    HW220301   3.744   4.353  17.479  0.8246 -0.1017 -1.8114
 2890SOL     OW20302   3.045   3.870   9.228  0.1038  0.0790 -0.0855
 2890SOL    HW120303   3.061   3.964   9.227 -0.4778  0.1823  1.4657
 2890SOL    HW220304   3.033   3.851   9.321  1.3903  1.5339  0.3795
 2891SOL     OW20305   3.878   2.596   4.949 -0.4916 -0.2124  0.1061
 2891SOL    HW120306   3.957   2.543   4.954 -1.9996 -2.3603  1.3126
 2891SOL    HW220307   3.882   2.628   4.859  1.3716  0.5430  0.4695
 2892SOL     OW20308   3.018   4.172   3.877 -0.2008 -0.5772 -0.2405
 2892SOL    HW120309   3.076   4.203   3.946 -1.7722  0.9074  0.4085
 2892SOL    HW220310   3.022   4.240   3.810  1.0254  0.9068  1.3580
 2893SOL     OW20311   3.846   2.657   1.268  0.2357  0.4795 -0.1391
 2893SOL    HW120312   3.751   2.649   1.273  0.1842  2.5762  2.0035
 2893SOL    HW220313   3.868   2.584   1.210 -2.4944  1.3333 -2.2429
 2894SOL     OW20314   1.519   0.783  13.610  0.3976 -0.3902  0.2926
 2894SOL    HW120315   1.604   0.759  13.572  0.1325  0.5204 -0.8838
 2894SOL    HW220316   1.548   0.806  13.698  0.4775 -0.8466  0.3851
 2895SOL     OW20317   3.035   0.521   6.630  0.0005 -0.0195  0.9354
 2895SOL    HW120318   3.051   0.607   6.669 -0.4317  0.1367  0.7616
 2895SOL    HW220319   3.128   0.499   6.618 -0.2694  0.0012 -1.1586
 2896SOL     OW20320   1.677   1.855  17.232  0.0892 -0.2010 -0.2496
 2896SOL    HW120321   1.588   1.821  17.239 -0.6781  1.4510 -2.1396
 2896SOL    HW220322   1.697   1.862  17.326  0.8516 -2.6685 -0.2182
 2897SOL     OW20323   4.637   3.162   6.665 -1.1029 -0.3029 -0.1197
 2897SOL    HW120324   4.589   3.128   6.740  0.8658 -3.6289 -0.3474
 2897SOL    HW220325   4.633   3.080   6.615  0.0299 -1.2541  1.3654
 2898SOL     OW20326   2.166   1.016   4.648 -0.5916  0.6151  0.0190
 2898SOL    HW120327   2.192   1.038   4.559 -1.5668 -1.0925 -0.6931
 2898SOL    HW220328   2.208   0.931   4.664  2.6375  2.2596  0.3235
 2899SOL     OW20329   0.971   0.767  14.449 -0.0980  0.5562 -0.6730
 2899SOL    HW120330   0.898   0.829  14.459 -0.5041 -0.3422  1.8079
 2899SOL    HW220331   1.029   0.802  14.516 -1.3513 -2.2917  1.8993
 2900SOL     OW20332   4.152   0.085   7.710  0.0148 -0.4179  0.1734
 2900SOL    HW120333   4.099   0.108   7.786  0.4905 -1.0773  0.7138
 2900SOL    HW220334   4.239   0.120   7.732 -0.1264  0.2460 -0.3494
 2901SOL     OW20335   0.830   2.631  12.166 -0.2995 -0.2893  0.0414
 2901SOL    HW120336   0.857   2.723  12.161 -2.4562  0.3434  0.2454
 2901SOL    HW220337   0.743   2.648  12.202 -0.7999 -2.2218 -0.2849
 2902SOL     OW20338   2.399   4.072  11.424 -0.2134  0.6034  0.1835
 2902SOL    HW120339   2.395   4.146  11.364 -1.2780 -0.1452 -0.6736
 2902SOL    HW220340   2.326   4.106  11.475  0.2009  1.3106  0.3137
 2903SOL     OW20341   4.722   3.858   4.383 -0.0027 -0.3078  0.0386
 2903SOL    HW120342   4.671   3.786   4.346 -0.0016 -0.4641  0.3448
 2903SOL    HW220343   4.673   3.928   4.339  2.6047  1.1976 -0.4931
 2904SOL     OW20344   4.580   0.012   2.977 -0.8034 -0.7314 -0.7532
 2904SOL    HW120345   4.552   4.661   2.966 -2.1727 -0.5514  1.2559
 2904SOL    HW220346   4.668   0.015   2.938 -2.1767 -0.3104 -3.8433
 2905SOL     OW20347   4.399   0.489   5.057  0.0744  0.2081  0.5433
 2905SOL    HW120348   4.341   0.427   5.013  0.1334  0.6007 -0.0996
 2905SOL    HW220349   4.338   0.562   5.068 -1.2708 -1.1178  1.7406
 2906SOL     OW20350   2.972   0.363   5.334 -0.1777  0.2650 -0.4909
 2906SOL    HW120351   2.900   0.312   5.371 -1.1708  1.0925 -1.3023
 2906SOL    HW220352   2.924   0.442   5.307 -2.2140  0.4610  3.6182
 2907SOL     OW20353   1.183   2.223  12.251  0.2883  0.6549  0.6615
 2907SOL    HW120354   1.100   2.241  12.207 -1.5635  1.0043  4.2475
 2907SOL    HW220355   1.156   2.239  12.342  0.1645 -1.4013  0.9811
 2908SOL     OW20356   3.223   2.897   3.986  0.2143  0.4757 -0.2111
 2908SOL    HW120357   3.308   2.880   3.945 -0.2601 -1.3328 -0.4378
 2908SOL    HW220358   3.162   2.906   3.913  1.0190 -0.5754 -1.0029
 2909SOL     OW20359   3.428   0.117   5.364 -0.1581 -0.1230 -0.6262
 2909SOL    HW120360   3.437   0.168   5.284 -0.0716  0.8622  0.0067
 2909SOL    HW220361   3.346   0.070   5.347 -1.9338  0.6927  5.3882
 2910SOL     OW20362   1.557   2.762   4.890  0.0235 -0.3600 -0.7404
 2910SOL    HW120363   1.502   2.799   4.959 -0.9261 -0.0192 -1.6721
 2910SOL    HW220364   1.618   2.834   4.874 -2.0408  2.0443  2.3828
 2911SOL     OW20365   4.683   4.478   2.589 -0.4463  0.3264  0.1097
 2911SOL    HW120366   0.038   4.484   2.604 -0.1818 -3.4129 -0.1568
 2911SOL    HW220367   4.690   4.414   2.518 -1.0386 -0.2052  0.5334
 2912SOL     OW20368   3.981   2.614   6.732 -0.1853  0.0108 -0.1171
 2912SOL    HW120369   3.980   2.704   6.762  0.9388  0.2975 -0.9475
 2912SOL    HW220370   4.062   2.592   6.779  0.2519  1.7514 -0.0829
 2913SOL     OW20371   1.439   1.773   2.613 -0.3873 -0.9529 -0.2310
 2913SOL    HW120372   1.529   1.761   2.584 -0.2011  3.2187 -1.4216
 2913SOL    HW220373   1.412   1.682   2.625  0.3274 -1.1602 -0.2125
 2914SOL     OW20374   2.378   2.625   6.640 -0.2104 -0.1050  0.1761
 2914SOL    HW120375   2.394   2.667   6.725 -0.0055  1.2127 -0.5222
 2914SOL    HW220376   2.450   2.665   6.591 -0.7028 -1.2239 -1.4243
 2915SOL     OW20377   0.423   1.912   6.235 -0.0438  0.2312  0.1987
 2915SOL    HW120378   0.454   1.823   6.218 -2.1970 -0.2886 -1.1720
 2915SOL    HW220379   0.392   1.933   6.146  1.8785 -1.1690 -0.7942
 2916SOL     OW20380   1.316   0.321   5.194  0.0135 -0.3821 -0.1196
 2916SOL    HW120381   1.268   0.240   5.206  0.6284 -0.6334  0.6418
 2916SOL    HW220382   1.249   0.382   5.163  0.3424 -1.2745 -2.5884
 2917SOL     OW20383   3.149   1.236   6.838 -0.0619 -0.1864  0.4538
 2917SOL    HW120384   3.076   1.285   6.801 -0.2476 -0.7729  0.0314
 2917SOL    HW220385   3.110   1.167   6.892  1.4657 -0.9597  0.5909
 2918SOL     OW20386   1.507   3.041   1.168 -0.2463 -0.5670  0.2258
 2918SOL    HW120387   1.485   3.000   1.084  0.2946 -0.5524  0.0784
 2918SOL    HW220388   1.575   3.103   1.142  0.0846 -0.4537  1.3437
 2919SOL     OW20389   3.514   0.484   3.256  0.5335  0.0863 -0.1814
 2919SOL    HW120390   3.539   0.531   3.336 -1.0459  0.3714  0.1394
 2919SOL    HW220391   3.597   0.479   3.208  0.0509  0.9934 -1.1184
 2920SOL     OW20392   4.444   3.257   4.524 -0.2016  0.2610  0.0611
 2920SOL    HW120393   4.529   3.301   4.518  0.7683 -1.6378 -0.2477
 2920SOL    HW220394   4.387   3.330   4.547 -0.8002 -0.6604  1.4722
 2921SOL     OW20395   1.624   1.383  13.009  0.3912  0.0911  0.0059
 2921SOL    HW120396   1.664   1.374  12.922 -0.2909 -0.1677 -0.2754
 2921SOL    HW220397   1.697   1.380  13.071  1.0910  0.3340 -0.7902
 2922SOL     OW20398   1.791   2.701   3.464 -0.0093  0.1526  0.3230
 2922SOL    HW120399   1.796   2.731   3.373 -1.4282 -0.7750 -0.0507
 2922SOL    HW220400   1.782   2.787   3.505  0.6502 -0.8832  2.6330
 2923SOL     OW20401   1.537   2.248   3.425 -0.4926  0.0537  0.4864
 2923SOL    HW120402   1.536   2.177   3.490  0.9876  0.6739  1.1786
 2923SOL    HW220403   1.446   2.272   3.405 -0.8098 -0.6072  1.1315
 2924SOL     OW20404   2.413   4.371   8.575  0.3300  0.0122  0.1407
 2924SOL    HW120405   2.390   4.341   8.487 -0.7195 -1.4258  0.9017
 2924SOL    HW220406   2.483   4.431   8.548  1.6983 -1.8352 -0.4111
 2925SOL     OW20407   0.435   1.171   6.179 -0.0798  0.9795 -0.5061
 2925SOL    HW120408   0.379   1.120   6.238 -1.8369  1.5114 -1.7177
 2925SOL    HW220409   0.377   1.231   6.132  0.0386  2.0839  0.7574
 2926SOL     OW20410   2.634   1.290   8.796  0.0081 -1.0322 -0.3652
 2926SOL    HW120411   2.727   1.296   8.771 -0.7729 -1.3525 -3.4262
 2926SOL    HW220412   2.653   1.274   8.888 -0.0659 -0.1251 -0.1958
 2927SOL     OW20413   0.539   0.264   5.485 -0.1390 -0.3707 -0.4883
 2927SOL    HW120414   0.548   0.355   5.511 -2.0781 -0.3223  0.0119
 2927SOL    HW220415   0.495   0.275   5.401 -2.1645  0.3990  0.6649
 2928SOL     OW20416   3.949   3.141  11.620 -0.1419  0.1253 -0.4058
 2928SOL    HW120417   3.865   3.167  11.659  0.0912  0.5170 -0.1621
 2928SOL    HW220418   4.014   3.207  11.644  0.3310 -0.0975 -1.0968
 2929SOL     OW20419   3.418   0.140  14.290  0.8029 -0.1473  0.1583
 2929SOL    HW120420   3.328   0.109  14.280  1.0110 -0.2291 -1.3904
 2929SOL    HW220421   3.441   0.108  14.203  2.0981  1.0758  0.0469
 2930SOL     OW20422   0.828   3.810   6.368 -0.2556  0.5426 -0.4327
 2930SOL    HW120423   0.798   3.900   6.382 -0.4566  0.3820  0.1784
 2930SOL    HW220424   0.850   3.815   6.275  1.6970 -2.9796 -0.1575
 2931SOL     OW20425   0.449   3.131   9.666  0.0228  0.4851  0.3182
 2931SOL    HW120426   0.366   3.132   9.617 -0.7821 -0.1061  1.6711
 2931SOL    HW220427   0.449   3.226   9.677 -0.5283  0.8401 -2.7595
 2932SOL     OW20428   2.235   3.134   1.977  0.2964  1.0140  0.5212
 2932SOL    HW120429   2.171   3.115   1.908 -2.0365  0.8109  2.7488
 2932SOL    HW220430   2.199   3.220   2.000  1.1186  1.3992  0.3495
 2933SOL     OW20431   1.325   2.253   2.746 -0.3727  0.1087  0.0040
 2933SOL    HW120432   1.349   2.247   2.839  0.7836 -1.4509 -0.3790
 2933SOL    HW220433   1.394   2.203   2.703  0.5436  2.5290 -1.3521
 2934SOL     OW20434   1.380   3.918   7.334 -0.5889 -0.6487 -0.2740
 2934SOL    HW120435   1.287   3.933   7.349 -0.0669  2.1944  0.2319
 2934SOL    HW220436   1.418   3.918   7.422 -0.3510  3.7625 -0.3367
 2935SOL     OW20437   1.477   2.958   3.869 -0.6002  0.5016 -0.0474
 2935SOL    HW120438   1.438   2.960   3.782 -0.0963 -1.1768 -0.2957
 2935SOL    HW220439   1.567   2.937   3.844 -0.7963 -1.3879  0.8731
 2936SOL     OW20440   3.930   4.531  10.135 -0.3169 -0.3297 -0.4026
 2936SOL    HW120441   3.975   4.584  10.069  0.7808  1.3441  1.7064
 2936SOL    HW220442   3.969   4.561  10.217  0.6952 -0.8786 -0.6904
 2937SOL     OW20443   2.180   0.718  14.378 -0.9424 -1.0056 -0.1643
 2937SOL    HW120444   2.213   0.804  14.353  0.0199 -1.2047  0.3861
 2937SOL    HW220445   2.249   0.690  14.438 -0.2314 -0.5135 -0.7460
 2938SOL     OW20446   3.536   4.052   5.773  0.2513 -0.1839 -0.0094
 2938SOL    HW120447   3.596   4.108   5.724  2.2924 -0.2281  2.4660
 2938SOL    HW220448   3.562   4.068   5.863  1.2592 -2.3260  0.1013
 2939SOL     OW20449   0.454   3.266   1.726 -0.5921 -0.5083  0.0583
 2939SOL    HW120450   0.485   3.274   1.816  2.0842 -0.2397 -0.8985
 2939SOL    HW220451   0.532   3.299   1.682  0.9200 -1.9173  1.7130
 2940SOL     OW20452   2.774   0.784   3.486  0.3395  0.2229 -0.3275
 2940SOL    HW120453   2.807   0.699   3.457  2.0311  0.9629 -0.5729
 2940SOL    HW220454   2.858   0.815   3.522  0.1394 -0.1406  0.4482
 2941SOL     OW20455   2.033   1.294  12.850  0.0619 -0.7874  0.1337
 2941SOL    HW120456   2.128   1.288  12.847  0.2887  3.1701  0.2149
 2941SOL    HW220457   2.024   1.288  12.945  2.3407  2.5611  0.5421
 2942SOL     OW20458   2.539   0.201   9.205 -0.3373  0.3374 -0.1802
 2942SOL    HW120459   2.592   0.280   9.212  0.5461 -0.4271  1.7633
 2942SOL    HW220460   2.506   0.211   9.116 -0.7929 -3.2285 -0.4228
 2943SOL     OW20461   2.731   1.620   4.783  0.0981 -0.0297 -0.4226
 2943SOL    HW120462   2.755   1.713   4.788 -1.1118  0.1375  2.1987
 2943SOL    HW220463   2.649   1.617   4.832  1.6326 -4.1370  1.8493
 2944SOL     OW20464   0.166   3.265  15.811 -0.5010 -0.1830  0.1770
 2944SOL    HW120465   0.120   3.190  15.773  0.0179  0.4440 -1.6996
 2944SOL    HW220466   0.157   3.250  15.905 -2.0863 -0.9272 -0.1033
 2945SOL     OW20467   3.473   1.525  17.648  0.3000 -0.3222  0.1008
 2945SOL    HW120468   3.413   1.460  17.683  1.8143 -0.2563  2.8579
 2945SOL    HW220469   3.426   1.608  17.658  0.8932 -0.3211  2.9452
 2946SOL     OW20470   1.839   3.598  10.007  0.2656 -0.2639  0.0926
 2946SOL    HW120471   1.764   3.656   9.994  0.2292  0.0349  1.5999
 2946SOL    HW220472   1.805   3.523   9.960  1.5661 -1.1548  0.5678
 2947SOL     OW20473   1.179   3.787   0.443 -0.2853  0.4329  0.5715
 2947SOL    HW120474   1.102   3.733   0.461  1.5915 -2.3324  0.3222
 2947SOL    HW220475   1.187   3.771   0.349  0.9628 -0.6209  0.8543
 2948SOL     OW20476   0.135   4.042   6.171  0.0084  0.0575 -1.3155
 2948SOL    HW120477   0.055   4.093   6.187 -0.6734 -0.4144 -3.1536
 2948SOL    HW220478   0.138   3.986   6.248 -0.3759  1.3897 -0.3360
 2949SOL     OW20479   4.541   3.147   7.943  0.1993 -0.3845 -0.1173
 2949SOL    HW120480   4.634   3.155   7.961 -0.2982  1.1251  1.7323
 2949SOL    HW220481   4.519   3.054   7.949 -0.4341 -0.1890  0.5774
 2950SOL     OW20482   4.263   3.161   2.313  0.2122  0.2218  0.3585
 2950SOL    HW120483   4.201   3.230   2.338 -1.8136 -1.8590  1.0763
 2950SOL    HW220484   4.201   3.089   2.304 -0.1491  0.5568  0.1729
 2951SOL     OW20485   4.140   3.362   7.078 -0.3172 -1.2504 -0.3739
 2951SOL    HW120486   4.054   3.360   7.036 -1.3652 -1.5181  1.7967
 2951SOL    HW220487   4.179   3.436   7.032  0.3747 -1.3700  0.0241
 2952SOL     OW20488   0.315   4.340   6.387 -0.9887 -0.8059  0.0166
 2952SOL    HW120489   0.354   4.291   6.314  0.8268  0.7865 -0.0826
 2952SOL    HW220490   0.349   4.429   6.380 -0.8550 -0.8845 -0.3555
 2953SOL     OW20491   2.928   2.226   7.329  0.3708 -0.3467  0.1115
 2953SOL    HW120492   2.983   2.207   7.253 -1.1002 -0.9274 -0.8358
 2953SOL    HW220493   2.897   2.137   7.349 -0.3441  0.4298  2.4234
 2954SOL     OW20494   0.726   1.311   7.730  0.0697 -0.3883 -0.4975
 2954SOL    HW120495   0.819   1.306   7.751  0.7649 -0.8923 -3.6359
 2954SOL    HW220496   0.696   1.330   7.819  0.8205 -0.7494 -0.1715
 2955SOL     OW20497   0.164   3.903  17.603 -0.1633 -0.1390  0.8506
 2955SOL    HW120498   0.161   3.885  17.697  0.3124 -0.0834  0.8761
 2955SOL    HW220499   0.242   3.858  17.573 -1.5914 -1.0263 -1.5372
 2956SOL     OW20500   3.826   1.407   7.148  0.1632  0.3620 -0.2541
 2956SOL    HW120501   3.796   1.342   7.085  1.2431 -1.7214  1.3840
 2956SOL    HW220502   3.860   1.343   7.210 -0.6550  0.5014  0.3292
 2957SOL     OW20503   0.160   0.491  14.653  0.0136  0.1182 -0.1951
 2957SOL    HW120504   0.251   0.480  14.624 -0.2135 -0.7121 -0.6136
 2957SOL    HW220505   0.133   0.408  14.612 -0.2070  0.0808  0.0337
 2958SOL     OW20506   1.560   2.687   7.637 -0.6763 -0.6322  0.5163
 2958SOL    HW120507   1.629   2.754   7.642 -0.3027 -0.8781 -1.2066
 2958SOL    HW220508   1.557   2.659   7.728 -0.6390 -1.6952  0.1933
 2959SOL     OW20509   2.505   4.738   7.063 -0.0785 -0.4863 -0.0505
 2959SOL    HW120510   2.525   0.064   6.995 -0.7326 -0.2638 -0.0314
 2959SOL    HW220511   2.509   0.043   7.148  0.6379 -0.0306 -0.3240
 2960SOL     OW20512   3.846   1.737   5.002  0.6331  0.4159  0.5044
 2960SOL    HW120513   3.848   1.747   5.097  0.9817 -0.4903  0.5927
 2960SOL    HW220514   3.900   1.812   4.975  1.0107  0.5657  1.6764
 2961SOL     OW20515   2.074   3.179   7.499  0.7196  0.2275 -0.3204
 2961SOL    HW120516   2.091   3.263   7.541 -0.1036 -0.1673  0.7941
 2961SOL    HW220517   2.006   3.153   7.560 -0.3082  0.2425 -1.4534
 2962SOL     OW20518   2.555   0.868   7.253  0.6540 -0.3391 -0.1779
 2962SOL    HW120519   2.489   0.803   7.232 -1.1417  1.0377  1.2680
 2962SOL    HW220520   2.585   0.848   7.341 -1.2759 -0.0879  0.5245
 2963SOL     OW20521   2.720   1.139   0.409  0.2247 -0.8993 -0.3104
 2963SOL    HW120522   2.719   1.222   0.455 -1.5666  0.2874 -2.5157
 2963SOL    HW220523   2.639   1.099   0.441 -0.3483 -1.4718 -2.4607
 2964SOL     OW20524   2.907   3.389  16.106  0.1160  0.3885 -0.4858
 2964SOL    HW120525   2.844   3.317  16.105  1.2579 -0.6541  0.7446
 2964SOL    HW220526   2.856   3.447  16.051 -0.1921 -0.9865 -1.6544
 2965SOL     OW20527   1.573   2.850   9.169  0.0534  0.6291 -0.2296
 2965SOL    HW120528   1.648   2.817   9.219  0.2970 -1.1922 -1.7970
 2965SOL    HW220529   1.522   2.768   9.169  2.0076 -0.5838  0.4524
 2966SOL     OW20530   1.625   2.789   1.663  0.3344 -0.5083  0.1066
 2966SOL    HW120531   1.671   2.845   1.602  1.6303  0.2202  1.7572
 2966SOL    HW220532   1.667   2.704   1.651 -0.2930 -0.4129 -2.6660
 2967SOL     OW20533   2.758   1.412  15.473 -0.2955  0.2405 -0.8329
 2967SOL    HW120534   2.786   1.502  15.487  0.1014  0.5186 -3.5979
 2967SOL    HW220535   2.806   1.395  15.393  1.1814 -2.8692  0.7028
 2968SOL     OW20536   3.578   3.397   4.065 -0.3992 -0.0946 -0.0782
 2968SOL    HW120537   3.495   3.384   4.111 -1.7735  2.1822 -1.8873
 2968SOL    HW220538   3.551   3.476   4.017  0.2674 -0.0034 -0.3057
 2969SOL     OW20539   1.127   0.766  17.339 -0.2752 -0.1096 -0.0107
 2969SOL    HW120540   1.164   0.830  17.279  0.7016 -1.1886 -0.5670
 2969SOL    HW220541   1.205   0.763  17.394  0.7481 -0.0845 -1.4698
 2970SOL     OW20542   2.580   2.734   8.458  0.3035  0.1611  0.1653
 2970SOL    HW120543   2.548   2.739   8.368  0.7837  0.7379  0.0223
 2970SOL    HW220544   2.579   2.639   8.469 -2.3575 -0.0411 -1.8992
 2971SOL     OW20545   1.468   3.023   5.334 -0.1258 -0.4400 -0.1990
 2971SOL    HW120546   1.536   3.035   5.401 -1.0926 -0.8749  0.8621
 2971SOL    HW220547   1.387   3.044   5.381 -0.6356 -0.4771 -1.0592
 2972SOL     OW20548   3.488   1.674   5.989  0.8565  0.3366  0.1673
 2972SOL    HW120549   3.488   1.693   5.895 -0.1661 -0.0777  0.0774
 2972SOL    HW220550   3.531   1.751   6.026 -1.2344  0.9323  1.3616
 2973SOL     OW20551   1.057   0.382   6.790 -0.2447  0.2823  0.2074
 2973SOL    HW120552   1.044   0.307   6.732 -2.0227 -0.8155  2.0364
 2973SOL    HW220553   1.100   0.453   6.742  0.3972 -1.0247 -1.1537
 2974SOL     OW20554   0.956   2.344   6.681  0.0599  0.2089  0.1591
 2974SOL    HW120555   0.883   2.285   6.665  1.9282 -2.3931  1.2529
 2974SOL    HW220556   0.911   2.408   6.735 -0.8084 -1.9617  1.9660
 2975SOL     OW20557   1.690   4.208  17.255 -0.0977  0.0824 -0.1974
 2975SOL    HW120558   1.634   4.144  17.213 -0.4004  0.2404 -0.0338
 2975SOL    HW220559   1.746   4.146  17.301 -1.4561 -1.6802 -0.9371
 2976SOL     OW20560   3.983   2.667   5.799 -0.3288 -0.5551 -0.0293
 2976SOL    HW120561   4.024   2.677   5.713  1.6420  0.7712  1.0741
 2976SOL    HW220562   3.898   2.712   5.792 -0.5797 -1.2544 -1.4530
 2977SOL     OW20563   2.962   3.695  16.823  0.2615 -0.6521  0.2693
 2977SOL    HW120564   2.929   3.745  16.748  1.3435  0.2054  0.3806
 2977SOL    HW220565   3.042   3.662  16.781  0.0122  0.7685 -1.3448
 2978SOL     OW20566   2.568   2.472   3.354  0.2607  0.1706 -0.2086
 2978SOL    HW120567   2.501   2.514   3.409  1.3980  2.6909 -0.7224
 2978SOL    HW220568   2.532   2.384   3.361 -1.2834  0.8931  1.0645
 2979SOL     OW20569   4.649   3.291   3.529 -0.1301 -0.2963 -0.8189
 2979SOL    HW120570   4.572   3.309   3.475 -0.7121  1.3553  0.5503
 2979SOL    HW220571   4.685   3.379   3.539  0.4866 -0.7850  1.2241
 2980SOL     OW20572   1.049   1.293  16.518  0.0820 -0.4780  0.4413
 2980SOL    HW120573   0.969   1.262  16.561  0.0573  0.5547  1.1474
 2980SOL    HW220574   1.103   1.220  16.550 -1.3077 -0.7576  2.1854
 2981SOL     OW20575   3.939   2.910  11.247  0.1405 -0.1830  0.0981
 2981SOL    HW120576   3.910   2.824  11.217 -0.1533  0.4107 -1.3392
 2981SOL    HW220577   4.031   2.909  11.220  0.0592 -2.7175 -0.0679
 2982SOL     OW20578   2.068   2.120   6.478 -0.0495  0.4544 -0.1443
 2982SOL    HW120579   2.070   2.046   6.418 -0.1445  1.2160 -1.0868
 2982SOL    HW220580   2.021   2.070   6.545  0.5934  0.3264  0.2065
 2983SOL     OW20581   1.505   3.970   5.831  0.4271 -0.1427 -0.1091
 2983SOL    HW120582   1.515   4.045   5.889 -1.0172  0.1021 -0.1785
 2983SOL    HW220583   1.596   3.975   5.803  0.2219  0.2832 -0.6887
 2984SOL     OW20584   4.224   4.677   6.469  0.2540  0.1199 -0.2064
 2984SOL    HW120585   4.242   4.723   6.387  0.4599  2.6742  1.2841
 2984SOL    HW220586   4.213   4.583   6.454  0.3553  0.4279 -2.2392
 2985SOL     OW20587   3.046   1.072  14.559  0.1251 -0.1863 -0.1104
 2985SOL    HW120588   3.122   1.131  14.559  0.6218 -0.8405 -1.9270
 2985SOL    HW220589   3.092   0.999  14.518 -0.3152 -1.7216  2.1167
 2986SOL     OW20590   4.325   3.935   4.123  0.1690  0.2271  0.0220
 2986SOL    HW120591   4.375   3.904   4.048 -0.7262  5.1806 -2.5845
 2986SOL    HW220592   4.265   3.989   4.072  0.4819  1.2164  0.7084
 2987SOL     OW20593   4.702   0.650  17.663 -0.4926 -0.0997 -0.1258
 2987SOL    HW120594   0.041   0.654  17.608  0.2280  0.4930  0.9466
 2987SOL    HW220595   4.634   0.641  17.596  0.4813  1.2850 -1.2911
 2988SOL     OW20596   0.684   4.415   5.941 -0.7796 -0.4058 -0.0838
 2988SOL    HW120597   0.720   4.502   5.957 -0.6315 -0.7240  1.2939
 2988SOL    HW220598   0.699   4.409   5.847  2.0923 -1.9215  0.4594
 2989SOL     OW20599   2.169   2.727  12.791  0.9215  0.1215 -0.2708
 2989SOL    HW120600   2.167   2.806  12.844 -1.8038  1.1891 -1.9212
 2989SOL    HW220601   2.258   2.694  12.782  1.0904  0.2510  0.9371
 2990SOL     OW20602   4.698   3.260   6.432 -0.1813 -0.3919  0.0617
 2990SOL    HW120603   4.632   3.211   6.383 -0.7169  1.9508 -1.5547
 2990SOL    HW220604   4.685   3.225   6.520  1.9379  2.1098  1.3714
 2991SOL     OW20605   0.195   1.457   8.348  0.2389 -0.0954  0.1313
 2991SOL    HW120606   0.154   1.527   8.400 -0.4137  1.6260 -2.7285
 2991SOL    HW220607   0.120   1.404   8.325 -0.0741  0.1412  0.6017
 2992SOL     OW20608   2.318   3.909  14.472 -0.1307 -0.0832 -0.0717
 2992SOL    HW120609   2.412   3.913  14.458 -0.2741  1.4258 -0.6677
 2992SOL    HW220610   2.289   3.891  14.382  0.3036  1.8946 -0.6129
 2993SOL     OW20611   4.567   0.731   9.089 -0.4336  0.4108 -0.5436
 2993SOL    HW120612   4.630   0.773   9.030  1.0255  1.7796  1.9525
 2993SOL    HW220613   4.525   0.810   9.123 -0.0390 -0.4045  1.8509
 2994SOL     OW20614   2.661   3.736  11.601 -0.2047  0.0367  0.2574
 2994SOL    HW120615   2.650   3.765  11.510 -0.9633  0.3744  0.4569
 2994SOL    HW220616   2.748   3.775  11.608  0.1585 -0.8335  0.6096
 2995SOL     OW20617   0.243   0.164   6.624  0.0039 -0.5395 -0.3479
 2995SOL    HW120618   0.229   0.255   6.648  0.6910 -0.7250  0.7494
 2995SOL    HW220619   0.195   0.117   6.692  1.2793  0.1602  1.0301
 2996SOL     OW20620   2.118   2.103   2.797  0.1123  0.5136 -0.9787
 2996SOL    HW120621   2.074   2.096   2.881  1.7874  2.9243  0.1037
 2996SOL    HW220622   2.090   2.188   2.764 -3.2689 -0.3212 -0.2267
 2997SOL     OW20623   0.279   1.840   1.641 -0.2672  0.0880 -0.4384
 2997SOL    HW120624   0.257   1.933   1.645 -0.1276  0.1624 -1.3456
 2997SOL    HW220625   0.285   1.819   1.734 -1.1050  1.4233 -0.0937
 2998SOL     OW20626   0.721   2.111   6.115  0.5526 -0.2558 -0.0476
 2998SOL    HW120627   0.807   2.119   6.157  0.3532 -1.2509  0.5442
 2998SOL    HW220628   0.665   2.113   6.193 -0.9999 -0.8141 -1.1347
 2999SOL     OW20629   2.963   2.313  15.454 -0.5842 -0.2664 -0.4927
 2999SOL    HW120630   2.868   2.301  15.445 -0.3815 -0.4546 -2.4501
 2999SOL    HW220631   2.990   2.228  15.487 -1.1144  0.1120  0.9199
 3000SOL     OW20632   3.632   2.342   5.870 -0.7452 -0.6177 -0.4259
 3000SOL    HW120633   3.728   2.343   5.867 -0.7437 -1.8155 -0.6728
 3000SOL    HW220634   3.606   2.429   5.841 -1.2433 -0.4926  0.4073
 3001SOL     OW20635   1.699   3.255  15.280 -0.2240 -0.2098 -0.2795
 3001SOL    HW120636   1.660   3.175  15.246 -1.9367  0.7252 -0.5001
 3001SOL    HW220637   1.627   3.316  15.293  1.0563  1.1474  0.4834
 3002SOL     OW20638   0.174   0.188   3.810  0.0150  0.0381  0.4631
 3002SOL    HW120639   0.092   0.187   3.861 -2.2156  3.5664 -3.0369
 3002SOL    HW220640   0.174   0.275   3.769  0.4462 -0.3157 -0.2624
 3003SOL     OW20641   2.368   3.197  17.215  0.2180 -0.1913 -0.0557
 3003SOL    HW120642   2.322   3.277  17.189  0.8025  0.6142  1.3677
 3003SOL    HW220643   2.327   3.124  17.169  0.9587 -1.4226  1.2338
 3004SOL     OW20644   1.208   0.155   6.464 -0.2505  0.1104 -0.2252
 3004SOL    HW120645   1.158   0.131   6.542 -1.3095  0.9331 -0.6441
 3004SOL    HW220646   1.292   0.114   6.484  0.0135 -0.3528 -2.2762
 3005SOL     OW20647   0.907   2.610   6.857 -0.1135  0.4562  0.2840
 3005SOL    HW120648   0.915   2.685   6.916 -1.1896  0.0252  0.9746
 3005SOL    HW220649   0.929   2.647   6.771  0.5538 -0.5918  0.0066
 3006SOL     OW20650   3.117   2.369   2.170 -0.7218 -0.0128  0.4769
 3006SOL    HW120651   3.173   2.292   2.181 -2.2893 -1.1301  0.6552
 3006SOL    HW220652   3.175   2.444   2.164  1.0812 -1.3326  1.3442
 3007SOL     OW20653   4.178   0.404   4.877 -0.4612  0.4416 -0.5399
 3007SOL    HW120654   4.110   0.344   4.848  1.4112 -2.3092  0.7788
 3007SOL    HW220655   4.197   0.463   4.803  2.2788 -1.4559 -1.3279
 3008SOL     OW20656   1.563   4.353  10.659 -0.1106  0.2782  0.3993
 3008SOL    HW120657   1.548   4.434  10.708 -2.9286 -0.6729  1.0657
 3008SOL    HW220658   1.475   4.327  10.634  0.8430 -0.8596 -1.8226
 3009SOL     OW20659   0.651   2.267   5.742  0.2697  0.1401  0.0176
 3009SOL    HW120660   0.740   2.302   5.745  0.4112 -0.2807  0.7684
 3009SOL    HW220661   0.592   2.340   5.756  0.5027  0.6581 -1.6449
 3010SOL     OW20662   2.687   0.044   3.495  0.5086  0.0177 -0.0756
 3010SOL    HW120663   2.654   0.133   3.505  0.8617  0.2788 -1.2438
 3010SOL    HW220664   2.774   0.058   3.458 -0.6361  1.2995 -2.3159
 3011SOL     OW20665   0.471   0.741   1.734 -0.1560 -0.7298  0.0415
 3011SOL    HW120666   0.524   0.673   1.693  0.6691  0.0182 -0.1200
 3011SOL    HW220667   0.479   0.812   1.670  0.8312  0.5288  1.5632
 3012SOL     OW20668   0.278   3.425   8.487  0.4897  0.2888 -0.1385
 3012SOL    HW120669   0.244   3.514   8.496 -0.2981  0.0324 -0.5433
 3012SOL    HW220670   0.369   3.453   8.489 -0.0206  1.9608 -0.6415
 3013SOL     OW20671   1.101   1.634   0.114  0.2285  0.2439  0.4225
 3013SOL    HW120672   1.043   1.569   0.154 -0.1932  1.1147  1.2450
 3013SOL    HW220673   1.138   1.682   0.188  1.4032  0.9889 -0.6515
 3014SOL     OW20674   3.980   1.962   1.742 -0.6049 -0.1324 -0.1959
 3014SOL    HW120675   3.954   1.901   1.674  1.3794 -2.1693  0.8844
 3014SOL    HW220676   4.044   1.907   1.786 -1.5601 -1.8174 -0.9085
 3015SOL     OW20677   2.586   4.248   1.802  0.2304 -0.1329 -0.5740
 3015SOL    HW120678   2.523   4.291   1.745 -0.1281 -1.1522 -0.9543
 3015SOL    HW220679   2.646   4.201   1.744  1.4982  0.3651  0.3279
 3016SOL     OW20680   1.647   4.703   3.745  0.0239  0.3711  0.2461
 3016SOL    HW120681   1.629   4.674   3.834 -1.6260 -0.1651 -0.2646
 3016SOL    HW220682   1.560   4.710   3.706 -0.8068  2.7302  2.5460
 3017SOL     OW20683   0.894   1.561   5.997  0.5467  0.0078 -0.2027
 3017SOL    HW120684   0.806   1.538   5.968 -0.3217 -0.5685  2.9401
 3017SOL    HW220685   0.877   1.644   6.042 -0.1560 -0.4109  0.3022
 3018SOL     OW20686   0.012   1.672   5.306  0.6578  0.5396  0.5880
 3018SOL    HW120687   0.067   1.706   5.236  2.3737 -0.5485  1.4074
 3018SOL    HW220688   0.058   1.593   5.333  1.0585  0.2362 -0.9961
 3019SOL     OW20689   3.626   2.689   2.666  0.3679 -0.0241 -0.1334
 3019SOL    HW120690   3.549   2.678   2.720  1.5953 -2.5359  1.0864
 3019SOL    HW220691   3.590   2.761   2.614  0.2911 -0.9974 -1.4332
 3020SOL     OW20692   3.722   1.050   4.908  0.2457 -0.0427  0.2503
 3020SOL    HW120693   3.708   0.967   4.955 -1.0832  0.1069  0.1368
 3020SOL    HW220694   3.676   1.112   4.964 -0.0526  2.1743 -2.4665
 3021SOL     OW20695   0.622   3.720   3.030 -0.1679  0.1791  0.1705
 3021SOL    HW120696   0.546   3.736   2.975  0.6680 -1.6265 -1.5048
 3021SOL    HW220697   0.580   3.656   3.087 -0.7375  1.1842  0.8729
 3022SOL     OW20698   2.141   2.497   8.863 -0.0112  0.0883 -0.1722
 3022SOL    HW120699   2.099   2.413   8.881 -0.7719  0.4937 -0.0463
 3022SOL    HW220700   2.105   2.546   8.788 -0.6722  0.7714  0.5934
 3023SOL     OW20701   2.109   2.051   6.046  0.6029  0.1209  0.1441
 3023SOL    HW120702   2.183   2.005   6.085  0.1916 -0.3669  0.3457
 3023SOL    HW220703   2.070   1.984   5.990  1.8192 -2.1714  2.0387
 3024SOL     OW20704   3.492   4.233  15.476 -0.3148  0.3225  0.4148
 3024SOL    HW120705   3.439   4.196  15.547  1.3411 -1.4637  0.7311
 3024SOL    HW220706   3.575   4.193  15.502 -0.0532 -0.3705 -1.5348
 3025SOL     OW20707   4.311   1.013  12.949 -0.0209 -0.2355  0.4428
 3025SOL    HW120708   4.235   0.962  12.921 -1.3237  0.4780  2.6715
 3025SOL    HW220709   4.363   0.998  12.870  1.5794  1.0850  1.2293
 3026SOL     OW20710   2.267   4.231   7.958  0.0081  0.1237 -0.0020
 3026SOL    HW120711   2.271   4.275   7.873  1.7105  2.1893  1.1738
 3026SOL    HW220712   2.341   4.172   7.945  0.2786  0.0909  1.7034
 3027SOL     OW20713   3.820   1.278   1.342  0.2310  0.0420 -0.3457
 3027SOL    HW120714   3.878   1.201   1.337 -1.0660 -0.8427 -1.8744
 3027SOL    HW220715   3.734   1.238   1.333  0.3308 -0.2033 -0.2250
 3028SOL     OW20716   1.999   2.138   5.663 -0.7498  0.1522 -0.3927
 3028SOL    HW120717   2.019   2.048   5.637 -0.3379  0.6878 -1.9298
 3028SOL    HW220718   1.982   2.163   5.572 -0.7757  0.5437 -0.2789
 3029SOL     OW20719   3.456   3.534   9.138 -0.0290  0.4642  0.6916
 3029SOL    HW120720   3.404   3.613   9.123 -0.3409  0.6152  2.5521
 3029SOL    HW220721   3.421   3.506   9.222 -0.2198  1.8090  1.0560
 3030SOL     OW20722   4.506   1.379   4.789  0.1112 -0.0906 -0.0285
 3030SOL    HW120723   4.442   1.356   4.722  0.1330 -0.3162  0.0278
 3030SOL    HW220724   4.468   1.455   4.834  3.4946  1.4182  0.2904
 3031SOL     OW20725   0.149   2.486   8.038  0.2008 -0.4524  0.2297
 3031SOL    HW120726   0.174   2.466   7.947 -0.1648  1.7540 -0.3437
 3031SOL    HW220727   0.054   2.482   8.033  0.1845 -3.0292  2.5989
 3032SOL     OW20728   4.702   4.305  12.066  0.0974  0.1013  0.3435
 3032SOL    HW120729   0.057   4.313  12.059  0.0924 -0.4345 -0.3123
 3032SOL    HW220730   4.707   4.266  12.154 -1.1192 -0.0275  0.3646
 3033SOL     OW20731   1.559   2.856   0.954 -0.4994  0.3385 -0.1472
 3033SOL    HW120732   1.532   2.846   0.862 -0.7418  1.1746 -0.1646
 3033SOL    HW220733   1.648   2.891   0.950 -0.9320  1.7315  2.5890
 3034SOL     OW20734   4.429   4.138   3.623 -0.0493  0.0805  0.4474
 3034SOL    HW120735   4.454   4.076   3.554  1.1626  2.2097 -1.0007
 3034SOL    HW220736   4.334   4.128   3.628 -0.4764  4.2598  0.4073
 3035SOL     OW20737   3.759   4.694   3.053 -0.0665 -0.0544  0.2875
 3035SOL    HW120738   3.820   0.025   3.031  0.5247 -0.9704 -1.0214
 3035SOL    HW220739   3.717   4.677   2.968  2.7818 -1.4297 -0.8627
 3036SOL     OW20740   2.121   3.687  15.148  0.3247 -0.3253  0.5095
 3036SOL    HW120741   2.038   3.648  15.124  0.7343 -1.5911  1.1468
 3036SOL    HW220742   2.095   3.778  15.134  0.4435 -0.4945 -0.8386
 3037SOL     OW20743   1.540   1.344   2.350  0.5200 -0.0593 -0.8527
 3037SOL    HW120744   1.469   1.290   2.315  0.5518 -0.9188  0.3726
 3037SOL    HW220745   1.475   1.402   2.392  0.5823  1.6111 -3.0647
 3038SOL     OW20746   3.607   3.217   5.535  0.6609 -0.1745  0.6338
 3038SOL    HW120747   3.617   3.124   5.516 -0.7901 -0.0076 -1.0435
 3038SOL    HW220748   3.511   3.221   5.527  0.8202 -0.9725 -1.8585
 3039SOL     OW20749   0.057   1.093   5.041 -0.5413 -0.3681 -0.3885
 3039SOL    HW120750   4.738   1.149   5.093  0.1735 -0.0277  0.0486
 3039SOL    HW220751   0.130   1.155   5.045 -0.6565 -0.2447 -0.1959
 3040SOL     OW20752   0.855   3.071  15.267  0.6401  0.5420 -0.3294
 3040SOL    HW120753   0.904   3.091  15.187 -0.9192  1.1540 -1.1316
 3040SOL    HW220754   0.813   3.155  15.287  0.5542  0.5987 -0.7569
 3041SOL     OW20755   3.374   1.450   2.354  0.6205  0.0012 -0.8429
 3041SOL    HW120756   3.356   1.497   2.273  0.1873  0.1383 -0.6648
 3041SOL    HW220757   3.286   1.421   2.376  0.5978  0.9611  0.3091
 3042SOL     OW20758   3.928   0.265  13.028 -0.5663 -0.0424  0.3269
 3042SOL    HW120759   3.995   0.239  12.964 -2.0671 -0.3300 -1.1467
 3042SOL    HW220760   3.925   0.358  13.008  1.8997 -0.1638 -0.5477
 3043SOL     OW20761   1.949   2.981  15.529 -0.7321 -0.1858  0.7053
 3043SOL    HW120762   1.932   3.070  15.499  0.7983 -0.6648 -1.5656
 3043SOL    HW220763   1.945   2.924  15.452  0.5200 -0.3552  0.7702
 3044SOL     OW20764   4.200   2.599  16.584 -0.1038 -0.1252  0.1296
 3044SOL    HW120765   4.135   2.557  16.527 -0.7915  1.6541 -0.3905
 3044SOL    HW220766   4.150   2.677  16.608 -1.9341 -1.2158 -0.1307
 3045SOL     OW20767   0.753   0.092   1.882  0.5638  0.2252 -0.7187
 3045SOL    HW120768   0.841   0.063   1.860  1.3432  1.5724  0.6292
 3045SOL    HW220769   0.723   0.016   1.932  1.7246  1.6352  2.1115
 3046SOL     OW20770   1.230   3.324   0.148  0.8294 -0.8628 -0.2819
 3046SOL    HW120771   1.192   3.247   0.106 -0.5586 -0.5917  0.4524
 3046SOL    HW220772   1.298   3.337   0.082 -0.2034 -0.4248 -1.2641
 3047SOL     OW20773   0.759   2.071   5.387 -0.8379  0.5781 -0.0889
 3047SOL    HW120774   0.838   2.022   5.364 -1.9839 -2.6511  2.9274
 3047SOL    HW220775   0.760   2.061   5.482  0.8102  1.4072 -0.0157
 3048SOL     OW20776   0.238   4.058  17.229  0.3760  0.7756 -0.7660
 3048SOL    HW120777   0.231   4.106  17.311  1.1943  1.6725 -1.2145
 3048SOL    HW220778   0.229   4.136  17.174 -0.5153  1.4774  0.3723
 3049SOL     OW20779   4.312   2.598   4.209  0.2074  0.5893 -0.3810
 3049SOL    HW120780   4.263   2.680   4.203  2.0424  1.5676 -1.7452
 3049SOL    HW220781   4.237   2.544   4.185 -1.6477  2.7614  0.5146
 3050SOL     OW20782   4.060   0.779   5.571 -0.0023  0.6217  0.1806
 3050SOL    HW120783   4.101   0.814   5.491  0.6167 -1.9160 -0.6366
 3050SOL    HW220784   4.095   0.690   5.582 -1.2277  0.1695  0.3306
 3051SOL     OW20785   4.296   2.091   4.276  0.0587  0.2978  0.3533
 3051SOL    HW120786   4.355   2.072   4.203 -0.8554  1.7939 -0.7710
 3051SOL    HW220787   4.219   2.110   4.223  0.7592  1.0524 -0.3923
 3052SOL     OW20788   2.842   0.177   6.966 -0.1316 -0.1581  0.3054
 3052SOL    HW120789   2.838   0.092   7.008 -2.8434 -0.5971 -0.8260
 3052SOL    HW220790   2.772   0.225   7.010  1.6046  4.0486 -1.5154
 3053SOL     OW20791   1.277   1.127   5.584 -0.0534 -0.2949 -0.0645
 3053SOL    HW120792   1.210   1.060   5.565  0.0962 -0.3607 -0.3529
 3053SOL    HW220793   1.360   1.083   5.564 -2.2885 -3.3764 -2.6048
 3054SOL     OW20794   3.359   0.284   3.357 -0.0522  0.0203  0.3846
 3054SOL    HW120795   3.378   0.375   3.337  0.6470  0.4968  3.1078
 3054SOL    HW220796   3.415   0.233   3.298 -0.8746 -0.4611  0.0248
 3055SOL     OW20797   4.631   3.320   8.655  0.0002  0.7160 -0.0105
 3055SOL    HW120798   4.584   3.357   8.580 -1.7790 -0.3874  0.5712
 3055SOL    HW220799   4.601   3.394   8.708  0.2738  0.9679 -0.1992
 3056SOL     OW20800   4.678   3.096  12.026 -0.2864 -0.5793 -0.4944
 3056SOL    HW120801   0.034   3.108  12.024 -0.3951  0.5311  1.1893
 3056SOL    HW220802   4.671   3.048  11.944 -0.0483 -0.7427 -0.4197
 3057SOL     OW20803   0.969   0.387   7.920  0.3735 -0.1966 -0.0972
 3057SOL    HW120804   1.010   0.445   7.856  2.8566  0.6384  2.2475
 3057SOL    HW220805   0.879   0.419   7.919 -0.0073 -1.1944  2.1633
 3058SOL     OW20806   0.865   1.560  16.093  0.2736  0.4611  1.2347
 3058SOL    HW120807   0.866   1.616  16.170  1.5433  1.4396  0.5069
 3058SOL    HW220808   0.953   1.524  16.089 -0.0048 -0.1960  0.9946
 3059SOL     OW20809   0.176   0.841   1.406 -0.7362 -0.4591 -0.0983
 3059SOL    HW120810   0.232   0.771   1.373 -0.6167 -0.5387  0.2754
 3059SOL    HW220811   0.229   0.878   1.477  1.3538  1.1385 -2.4950
 3060SOL     OW20812   2.989   4.398   2.026  0.1555  0.1519 -0.0485
 3060SOL    HW120813   3.062   4.447   2.064 -0.7765 -0.1243  2.0829
 3060SOL    HW220814   2.916   4.448   2.061 -1.0329 -0.2737 -1.9035
 3061SOL     OW20815   1.133   0.747   6.174 -0.2332 -0.1392 -0.1232
 3061SOL    HW120816   1.128   0.750   6.078 -1.3712 -1.0824 -0.0882
 3061SOL    HW220817   1.192   0.820   6.193 -2.2300  1.6413 -0.8496
 3062SOL     OW20818   3.713   3.544   3.478  0.1535  0.0472  0.4528
 3062SOL    HW120819   3.649   3.581   3.540  1.0683 -0.2330  1.5579
 3062SOL    HW220820   3.732   3.461   3.521 -0.9429  0.4680  1.7768
 3063SOL     OW20821   4.610   2.239   1.820  0.6057  0.4684 -0.3791
 3063SOL    HW120822   4.588   2.168   1.760 -2.0522  0.6991  0.3293
 3063SOL    HW220823   4.577   2.312   1.769  1.0217  0.5462 -0.5414
 3064SOL     OW20824   2.230   1.024   4.985 -0.1289  0.2225 -0.2116
 3064SOL    HW120825   2.281   0.944   4.988 -1.0589 -0.4027 -0.9051
 3064SOL    HW220826   2.295   1.093   4.971 -0.3486  0.2532 -1.0523
 3065SOL     OW20827   0.406   0.845   6.591 -0.1147  0.6802  0.0643
 3065SOL    HW120828   0.319   0.805   6.595  0.0345  0.4608  1.1038
 3065SOL    HW220829   0.428   0.842   6.498 -1.9787  1.3168 -0.4043
 3066SOL     OW20830   1.436   2.992   8.454 -0.5848  0.4546  0.5909
 3066SOL    HW120831   1.430   2.940   8.534 -1.4582  1.6121  1.2751
 3066SOL    HW220832   1.505   2.945   8.407  0.3305  0.8071  1.5984
 3067SOL     OW20833   0.608   1.134  15.534  0.1553 -0.2364 -0.1786
 3067SOL    HW120834   0.668   1.103  15.602  0.5010 -0.8811 -0.7701
 3067SOL    HW220835   0.666   1.131  15.457  0.5282  0.2091  0.0823
 3068SOL     OW20836   0.068   4.200  13.237 -0.3948 -0.0162 -0.7461
 3068SOL    HW120837   0.054   4.294  13.251 -2.7621 -0.7777  1.8892
 3068SOL    HW220838   0.101   4.168  13.321 -0.8618  0.2722 -0.4538
 3069SOL     OW20839   4.336   2.521  15.237 -0.2700 -0.1954  0.2522
 3069SOL    HW120840   4.331   2.428  15.215  1.4518 -0.6612  1.8094
 3069SOL    HW220841   4.259   2.550  15.189  0.3711  1.0997  0.0181
 3070SOL     OW20842   1.655   2.018   6.079  0.0119  0.1253 -0.6639
 3070SOL    HW120843   1.580   2.028   6.021 -1.1877 -0.0222  0.8607
 3070SOL    HW220844   1.705   2.096   6.054  0.1547 -1.1985 -4.4924
 3071SOL     OW20845   3.380   4.105   8.226 -0.2333  0.1296 -0.0534
 3071SOL    HW120846   3.432   4.108   8.146  0.3520  2.3988  0.4007
 3071SOL    HW220847   3.351   4.014   8.229  0.5972 -0.1760 -1.3726
 3072SOL     OW20848   0.567   0.503   2.359 -0.4847 -0.0315 -0.0622
 3072SOL    HW120849   0.571   0.423   2.306  0.0166 -0.5269  0.7265
 3072SOL    HW220850   0.608   0.572   2.307  0.0376  0.1486  0.5924
 3073SOL     OW20851   2.961   3.483  14.303  0.5092 -0.0201  0.0053
 3073SOL    HW120852   2.971   3.388  14.307 -1.1989 -0.2785 -1.6919
 3073SOL    HW220853   3.051   3.512  14.293  0.3862  0.0334 -0.9035
 3074SOL     OW20854   2.344   1.635   3.082 -0.3096  0.0155  0.6822
 3074SOL    HW120855   2.391   1.552   3.093 -0.8437 -0.5523 -1.3980
 3074SOL    HW220856   2.407   1.705   3.068  2.2958 -2.7006 -1.2767
 3075SOL     OW20857   2.846   2.436   9.367 -0.9195 -0.0533  0.2933
 3075SOL    HW120858   2.811   2.465   9.283  0.4285 -0.4023 -0.3731
 3075SOL    HW220859   2.789   2.482   9.429 -0.1746 -1.2003  1.8349
 3076SOL     OW20860   2.506   0.416   5.306  0.4132  0.0594 -0.0259
 3076SOL    HW120861   2.481   0.435   5.216  2.6028  2.9890 -0.0227
 3076SOL    HW220862   2.423   0.441   5.347  1.3892  2.6019  0.3821
 3077SOL     OW20863   1.687   1.787   7.285  0.3980  0.0778  0.4209
 3077SOL    HW120864   1.657   1.734   7.211  0.5590  1.0780 -0.3595
 3077SOL    HW220865   1.774   1.812   7.255  0.2358  1.1537  0.8416
 3078SOL     OW20866   0.725   3.704  17.489 -0.2071  0.7132  0.3402
 3078SOL    HW120867   0.776   3.670  17.416 -1.5365 -1.2719  0.3036
 3078SOL    HW220868   0.685   3.781  17.450 -0.3389  2.0299  3.0814
 3079SOL     OW20869   0.539   4.124   7.153  0.3869  0.1297 -0.5262
 3079SOL    HW120870   0.610   4.188   7.164  0.1456  0.1702  0.7148
 3079SOL    HW220871   0.472   4.170   7.103 -2.4191 -2.5011  0.8516
 3080SOL     OW20872   3.785   2.970   9.689 -0.3288 -0.9048 -0.0798
 3080SOL    HW120873   3.851   2.978   9.621 -0.7953 -0.3347 -0.4648
 3080SOL    HW220874   3.711   2.930   9.644  0.5558 -2.0564 -0.5044
 3081SOL     OW20875   1.723   4.281  10.411  0.1941 -0.0104 -0.8945
 3081SOL    HW120876   1.657   4.291  10.479  0.3861 -1.3630 -0.5080
 3081SOL    HW220877   1.684   4.218  10.349  0.3782 -0.4703 -0.5395
 3082SOL     OW20878   1.432   2.993   1.569  0.6284  0.0813  0.2042
 3082SOL    HW120879   1.435   2.937   1.492 -0.6384 -2.6770  2.1475
 3082SOL    HW220880   1.420   2.931   1.641 -1.8008 -0.3356 -0.5398
 3083SOL     OW20881   1.999   4.701   0.959 -0.1975 -0.2025 -0.5255
 3083SOL    HW120882   1.913   4.658   0.952 -0.6321  0.5125  0.4478
 3083SOL    HW220883   1.998   0.008   1.042 -1.1774 -1.8216  0.3773
 3084SOL     OW20884   1.000   1.740   3.334 -0.6756  0.4334  0.5461
 3084SOL    HW120885   0.995   1.684   3.257  1.5059 -0.9212  1.3808
 3084SOL    HW220886   1.005   1.823   3.286 -0.4669  0.9170  1.3995
 3085SOL     OW20887   4.737   1.182   2.781 -0.2962  0.3373 -0.6111
 3085SOL    HW120888   4.662   1.239   2.767 -2.7059 -2.3150  1.3027
 3085SOL    HW220889   4.704   1.098   2.749  0.0529 -0.1866  0.3899
 3086SOL     OW20890   4.226   2.939   2.851 -0.4975 -0.1754 -0.2240
 3086SOL    HW120891   4.212   3.027   2.817  2.5962  0.5930  0.5021
 3086SOL    HW220892   4.294   2.914   2.789 -1.2838 -3.1924  0.1465
 3087SOL     OW20893   1.854   1.235   3.388 -0.0173  0.2937 -0.6625
 3087SOL    HW120894   1.891   1.192   3.311 -1.1636 -2.4067  0.2803
 3087SOL    HW220895   1.792   1.294   3.345  1.7966  1.6130 -1.4734
 3088SOL     OW20896   3.917   2.887   1.083  0.0327 -0.3956 -0.1522
 3088SOL    HW120897   3.937   2.833   1.159  0.4319  0.5945  0.4491
 3088SOL    HW220898   3.949   2.829   1.014 -1.3555 -1.0904 -0.2055
 3089SOL     OW20899   0.026   3.176   1.967  0.1054  0.0490  0.0722
 3089SOL    HW120900   4.705   3.105   1.991  0.7781 -0.6793 -0.3805
 3089SOL    HW220901   0.106   3.133   1.937 -0.1392 -1.0621  1.0155
 3090SOL     OW20902   2.752   1.577   2.740  0.8522 -0.2776 -0.1889
 3090SOL    HW120903   2.666   1.620   2.740  1.3423  0.7416  2.5723
 3090SOL    HW220904   2.761   1.551   2.832 -1.4426 -0.1215  0.0794
 3091SOL     OW20905   3.736   4.221   5.700  0.8282 -0.5221 -0.2418
 3091SOL    HW120906   3.823   4.182   5.703  0.9683 -0.0924  1.1302
 3091SOL    HW220907   3.755   4.315   5.700 -2.0494  0.0617 -2.5167
 3092SOL     OW20908   3.455   2.118   5.347 -0.3665 -0.1155 -0.3387
 3092SOL    HW120909   3.388   2.169   5.301  0.8744  1.2229 -0.6624
 3092SOL    HW220910   3.506   2.077   5.277  1.9246  0.1339  1.1726
 3093SOL     OW20911   0.099   1.838  17.034 -0.2673 -0.0608 -0.0901
 3093SOL    HW120912   0.036   1.818  16.964 -0.1248 -0.6164 -0.0592
 3093SOL    HW220913   0.153   1.762  17.014  0.3873 -0.0468  1.6302
 3094SOL     OW20914   2.892   2.626   3.462 -0.2662 -0.1072 -0.0601
 3094SOL    HW120915   2.829   2.555   3.453 -1.6183  1.2150 -0.9706
 3094SOL    HW220916   2.848   2.685   3.401 -1.5635 -0.8301  0.1974
 3095SOL     OW20917   2.653   2.824   6.280 -0.1175  0.0379  0.2286
 3095SOL    HW120918   2.669   2.732   6.257  0.5504  0.5195 -1.2975
 3095SOL    HW220919   2.608   2.854   6.200 -0.0296 -0.1544  0.1055
 3096SOL     OW20920   3.633   3.957  15.492 -0.1342  0.5901  0.5980
 3096SOL    HW120921   3.680   4.018  15.548 -1.3704  0.3142  1.9267
 3096SOL    HW220922   3.711   3.921  15.449 -0.9161  1.7980 -1.8744
 3097SOL     OW20923   2.098   3.204   2.256  0.1171  0.2074 -0.2810
 3097SOL    HW120924   2.165   3.149   2.215  0.2220  0.8558 -0.9783
 3097SOL    HW220925   2.024   3.171   2.206 -0.3452  2.7881 -1.3232
 3098SOL     OW20926   1.207   2.613   8.763 -0.2437 -0.1442  0.0747
 3098SOL    HW120927   1.207   2.519   8.781  0.6619  0.2364  2.0828
 3098SOL    HW220928   1.138   2.645   8.822 -1.7403 -1.0465 -1.1739
 3099SOL     OW20929   0.032   2.337  12.577 -0.2027 -0.1325 -0.3586
 3099SOL    HW120930   4.724   2.396  12.636  1.8612  0.2128  0.9502
 3099SOL    HW220931   0.117   2.380  12.564 -1.8039  3.7328  1.8343
 3100SOL     OW20932   2.951   2.655   0.903 -0.1633 -0.9606 -0.8045
 3100SOL    HW120933   2.927   2.625   0.815  0.8401  1.3112 -1.8357
 3100SOL    HW220934   2.973   2.569   0.938  1.6205  0.2121  0.9272
 3101SOL     OW20935   0.834   4.454   1.878 -0.6038  0.4925  0.2996
 3101SOL    HW120936   0.769   4.411   1.823 -0.4107  0.8062 -0.1729
 3101SOL    HW220937   0.889   4.382   1.912 -0.2561  0.4999 -0.2434
 3102SOL     OW20938   0.928   2.630   8.855  0.0487 -0.0209 -0.2780
 3102SOL    HW120939   0.936   2.635   8.760  2.2994  0.8016 -0.0629
 3102SOL    HW220940   0.841   2.593   8.868  0.3458  0.4901  3.2617
 3103SOL     OW20941   3.160   2.707   8.627  0.0079  0.0258  0.5024
 3103SOL    HW120942   3.213   2.651   8.569  1.7849  0.1346  2.0275
 3103SOL    HW220943   3.082   2.715   8.572  2.0705  3.2810 -1.9252
 3104SOL     OW20944   4.109   4.373   4.122  0.6916 -0.8449  0.3806
 3104SOL    HW120945   4.115   4.393   4.216  0.9492  1.7496 -0.1895
 3104SOL    HW220946   4.056   4.294   4.131  1.2938 -1.2910  0.0377
 3105SOL     OW20947   1.233   3.969   7.929  0.4552  0.4768  0.0170
 3105SOL    HW120948   1.138   3.978   7.932  0.4763  0.9294 -0.6646
 3105SOL    HW220949   1.241   3.970   8.024 -0.1989  1.5813  0.0574
 3106SOL     OW20950   1.778   1.622  11.783 -0.8550  0.1453  0.0119
 3106SOL    HW120951   1.797   1.714  11.803  2.8303 -0.5641 -0.2164
 3106SOL    HW220952   1.863   1.580  11.765 -0.7871 -0.4730  1.7522
 3107SOL     OW20953   4.390   3.488  13.612 -0.5543  0.1885 -0.8233
 3107SOL    HW120954   4.454   3.559  13.613 -1.6202  1.1712 -1.8126
 3107SOL    HW220955   4.330   3.518  13.680  0.1635  0.1778 -0.1897
 3108SOL     OW20956   2.179   0.274   6.931  0.1796  0.6858  0.0027
 3108SOL    HW120957   2.161   0.320   7.012  2.1902  0.1252  0.7724
 3108SOL    HW220958   2.122   0.198   6.935  1.0911  0.1166  1.8147
 3109SOL     OW20959   1.034   1.056  16.016 -0.0204 -0.3136  0.5229
 3109SOL    HW120960   0.963   1.120  16.006  1.5017  1.3483  0.4558
 3109SOL    HW220961   1.081   1.068  15.934 -1.2634 -0.7453 -0.2540
 3110SOL     OW20962   3.784   3.219   7.249  0.5239  0.1572 -0.3029
 3110SOL    HW120963   3.768   3.304   7.208 -0.4173  0.2648  0.3068
 3110SOL    HW220964   3.788   3.168   7.168  0.3452 -0.2761 -0.0389
 3111SOL     OW20965   2.483   4.077   6.670 -0.3248 -0.0285 -0.5324
 3111SOL    HW120966   2.416   4.029   6.720 -0.3772  0.3945 -0.2007
 3111SOL    HW220967   2.520   3.997   6.632 -2.0816 -0.0014 -2.3013
 3112SOL     OW20968   1.683   3.216  17.725  0.3481 -0.4206  0.5677
 3112SOL    HW120969   1.642   3.300  17.706  2.5855  0.6657  0.5890
 3112SOL    HW220970   1.613   3.154  17.747  0.1382 -1.1786 -2.1746
 3113SOL     OW20971   0.298   3.770   5.238 -0.2422  0.2447  0.2235
 3113SOL    HW120972   0.237   3.843   5.242 -1.7835 -0.9005 -2.7542
 3113SOL    HW220973   0.378   3.816   5.214 -1.9043  2.3869 -1.1380
 3114SOL     OW20974   2.840   0.888   8.981 -0.5741 -0.1487  0.0260
 3114SOL    HW120975   2.790   0.858   8.906  0.3588  0.7805 -0.9657
 3114SOL    HW220976   2.929   0.877   8.948  0.0361  0.2255  1.5403
 3115SOL     OW20977   3.473   1.902  14.660  0.6194 -0.3779 -0.2310
 3115SOL    HW120978   3.412   1.865  14.724  0.5885 -1.7906 -1.0882
 3115SOL    HW220979   3.473   1.997  14.675  2.7136 -0.3458 -0.4126
 3116SOL     OW20980   3.259   0.660   3.864 -0.4790 -0.2452 -0.0694
 3116SOL    HW120981   3.317   0.604   3.916 -1.1730  1.3863  2.4598
 3116SOL    HW220982   3.208   0.713   3.925 -2.1576 -0.6446 -1.1483
 3117SOL     OW20983   2.349   4.379   6.053 -0.0013 -0.0328  0.1793
 3117SOL    HW120984   2.439   4.394   6.083 -0.0237  3.3404 -1.4984
 3117SOL    HW220985   2.362   4.306   5.993  0.7103 -0.2085  0.5363
 3118SOL     OW20986   2.443   2.112  12.746 -0.3835  0.1962 -0.0125
 3118SOL    HW120987   2.395   2.096  12.665  1.5084 -1.3938 -0.8248
 3118SOL    HW220988   2.407   2.199  12.765  0.7288  0.6105  0.1484
 3119SOL     OW20989   2.852   3.613   3.363 -0.3688 -0.1154 -0.0694
 3119SOL    HW120990   2.929   3.573   3.402 -0.9505  0.7654  1.9846
 3119SOL    HW220991   2.823   3.669   3.435  0.7928  0.9482 -0.4156
 3120SOL     OW20992   2.363   2.424   9.114 -0.3140  0.5637 -0.1263
 3120SOL    HW120993   2.445   2.460   9.147  0.5247 -1.8698  0.4110
 3120SOL    HW220994   2.315   2.502   9.086  1.2627  1.2309 -1.0050
 3121SOL     OW20995   2.506   0.418   7.791  0.0317 -0.4276 -0.3970
 3121SOL    HW120996   2.500   0.326   7.766  3.5306 -1.1884  1.4553
 3121SOL    HW220997   2.415   0.426   7.820  0.8348  0.1373  2.0101
 3122SOL     OW20998   3.676   0.025  13.322  0.2811 -0.6269  1.2089
 3122SOL    HW120999   3.628   4.689  13.287 -2.4393  1.1359  1.1741
 3122SOL    HW221000   3.617   0.095  13.296  0.7175 -1.0244 -0.8936
 3123SOL     OW21001   3.646   1.400   6.873 -0.3155 -0.7545  0.2437
 3123SOL    HW121002   3.694   1.325   6.910  0.3654 -1.2463 -1.6532
 3123SOL    HW221003   3.568   1.352   6.844 -1.2729  1.4291 -0.7933
 3124SOL     OW21004   2.189   3.134   7.011 -0.0668 -0.5099  0.3621
 3124SOL    HW121005   2.183   3.054   6.959 -0.0160 -0.6026  0.4977
 3124SOL    HW221006   2.164   3.199   6.945 -0.2620 -0.3457  0.5991
 3125SOL     OW21007   0.007   3.162  11.469 -0.4217 -0.1747 -0.4763
 3125SOL    HW121008   4.727   3.227  11.401 -1.9983  0.7170  0.8116
 3125SOL    HW221009   4.688   3.197  11.537  1.8458 -0.6104  1.6611
 3126SOL     OW21010   0.524   1.295   7.180  0.2415  0.4211  0.7215
 3126SOL    HW121011   0.511   1.316   7.088  2.6730  1.4425  0.6199
 3126SOL    HW221012   0.600   1.347   7.206  2.2021 -0.9704 -2.3504
 3127SOL     OW21013   3.829   0.081   4.646  0.1844 -1.0560 -0.2921
 3127SOL    HW121014   3.819   0.140   4.571 -0.0416  0.4428  0.9084
 3127SOL    HW221015   3.738   0.076   4.678  0.5764  0.2481  1.0702
 3128SOL     OW21016   3.746   2.847  10.340  0.3172 -0.6268  0.5650
 3128SOL    HW121017   3.657   2.871  10.316  0.0068 -1.6517  0.6767
 3128SOL    HW221018   3.793   2.895  10.271 -1.4090  1.8149  1.0890
 3129SOL     OW21019   3.340   3.385   8.840  0.2311  0.2682  0.5339
 3129SOL    HW121020   3.357   3.324   8.768 -3.2256  0.5984 -0.5562
 3129SOL    HW221021   3.394   3.460   8.812 -0.6888  0.2418 -1.2745
 3130SOL     OW21022   2.373   2.328   5.279  0.0999 -0.4902 -0.0869
 3130SOL    HW121023   2.337   2.300   5.195  0.2605 -1.1406  0.0596
 3130SOL    HW221024   2.354   2.244   5.322  0.0813 -0.7849 -0.6798
 3131SOL     OW21025   1.125   1.275   7.509 -0.1757  0.2797  0.1287
 3131SOL    HW121026   1.187   1.324   7.455  1.6407 -1.6419  0.4781
 3131SOL    HW221027   1.182   1.218   7.560 -1.4956 -0.7938  0.4114
 3132SOL     OW21028   1.597   1.960  16.962 -0.3649 -0.0938 -0.3311
 3132SOL    HW121029   1.501   1.955  16.960 -0.4401  1.8091 -0.7874
 3132SOL    HW221030   1.618   1.961  17.055  0.6399 -0.7472 -0.5510
 3133SOL     OW21031   2.151   1.142   5.526  0.2274 -0.6126 -0.0359
 3133SOL    HW121032   2.216   1.109   5.588  0.0468 -0.0338  0.4708
 3133SOL    HW221033   2.065   1.150   5.568  0.1035 -3.2805  0.2153
 3134SOL     OW21034   0.803   2.865  10.481 -0.3440  0.2470  0.3545
 3134SOL    HW121035   0.790   2.771  10.477 -0.1165  0.1407  1.9589
 3134SOL    HW221036   0.772   2.897  10.566 -1.2650  0.7657 -0.1831
 3135SOL     OW21037   4.590   2.087   6.576 -0.5352 -0.2244 -0.3482
 3135SOL    HW121038   4.535   2.011   6.559 -0.4552 -0.5736  1.0086
 3135SOL    HW221039   4.598   2.135   6.493 -1.7730 -0.2428 -0.4779
 3136SOL     OW21040   1.469   2.524   6.208  0.4874 -0.1417  0.7953
 3136SOL    HW121041   1.487   2.576   6.287  1.4460  0.4659  0.1819
 3136SOL    HW221042   1.460   2.433   6.235 -1.0225 -0.7989 -1.9101
 3137SOL     OW21043   0.216   1.636  14.773 -0.4553  0.3697  0.2563
 3137SOL    HW121044   0.250   1.619  14.685 -1.7567 -2.0005  0.1959
 3137SOL    HW221045   0.139   1.581  14.758 -0.4820  0.5293 -0.2088
 3138SOL     OW21046   1.586   2.001   4.179 -0.0720 -0.1065 -0.5810
 3138SOL    HW121047   1.669   2.019   4.222 -0.0978 -0.0661 -0.5490
 3138SOL    HW221048   1.542   1.936   4.235 -0.6497  0.1639 -0.7203
 3139SOL     OW21049   0.669   3.441  10.623  0.0832  0.3637  0.0448
 3139SOL    HW121050   0.588   3.407  10.661  0.6131 -0.5568  0.3611
 3139SOL    HW221051   0.634   3.489  10.548  0.3941  2.6125  1.3550
 3140SOL     OW21052   3.863   2.740   8.428  0.5634  0.6770 -0.0591
 3140SOL    HW121053   3.906   2.823   8.448 -1.8778  1.3694  2.3473
 3140SOL    HW221054   3.918   2.704   8.358 -1.1416 -0.3331 -0.8837
 3141SOL     OW21055   1.812   0.233   2.496  0.2184  0.0732 -0.0857
 3141SOL    HW121056   1.834   0.227   2.589  0.0826 -0.5863 -0.0965
 3141SOL    HW221057   1.863   0.161   2.460 -2.0542 -1.4244 -0.2996
 3142SOL     OW21058   4.138   3.679   4.824 -0.3251  0.4313  0.2909
 3142SOL    HW121059   4.159   3.662   4.916  0.8333  0.9760  0.1258
 3142SOL    HW221060   4.179   3.764   4.805 -1.5395  0.9636  0.0670
 3143SOL     OW21061   1.052   4.079   5.612 -0.3320  0.0004  0.1432
 3143SOL    HW121062   1.132   4.080   5.665 -0.6173  1.1213  0.5592
 3143SOL    HW221063   1.063   4.152   5.551  0.9205  0.5039  0.9822
 3144SOL     OW21064   3.961   0.368  13.921  0.3814  0.4524  0.2389
 3144SOL    HW121065   3.868   0.374  13.944 -0.0670 -0.5299 -1.3054
 3144SOL    HW221066   3.947   0.332  13.833  0.7909 -0.3867  0.5309
 3145SOL     OW21067   1.762   3.191   5.972 -0.0653 -0.2093 -0.3646
 3145SOL    HW121068   1.843   3.233   5.944  0.7711 -2.0056 -0.5928
 3145SOL    HW221069   1.706   3.206   5.896  1.5530 -0.2752 -1.5701
 3146SOL     OW21070   0.961   2.953   3.796 -0.0522  0.5127 -0.2514
 3146SOL    HW121071   0.884   2.902   3.822 -1.1123  1.4852 -1.4986
 3146SOL    HW221072   0.987   2.997   3.878  0.2658 -1.1770  0.5494
 3147SOL     OW21073   1.755   4.205   4.818  0.1788 -0.1238 -0.5926
 3147SOL    HW121074   1.662   4.203   4.796 -0.0289  2.1416  0.1089
 3147SOL    HW221075   1.776   4.298   4.811 -2.6302  0.4110 -1.8592
 3148SOL     OW21076   1.596   1.685  12.497 -0.4715  0.6008 -0.0782
 3148SOL    HW121077   1.625   1.684  12.588 -1.1615  2.0013  0.1520
 3148SOL    HW221078   1.630   1.600  12.468 -0.2450 -0.4661  3.3209
 3149SOL     OW21079   1.767   0.038   3.364 -0.0314 -0.5241  0.3629
 3149SOL    HW121080   1.842   0.093   3.383 -1.1828  1.1216  0.1143
 3149SOL    HW221081   1.809   4.691   3.366  1.8997  0.4093  0.3533
 3150SOL     OW21082   2.072   1.495   7.603  0.2804 -0.0445 -0.0267
 3150SOL    HW121083   2.015   1.529   7.672  0.3612  0.2838 -0.1252
 3150SOL    HW221084   2.009   1.457   7.541 -0.3327 -1.4031  1.4194
 3151SOL     OW21085   4.622   3.463   9.164 -0.5478 -0.1916  0.3522
 3151SOL    HW121086   4.578   3.409   9.098 -1.6828 -0.9400  1.6970
 3151SOL    HW221087   4.542   3.504   9.197 -0.3946  0.1639  0.2708
 3152SOL     OW21088   4.136   4.580   1.041  0.0207  0.0869  0.4368
 3152SOL    HW121089   4.224   4.559   1.010 -1.1716 -0.5625 -2.5302
 3152SOL    HW221090   4.075   4.577   0.967  1.6064 -2.2283 -0.7799
 3153SOL     OW21091   2.089   0.027   3.525 -0.0258 -0.4232 -0.4955
 3153SOL    HW121092   2.176   0.036   3.563 -0.3103  1.1958 -0.2085
 3153SOL    HW221093   2.110   4.684   3.482  1.7246 -0.4052  0.3333
 3154SOL     OW21094   0.476   4.711   4.999 -0.1702  0.4034  0.1479
 3154SOL    HW121095   0.446   4.671   4.917  0.9307 -1.4849  0.6580
 3154SOL    HW221096   0.416   0.046   5.001 -2.1315 -1.1391 -0.9615
 3155SOL     OW21097   3.843   3.330   8.247 -0.0195 -0.2198 -0.0865
 3155SOL    HW121098   3.859   3.414   8.203  0.3147  1.1402  2.6297
 3155SOL    HW221099   3.933   3.296   8.244 -0.3811 -1.2163  0.5468
 3156SOL     OW21100   0.668   3.075   2.417  0.7435  0.4075 -0.2067
 3156SOL    HW121101   0.650   3.087   2.324  2.7347  1.5282 -0.4538
 3156SOL    HW221102   0.609   3.132   2.465  1.6989  1.4307 -0.2566
 3157SOL     OW21103   0.087   2.027   6.376 -0.0660  0.6479  0.3355
 3157SOL    HW121104   0.165   2.078   6.353 -0.7131  2.2945  1.7535
 3157SOL    HW221105   0.026   2.098   6.358 -2.7426 -1.1569  2.2292
 3158SOL     OW21106   0.997   3.138   3.599  0.1167  0.3128  0.0262
 3158SOL    HW121107   0.980   3.063   3.655 -1.3793  0.6117 -0.0240
 3158SOL    HW221108   0.916   3.144   3.547  1.2243  0.7881 -1.6626
 3159SOL     OW21109   0.818   2.084  17.581  0.2180 -0.0455 -0.3407
 3159SOL    HW121110   0.771   2.000  17.581 -1.2684  0.7995 -0.8773
 3159SOL    HW221111   0.909   2.060  17.602 -0.7830 -2.8619  0.8820
 3160SOL     OW21112   1.242   4.703   4.324 -0.3914 -0.2760 -0.2102
 3160SOL    HW121113   1.220   4.713   4.416 -1.9981 -0.6579 -0.5595
 3160SOL    HW221114   1.254   0.054   4.295 -0.1216 -0.5734 -1.0263
 3161SOL     OW21115   1.961   1.914   8.634  0.0224 -0.1913  0.0742
 3161SOL    HW121116   1.929   1.859   8.561 -2.0773 -0.1243  0.9331
 3161SOL    HW221117   2.041   1.864   8.648  0.5301  0.4956 -0.4442
 3162SOL     OW21118   2.371   2.521   5.468  0.1739 -0.4670 -0.5386
 3162SOL    HW121119   2.280   2.550   5.463  0.4728  0.8182  1.2791
 3162SOL    HW221120   2.353   2.452   5.404  3.1406 -0.8292 -0.9864
 3163SOL     OW21121   2.837   2.680  13.741  0.4212  0.5964 -0.2370
 3163SOL    HW121122   2.897   2.702  13.670 -0.8184 -0.0201 -1.4730
 3163SOL    HW221123   2.903   2.631  13.790  0.6128 -2.1529 -3.2191
 3164SOL     OW21124   2.189   3.484   8.081 -0.0978  0.0944 -0.1696
 3164SOL    HW121125   2.119   3.440   8.032 -1.0507  0.7403  0.6028
 3164SOL    HW221126   2.242   3.407   8.099  0.6265  0.9013  1.1954
 3165SOL     OW21127   3.373   3.189   3.903  0.5328  0.2686  0.2701
 3165SOL    HW121128   3.397   3.097   3.893  0.4671  0.3263 -0.4509
 3165SOL    HW221129   3.363   3.190   3.998  1.6838 -1.2199  0.4105
 3166SOL     OW21130   2.592   1.484   1.928 -0.3540  0.0729  0.5328
 3166SOL    HW121131   2.669   1.492   1.872 -1.2520 -0.3261 -0.7673
 3166SOL    HW221132   2.538   1.559   1.903  1.6331  0.9387 -1.1660
 3167SOL     OW21133   0.284   3.715   7.263  0.2991 -0.2426 -0.5930
 3167SOL    HW121134   0.220   3.648   7.240 -0.5227  1.4054 -3.0593
 3167SOL    HW221135   0.357   3.658   7.288  0.4348 -0.1527 -0.7891
 3168SOL     OW21136   4.731   4.641  12.578  0.0096  0.3445  0.5721
 3168SOL    HW121137   4.689   4.564  12.615  0.1272  0.1212  0.2294
 3168SOL    HW221138   0.032   4.612  12.497 -0.9446 -0.9819  0.5797
 3169SOL     OW21139   4.640   2.491   8.780 -0.0224  0.1027 -0.4267
 3169SOL    HW121140   4.711   2.439   8.741  0.5595 -0.6583  1.6468
 3169SOL    HW221141   4.676   2.575   8.806  2.7559 -1.1868 -0.1303
 3170SOL     OW21142   1.688   1.478   6.293  0.4291  0.2134 -0.0704
 3170SOL    HW121143   1.621   1.410   6.299 -0.4372  1.0028 -0.6556
 3170SOL    HW221144   1.713   1.459   6.202 -2.3631 -0.0092 -0.8026
 3171SOL     OW21145   0.357   3.755   8.780  0.0679  0.1579  0.4949
 3171SOL    HW121146   0.266   3.731   8.798 -0.0153 -0.4404 -0.7404
 3171SOL    HW221147   0.402   3.671   8.791 -1.1509 -0.4951  0.5307
 3172SOL     OW21148   4.142   2.587   2.712  0.0695  0.2821  0.0837
 3172SOL    HW121149   4.049   2.608   2.715 -0.3028 -1.4362  0.0439
 3172SOL    HW221150   4.176   2.643   2.642  1.0956 -1.0065 -0.4406
 3173SOL     OW21151   1.172   0.759   7.958  0.6216 -0.0752  0.2663
 3173SOL    HW121152   1.224   0.754   8.037 -1.0278 -0.6653  1.3099
 3173SOL    HW221153   1.206   0.844   7.928  0.3664  0.7069  2.2273
 3174SOL     OW21154   4.708   2.720   1.155 -0.1213 -0.2907 -0.1994
 3174SOL    HW121155   0.049   2.771   1.158  0.2247 -0.8303 -0.2983
 3174SOL    HW221156   4.738   2.655   1.092  0.3300 -2.3086  2.0831
 3175SOL     OW21157   0.917   3.594   8.877  0.5640  0.9292 -0.4151
 3175SOL    HW121158   0.976   3.527   8.842  0.1879  1.3999 -1.9880
 3175SOL    HW221159   0.974   3.669   8.893  2.0261 -0.4365  0.6919
 3176SOL     OW21160   0.756   0.671   2.531  0.5718 -0.1223 -0.2351
 3176SOL    HW121161   0.709   0.589   2.518 -2.3589  1.2706  1.4810
 3176SOL    HW221162   0.764   0.671   2.627  0.0001  3.1712 -0.2027
 3177SOL     OW21163   2.973   3.372   0.558 -0.5452  0.3435  0.1178
 3177SOL    HW121164   2.996   3.345   0.647  0.2326 -1.3355 -0.6081
 3177SOL    HW221165   2.886   3.398   0.590 -1.7506 -2.1130 -1.1533
 3178SOL     OW21166   2.916   1.845   6.669  0.6476 -0.1167  0.3594
 3178SOL    HW121167   2.841   1.901   6.689  0.4016 -0.2925 -0.0620
 3178SOL    HW221168   2.985   1.908   6.691  1.3085 -1.3581  1.7677
 3179SOL     OW21169   0.061   0.762  10.957 -0.1300 -0.3994 -0.0356
 3179SOL    HW121170   0.069   0.680  10.908  2.3165 -0.6496  0.7843
 3179SOL    HW221171   0.150   0.796  10.966 -1.1574  2.0824  0.7852
 3180SOL     OW21172   1.327   3.698   2.444  0.1036  0.8449  0.0011
 3180SOL    HW121173   1.405   3.714   2.496  1.0331 -0.5735 -0.9370
 3180SOL    HW221174   1.252   3.739   2.487 -0.0282  1.3306 -0.6917
 3181SOL     OW21175   2.348   2.165  16.688  0.5317 -0.2165  0.1874
 3181SOL    HW121176   2.411   2.095  16.697 -2.2959 -2.8917 -0.8661
 3181SOL    HW221177   2.345   2.169  16.592  1.3699  0.3012  0.1814
 3182SOL     OW21178   2.289   0.594   6.354  0.2439  0.1403  0.3767
 3182SOL    HW121179   2.264   0.665   6.294  0.7246  0.5989  0.7176
 3182SOL    HW221180   2.311   0.522   6.295  0.9231  0.4956  0.1873
 3183SOL     OW21181   3.328   0.446   7.301  0.0556  0.0168 -0.0870
 3183SOL    HW121182   3.393   0.502   7.259  1.1397 -0.6213  0.7600
 3183SOL    HW221183   3.384   0.372   7.322  2.6810  1.4207 -2.2031
 3184SOL     OW21184   1.593   0.082  15.044 -0.0528  0.2692 -0.6066
 3184SOL    HW121185   1.592   0.054  15.136 -0.5427  0.4454 -0.5558
 3184SOL    HW221186   1.678   0.125  15.043 -1.8865  3.9930 -0.0699
 3185SOL     OW21187   1.039   3.740  10.779  0.3396 -0.2047 -0.6729
 3185SOL    HW121188   1.107   3.740  10.847  0.3263 -0.4345 -0.6595
 3185SOL    HW221189   0.995   3.823  10.795  1.8301  0.3667  0.5035
 3186SOL     OW21190   1.880   3.170  10.806  0.1340 -0.4002  0.8289
 3186SOL    HW121191   1.967   3.140  10.831 -0.7297 -1.8075  2.1397
 3186SOL    HW221192   1.823   3.099  10.836  0.7556 -1.2360  0.0588
 3187SOL     OW21193   2.419   2.922   0.670 -0.0207  0.3036 -0.5242
 3187SOL    HW121194   2.395   2.913   0.762 -0.2041  0.7021 -0.5317
 3187SOL    HW221195   2.485   2.992   0.678 -0.2808  0.4184  0.6571
 3188SOL     OW21196   4.132   2.237   3.051  0.1580 -0.0971 -0.7608
 3188SOL    HW121197   4.131   2.270   3.141  2.1728  0.0259 -0.7862
 3188SOL    HW221198   4.041   2.260   3.030 -0.3930  0.2430  2.0383
 3189SOL     OW21199   0.248   3.546   0.954 -0.5510  0.3338  0.1191
 3189SOL    HW121200   0.195   3.522   0.878 -1.2123 -0.3818  0.8126
 3189SOL    HW221201   0.209   3.632   0.971  0.2348  1.3015 -2.9180
 3190SOL     OW21202   4.631   0.803   7.308 -0.1757  0.5208  0.1808
 3190SOL    HW121203   4.720   0.778   7.333  1.0592  2.0743 -2.5942
 3190SOL    HW221204   4.574   0.727   7.320  0.2974 -0.0448 -1.0996
 3191SOL     OW21205   4.182   3.706  12.625 -0.4017 -0.0178  0.4925
 3191SOL    HW121206   4.263   3.681  12.581 -1.1827 -1.8607  0.1326
 3191SOL    HW221207   4.177   3.799  12.600 -1.7887 -0.3446 -0.4190
 3192SOL     OW21208   3.222   2.838  14.939 -0.2098  0.2054 -0.6057
 3192SOL    HW121209   3.180   2.919  14.969  0.1834  0.2119 -0.0787
 3192SOL    HW221210   3.196   2.779  15.009 -0.1704  0.4707 -0.3657
 3193SOL     OW21211   4.188   0.550   7.529 -0.0928  0.4257  0.4677
 3193SOL    HW121212   4.132   0.519   7.601 -0.8702 -2.7181 -1.4961
 3193SOL    HW221213   4.225   0.462   7.521 -1.0059  0.2154 -1.2884
 3194SOL     OW21214   0.507   2.743   6.961  0.3019 -0.1931 -0.2652
 3194SOL    HW121215   0.540   2.817   7.012 -2.3665  1.0934 -0.3520
 3194SOL    HW221216   0.562   2.755   6.883 -0.5766 -2.5721 -1.2391
 3195SOL     OW21217   2.986   2.573  11.503  0.6060  0.6882 -0.3428
 3195SOL    HW121218   2.980   2.664  11.532 -0.5983  0.4920  0.0230
 3195SOL    HW221219   2.907   2.566  11.449  1.6173 -0.8599 -1.6165
 3196SOL     OW21220   1.810   3.251   1.902  0.0975 -0.2485 -0.5499
 3196SOL    HW121221   1.820   3.234   1.809 -0.5950 -1.2392 -0.4413
 3196SOL    HW221222   1.868   3.325   1.920  0.7349 -1.1914  1.2493
 3197SOL     OW21223   0.018   4.152   8.119  0.4313 -0.0771 -0.0979
 3197SOL    HW121224   0.037   4.135   8.027  0.5351 -3.3746  0.5091
 3197SOL    HW221225   4.665   4.166   8.099 -0.1631 -2.0372  1.2003
 3198SOL     OW21226   0.111   3.015   1.707 -0.0835  0.3872  0.2871
 3198SOL    HW121227   0.154   2.950   1.652 -1.3340  1.0562 -1.4955
 3198SOL    HW221228   0.181   3.030   1.770  0.6433 -0.4729 -0.3212
 3199SOL     OW21229   2.351   0.743   9.288  0.2340  0.3514 -0.1206
 3199SOL    HW121230   2.339   0.827   9.245 -2.6195  0.7557  1.4968
 3199SOL    HW221231   2.343   0.763   9.382 -0.3902 -0.3683 -0.0226
 3200SOL     OW21232   3.607   0.357  14.714  0.2507 -0.1074  0.4597
 3200SOL    HW121233   3.524   0.326  14.677 -0.4847  1.9883  0.3366
 3200SOL    HW221234   3.571   0.407  14.787  1.5775  2.8556 -0.8958
 3201SOL     OW21235   3.404   4.722  13.349 -0.2101  0.1807 -0.1216
 3201SOL    HW121236   3.408   0.043  13.423  2.6565  0.5833 -0.6166
 3201SOL    HW221237   3.401   0.037  13.270  0.1658 -0.3478 -0.5026
 3202SOL     OW21238   3.081   2.758  15.171 -0.3542 -0.4490  0.0808
 3202SOL    HW121239   3.052   2.674  15.208  1.2822 -1.0769 -0.0310
 3202SOL    HW221240   3.004   2.814  15.172 -0.4771 -0.6145 -0.1139
 3203SOL     OW21241   2.601   0.761   2.032 -0.3404 -0.2252  0.7960
 3203SOL    HW121242   2.511   0.766   1.999 -0.4259 -0.5970  0.9632
 3203SOL    HW221243   2.616   0.849   2.064  0.5066  0.2302 -0.8352
 3204SOL     OW21244   3.085   1.444  10.644 -0.1922 -0.1195  0.0630
 3204SOL    HW121245   3.164   1.460  10.592  1.0958 -0.7602  1.7900
 3204SOL    HW221246   3.119   1.387  10.714  0.1325 -1.4494 -1.1725
 3205SOL     OW21247   4.394   2.291   2.993  0.2163 -0.2218 -0.4106
 3205SOL    HW121248   4.302   2.299   3.019  0.9131  1.4962  1.5311
 3205SOL    HW221249   4.429   2.244   3.069  1.7286 -0.6350 -1.3652
 3206SOL     OW21250   2.113   1.678   3.251  0.5140  0.0435  0.4005
 3206SOL    HW121251   2.039   1.649   3.198  0.3595  1.8086 -0.3359
 3206SOL    HW221252   2.176   1.695   3.181  0.3484  0.2164  0.2930
 3207SOL     OW21253   3.566   1.952   7.818  0.2087  0.1892  0.0679
 3207SOL    HW121254   3.593   2.038   7.848  0.0497  0.1359  0.3610
 3207SOL    HW221255   3.495   1.984   7.762 -0.5495 -0.1020  0.8485
 3208SOL     OW21256   4.484   0.650  16.973 -0.6401  0.4065  0.1727
 3208SOL    HW121257   4.554   0.698  17.016 -0.7470  0.5334  0.2050
 3208SOL    HW221258   4.419   0.648  17.042  0.2645 -0.6973  0.9811
 3209SOL     OW21259   4.656   2.057   3.369 -0.2905  0.1035 -0.6005
 3209SOL    HW121260   4.645   2.104   3.452  0.4444 -0.2170 -0.3263
 3209SOL    HW221261   4.677   1.970   3.403  0.7219 -0.4735 -2.7108
 3210SOL     OW21262   1.837   1.387  13.216 -1.1100 -0.0158  0.1171
 3210SOL    HW121263   1.902   1.437  13.167 -1.6195 -1.3288 -1.8956
 3210SOL    HW221264   1.857   1.411  13.307  0.8997 -0.8739 -0.0934
 3211SOL     OW21265   3.426   2.566   9.809  0.5649  0.4451 -0.6466
 3211SOL    HW121266   3.367   2.597   9.740  0.7724  0.9149 -0.6092
 3211SOL    HW221267   3.418   2.471   9.814  0.3056  0.2852 -3.8207
 3212SOL     OW21268   3.251   1.619   8.493 -0.2212 -0.2449  0.1959
 3212SOL    HW121269   3.203   1.564   8.432 -0.0809  1.1362 -1.1679
 3212SOL    HW221270   3.181   1.663   8.540  1.8825 -0.9486  3.9842
 3213SOL     OW21271   1.964   3.782   8.586  0.2732  0.2785  0.4427
 3213SOL    HW121272   2.032   3.781   8.519  0.0044  2.2002  0.1374
 3213SOL    HW221273   1.936   3.872   8.568  2.0988  0.3465 -2.0846
 3214SOL     OW21274   0.389   1.066   4.614  0.3261  0.3460  0.2449
 3214SOL    HW121275   0.362   1.051   4.705 -0.2249  1.2886  0.2420
 3214SOL    HW221276   0.444   1.144   4.624 -0.2806  1.0569 -1.8834
 3215SOL     OW21277   3.188   2.742   0.985  0.3853 -0.5891 -0.3483
 3215SOL    HW121278   3.193   2.832   0.954 -1.5851 -0.5263 -0.4788
 3215SOL    HW221279   3.106   2.712   0.945 -1.1986  2.0766  0.8899
 3216SOL     OW21280   2.561   2.535   5.232  0.2086  0.7990 -0.3348
 3216SOL    HW121281   2.519   2.454   5.259  0.2731  0.8635 -0.0334
 3216SOL    HW221282   2.558   2.517   5.138  3.6281  3.1653 -0.9202
 3217SOL     OW21283   1.042   4.090  14.486  0.1882  0.2438 -0.0269
 3217SOL    HW121284   1.049   4.058  14.396  0.2192  1.1482 -0.3457
 3217SOL    HW221285   1.005   4.178  14.477 -1.7156 -0.7486 -1.9973
 3218SOL     OW21286   4.245   0.923  15.660 -0.4178  0.0429 -0.0786
 3218SOL    HW121287   4.335   0.955  15.649 -0.2297 -1.0998 -1.7335
 3218SOL    HW221288   4.222   0.880  15.578 -0.9899  0.1328  0.0343
 3219SOL     OW21289   0.956   1.273   6.068  0.1698  0.6953 -0.0732
 3219SOL    HW121290   0.951   1.245   5.976  2.2494 -1.1126  0.3618
 3219SOL    HW221291   0.946   1.367   6.053  0.1626  0.6534 -0.3442
 3220SOL     OW21292   1.662   1.787   0.543 -0.4700 -0.6904  0.1936
 3220SOL    HW121293   1.678   1.694   0.561 -1.5564 -0.9750 -0.2832
 3220SOL    HW221294   1.739   1.824   0.585 -0.4430  0.2559 -0.6762
 3221SOL     OW21295   2.596   2.198  13.327  0.2708 -0.1020 -0.2047
 3221SOL    HW121296   2.602   2.167  13.237  0.0223  2.4944 -1.0821
 3221SOL    HW221297   2.681   2.241  13.332 -0.6854  1.6499  0.8787
 3222SOL     OW21298   0.958   0.533   7.017 -0.1958  0.3980 -0.2265
 3222SOL    HW121299   0.991   0.464   6.959 -0.7834 -2.7094  3.1560
 3222SOL    HW221300   0.991   0.608   6.969  0.5960  0.8828  1.0867
 3223SOL     OW21301   1.472   3.944   6.305  0.1702  0.2904  0.0656
 3223SOL    HW121302   1.501   3.925   6.394  1.5427  0.2848 -0.3862
 3223SOL    HW221303   1.529   4.018   6.285  0.6069  0.2716  1.2935
 3224SOL     OW21304   0.849   3.498   1.891 -0.0472  0.8508 -0.6687
 3224SOL    HW121305   0.796   3.484   1.813 -1.2635  1.6230  0.0207
 3224SOL    HW221306   0.792   3.561   1.935  1.4030  1.7129 -0.0200
 3225SOL     OW21307   2.144   4.486  13.242 -0.1034 -0.4125 -0.1537
 3225SOL    HW121308   2.093   4.516  13.317 -2.6901 -1.4345 -1.4817
 3225SOL    HW221309   2.116   4.549  13.175 -0.8550 -0.0488  0.5015
 3226SOL     OW21310   4.012   2.802   0.826  0.5330  0.6502 -0.0303
 3226SOL    HW121311   3.922   2.797   0.793 -0.2236 -0.6076  2.2171
 3226SOL    HW221312   4.036   2.885   0.785 -0.4586  0.8397 -0.2267
 3227SOL     OW21313   4.675   2.590   5.140  0.1730  0.5074 -0.6443
 3227SOL    HW121314   0.010   2.553   5.188  0.8019  0.6991 -1.4614
 3227SOL    HW221315   4.686   2.540   5.059 -0.7384  0.8793 -0.9948
 3228SOL     OW21316   1.159   3.965   0.835  0.0029 -0.2422 -0.0271
 3228SOL    HW121317   1.195   4.038   0.784  2.2032 -1.8106 -0.6861
 3228SOL    HW221318   1.084   4.002   0.882  0.0043 -1.0541  0.6173
 3229SOL     OW21319   3.343   2.551   8.468 -0.4566 -0.0528 -0.3681
 3229SOL    HW121320   3.434   2.576   8.486 -1.4772  1.5208  2.6293
 3229SOL    HW221321   3.357   2.458   8.451 -2.8471 -0.4606 -0.0109
 3230SOL     OW21322   3.819   0.705   9.797  0.4303 -0.2849 -0.1864
 3230SOL    HW121323   3.776   0.666   9.721 -0.5656 -0.2488  0.3576
 3230SOL    HW221324   3.744   0.699   9.856  1.3055 -0.7533  0.8695
 3231SOL     OW21325   3.228   1.931   2.463 -0.1924  0.2476  0.0165
 3231SOL    HW121326   3.166   1.998   2.492  0.6160  0.4517  1.2839
 3231SOL    HW221327   3.289   1.953   2.534 -1.0652  0.6282  0.6465
 3232SOL     OW21328   0.504   1.901   3.935 -0.3371  0.0528  0.0655
 3232SOL    HW121329   0.585   1.854   3.955  0.4366  1.9739  1.4479
 3232SOL    HW221330   0.497   1.902   3.840  1.1823 -0.2204 -0.0580
 3233SOL     OW21331   4.115   2.739   2.060  0.5320 -0.3464 -0.2352
 3233SOL    HW121332   4.156   2.656   2.039  0.9284 -0.2317  0.0937
 3233SOL    HW221333   4.045   2.739   1.994 -1.0181 -3.1241  1.4421
 3234SOL     OW21334   2.964   2.936   6.504  0.6825 -0.6348  0.2824
 3234SOL    HW121335   2.997   2.846   6.501 -0.0810 -0.8916 -0.2372
 3234SOL    HW221336   2.968   2.965   6.595  2.0517 -2.6928  0.8713
 3235SOL     OW21337   4.416   3.944   5.859  0.1237 -0.2446 -0.0450
 3235SOL    HW121338   4.420   3.936   5.764 -0.2842 -1.7481  0.0670
 3235SOL    HW221339   4.451   3.859   5.884 -1.6489 -1.4106 -1.6229
 3236SOL     OW21340   1.271   1.286   2.256 -0.3213 -0.1631  0.2931
 3236SOL    HW121341   1.280   1.270   2.162 -0.5170  0.7623  0.1206
 3236SOL    HW221342   1.230   1.372   2.259  0.9707  0.4059  1.3192
 3237SOL     OW21343   2.430   3.794   4.480 -0.2074 -0.1426 -0.4683
 3237SOL    HW121344   2.515   3.818   4.515 -0.1205 -0.9889 -0.1117
 3237SOL    HW221345   2.443   3.807   4.386  0.0985  2.9739 -0.0189
 3238SOL     OW21346   0.562   2.157  12.474  0.2495  0.3328 -0.3386
 3238SOL    HW121347   0.638   2.141  12.418 -0.5220  0.0740 -1.3056
 3238SOL    HW221348   0.603   2.139  12.559  0.3802  0.5395 -0.3571
 3239SOL     OW21349   0.294   0.217   0.493  0.0355  0.2046 -0.2702
 3239SOL    HW121350   0.213   0.246   0.537 -0.2534  0.7225 -1.1430
 3239SOL    HW221351   0.347   0.265   0.556  0.6178 -0.7337 -0.0493
 3240SOL     OW21352   4.511   1.038   6.064 -0.1443  0.3631  0.0493
 3240SOL    HW121353   4.492   0.946   6.085 -0.7854  0.6300  0.6237
 3240SOL    HW221354   4.597   1.047   6.105 -0.6220  0.8424  0.9418
 3241SOL     OW21355   1.616   2.795   8.370 -0.5016  0.2338  0.5884
 3241SOL    HW121356   1.658   2.755   8.447 -1.4319 -0.0481  0.9584
 3241SOL    HW221357   1.682   2.816   8.305  0.2440  1.0489  1.6207
 3242SOL     OW21358   4.468   2.902   1.735  0.0237  0.3626 -0.4262
 3242SOL    HW121359   4.543   2.937   1.783 -0.9940  0.6993  0.9132
 3242SOL    HW221360   4.472   2.806   1.738 -1.4803  0.2939 -0.9443
 3243SOL     OW21361   3.116   4.221  13.205  0.1595 -0.4116 -0.1000
 3243SOL    HW121362   3.210   4.231  13.191  0.2295  1.0306  1.3338
 3243SOL    HW221363   3.103   4.141  13.255  0.7124 -0.5122 -0.1197
 3244SOL     OW21364   3.313   4.112   7.517  0.3960  0.1429 -1.0535
 3244SOL    HW121365   3.314   4.191   7.571  0.0192  0.4170 -1.4433
 3244SOL    HW221366   3.346   4.046   7.578  0.3452  0.1434 -1.0262
 3245SOL     OW21367   3.376   0.546  16.923  0.0991  0.2624 -0.1524
 3245SOL    HW121368   3.471   0.547  16.938  0.0933 -1.0279 -0.0209
 3245SOL    HW221369   3.369   0.495  16.842  0.0704  2.1607 -1.3562
 3246SOL     OW21370   1.283   2.577   6.808 -0.4011  0.0409  0.1140
 3246SOL    HW121371   1.200   2.552   6.767 -0.6638  0.9224  0.0937
 3246SOL    HW221372   1.323   2.496   6.777  1.2097  0.8814 -0.0080
 3247SOL     OW21373   4.100   0.642   3.220  0.0801  0.2664 -0.1141
 3247SOL    HW121374   4.162   0.673   3.154  0.6034 -0.4884  0.0300
 3247SOL    HW221375   4.075   0.729   3.250 -1.3423  0.3088 -1.3793
 3248SOL     OW21376   4.524   2.369  14.662  0.4165 -0.0685  0.6347
 3248SOL    HW121377   4.486   2.348  14.577 -0.0381 -0.3805  0.9114
 3248SOL    HW221378   4.537   2.462  14.644  0.0315 -0.4385 -1.4822
 3249SOL     OW21379   2.164   3.394   1.926 -0.2057 -0.1961  0.4317
 3249SOL    HW121380   2.072   3.422   1.927  0.3933  1.8410 -0.8518
 3249SOL    HW221381   2.198   3.469   1.975  1.5288 -0.4021 -0.4629
 3250SOL     OW21382   1.838   1.566   6.896  0.4484  0.1708 -0.5099
 3250SOL    HW121383   1.821   1.657   6.921  2.3453  0.4697 -0.2531
 3250SOL    HW221384   1.912   1.559   6.956  1.2542 -0.4443 -1.5699
 3251SOL     OW21385   2.799   3.816   0.214  0.1826 -0.4816 -0.2460
 3251SOL    HW121386   2.883   3.776   0.238  0.7679  1.0973  0.2978
 3251SOL    HW221387   2.796   3.821   0.119  1.6017 -2.2942 -0.4018
 3252SOL     OW21388   2.412   4.170   5.825  0.0275 -0.6180 -0.0472
 3252SOL    HW121389   2.463   4.218   5.760  0.2107  0.1397  0.6496
 3252SOL    HW221390   2.473   4.097   5.832 -0.5161 -0.9677  1.1713
 3253SOL     OW21391   1.961   0.773   9.267  0.3691  0.3028  0.1384
 3253SOL    HW121392   2.017   0.780   9.344  0.3528 -0.5255  0.2313
 3253SOL    HW221393   1.878   0.766   9.314  0.3462 -2.2275 -0.2346
 3254SOL     OW21394   1.453   4.279  11.983 -0.7245 -0.4856 -0.0293
 3254SOL    HW121395   1.466   4.202  11.928 -1.7204 -1.4825  1.1360
 3254SOL    HW221396   1.424   4.244  12.067  0.9285  1.0325  1.1860
 3255SOL     OW21397   0.066   1.235   8.755  0.1721  0.2952  0.4233
 3255SOL    HW121398   0.036   1.305   8.696  2.8054 -0.1393 -1.4047
 3255SOL    HW221399   0.095   1.284   8.832  2.7238 -0.2476 -0.2057
 3256SOL     OW21400   4.369   1.689   8.871 -0.4348  0.0652 -0.4308
 3256SOL    HW121401   4.380   1.722   8.781 -1.8644 -2.0340 -1.3868
 3256SOL    HW221402   4.345   1.597   8.859  1.0946 -0.4987  1.0318
 3257SOL     OW21403   2.925   2.610   0.276 -0.0540  0.5521  0.5674
 3257SOL    HW121404   2.954   2.538   0.220 -1.0239  1.5901 -1.2586
 3257SOL    HW221405   2.962   2.685   0.230  0.4319  0.5705  0.9808
 3258SOL     OW21406   3.830   2.738   9.117  0.1892 -0.1015 -0.1611
 3258SOL    HW121407   3.921   2.719   9.091  0.1640 -0.8326  0.2763
 3258SOL    HW221408   3.813   2.814   9.061  2.0484  0.8018  0.4903
 3259SOL     OW21409   1.455   1.534   7.267  0.4562 -0.0765 -0.1825
 3259SOL    HW121410   1.437   1.485   7.347  0.7335 -0.6509 -0.4667
 3259SOL    HW221411   1.550   1.520   7.264  0.7865  2.0783 -0.1863
 3260SOL     OW21412   2.423   2.018  17.715 -1.1216 -0.3591  0.2119
 3260SOL    HW121413   2.386   2.106  17.707  1.3709  0.6187 -0.5012
 3260SOL    HW221414   2.388   1.986  17.632  1.5980 -0.7150 -0.8024
 3261SOL     OW21415   0.948   1.240   6.666  0.0489 -0.0153  0.0424
 3261SOL    HW121416   0.871   1.250   6.722 -1.7784 -1.1876 -2.2612
 3261SOL    HW221417   0.902   1.209   6.588 -0.9271  1.9265 -0.1493
 3262SOL     OW21418   1.864   1.921   1.665  0.1046 -0.2447 -0.2515
 3262SOL    HW121419   1.807   1.875   1.726 -2.7202  0.9626 -1.9537
 3262SOL    HW221420   1.891   1.852   1.605 -1.0075 -0.9532  0.0694
 3263SOL     OW21421   2.260   3.592  14.379 -0.3268 -0.8391 -0.2426
 3263SOL    HW121422   2.234   3.551  14.297 -0.3032 -2.4406  0.5390
 3263SOL    HW221423   2.285   3.676  14.340  1.4745 -0.5392  1.5589
 3264SOL     OW21424   3.899   4.256   2.766  0.1305 -0.0063  0.4412
 3264SOL    HW121425   3.827   4.294   2.817  0.6132  0.6739  0.6103
 3264SOL    HW221426   3.901   4.168   2.803  2.9958  0.1757  0.7038
 3265SOL     OW21427   0.356   3.848   3.609  0.4281 -0.2123  0.1640
 3265SOL    HW121428   0.410   3.916   3.648 -0.0637  1.2124 -1.6135
 3265SOL    HW221429   0.355   3.778   3.673 -0.2276  0.4654  0.9000
 3266SOL     OW21430   4.503   3.681   9.693  0.2757  0.0506 -0.2558
 3266SOL    HW121431   4.536   3.770   9.680 -1.4991  0.7901  0.2524
 3266SOL    HW221432   4.519   3.681   9.788 -0.4356 -0.1706 -0.1351
 3267SOL     OW21433   1.185   4.443   7.976  0.1979 -0.3101 -0.1608
 3267SOL    HW121434   1.159   4.404   8.060  2.0188  0.9926  0.9893
 3267SOL    HW221435   1.278   4.424   7.964  0.4445  1.0489 -0.3795
 3268SOL     OW21436   1.472   2.887   5.727 -0.1359 -0.1669 -0.1622
 3268SOL    HW121437   1.554   2.844   5.701 -0.0756 -0.7757  1.0588
 3268SOL    HW221438   1.409   2.841   5.672 -0.8232 -0.0837  0.5659
 3269SOL     OW21439   1.310   1.360  14.684 -0.2072 -0.8805 -0.2683
 3269SOL    HW121440   1.384   1.409  14.648 -0.4800 -0.4384 -0.2298
 3269SOL    HW221441   1.246   1.379  14.616 -0.2842  2.9873  0.8368
 3270SOL     OW21442   2.094   2.657   2.245  0.2399  0.5336  0.0064
 3270SOL    HW121443   2.068   2.738   2.290  1.1641  0.5936  0.4425
 3270SOL    HW221444   2.146   2.627   2.321  0.3617  0.4149 -0.1241
 3271SOL     OW21445   2.588   2.056   2.586 -0.0512 -0.0376 -0.9149
 3271SOL    HW121446   2.542   1.975   2.563  0.0293  0.7739 -3.8776
 3271SOL    HW221447   2.540   2.095   2.660  0.5394 -0.6000 -0.2354
 3272SOL     OW21448   3.474   3.972   2.621 -0.4066  0.2248  0.0800
 3272SOL    HW121449   3.566   3.973   2.595 -0.3003  0.0216  0.4446
 3272SOL    HW221450   3.481   3.939   2.710  0.0038 -2.2731 -0.8522
 3273SOL     OW21451   3.796   2.473   6.196 -0.1944 -1.0112  0.2053
 3273SOL    HW121452   3.818   2.413   6.125  0.1311  0.8722 -1.2982
 3273SOL    HW221453   3.759   2.402   6.248 -1.9047  0.7329  1.3710
 3274SOL     OW21454   2.565   0.783   3.288 -0.1544  0.3109  0.3537
 3274SOL    HW121455   2.586   0.861   3.237  1.1034  0.1553  0.6372
 3274SOL    HW221456   2.614   0.797   3.370 -0.4563 -0.6844  0.7020
 3275SOL     OW21457   4.010   3.326   5.292  0.1884  0.0735  0.0796
 3275SOL    HW121458   3.970   3.411   5.310  0.4020  0.3916 -0.9185
 3275SOL    HW221459   4.020   3.332   5.197 -0.9216  1.0975  0.0279
 3276SOL     OW21460   1.924   0.633  16.752 -0.3442 -0.0746 -0.6550
 3276SOL    HW121461   2.005   0.646  16.703  0.6862 -2.6964  0.3453
 3276SOL    HW221462   1.943   0.545  16.785 -0.1984  0.1737 -0.0748
 3277SOL     OW21463   3.563   0.115   4.504 -0.1504  0.3136 -0.1067
 3277SOL    HW121464   3.530   0.068   4.427  0.2016  0.0053 -0.0666
 3277SOL    HW221465   3.633   0.162   4.459 -0.3918  0.5427 -0.2442
 3278SOL     OW21466   4.343   4.133  11.201  0.0198 -0.5355  0.3470
 3278SOL    HW121467   4.307   4.125  11.113  3.4859 -0.7571 -1.0405
 3278SOL    HW221468   4.432   4.164  11.188  0.1607 -0.7859  0.7077
 3279SOL     OW21469   0.064   1.708   5.881  0.3466 -0.0850 -0.0251
 3279SOL    HW121470   0.110   1.658   5.949 -1.0968 -1.5043 -0.0930
 3279SOL    HW221471   0.024   1.769   5.943  1.8251  1.4047 -0.5242
 3280SOL     OW21472   4.119   3.823   4.269  0.0150 -0.8374 -0.1041
 3280SOL    HW121473   4.197   3.863   4.231 -2.0974  2.4432 -1.0378
 3280SOL    HW221474   4.082   3.788   4.188  0.8442 -0.1826 -0.7702
 3281SOL     OW21475   1.662   3.671   9.704  0.0140 -0.2412  0.7057
 3281SOL    HW121476   1.593   3.614   9.670 -0.1903  1.0277 -1.0029
 3281SOL    HW221477   1.744   3.622   9.694  0.1823 -0.1661  1.7384
 3282SOL     OW21478   4.095   3.502  11.031  0.4871  0.2107  0.4229
 3282SOL    HW121479   4.042   3.500  11.111  0.4256 -0.0901  0.3771
 3282SOL    HW221480   4.153   3.427  11.046 -1.5993 -1.0945  1.9782
 3283SOL     OW21481   1.492   4.675   2.780 -0.3355  0.3470  0.4679
 3283SOL    HW121482   1.586   4.659   2.780 -0.4158 -0.1092 -0.5556
 3283SOL    HW221483   1.462   4.623   2.706 -0.6562  0.3817  0.5754
 3284SOL     OW21484   0.680   4.343   5.022 -0.5322 -0.0729  0.1229
 3284SOL    HW121485   0.671   4.249   5.006 -0.3945 -0.4671  2.3135
 3284SOL    HW221486   0.641   4.358   5.108 -0.9373 -1.6363  0.2217
 3285SOL     OW21487   1.761   3.280  13.404 -0.2778  0.1427  0.1832
 3285SOL    HW121488   1.797   3.193  13.418  1.5791  1.0233  0.9171
 3285SOL    HW221489   1.769   3.322  13.490 -1.0708 -0.8488  0.7418
 3286SOL     OW21490   2.255   2.072  13.102 -0.0777 -0.1796 -0.0436
 3286SOL    HW121491   2.254   2.053  13.196 -1.1042  1.0407  0.1935
 3286SOL    HW221492   2.249   2.167  13.096 -0.9352 -0.0784  2.3892
 3287SOL     OW21493   4.479   1.462   0.856 -0.4140  0.3098 -0.7066
 3287SOL    HW121494   4.535   1.484   0.930 -3.5828  1.2770  1.4044
 3287SOL    HW221495   4.497   1.368   0.868 -0.6913  0.4519  0.8136
 3288SOL     OW21496   4.274   4.409  10.212  0.0706  0.8679  0.0174
 3288SOL    HW121497   4.253   4.316  10.200  2.0857  0.2538  1.1257
 3288SOL    HW221498   4.196   4.457  10.238 -1.5946 -1.7535 -0.1811
 3289SOL     OW21499   2.700   1.970   8.718  0.0708 -0.0081  0.0168
 3289SOL    HW121500   2.616   1.937   8.685 -0.7174  1.6179  0.4195
 3289SOL    HW221501   2.695   2.053   8.671 -1.8197 -1.2018 -1.9224
 3290SOL     OW21502   1.158   2.116   1.567  0.2601  0.0769  0.3264
 3290SOL    HW121503   1.142   2.165   1.487  1.2165 -0.7304 -0.3526
 3290SOL    HW221504   1.122   2.030   1.548 -0.3722  0.5617 -0.6296
 3291SOL     OW21505   3.637   3.359   6.364 -0.4287  0.7165  0.1058
 3291SOL    HW121506   3.639   3.363   6.268  1.1113 -1.1443  0.0790
 3291SOL    HW221507   3.707   3.421   6.385  1.8321 -2.0846  0.7886
 3292SOL     OW21508   2.481   1.138   1.374  0.1340 -0.3346  0.1894
 3292SOL    HW121509   2.508   1.185   1.453 -0.1595  0.6574 -0.3043
 3292SOL    HW221510   2.436   1.203   1.320  0.2042 -1.1983 -0.9203
 3293SOL     OW21511   3.239   1.871   5.484 -0.3954  0.3261 -0.7826
 3293SOL    HW121512   3.157   1.920   5.489  0.4377  1.6589 -0.1182
 3293SOL    HW221513   3.291   1.912   5.414 -1.1111  0.0886 -1.4601
 3294SOL     OW21514   1.835   1.257   5.229 -0.2266 -0.5577 -0.2589
 3294SOL    HW121515   1.822   1.351   5.233 -1.0552 -0.6360 -1.4963
 3294SOL    HW221516   1.915   1.252   5.177 -0.9986  1.0609 -1.5787
 3295SOL     OW21517   3.326   3.206   5.467 -0.1843  0.7727 -0.3041
 3295SOL    HW121518   3.306   3.137   5.404 -1.0948 -0.2697  1.1080
 3295SOL    HW221519   3.251   3.203   5.526  0.3663 -0.2701  0.3451
 3296SOL     OW21520   4.261   0.271   5.813  0.1430  0.7046 -0.0263
 3296SOL    HW121521   4.256   0.290   5.720 -0.2530  2.1047  0.2864
 3296SOL    HW221522   4.203   0.194   5.816 -1.2752  1.8062  1.0412
 3297SOL     OW21523   2.724   2.827   5.475  0.3358 -0.2795 -0.3325
 3297SOL    HW121524   2.776   2.770   5.418 -0.4172  0.2857 -1.5855
 3297SOL    HW221525   2.717   2.911   5.430 -0.2105  0.5654  1.3661
 3298SOL     OW21526   0.232   1.321   3.439 -0.6727  0.1867  0.0752
 3298SOL    HW121527   0.257   1.289   3.526  1.7622  0.5244 -0.5082
 3298SOL    HW221528   0.138   1.304   3.442 -0.1143 -2.4749  2.8662
 3299SOL     OW21529   1.204   0.945   1.926  0.1013  0.6145 -0.1927
 3299SOL    HW121530   1.217   0.928   1.832  2.1738  1.3758 -0.0484
 3299SOL    HW221531   1.277   0.893   1.960 -0.5060  0.7377  1.2928
 3300SOL     OW21532   2.363   3.128  10.158  0.2492 -0.5496  0.1073
 3300SOL    HW121533   2.310   3.192  10.204  0.4934  0.4533 -1.0108
 3300SOL    HW221534   2.429   3.184  10.117 -1.4515  0.7804 -0.8008
 3301SOL     OW21535   0.806   2.607   6.574  1.0533  0.2120 -0.0731
 3301SOL    HW121536   0.884   2.577   6.528  1.5059  1.5998 -0.2063
 3301SOL    HW221537   0.764   2.647   6.498  1.3430  1.2194  0.2990
 3302SOL     OW21538   0.077   3.555   9.942  0.4420 -0.6674  0.1936
 3302SOL    HW121539   4.729   3.564   9.980 -0.0076 -0.7271 -0.8329
 3302SOL    HW221540   0.063   3.506   9.861 -2.1669 -1.4072  1.0899
 3303SOL     OW21541   0.195   3.087   2.612  0.2927  0.2252  0.2640
 3303SOL    HW121542   0.199   3.003   2.566 -1.0546 -1.2866  2.9258
 3303SOL    HW221543   0.178   3.058   2.701 -3.9283  0.4032 -0.5012
 3304SOL     OW21544   4.255   3.114   8.493  0.0835  0.3026  0.3972
 3304SOL    HW121545   4.209   3.198   8.502 -2.0006 -1.0011  2.0087
 3304SOL    HW221546   4.325   3.122   8.557  0.9805 -0.5036 -0.4882
 3305SOL     OW21547   0.943   3.389   2.566  0.2477  0.1195  0.6609
 3305SOL    HW121548   0.984   3.398   2.480 -0.1485  1.2071  0.5924
 3305SOL    HW221549   0.954   3.294   2.578  1.4876 -0.0143 -1.4830
 3306SOL     OW21550   2.673   3.850   4.550 -0.3502  0.2250 -0.1134
 3306SOL    HW121551   2.744   3.855   4.486  0.2834  3.0706  0.7718
 3306SOL    HW221552   2.712   3.776   4.596 -1.7685 -0.2459  0.3231
 3307SOL     OW21553   2.036   3.624  12.256 -0.3973  0.3167  0.2260
 3307SOL    HW121554   2.035   3.551  12.195  2.8279 -0.4696  1.1081
 3307SOL    HW221555   2.113   3.673  12.227 -1.8822  2.2028 -0.5432
 3308SOL     OW21556   1.151   0.789   7.531  0.3794 -0.3309  0.0850
 3308SOL    HW121557   1.191   0.758   7.449  0.5962 -1.2504  0.5378
 3308SOL    HW221558   1.064   0.817   7.504  1.1273  0.7263 -1.2202
 3309SOL     OW21559   2.423   0.599   8.726 -0.2763  0.1874  0.4872
 3309SOL    HW121560   2.351   0.599   8.788 -1.2187 -2.3172 -0.5995
 3309SOL    HW221561   2.470   0.517   8.745 -0.2363  0.5452  1.9420
 3310SOL     OW21562   0.735   4.334   9.176 -0.2188 -0.2511  0.1414
 3310SOL    HW121563   0.727   4.429   9.178 -1.2515 -0.2897 -2.0245
 3310SOL    HW221564   0.709   4.310   9.087  0.3760 -1.4357  0.2807
 3311SOL     OW21565   1.121   4.615   4.728  0.1316 -0.0120 -0.5410
 3311SOL    HW121566   1.203   4.624   4.777  0.7206  1.9461 -1.8797
 3311SOL    HW221567   1.119   4.691   4.670  1.4371 -0.1799 -0.8122
 3312SOL     OW21568   2.465   4.528  16.551 -0.7069 -0.0823  0.2682
 3312SOL    HW121569   2.418   4.445  16.541 -1.2963 -0.0106  2.5520
 3312SOL    HW221570   2.531   4.498  16.614 -0.2104 -1.8557 -1.1003
 3313SOL     OW21571   3.853   4.212   0.968  0.0635  0.7205 -0.2680
 3313SOL    HW121572   3.913   4.275   1.007  1.5042 -1.2466  0.7141
 3313SOL    HW221573   3.897   4.132   0.998 -1.9793 -1.2991 -2.6316
 3314SOL     OW21574   1.394   3.940   9.657  0.5125 -0.2012  0.4946
 3314SOL    HW121575   1.396   4.013   9.719 -2.4367  1.7381 -1.6554
 3314SOL    HW221576   1.309   3.910   9.687  0.4486 -0.9178 -0.4101
 3315SOL     OW21577   4.299   0.925   1.968 -0.1383 -0.3591  0.0271
 3315SOL    HW121578   4.262   0.999   1.920  0.6279 -0.5443 -0.8339
 3315SOL    HW221579   4.327   0.865   1.900 -0.2706 -0.8744  0.4286
 3316SOL     OW21580   0.328   2.361   6.232 -0.5419 -0.3040  0.4438
 3316SOL    HW121581   0.332   2.435   6.292  2.3198 -0.9592  1.0464
 3316SOL    HW221582   0.372   2.295   6.286  0.1979 -1.1834 -1.2331
 3317SOL     OW21583   4.217   2.129  16.785 -0.3345 -0.2725 -0.5125
 3317SOL    HW121584   4.228   2.189  16.711 -2.1683  1.0559  0.3061
 3317SOL    HW221585   4.310   2.121  16.810 -0.7785 -1.4896  0.7332
 3318SOL     OW21586   0.420   3.136   5.853 -0.1483  0.9205 -0.0916
 3318SOL    HW121587   0.429   3.120   5.947 -0.1829 -1.7139 -0.5389
 3318SOL    HW221588   0.385   3.224   5.868  1.5137  1.7996 -1.3590
 3319SOL     OW21589   2.975   1.958   5.460  0.1098 -0.6645 -0.8206
 3319SOL    HW121590   3.016   2.042   5.479 -1.1179 -0.4331  0.8391
 3319SOL    HW221591   2.990   1.951   5.366  0.8037 -1.4111 -0.6565
 3320SOL     OW21592   2.306   3.867   7.313  0.0888  0.2249  0.2535
 3320SOL    HW121593   2.211   3.877   7.316 -0.1479 -1.9377 -0.5322
 3320SOL    HW221594   2.324   3.961   7.307 -2.8988  0.8902  1.7239
 3321SOL     OW21595   1.152   2.703  11.534  0.1872  0.6708  0.1746
 3321SOL    HW121596   1.202   2.681  11.456 -1.0646 -0.8379 -0.1874
 3321SOL    HW221597   1.077   2.644  11.531 -1.3540  2.7369 -1.3940
 3322SOL     OW21598   0.816   4.305   5.370 -0.0920 -0.5892  0.0565
 3322SOL    HW121599   0.881   4.368   5.401 -0.1828  0.6214 -2.2229
 3322SOL    HW221600   0.867   4.276   5.294 -2.0662 -0.7925 -1.1731
 3323SOL     OW21601   1.851   4.092   5.058  0.2922 -0.1221 -0.2775
 3323SOL    HW121602   1.887   4.177   5.084 -0.8725  1.3015 -3.2454
 3323SOL    HW221603   1.826   4.114   4.968 -2.1269 -0.1133  0.4058
 3324SOL     OW21604   0.378   0.256   8.518 -0.4495  0.2520 -0.4712
 3324SOL    HW121605   0.392   0.161   8.515  0.9483  0.5175 -1.9509
 3324SOL    HW221606   0.446   0.289   8.460 -0.1234  0.6769  0.1525
 3325SOL     OW21607   3.735   0.568   5.394 -0.5787 -0.2741  0.2811
 3325SOL    HW121608   3.752   0.486   5.439 -4.0942 -1.8999 -1.3454
 3325SOL    HW221609   3.737   0.620   5.474 -1.7216  0.9020 -0.4446
 3326SOL     OW21610   0.096   2.005   9.183  0.2961 -0.0958 -0.3396
 3326SOL    HW121611   0.025   2.061   9.152  0.9399  1.7550  1.4684
 3326SOL    HW221612   0.162   2.036   9.121 -0.4437 -2.4191 -2.2883
 3327SOL     OW21613   3.412   1.658  14.955 -0.2679  0.1900  0.5139
 3327SOL    HW121614   3.354   1.685  14.883 -0.2226  0.0416  0.4211
 3327SOL    HW221615   3.423   1.569  14.922 -1.2666  0.7588 -1.4109
 3328SOL     OW21616   2.350   0.902  16.430 -0.8126  0.0627  0.3903
 3328SOL    HW121617   2.428   0.868  16.387 -1.3948  0.2468 -0.8046
 3328SOL    HW221618   2.304   0.928  16.350 -2.4410  1.1910  1.6917
 3329SOL     OW21619   4.420   2.732   6.622  0.6588 -0.2247 -0.1472
 3329SOL    HW121620   4.491   2.713   6.683 -0.2351 -0.2853  0.8750
 3329SOL    HW221621   4.352   2.747   6.687 -0.3978 -0.0231 -1.3040
 3330SOL     OW21622   2.305   1.801  12.171 -0.0950 -0.2508  0.5649
 3330SOL    HW121623   2.237   1.857  12.207 -0.7022  0.3587 -1.5572
 3330SOL    HW221624   2.339   1.771  12.256 -1.5124  1.0301  1.5884
 3331SOL     OW21625   2.109   2.746   7.195 -0.0208 -0.2310  0.1798
 3331SOL    HW121626   2.056   2.825   7.183  1.8043  0.7704 -1.2613
 3331SOL    HW221627   2.195   2.781   7.174  0.0516  0.0878  1.0095
 3332SOL     OW21628   4.735   4.480  17.025  0.5067  0.2219  0.0830
 3332SOL    HW121629   4.645   4.505  17.042  0.3154 -0.2779 -0.1708
 3332SOL    HW221630   0.048   4.547  17.068  0.7051  0.7642 -1.0009
 3333SOL     OW21631   3.258   3.581   2.858 -0.2411 -0.3640  0.1431
 3333SOL    HW121632   3.326   3.588   2.791  0.4878  1.5563  1.0655
 3333SOL    HW221633   3.254   3.486   2.871 -0.2766 -0.3403  0.3146
 3334SOL     OW21634   2.376   3.922  11.649  0.7074  0.0442  0.3081
 3334SOL    HW121635   2.386   3.955  11.560  0.6789  1.7496  0.9372
 3334SOL    HW221636   2.452   3.865  11.654  0.1108 -0.9362 -2.0357
 3335SOL     OW21637   4.580   1.435   8.391  0.1402  0.1043  0.0523
 3335SOL    HW121638   4.487   1.424   8.372  0.4657  0.7391 -1.9161
 3335SOL    HW221639   4.623   1.405   8.311  0.1082  1.3624 -0.4325
 3336SOL     OW21640   2.379   2.866   0.198  0.3228  0.0273  0.2515
 3336SOL    HW121641   2.407   2.864   0.290  1.2820  1.3366 -0.0047
 3336SOL    HW221642   2.337   2.781   0.185 -0.5324  0.1945  1.9211
 3337SOL     OW21643   2.407   3.175  12.959 -0.4489  0.2605  0.0944
 3337SOL    HW121644   2.443   3.230  12.890 -0.4488  0.6341  0.3911
 3337SOL    HW221645   2.440   3.228  13.031  2.5892  0.2547 -1.3036
 3338SOL     OW21646   0.558   3.011   6.592  0.5713  0.5930  0.0512
 3338SOL    HW121647   0.591   3.007   6.682  0.8167  0.3027 -0.0530
 3338SOL    HW221648   0.634   2.972   6.549 -1.8660 -1.3082 -2.5669
 3339SOL     OW21649   0.394   0.797   6.095  0.2789 -0.1312  0.2779
 3339SOL    HW121650   0.305   0.814   6.065  0.5072  0.6095  0.0105
 3339SOL    HW221651   0.439   0.763   6.017  0.8083  0.8592  0.1512
 3340SOL     OW21652   1.957   3.866  13.245  0.2897  0.1571 -0.0758
 3340SOL    HW121653   1.942   3.795  13.183 -1.3698  2.1974 -2.0481
 3340SOL    HW221654   2.029   3.837  13.300  1.4108 -0.3500 -1.8233
 3341SOL     OW21655   2.848   1.288   5.707 -0.1070  0.3707 -0.2560
 3341SOL    HW121656   2.812   1.359   5.654  1.0631  2.4365  1.6962
 3341SOL    HW221657   2.886   1.237   5.636 -1.6145 -1.1074 -0.0280
 3342SOL     OW21658   3.433   1.661  15.903 -0.7518 -0.3119  0.1596
 3342SOL    HW121659   3.450   1.582  15.954 -1.9690 -0.5737  0.1405
 3342SOL    HW221660   3.362   1.708  15.946  0.5241  1.1172  0.7427
 3343SOL     OW21661   0.004   4.605  17.616  0.4326  0.0953  0.3006
 3343SOL    HW121662   4.682   4.672  17.585 -0.7414 -1.4712 -0.7377
 3343SOL    HW221663   0.087   4.652  17.623 -1.1795  2.8592  0.8979
 3344SOL     OW21664   4.049   0.410  16.806 -0.0059  0.6319 -0.3562
 3344SOL    HW121665   4.127   0.463  16.791 -1.3040  2.3296 -1.1654
 3344SOL    HW221666   4.011   0.393  16.720 -1.0403  1.9799 -0.1634
 3345SOL     OW21667   3.438   4.091   3.594 -0.8697 -0.3004  0.7656
 3345SOL    HW121668   3.409   4.150   3.525 -0.7333 -0.4362  0.5930
 3345SOL    HW221669   3.518   4.135   3.621  0.3996 -1.3063 -1.4223
 3346SOL     OW21670   4.188   0.359  17.384 -0.1284 -0.6385  0.0126
 3346SOL    HW121671   4.177   0.445  17.424 -0.7810 -0.4471 -0.5815
 3346SOL    HW221672   4.158   0.289  17.442  2.3194 -0.9693  0.8819
 3347SOL     OW21673   4.117   3.797  13.783  0.0820 -0.3130  0.3011
 3347SOL    HW121674   4.131   3.714  13.738 -0.9205  0.8139 -2.0542
 3347SOL    HW221675   4.202   3.811  13.824  0.9277  1.0341 -1.9545
 3348SOL     OW21676   0.922   2.777   2.362 -0.2570  0.3009  0.0577
 3348SOL    HW121677   1.013   2.752   2.382 -1.3029 -5.1732 -1.8950
 3348SOL    HW221678   0.869   2.731   2.427  1.9619 -0.3622  1.4180
 3349SOL     OW21679   1.669   2.087  12.693 -0.9355  0.3520 -0.0231
 3349SOL    HW121680   1.701   2.162  12.744  2.7032 -0.6262 -0.9018
 3349SOL    HW221681   1.641   2.142  12.620 -0.2600  0.4772 -0.1800
 3350SOL     OW21682   1.871   1.828   4.180 -0.2895 -0.5525  0.6447
 3350SOL    HW121683   1.858   1.844   4.274  1.0401 -1.9113  1.0607
 3350SOL    HW221684   1.904   1.738   4.189 -1.0565 -1.0007 -0.9604
 3351SOL     OW21685   0.261   1.475   9.151  0.2343  0.3097  0.0501
 3351SOL    HW121686   0.305   1.560   9.141 -0.2448  0.2957 -2.1491
 3351SOL    HW221687   0.329   1.427   9.105 -1.0526 -0.5391 -0.9610
 3352SOL     OW21688   0.515   2.910   1.852 -0.2857  0.4929 -0.4423
 3352SOL    HW121689   0.549   2.900   1.941  0.5620 -3.0855 -1.1426
 3352SOL    HW221690   0.525   2.818   1.826 -0.8144  0.2015  0.3948
 3353SOL     OW21691   4.474   2.303   8.649  0.6695 -0.7038  0.3952
 3353SOL    HW121692   4.385   2.332   8.666  0.9476 -0.0353  0.7377
 3353SOL    HW221693   4.522   2.381   8.678 -1.4035  0.8617 -0.3459
 3354SOL     OW21694   2.668   1.119  15.812  0.3499  0.3978  0.3409
 3354SOL    HW121695   2.753   1.075  15.801  0.0865  0.4963 -2.0650
 3354SOL    HW221696   2.605   1.055  15.778 -1.1366  1.3878  1.2901
 3355SOL     OW21697   4.333   1.000   6.821 -0.2781 -0.3425 -0.2717
 3355SOL    HW121698   4.266   0.976   6.757 -1.8327 -1.3274  1.7288
 3355SOL    HW221699   4.278   1.048   6.883  0.3374  2.6036 -1.9905
 3356SOL     OW21700   4.214   0.195   8.149  0.1886 -0.7486  0.4251
 3356SOL    HW121701   4.213   0.191   8.245 -1.3213  0.8390  0.4790
 3356SOL    HW221702   4.127   0.157   8.145  0.2585 -1.0833  1.9360
 3357SOL     OW21703   2.886   2.709   5.291  0.0667  0.5150  0.3187
 3357SOL    HW121704   2.941   2.787   5.300  2.4153 -0.9214 -1.2596
 3357SOL    HW221705   2.949   2.654   5.244  1.5983  2.5172  0.0294
 3358SOL     OW21706   3.418   3.148   2.446 -0.0455 -0.8923  0.4715
 3358SOL    HW121707   3.484   3.209   2.478  0.0113 -1.1487  0.8405
 3358SOL    HW221708   3.435   3.162   2.353 -0.4529 -2.0042  0.2266
 3359SOL     OW21709   0.238   0.598   1.810  0.5694 -0.7276  0.4330
 3359SOL    HW121710   0.309   0.654   1.779 -0.8067 -0.9924 -3.1663
 3359SOL    HW221711   0.225   0.548   1.729 -0.0536  0.0573  0.0504
 3360SOL     OW21712   0.853   3.872  11.991  0.4619 -0.0864  0.1509
 3360SOL    HW121713   0.940   3.898  12.021 -0.3333  0.0588  2.2948
 3360SOL    HW221714   0.829   3.948  11.937  3.0151 -0.1429 -1.0565
 3361SOL     OW21715   2.486   1.707   7.747  0.3810 -1.1533  0.6753
 3361SOL    HW121716   2.531   1.787   7.718  0.8296 -2.0863 -1.2300
 3361SOL    HW221717   2.453   1.736   7.832  0.1747  2.2247 -0.5555
 3362SOL     OW21718   0.191   2.808   1.317  0.1552  0.2026 -0.3727
 3362SOL    HW121719   0.213   2.763   1.398 -1.3901  0.4260  0.1656
 3362SOL    HW221720   0.276   2.825   1.275  0.1155 -0.4786 -0.7259
 3363SOL     OW21721   4.689   0.723   1.161  0.1085 -0.1235  0.1539
 3363SOL    HW121722   4.665   0.634   1.138  1.3801 -0.8511  1.6457
 3363SOL    HW221723   4.716   0.757   1.076 -2.8234  4.2625  0.9427
 3364SOL     OW21724   3.618   4.549   5.019  0.1010  0.0476  0.2707
 3364SOL    HW121725   3.565   4.509   5.088 -1.8395  1.3575 -0.4926
 3364SOL    HW221726   3.675   4.474   4.999 -0.3531 -0.5043  1.0417
 3365SOL     OW21727   2.106   1.924   0.063 -0.4979  0.3930 -0.1787
 3365SOL    HW121728   2.075   1.924  17.728  1.3284  0.4820 -0.7987
 3365SOL    HW221729   2.150   1.839   0.068 -1.1970 -0.1503 -3.1058
 3366SOL     OW21730   3.137   4.572   2.161  0.4439 -0.2789 -0.5795
 3366SOL    HW121731   3.164   4.664   2.160 -0.4241 -0.0159  1.6611
 3366SOL    HW221732   3.180   4.539   2.239 -0.3234  3.0512  1.2418
 3367SOL     OW21733   2.929   0.028  15.915 -0.3814 -0.4417  0.7167
 3367SOL    HW121734   2.955   4.676  15.924 -0.3614 -0.6027 -0.9260
 3367SOL    HW221735   2.998   0.066  15.970  0.9909  0.3180 -1.5030
 3368SOL     OW21736   2.785   1.809   0.605 -0.5391  0.1275  0.1450
 3368SOL    HW121737   2.829   1.881   0.560  0.6719 -0.7737 -0.1316
 3368SOL    HW221738   2.853   1.784   0.667 -1.0379  2.0225  1.4504
 3369SOL     OW21739   4.359   0.173  12.943 -0.3057 -0.0676 -0.4411
 3369SOL    HW121740   4.452   0.193  12.930  0.3137 -1.3215  2.1176
 3369SOL    HW221741   4.343   0.222  13.023 -0.2880  0.5577 -0.8196
 3370SOL     OW21742   0.885   4.662   5.846  0.0700  0.2918 -0.6142
 3370SOL    HW121743   0.861   0.001   5.896  2.1377  0.6412 -0.1651
 3370SOL    HW221744   0.922   4.706   5.769 -1.7325  0.6948 -1.2355
 3371SOL     OW21745   0.426   2.216   7.035 -0.1488  0.4251  0.4343
 3371SOL    HW121746   0.495   2.159   7.002  0.3560  1.2936 -0.0340
 3371SOL    HW221747   0.382   2.227   6.951  1.0073  1.0528 -0.0976
 3372SOL     OW21748   3.146   0.618   7.394  0.0025 -0.6133 -0.0859
 3372SOL    HW121749   3.211   0.561   7.353  1.4216  1.2622 -0.3895
 3372SOL    HW221750   3.168   0.702   7.353 -0.3655  0.5022  2.0342
 3373SOL     OW21751   4.678   4.396   4.110 -0.5170 -0.5747 -0.0164
 3373SOL    HW121752   4.710   4.360   4.028  1.1956 -1.7160  1.1388
 3373SOL    HW221753   4.588   4.366   4.108 -0.8064  0.2368  1.0276
 3374SOL     OW21754   3.356   1.775   4.601 -0.5044 -0.6050 -0.2788
 3374SOL    HW121755   3.301   1.755   4.525  1.0843 -0.6700 -1.3954
 3374SOL    HW221756   3.422   1.835   4.568 -0.9352 -0.2503 -0.5029
 3375SOL     OW21757   1.158   3.217   5.179  0.4546  0.8487  0.1503
 3375SOL    HW121758   1.209   3.298   5.169  0.3439  0.8836 -0.1245
 3375SOL    HW221759   1.103   3.223   5.100  0.1100 -1.9317  0.2069
 3376SOL     OW21760   1.672   1.895   8.618 -0.2095  0.2733  0.0445
 3376SOL    HW121761   1.623   1.976   8.601  0.2128  0.5925  0.3633
 3376SOL    HW221762   1.763   1.922   8.608 -0.6188  1.4310 -0.5657
 3377SOL     OW21763   4.022   2.886   6.735  0.4782 -0.1324 -0.1283
 3377SOL    HW121764   4.103   2.922   6.699 -0.8953  1.3075 -1.7624
 3377SOL    HW221765   4.006   2.945   6.808  0.9185  0.0165 -0.1500
 3378SOL     OW21766   4.248   2.074   2.001 -0.6508 -0.0709  0.1074
 3378SOL    HW121767   4.180   2.086   2.067  0.3081 -0.5384  1.1760
 3378SOL    HW221768   4.212   2.128   1.931  0.1414  0.1636 -0.1238
 3379SOL     OW21769   2.322   3.910   9.327  0.4091  0.2455  0.5889
 3379SOL    HW121770   2.380   3.980   9.356  1.5879 -0.4447 -0.0912
 3379SOL    HW221771   2.240   3.925   9.374  1.2068  2.0850  1.3683
 3380SOL     OW21772   2.774   1.356   4.650  0.5974 -0.0123  0.4702
 3380SOL    HW121773   2.766   1.426   4.714  0.0864  1.2632 -1.0088
 3380SOL    HW221774   2.688   1.323   4.674  0.3619 -0.9945 -1.7169
 3381SOL     OW21775   4.209   3.295  14.748  0.0755  0.7200  0.3329
 3381SOL    HW121776   4.172   3.260  14.829 -0.4491  0.0983 -0.1693
 3381SOL    HW221777   4.226   3.387  14.763 -1.2790  0.6467  2.3997
 3382SOL     OW21778   3.862   2.810   5.104  0.0839 -0.4703  0.0040
 3382SOL    HW121779   3.891   2.880   5.045 -0.7337 -2.3828 -2.7099
 3382SOL    HW221780   3.879   2.742   5.039  2.3373  1.0055 -0.9462
 3383SOL     OW21781   2.404   4.322   2.888  0.2852 -0.1589  0.1307
 3383SOL    HW121782   2.398   4.417   2.879 -0.1001 -0.4059 -2.3693
 3383SOL    HW221783   2.402   4.295   2.796 -0.9446  3.1355 -0.8117
 3384SOL     OW21784   2.903   3.874   1.560 -0.0603 -0.3558 -0.1195
 3384SOL    HW121785   2.864   3.807   1.504  0.0744 -1.2012  0.7904
 3384SOL    HW221786   2.942   3.808   1.618 -1.1630 -1.3450 -0.4927
 3385SOL     OW21787   3.911   1.455   3.040 -0.5896  0.4339 -0.6169
 3385SOL    HW121788   3.951   1.514   3.104 -0.6936  0.0689 -0.2173
 3385SOL    HW221789   3.879   1.519   2.977 -2.5746 -1.6652 -1.7049
 3386SOL     OW21790   2.735   0.123   4.541 -0.2131  0.2314  0.2561
 3386SOL    HW121791   2.807   0.150   4.598  0.4670  1.6758 -1.2966
 3386SOL    HW221792   2.713   0.039   4.582  4.4532 -1.2471 -0.2593
 3387SOL     OW21793   3.014   4.391   4.731 -0.7691  0.5016 -0.0604
 3387SOL    HW121794   3.084   4.326   4.735  0.0345  1.3862  0.2728
 3387SOL    HW221795   3.067   4.469   4.744 -0.7982  0.5131 -0.0138
 3388SOL     OW21796   1.785   1.976   8.327 -0.2445  0.2909 -0.3016
 3388SOL    HW121797   1.712   2.010   8.276  0.8263 -0.9372 -2.6517
 3388SOL    HW221798   1.823   2.056   8.362 -1.9207  0.3752  1.3163
 3389SOL     OW21799   2.039   0.730   5.559 -0.0824  0.2180  0.4564
 3389SOL    HW121800   2.103   0.720   5.630 -0.8714 -0.0465  1.1345
 3389SOL    HW221801   1.967   0.683   5.601 -1.3802  0.7648 -1.1576
 3390SOL     OW21802   1.699   2.345   6.811  0.2718  0.6390 -0.1853
 3390SOL    HW121803   1.777   2.367   6.758  0.4793  1.5859  0.5045
 3390SOL    HW221804   1.691   2.252   6.790  0.9613  0.7127 -0.8198
 3391SOL     OW21805   2.889   2.912  12.294 -0.4279 -0.7279  0.0390
 3391SOL    HW121806   2.921   2.946  12.377 -4.4380  0.3190  1.1524
 3391SOL    HW221807   2.818   2.975  12.281  2.2303  2.2673  0.0404
 3392SOL     OW21808   1.643   0.973   7.765 -0.1608  0.0370  0.0242
 3392SOL    HW121809   1.565   0.968   7.710  1.3383  0.1754 -2.1181
 3392SOL    HW221810   1.661   1.066   7.771  0.5538 -0.0754 -0.3711
 3393SOL     OW21811   0.285   2.293   4.257  0.6074  0.4809  0.0264
 3393SOL    HW121812   0.373   2.318   4.229  1.6753 -1.7492  1.3811
 3393SOL    HW221813   0.232   2.315   4.181  0.6512  0.0464 -0.1283
 3394SOL     OW21814   2.205   2.547   3.823 -0.1578 -0.2695  0.1341
 3394SOL    HW121815   2.131   2.582   3.774  1.1492  0.0093 -1.6306
 3394SOL    HW221816   2.243   2.476   3.770  1.0928  0.3797  0.1551
 3395SOL     OW21817   2.519   4.524   4.480 -1.0317 -0.0047 -1.0617
 3395SOL    HW121818   2.614   4.510   4.482 -0.8028  1.3132 -2.4783
 3395SOL    HW221819   2.502   4.546   4.571 -0.1434 -2.5370 -0.2699
 3396SOL     OW21820   3.187   2.701   9.115  0.2865  0.2346 -0.3750
 3396SOL    HW121821   3.244   2.656   9.178 -1.1682 -0.6437  0.3033
 3396SOL    HW221822   3.255   2.735   9.057  0.5929 -1.0399 -0.7560
 3397SOL     OW21823   0.855   2.297  12.468 -0.0734  0.5947  0.1617
 3397SOL    HW121824   0.857   2.202  12.451 -2.9415  0.6947 -0.7513
 3397SOL    HW221825   0.938   2.312  12.513  0.3077 -0.7765 -0.0752
 3398SOL     OW21826   2.633   1.542   6.508 -0.0475 -0.3325 -0.2205
 3398SOL    HW121827   2.550   1.497   6.491  0.3970  0.1603 -3.7630
 3398SOL    HW221828   2.616   1.609   6.441 -2.1568 -1.3383 -0.7070
 3399SOL     OW21829   0.719   0.475   4.898  0.2112  0.2360 -0.0698
 3399SOL    HW121830   0.800   0.425   4.911  0.1040  0.0554 -0.0943
 3399SOL    HW221831   0.658   0.430   4.956  1.1364  0.3661  1.0189
 3400SOL     OW21832   3.141   4.551   4.088  0.1265  0.0546 -0.1332
 3400SOL    HW121833   3.094   4.587   4.163 -1.0337 -0.1215 -0.7823
 3400SOL    HW221834   3.128   4.625   4.028  0.2191  1.2886  1.3708
 3401SOL     OW21835   0.242   2.770   3.102 -0.1266 -0.3277 -0.5438
 3401SOL    HW121836   0.329   2.734   3.120  0.6292  1.5042 -0.5089
 3401SOL    HW221837   0.239   2.828   3.178  2.1694 -2.0721  0.8637
 3402SOL     OW21838   4.597   4.481   5.170  0.4148 -0.5874  0.3968
 3402SOL    HW121839   4.508   4.455   5.146  1.0181 -0.8296 -1.5706
 3402SOL    HW221840   4.604   4.471   5.265 -0.0656 -1.9434  0.2938
 3403SOL     OW21841   1.537   0.689   8.404 -0.3474 -0.2046 -0.0009
 3403SOL    HW121842   1.529   0.765   8.346  0.0997 -0.8377 -0.8797
 3403SOL    HW221843   1.478   0.718   8.474  0.8801 -1.7850  1.6823
 3404SOL     OW21844   2.592   1.593   4.517 -0.2888 -0.0717  0.3753
 3404SOL    HW121845   2.609   1.518   4.460 -0.3078  2.3152 -2.7875
 3404SOL    HW221846   2.618   1.550   4.598 -0.2842  0.2101  0.5246
 3405SOL     OW21847   4.176   0.879   5.324  0.0193  0.6760 -0.2531
 3405SOL    HW121848   4.271   0.890   5.320  0.0489  0.2484 -0.7055
 3405SOL    HW221849   4.159   0.972   5.316 -0.2975  0.6052 -0.3961
 3406SOL     OW21850   3.880   3.900   4.303  0.6271 -0.4185  0.3759
 3406SOL    HW121851   3.967   3.860   4.305  1.7265  1.9626  0.2951
 3406SOL    HW221852   3.838   3.819   4.333  0.3521  0.0614  1.3100
 3407SOL     OW21853   0.075   2.297   2.796 -0.3935 -0.3752  0.3514
 3407SOL    HW121854   0.140   2.362   2.822 -1.5163  0.6095  0.7257
 3407SOL    HW221855   4.731   2.342   2.813 -2.4208 -3.6387 -1.0471
 3408SOL     OW21856   0.604   2.027   7.946  0.2420  0.6328 -0.0006
 3408SOL    HW121857   0.545   2.070   8.008  0.2875  1.0028 -0.2070
 3408SOL    HW221858   0.551   2.024   7.865 -0.4996  0.7630  0.4772
 3409SOL     OW21859   3.503   4.258   8.393  0.5098  0.7983 -0.2831
 3409SOL    HW121860   3.562   4.198   8.438 -0.0635  1.6860  1.6512
 3409SOL    HW221861   3.476   4.211   8.314  2.0183 -0.1258 -0.2506
 3410SOL     OW21862   2.778   1.561   3.013  0.4159  0.9897 -0.5801
 3410SOL    HW121863   2.803   1.587   3.101 -0.5895 -1.7024  0.5093
 3410SOL    HW221864   2.687   1.590   3.025  0.3357  0.4371  0.1375
 3411SOL     OW21865   4.178   2.278   3.697  0.1657 -0.1000 -0.1674
 3411SOL    HW121866   4.101   2.222   3.690  0.4865 -0.3575 -1.6833
 3411SOL    HW221867   4.231   2.254   3.621 -0.3801  2.6417 -1.4188
 3412SOL     OW21868   0.315   3.401   9.993  1.1171 -0.3607  0.2005
 3412SOL    HW121869   0.239   3.458   9.983  0.2400 -1.0547  2.7167
 3412SOL    HW221870   0.282   3.316   9.964  2.7036 -1.1760  0.7868
 3413SOL     OW21871   4.274   3.616   2.413  0.2685 -0.0579 -0.2202
 3413SOL    HW121872   4.362   3.649   2.393  0.9954 -1.2446  1.0292
 3413SOL    HW221873   4.267   3.546   2.348 -1.7863 -0.9815  1.0032
 3414SOL     OW21874   2.287   0.808   7.514 -0.7644 -0.3709 -0.3588
 3414SOL    HW121875   2.382   0.820   7.520 -1.0519  0.9659  1.3184
 3414SOL    HW221876   2.259   0.860   7.439  2.2208  4.2108  1.7240
 3415SOL     OW21877   3.446   2.349   1.889 -0.3119  0.1345 -0.0654
 3415SOL    HW121878   3.405   2.412   1.831  0.8787 -0.3205 -1.4082
 3415SOL    HW221879   3.374   2.289   1.911  0.7739 -1.0425  0.3112
 3416SOL     OW21880   2.462   2.492   4.812 -0.0519  0.2794 -0.2457
 3416SOL    HW121881   2.431   2.580   4.830  0.4521  0.3131  0.4468
 3416SOL    HW221882   2.552   2.507   4.782 -1.0295 -1.2196 -4.0227
 3417SOL     OW21883   0.427   1.751   7.706  0.0450  0.2745 -0.2028
 3417SOL    HW121884   0.464   1.703   7.781  0.8093  1.6151  0.2781
 3417SOL    HW221885   0.347   1.700   7.695  1.0327 -1.2546 -0.3001
 3418SOL     OW21886   1.411   1.491  13.182 -0.4177 -0.2540  0.3135
 3418SOL    HW121887   1.462   1.451  13.252  0.5726  0.7665  0.1729
 3418SOL    HW221888   1.475   1.478  13.112 -0.6196  1.2687 -0.1591
 3419SOL     OW21889   3.466   0.439   1.497 -0.0654  0.1105  0.2689
 3419SOL    HW121890   3.551   0.437   1.452 -0.5615 -1.5812 -0.6023
 3419SOL    HW221891   3.412   0.394   1.432 -0.6427 -0.6891  1.3060
 3420SOL     OW21892   2.598   0.565   9.441  0.0252  0.0233  0.5659
 3420SOL    HW121893   2.529   0.507   9.474 -0.9925  0.8211 -0.1461
 3420SOL    HW221894   2.550   0.643   9.411 -3.2363 -1.4872  1.8241
 3421SOL     OW21895   2.429   1.097   5.882  0.2846 -0.3374 -0.4488
 3421SOL    HW121896   2.392   1.023   5.833 -1.9863  0.2706  0.3393
 3421SOL    HW221897   2.374   1.100   5.960  0.4156 -3.4127 -0.2515
 3422SOL     OW21898   4.546   3.473   6.926 -0.1863 -0.4672 -0.2858
 3422SOL    HW121899   4.533   3.548   6.869 -1.3896 -0.9802 -0.6772
 3422SOL    HW221900   4.509   3.501   7.010  1.3500  0.0219  0.2256
 3423SOL     OW21901   1.372   1.214   4.232  0.2278  0.1028 -0.1401
 3423SOL    HW121902   1.394   1.152   4.162  1.8988  0.5844 -0.0363
 3423SOL    HW221903   1.454   1.262   4.242  1.0753 -1.3448 -0.1954
 3424SOL     OW21904   4.607   3.272  16.408 -0.7845 -0.0461  0.0113
 3424SOL    HW121905   4.643   3.357  16.433 -1.7351  0.0453  1.0713
 3424SOL    HW221906   4.666   3.221  16.463 -2.8523 -3.6865 -1.0963
 3425SOL     OW21907   2.455   2.817   4.930 -0.1647  0.4271 -0.0127
 3425SOL    HW121908   2.534   2.843   4.977 -0.9809  0.5821  1.2644
 3425SOL    HW221909   2.443   2.888   4.867 -0.1537  0.9663  0.5989
 3426SOL     OW21910   4.150   3.840   2.460 -0.4204 -0.1589  0.1646
 3426SOL    HW121911   4.193   3.755   2.448  0.6088  0.4623 -0.5831
 3426SOL    HW221912   4.135   3.867   2.369  0.5110  0.6605  0.2581
 3427SOL     OW21913   0.725   4.104  13.279  0.1883  0.0002 -0.3578
 3427SOL    HW121914   0.776   4.147  13.348 -0.9414  0.7372  0.0296
 3427SOL    HW221915   0.797   4.057  13.238 -0.9665 -2.2568  0.2360
 3428SOL     OW21916   1.329   2.681   9.164 -0.2561 -0.2886 -0.5910
 3428SOL    HW121917   1.289   2.766   9.148  0.8737  0.3848  0.0904
 3428SOL    HW221918   1.307   2.670   9.257 -0.2649 -0.5786 -0.6276
 3429SOL     OW21919   3.624   2.410   5.201  0.4444  0.2239 -0.0564
 3429SOL    HW121920   3.539   2.367   5.200  1.0939 -1.0490 -0.4612
 3429SOL    HW221921   3.658   2.381   5.117 -1.6975  0.0707 -0.8581
 3430SOL     OW21922   2.298   0.723   0.428 -0.7168 -0.1569  0.5895
 3430SOL    HW121923   2.242   0.712   0.351 -1.8209  0.2854  1.3285
 3430SOL    HW221924   2.330   0.633   0.428 -1.7741 -0.5266 -0.3250
 3431SOL     OW21925   0.746   2.001   7.432 -0.2660 -0.2633 -0.0305
 3431SOL    HW121926   0.751   2.064   7.360 -1.1867 -0.9460 -0.6965
 3431SOL    HW221927   0.803   2.031   7.503 -0.0170 -1.3622  0.2431
 3432SOL     OW21928   1.341   2.318   3.036 -0.0946 -0.1425  0.2675
 3432SOL    HW121929   1.376   2.400   3.003 -0.7653 -0.5681 -1.4992
 3432SOL    HW221930   1.408   2.289   3.098  2.4327  2.1109 -1.4207
 3433SOL     OW21931   1.899   2.778   2.401  0.0416  0.1769  0.3721
 3433SOL    HW121932   1.849   2.814   2.329  0.7862  2.8137  1.1753
 3433SOL    HW221933   1.885   2.851   2.462  0.5892  1.2828 -0.8321
 3434SOL     OW21934   3.242   1.628   6.708 -0.3662  0.3229 -0.1958
 3434SOL    HW121935   3.322   1.635   6.655  1.0346 -1.7836  1.6396
 3434SOL    HW221936   3.194   1.560   6.661 -0.1152  0.2609 -0.3666
 3435SOL     OW21937   1.856   0.227   8.619  0.0635  0.6367 -0.0009
 3435SOL    HW121938   1.913   0.164   8.575 -1.2296 -1.0275  0.7082
 3435SOL    HW221939   1.920   0.240   8.690 -0.4827 -0.0424  0.6156
 3436SOL     OW21940   4.520   3.666  15.320  0.0638  0.2084  0.0060
 3436SOL    HW121941   4.472   3.666  15.402  0.9879 -0.6437  0.5468
 3436SOL    HW221942   4.566   3.583  15.333  1.7732  1.4021  1.6704
 3437SOL     OW21943   1.967   0.785   3.938  0.8338 -0.1595  0.5840
 3437SOL    HW121944   1.928   0.867   3.969  2.6147  1.2367 -0.9104
 3437SOL    HW221945   2.059   0.804   3.954  1.3316 -0.8825 -1.4065
 3438SOL     OW21946   3.631   2.534   4.334  0.0762 -0.0857  0.2570
 3438SOL    HW121947   3.572   2.545   4.408 -0.1560 -0.1780  0.0858
 3438SOL    HW221948   3.583   2.577   4.264  3.2454  0.1415 -1.8125
 3439SOL     OW21949   1.427   3.542  12.544  0.0711 -0.1017  0.2032
 3439SOL    HW121950   1.377   3.545  12.463 -0.5437 -3.3446  0.4573
 3439SOL    HW221951   1.500   3.483  12.522  0.8159  0.9318 -0.0938
 3440SOL     OW21952   2.371   3.566   5.890 -0.2194  0.4003  0.0286
 3440SOL    HW121953   2.323   3.531   5.965 -0.6143  1.5659  0.3194
 3440SOL    HW221954   2.443   3.599   5.944  0.1008  0.8944 -0.7085
 3441SOL     OW21955   3.250   2.606   3.456  0.0457  0.0782  0.1339
 3441SOL    HW121956   3.323   2.545   3.453 -0.2941 -0.3912  1.4804
 3441SOL    HW221957   3.279   2.681   3.405 -0.2237 -0.3294 -0.6218
 3442SOL     OW21958   4.665   2.886   5.110 -0.3319  0.4835 -0.1627
 3442SOL    HW121959   4.688   2.796   5.088  0.4155  0.5471  0.3763
 3442SOL    HW221960   4.711   2.903   5.192  0.6699 -0.4651 -0.5307
 3443SOL     OW21961   4.392   1.775   4.187  0.2728  0.5704 -0.0384
 3443SOL    HW121962   4.316   1.728   4.152  1.5994 -1.3722 -0.3401
 3443SOL    HW221963   4.392   1.851   4.130  1.4242  0.1621 -0.5896
 3444SOL     OW21964   0.695   4.232   3.774 -0.3407  0.5595  0.5655
 3444SOL    HW121965   0.696   4.313   3.724 -1.0237  0.2242  0.0022
 3444SOL    HW221966   0.779   4.197   3.746 -1.7173 -0.7540 -1.9130
 3445SOL     OW21967   1.905   2.378  14.929  0.1153 -0.2404 -0.1967
 3445SOL    HW121968   1.926   2.359  14.837  2.0445 -2.1205  0.6052
 3445SOL    HW221969   1.945   2.299  14.966 -1.2277 -0.2218  1.2844
 3446SOL     OW21970   0.794   3.053   8.376  0.1972  0.0201 -0.0241
 3446SOL    HW121971   0.858   3.098   8.431  0.3375  1.8743 -1.7055
 3446SOL    HW221972   0.795   3.106   8.296  1.2845 -0.5236 -0.3688
 3447SOL     OW21973   4.678   3.712   0.668 -0.1749 -0.2703  0.0305
 3447SOL    HW121974   4.592   3.675   0.647  0.2929 -0.0780 -2.1939
 3447SOL    HW221975   4.691   3.765   0.589 -0.6632 -1.4266 -0.8207
 3448SOL     OW21976   0.716   0.314  10.455  0.3353  0.5475 -0.2994
 3448SOL    HW121977   0.801   0.329  10.413  0.8462 -0.0812  0.5151
 3448SOL    HW221978   0.710   0.401  10.496 -0.3378  0.2989  0.1322
 3449SOL     OW21979   3.595   1.283   5.694 -0.1800  0.2151  0.5686
 3449SOL    HW121980   3.616   1.240   5.611 -0.9699 -0.3405  0.6591
 3449SOL    HW221981   3.676   1.333   5.696  0.7860 -1.3736  1.0284
 3450SOL     OW21982   3.760   0.292   8.254 -0.0026  0.2558 -0.7182
 3450SOL    HW121983   3.835   0.342   8.287  1.0056 -0.5448 -1.8530
 3450SOL    HW221984   3.714   0.276   8.337  1.9594 -0.2745  0.2571
 3451SOL     OW21985   2.799   1.628  10.704 -0.2190  0.0279  0.1531
 3451SOL    HW121986   2.760   1.544  10.682  2.6932 -1.6071  1.3206
 3451SOL    HW221987   2.881   1.614  10.657 -1.1424  1.5712 -1.9460
 3452SOL     OW21988   1.639   0.519   1.979  0.2787  0.2924 -0.1442
 3452SOL    HW121989   1.709   0.469   1.936  0.1395 -1.7737  2.0363
 3452SOL    HW221990   1.675   0.535   2.066  2.1470  1.1351 -1.0576
 3453SOL     OW21991   3.498   3.168   0.295 -0.6523  0.6676 -0.2021
 3453SOL    HW121992   3.431   3.167   0.226 -1.4157 -0.7646  0.5483
 3453SOL    HW221993   3.447   3.169   0.376  0.8638  0.1019  0.7456
 3454SOL     OW21994   2.666   0.453  15.600 -0.4707  1.1221  0.3167
 3454SOL    HW121995   2.699   0.367  15.574 -0.9151  1.1818 -0.4507
 3454SOL    HW221996   2.747   0.500  15.618  0.3592  0.1885 -0.9667
 3455SOL     OW21997   2.822   1.440   9.202  0.6904  0.2952  0.2850
 3455SOL    HW121998   2.862   1.519   9.240  1.4687  0.6817 -1.3380
 3455SOL    HW221999   2.846   1.468   9.114  1.3160 -0.3120  0.2633
 3456SOL     OW22000   4.414   1.646   5.731 -0.3624  0.3976  0.0698
 3456SOL    HW122001   4.499   1.608   5.709 -0.5744  0.4443 -0.8134
 3456SOL    HW222002   4.415   1.731   5.688 -1.8742 -1.4912 -3.6584
 3457SOL     OW22003   4.378   3.537   5.142 -0.4010 -0.0056  0.6791
 3457SOL    HW122004   4.390   3.534   5.047  1.8484  0.7659  0.9292
 3457SOL    HW222005   4.462   3.569   5.175  0.5793 -0.9067 -0.9419
 3458SOL     OW22006   3.607   3.114   2.218  0.6154 -0.7436 -0.3241
 3458SOL    HW122007   3.551   3.039   2.196 -0.6686 -0.5851  2.3545
 3458SOL    HW222008   3.639   3.141   2.133 -1.8243  2.3145 -0.2943
 3459SOL     OW22009   1.603   2.315  14.405  0.3298  0.1308 -0.0954
 3459SOL    HW122010   1.579   2.375  14.475 -0.3910 -1.8067  1.3256
 3459SOL    HW222011   1.523   2.313  14.352  1.6046 -0.0440 -2.0203
 3460SOL     OW22012   4.172   3.038   3.640  0.0424  0.2164  0.2867
 3460SOL    HW122013   4.198   3.036   3.732  2.8272 -0.9946 -0.5406
 3460SOL    HW222014   4.256   3.041   3.594 -0.9129  0.1497 -1.4812
 3461SOL     OW22015   3.965   4.614  15.057  0.2342  0.6096 -0.3140
 3461SOL    HW122016   3.909   4.666  15.000 -1.3469 -1.1135 -0.3160
 3461SOL    HW222017   4.016   4.688  15.089 -0.1752  0.1782  1.3334
 3462SOL     OW22018   0.059   4.253   3.677 -0.2079 -0.2753  0.0574
 3462SOL    HW122019   0.036   4.184   3.739 -1.0209 -1.2851 -1.3641
 3462SOL    HW222020   0.005   4.329   3.699 -2.4619 -2.0521  0.6891
 3463SOL     OW22021   3.111   1.840   7.338 -0.1251  0.2019  0.0794
 3463SOL    HW122022   3.201   1.841   7.305 -1.2615 -2.8047 -3.0754
 3463SOL    HW222023   3.081   1.755   7.306 -1.4636  1.4787 -2.1220
 3464SOL     OW22024   2.944   1.789   3.688 -0.3341  0.3982 -0.2883
 3464SOL    HW122025   2.957   1.702   3.653  1.0873 -0.3377  2.0356
 3464SOL    HW222026   3.027   1.820   3.725 -0.9517  0.5150  1.0170
 3465SOL     OW22027   4.115   3.071   5.160 -0.1586  0.1730 -0.6901
 3465SOL    HW122028   4.199   3.034   5.133  1.2857  1.5004  1.9071
 3465SOL    HW222029   4.123   3.067   5.256 -1.9380 -0.5634 -0.5719
 3466SOL     OW22030   3.874   3.674   5.631 -0.1297 -0.0105 -0.2463
 3466SOL    HW122031   3.827   3.619   5.569 -1.9425  1.0949  0.1380
 3466SOL    HW222032   3.878   3.600   5.691 -0.6382 -0.9503 -1.3609
 3467SOL     OW22033   2.213   2.331   8.292 -0.2325  0.6238  0.7542
 3467SOL    HW122034   2.126   2.326   8.252 -0.3343  1.2976  0.9013
 3467SOL    HW222035   2.209   2.419   8.331  0.9884  0.8195  0.4500
 3468SOL     OW22036   1.427   0.465   2.741 -0.1989 -0.1739  0.2397
 3468SOL    HW122037   1.414   0.558   2.724  0.7978 -0.1165 -0.2414
 3468SOL    HW222038   1.470   0.431   2.662  0.2122  0.2825  0.2650
 3469SOL     OW22039   4.486   3.897   7.832 -0.5409 -0.5309 -0.1528
 3469SOL    HW122040   4.495   3.881   7.738  3.5423 -1.2974  0.3854
 3469SOL    HW222041   4.413   3.959   7.830  1.8185  2.3230  1.0509
 3470SOL     OW22042   1.155   3.216   3.404 -0.8008 -0.0870 -0.1728
 3470SOL    HW122043   1.107   3.189   3.482 -2.2575 -0.6572 -1.2451
 3470SOL    HW222044   1.119   3.304   3.390 -0.0446 -0.0414 -1.7979
 3471SOL     OW22045   0.615   1.696   4.304 -0.4885  0.8248 -0.0054
 3471SOL    HW122046   0.678   1.742   4.248  0.0962  1.5182  1.2037
 3471SOL    HW222047   0.583   1.772   4.352  1.6193  1.8043 -0.1445
 3472SOL     OW22048   0.267   3.265   4.680 -0.1435 -0.2786  0.0996
 3472SOL    HW122049   0.217   3.330   4.730 -1.6807 -0.0320 -1.7386
 3472SOL    HW222050   0.331   3.249   4.749 -1.7268 -2.3131  1.0953
 3473SOL     OW22051   4.075   0.166  12.840 -0.0854  0.3483  0.3010
 3473SOL    HW122052   4.105   0.208  12.760 -0.1629 -0.2126 -0.0218
 3473SOL    HW222053   4.157   0.125  12.868  1.5362  1.1548 -3.2773
 3474SOL     OW22054   2.104   2.285   7.030 -0.1404  0.7109  0.0304
 3474SOL    HW122055   2.053   2.364   7.014  1.8321  1.7912 -1.0764
 3474SOL    HW222056   2.041   2.224   6.992 -0.9966  1.3626  0.4029
 3475SOL     OW22057   4.351   4.160   8.638 -0.8174  0.4700 -0.1745
 3475SOL    HW122058   4.446   4.166   8.646 -0.8799 -0.8358  1.4414
 3475SOL    HW222059   4.339   4.253   8.617  2.1011  1.3474  2.2046
 3476SOL     OW22060   2.944   3.100   3.934  0.1171 -0.3753 -0.4227
 3476SOL    HW122061   2.987   3.169   3.884  0.4755 -1.2312 -1.2913
 3476SOL    HW222062   2.975   3.025   3.884  3.4045  0.4358  0.3388
 3477SOL     OW22063   0.614   3.121  11.200  0.2332  0.2200 -0.5096
 3477SOL    HW122064   0.633   3.129  11.293  0.3622  0.8812 -0.5914
 3477SOL    HW222065   0.520   3.140  11.196  0.2144  0.2826  0.2693
 3478SOL     OW22066   3.223   0.153  16.591  0.2090 -0.4169 -0.3537
 3478SOL    HW122067   3.174   0.224  16.632 -2.2871 -3.2593  1.5920
 3478SOL    HW222068   3.285   0.131  16.660 -1.5364 -1.7927  0.7936
 3479SOL     OW22069   2.279   3.573   3.026 -1.2566 -0.1413 -0.0327
 3479SOL    HW122070   2.360   3.524   3.043 -0.3114  1.2780 -0.4590
 3479SOL    HW222071   2.261   3.548   2.935 -0.3109 -1.1649  0.0555
 3480SOL     OW22072   3.232   3.750   1.842  0.5856  0.0716  0.1109
 3480SOL    HW122073   3.249   3.671   1.790  0.3060  0.3951 -0.4705
 3480SOL    HW222074   3.282   3.818   1.796 -2.6222  1.5630 -1.1339
 3481SOL     OW22075   4.721   1.696   8.686  0.3305 -0.3909 -0.4643
 3481SOL    HW122076   0.055   1.738   8.642  1.6593 -1.2330  0.9404
 3481SOL    HW222077   4.718   1.760   8.757  1.0675  0.0558 -0.8430
 3482SOL     OW22078   4.010   0.857   9.378  0.3718 -0.2976 -0.3628
 3482SOL    HW122079   4.077   0.919   9.406 -0.2168 -0.8942  2.4502
 3482SOL    HW222080   4.013   0.807   9.460 -1.0880 -0.3046 -0.3075
 3483SOL     OW22081   0.337   0.005   7.094  0.5356 -0.8176 -0.2261
 3483SOL    HW122082   0.254   0.019   7.139  0.7581  1.9377 -0.6496
 3483SOL    HW222083   0.388   4.688   7.151  0.0291 -1.5016 -0.4397
 3484SOL     OW22084   0.806   3.118   7.756  0.1166 -0.1242  0.2750
 3484SOL    HW122085   0.770   3.101   7.843 -0.5392  1.7687  0.3680
 3484SOL    HW222086   0.874   3.184   7.771  1.2937 -1.4217  0.6443
 3485SOL     OW22087   4.219   0.168   8.775 -0.0224 -0.3479  0.7748
 3485SOL    HW122088   4.194   0.247   8.727  2.0448  0.3553  0.8794
 3485SOL    HW222089   4.211   0.204   8.863 -1.9143  1.1666  0.0086
 3486SOL     OW22090   0.613   1.683   0.669 -0.1585 -0.6086  0.1231
 3486SOL    HW122091   0.686   1.698   0.728 -0.4257 -0.0987  0.3251
 3486SOL    HW222092   0.533   1.683   0.721 -0.8095 -0.7791 -0.8634
 3487SOL     OW22093   3.809   1.287   5.450 -0.5612  0.2385  0.6734
 3487SOL    HW122094   3.764   1.348   5.391 -0.0836  1.7442  1.8734
 3487SOL    HW222095   3.761   1.208   5.426 -1.1803  0.6563  0.5573
 3488SOL     OW22096   1.940   1.777   9.867 -0.3221  0.5790  0.0723
 3488SOL    HW122097   1.946   1.682   9.868  2.6906  0.7948  0.5905
 3488SOL    HW222098   1.993   1.786   9.788  0.3367  1.9787  0.6764
 3489SOL     OW22099   3.889   1.104   6.266 -0.7763 -0.4426 -0.4405
 3489SOL    HW122100   3.866   1.084   6.357  0.9370 -0.3184  0.0399
 3489SOL    HW222101   3.985   1.103   6.265 -0.7598 -0.2200  0.3905
 3490SOL     OW22102   2.918   1.957   0.121 -0.1922  0.1683 -0.3692
 3490SOL    HW122103   2.922   2.052   0.120 -3.1031  0.2598 -1.2583
 3490SOL    HW222104   2.972   1.928   0.047  0.7026 -2.8475  1.4230
 3491SOL     OW22105   1.476   3.818   5.398  0.6191 -0.2819  0.2852
 3491SOL    HW122106   1.422   3.896   5.396 -0.9794 -1.3954  0.1693
 3491SOL    HW222107   1.558   3.859   5.424  0.2562 -0.0139  0.9939
 3492SOL     OW22108   4.226   4.411  15.165  0.6265 -0.0135  0.3399
 3492SOL    HW122109   4.245   4.454  15.082 -0.1286  1.3387  0.8637
 3492SOL    HW222110   4.182   4.481  15.214  0.6823 -2.0140  3.2983
 3493SOL     OW22111   1.064   2.290   3.074 -0.2755 -0.4231 -0.0573
 3493SOL    HW122112   1.035   2.350   3.005  1.2395 -0.2965 -0.5857
 3493SOL    HW222113   1.158   2.299   3.056  0.0717  0.5946  2.3365
 3494SOL     OW22114   4.442   0.843   8.348 -0.3059 -0.7093  0.1420
 3494SOL    HW122115   4.519   0.786   8.354 -0.3010 -0.8385 -1.1697
 3494SOL    HW222116   4.393   0.824   8.429  0.7229 -0.8281  0.7402
 3495SOL     OW22117   4.231   4.231   6.718  0.1600 -0.3481  0.4438
 3495SOL    HW122118   4.285   4.161   6.681 -0.6051  0.0374 -1.3948
 3495SOL    HW222119   4.220   4.209   6.810  1.2239  1.8113  1.0877
 3496SOL     OW22120   2.665   2.959   3.591  0.0884 -0.3130 -0.5840
 3496SOL    HW122121   2.715   2.911   3.525  0.7886  2.8334 -2.3125
 3496SOL    HW222122   2.620   2.893   3.645  1.2262  0.1388  0.9252
 3497SOL     OW22123   0.965   1.029   7.990  0.4314  0.3850  0.2006
 3497SOL    HW122124   0.998   1.084   7.919 -1.9283  1.0728 -0.3919
 3497SOL    HW222125   0.969   0.949   7.938 -0.1806  0.1596  0.4896
 3498SOL     OW22126   1.927   0.951   5.029  0.2650  0.6999  0.1930
 3498SOL    HW122127   1.902   1.035   4.990  1.0295  0.6433 -0.4287
 3498SOL    HW222128   1.982   0.988   5.099  0.4562  0.0991  0.3552
 3499SOL     OW22129   2.256   1.553   2.364 -0.2549  0.0294 -0.2785
 3499SOL    HW122130   2.237   1.640   2.398 -1.3710 -0.3912  0.1493
 3499SOL    HW222131   2.298   1.511   2.439 -0.9766  0.7125  0.5125
 3500SOL     OW22132   2.640   2.773   4.626  0.1022 -0.3536 -0.1842
 3500SOL    HW122133   2.567   2.755   4.567  1.2775 -0.3799 -1.6333
 3500SOL    HW222134   2.621   2.856   4.670 -0.3508 -0.6493  0.1824
 3501SOL     OW22135   1.091   3.086   0.033 -0.1709 -0.4069 -0.8087
 3501SOL    HW122136   0.996   3.093   0.032 -0.2676 -1.5843 -0.4939
 3501SOL    HW222137   1.108   2.992   0.028 -1.1076 -0.7300  1.6081
 3502SOL     OW22138   0.961   0.359  10.369 -0.2464  0.2670  0.1524
 3502SOL    HW122139   0.984   0.315  10.287  0.4642 -3.5834  2.4148
 3502SOL    HW222140   1.053   0.376  10.392 -1.0500  1.8187  2.2318
 3503SOL     OW22141   1.729   2.451   3.330 -0.3630  0.0538  0.2499
 3503SOL    HW122142   1.745   2.526   3.388  1.0901 -0.9805  1.1899
 3503SOL    HW222143   1.667   2.397   3.378 -0.6970 -0.2002 -0.4704
 3504SOL     OW22144   2.850   2.621   5.010 -0.4385 -0.2021  0.3042
 3504SOL    HW122145   2.931   2.596   5.055 -0.5039 -1.3991 -0.2491
 3504SOL    HW222146   2.805   2.665   5.082 -1.6245  0.2132 -0.6886
 3505SOL     OW22147   2.755   4.459   5.527  0.2804 -0.3208  0.2680
 3505SOL    HW122148   2.670   4.489   5.496  1.0472  0.3778 -1.1275
 3505SOL    HW222149   2.728   4.374   5.564  1.7180 -1.3510 -1.0553
 3506SOL     OW22150   3.523   4.321   4.749 -0.0828  0.5878 -0.1884
 3506SOL    HW122151   3.522   4.229   4.775 -0.3132  0.5005 -0.5087
 3506SOL    HW222152   3.616   4.338   4.730 -0.3881 -0.6494 -2.7586
 3507SOL     OW22153   1.644   3.186  15.588  0.4994  0.0368  0.4222
 3507SOL    HW122154   1.713   3.223  15.643  0.9895  1.4081 -1.1323
 3507SOL    HW222155   1.691   3.151  15.513  1.6895 -0.6672  1.4949
 3508SOL     OW22156   3.984   3.359   2.653 -0.1194 -0.1817 -0.1054
 3508SOL    HW122157   3.906   3.369   2.708  0.7788 -1.2190  1.3648
 3508SOL    HW222158   3.950   3.395   2.571  0.0461 -1.1697 -0.6016
 3509SOL     OW22159   3.969   1.631   8.522 -0.5365  0.4070  0.2254
 3509SOL    HW122160   3.884   1.592   8.501 -0.9326  0.6824  1.3140
 3509SOL    HW222161   4.018   1.560   8.562 -2.0111 -1.7662 -1.8693
 3510SOL     OW22162   0.231   4.440   7.249  0.0363 -0.5561 -0.2196
 3510SOL    HW122163   0.246   4.384   7.325  0.1328  1.5326  1.2742
 3510SOL    HW222164   0.305   4.498   7.261 -1.3968  1.0295  0.8873
 3511SOL     OW22165   0.233   3.762   2.340 -0.0793  0.0270  0.5072
 3511SOL    HW122166   0.259   3.854   2.347 -0.1660 -0.0266  1.5317
 3511SOL    HW222167   0.142   3.759   2.371  0.4874  1.9998  2.3812
 3512SOL     OW22168   1.199   1.918  13.566  0.1973 -0.8757 -0.1078
 3512SOL    HW122169   1.166   1.978  13.634  0.5239 -1.3815  0.5003
 3512SOL    HW222170   1.247   1.859  13.625  2.5495  0.0434 -1.0968
 3513SOL     OW22171   1.652   2.835  17.098  0.0492 -0.4463 -0.8312
 3513SOL    HW122172   1.699   2.809  17.020  1.8758 -0.2339  0.2069
 3513SOL    HW222173   1.578   2.882  17.060  1.2505  0.8442 -1.5271
 3514SOL     OW22174   2.753   3.669   1.092 -0.3537  0.1879 -0.0951
 3514SOL    HW122175   2.726   3.608   1.023  0.9267  0.7260 -1.0677
 3514SOL    HW222176   2.797   3.735   1.039 -1.8147 -0.2155 -1.8016
 3515SOL     OW22177   0.932   0.414   3.284  0.6045  0.0718  0.0685
 3515SOL    HW122178   0.909   0.352   3.353  1.8859 -0.4209  0.0629
 3515SOL    HW222179   1.019   0.389   3.252  0.6702 -0.4473  0.6586
 3516SOL     OW22180   3.446   1.156  10.054 -0.0873  0.2690  0.3103
 3516SOL    HW122181   3.514   1.124  10.113 -1.9051 -0.8789  1.7791
 3516SOL    HW222182   3.449   1.251  10.069 -2.2857  0.5373 -0.8748
 3517SOL     OW22183   2.645   2.848  12.495  0.4533  0.3141 -0.0006
 3517SOL    HW122184   2.649   2.938  12.464  0.2449  0.6443  0.9541
 3517SOL    HW222185   2.590   2.864  12.572  2.6409 -1.2922  1.9022
 3518SOL     OW22186   3.448   0.425  13.129  0.6905 -0.3104  0.2852
 3518SOL    HW122187   3.419   0.499  13.182  2.6945 -0.8406  2.1310
 3518SOL    HW222188   3.500   0.472  13.064 -0.3788  0.6891  0.1549
 3519SOL     OW22189   1.360   1.149   4.703 -0.1019 -0.6137 -0.1588
 3519SOL    HW122190   1.347   1.192   4.788 -0.4237 -0.7333 -0.1459
 3519SOL    HW222191   1.440   1.097   4.703 -0.8780 -1.7868 -1.1533
 3520SOL     OW22192   4.240   0.443   3.437 -0.0350  0.0422  0.2526
 3520SOL    HW122193   4.286   0.507   3.492  2.2379 -1.7154  0.4143
 3520SOL    HW222194   4.196   0.501   3.375 -0.0450 -1.2650 -0.9566
 3521SOL     OW22195   3.392   1.270   7.085  0.1596 -0.4852 -0.2994
 3521SOL    HW122196   3.409   1.289   6.993 -2.1633  0.6558 -0.4934
 3521SOL    HW222197   3.396   1.357   7.125 -1.0783 -1.3571  1.7378
 3522SOL     OW22198   0.824   3.264   4.014  0.2741  0.0380 -0.0131
 3522SOL    HW122199   0.812   3.313   3.933  0.1008 -0.7523 -0.4697
 3522SOL    HW222200   0.739   3.226   4.035  0.1679 -0.2452 -0.9778
 3523SOL     OW22201   0.715   2.011   4.370 -0.5376  0.1584  0.1204
 3523SOL    HW122202   0.728   2.052   4.284  0.6321 -2.3565 -0.8891
 3523SOL    HW222203   0.642   2.064   4.404 -0.9989 -0.3469 -0.0870
 3524SOL     OW22204   1.484   0.325  12.807  0.3388 -0.3753  0.0714
 3524SOL    HW122205   1.516   0.406  12.847  0.5166 -0.9484  1.1000
 3524SOL    HW222206   1.432   0.287  12.877 -0.8545  0.3950 -0.4030
 3525SOL     OW22207   0.126   1.356   1.510  0.1749  0.1319 -0.0455
 3525SOL    HW122208   0.126   1.269   1.550  0.9384 -0.0639 -0.4593
 3525SOL    HW222209   0.194   1.406   1.554 -0.5110  0.1334  1.0222
 3526SOL     OW22210   2.633   0.455  13.526  0.0350  0.0888  0.4002
 3526SOL    HW122211   2.589   0.400  13.460 -2.3695  0.6915  1.5043
 3526SOL    HW222212   2.649   0.531  13.469  1.1813 -0.9009 -0.6069
 3527SOL     OW22213   2.895   1.881  10.003 -0.0610 -0.4154  0.8063
 3527SOL    HW122214   2.977   1.831  10.009  1.1392  1.5332  0.7413
 3527SOL    HW222215   2.920   1.946   9.937 -0.6071 -0.9991  0.0185
 3528SOL     OW22216   2.126   2.890   3.509  0.2309 -0.1613  0.2143
 3528SOL    HW122217   2.135   2.981   3.538  0.0758 -0.0507 -0.0864
 3528SOL    HW222218   2.181   2.880   3.431  0.2271  1.4255  0.0133
 3529SOL     OW22219   1.328   1.924  15.508 -0.2046 -0.1693  0.1020
 3529SOL    HW122220   1.333   1.859  15.438  1.4473  1.3035 -1.1586
 3529SOL    HW222221   1.411   1.919  15.555  0.4615  0.7637 -0.9663
 3530SOL     OW22222   3.776   4.563  11.383 -0.4371 -0.0689 -0.1729
 3530SOL    HW122223   3.820   4.646  11.365  0.2648  0.0374  2.0198
 3530SOL    HW222224   3.707   4.601  11.437 -1.3894  0.2696 -1.6409
 3531SOL     OW22225   0.068   3.260  15.238  0.1048  0.1152 -0.1900
 3531SOL    HW122226   0.139   3.305  15.284  0.5705 -0.7986 -0.0026
 3531SOL    HW222227   0.067   3.319  15.163  0.3643  0.0442 -0.2515
 3532SOL     OW22228   2.772   0.447  17.479 -0.5428  0.2469  0.2639
 3532SOL    HW122229   2.839   0.400  17.528  1.9636 -0.1887 -3.5820
 3532SOL    HW222230   2.828   0.521  17.455 -0.5218  0.1330 -0.0309
 3533SOL     OW22231   3.160   0.097   6.737  0.4510  0.2389  0.2277
 3533SOL    HW122232   3.244   0.087   6.781  1.0868  4.4895  0.0172
 3533SOL    HW222233   3.126   0.172   6.786 -1.4876 -1.0775  0.9016
 3534SOL     OW22234   1.602   2.292   7.700 -0.1480  0.2910 -0.4744
 3534SOL    HW122235   1.691   2.259   7.699 -0.6512 -1.0488 -0.4756
 3534SOL    HW222236   1.576   2.295   7.607 -1.3339 -4.0035 -0.2668
 3535SOL     OW22237   3.677   3.732   7.071  0.0533 -0.4535  0.5626
 3535SOL    HW122238   3.590   3.730   7.109 -0.8687 -0.6640 -1.5290
 3535SOL    HW222239   3.672   3.651   7.020  2.1937 -0.5402  0.4665
 3536SOL     OW22240   0.899   0.083   4.773 -0.0530 -0.3596 -0.2669
 3536SOL    HW122241   0.857   0.072   4.688 -0.9921 -0.3562  0.1959
 3536SOL    HW222242   0.924   4.731   4.786  3.6189  0.8731  1.3178
 3537SOL     OW22243   2.144   4.295   3.004  0.5038  0.6131 -0.4703
 3537SOL    HW122244   2.225   4.301   2.954  2.0683 -0.1897  1.9782
 3537SOL    HW222245   2.182   4.318   3.089 -0.5323 -0.3375  0.2536
 3538SOL     OW22246   0.820   0.736   4.495  0.8010 -0.1937 -0.5999
 3538SOL    HW122247   0.830   0.728   4.590  2.2254 -2.1003 -0.8998
 3538SOL    HW222248   0.794   0.828   4.492 -1.4468 -0.7594  1.2069
 3539SOL     OW22249   0.107   0.353   1.505  0.3684 -0.1025  0.5697
 3539SOL    HW122250   0.166   0.428   1.509 -1.1364  1.0860  0.4971
 3539SOL    HW222251   0.143   0.292   1.570 -0.1407 -0.3232  0.6426
 3540SOL     OW22252   2.371   0.957   8.342  0.2912  0.1633  0.0136
 3540SOL    HW122253   2.286   0.980   8.380 -0.2398 -0.0378 -1.0523
 3540SOL    HW222254   2.390   0.873   8.385 -1.8775  0.4638  1.5167
 3541SOL     OW22255   3.443   1.507   5.070 -0.1703  0.5311  0.1584
 3541SOL    HW122256   3.393   1.497   4.989 -0.4068 -1.0550  0.4856
 3541SOL    HW222257   3.416   1.435   5.128 -0.2447 -0.8466 -1.5661
 3542SOL     OW22258   2.932   3.673   3.108 -0.3895  0.2754  0.6031
 3542SOL    HW122259   2.917   3.703   3.198  2.4941  1.3106  0.7114
 3542SOL    HW222260   2.894   3.586   3.118  0.2389 -0.1998 -1.2110
 3543SOL     OW22261   1.030   4.363   4.721  0.1280  0.1584  0.4562
 3543SOL    HW122262   0.935   4.350   4.714  0.3900 -0.7140 -1.3521
 3543SOL    HW222263   1.046   4.457   4.722 -0.3845  0.2747 -2.2325
 3544SOL     OW22264   0.765   4.102  16.916 -0.1460 -0.6680 -0.6513
 3544SOL    HW122265   0.832   4.034  16.918 -1.6936 -2.1253  1.1798
 3544SOL    HW222266   0.813   4.177  16.881  0.0263 -0.4423  0.0757
 3545SOL     OW22267   2.413   2.958   8.198  0.3351  0.3537  0.1811
 3545SOL    HW122268   2.425   2.863   8.209 -0.4108  0.1139 -1.0865
 3545SOL    HW222269   2.363   2.989   8.274  1.1321  2.2097 -0.0564
 3546SOL     OW22270   3.298   4.480   9.508 -0.4167 -0.2025 -0.0192
 3546SOL    HW122271   3.227   4.468   9.572 -1.1223 -0.0493 -0.7681
 3546SOL    HW222272   3.331   4.564   9.540 -0.7625 -0.2404  0.4429
 3547SOL     OW22273   3.263   0.864   9.219 -0.2369 -0.1325  0.4950
 3547SOL    HW122274   3.245   0.811   9.296  0.0107 -0.9169  0.0031
 3547SOL    HW222275   3.262   0.810   9.140  1.1887  0.0665  0.3358
 3548SOL     OW22276   1.166   3.282  15.006  0.3638  0.2107 -0.2940
 3548SOL    HW122277   1.224   3.221  15.050  0.7241 -0.0079 -1.0746
 3548SOL    HW222278   1.096   3.227  14.972  0.0998  1.1453 -1.2858
 3549SOL     OW22279   1.597   2.353   4.716 -0.2700  0.5954  0.0979
 3549SOL    HW122280   1.543   2.427   4.687  0.8077  1.6010  0.6539
 3549SOL    HW222281   1.564   2.275   4.672  0.4885  1.2362 -1.6056
 3550SOL     OW22282   2.247   0.868  16.818 -0.5448 -0.3989  0.3248
 3550SOL    HW122283   2.309   0.810  16.775 -0.2949  0.1362 -0.0317
 3550SOL    HW222284   2.313   0.921  16.863 -2.4374  1.2505  1.1714
 3551SOL     OW22285   0.018   1.558   9.269 -0.5260 -0.2771 -0.3917
 3551SOL    HW122286   4.703   1.563   9.191  1.5277  0.3623 -1.7834
 3551SOL    HW222287   0.090   1.503   9.237 -0.9914 -1.0872 -0.0533
 3552SOL     OW22288   3.601   3.275   8.345  0.2958 -0.6100  0.1278
 3552SOL    HW122289   3.578   3.366   8.362 -0.9061 -0.4564 -2.2814
 3552SOL    HW222290   3.688   3.283   8.306 -0.1750  3.4099 -0.0778
 3553SOL     OW22291   3.835   2.011  12.969 -0.3318  0.6159 -0.0700
 3553SOL    HW122292   3.926   2.031  12.945  0.2672 -1.0020  0.8736
 3553SOL    HW222293   3.797   1.985  12.886  0.0940 -2.3135  0.6528
 3554SOL     OW22294   2.900   1.092   6.450  0.3883  0.2048 -0.1033
 3554SOL    HW122295   2.862   1.043   6.377 -0.0509 -0.3362  0.4932
 3554SOL    HW222296   2.956   1.155   6.403  2.9978 -0.6327  1.9225
 3555SOL     OW22297   1.912   4.042   6.285 -0.7351 -0.0152  0.2813
 3555SOL    HW122298   1.918   3.962   6.337  1.5784 -0.5131 -0.7725
 3555SOL    HW222299   2.004   4.052   6.261 -0.2756 -1.6829  1.3728
 3556SOL     OW22300   4.622   0.654   9.635 -0.3450  0.0260 -0.3741
 3556SOL    HW122301   4.644   0.683   9.724  0.2464 -0.3855 -0.3843
 3556SOL    HW222302   4.701   0.676   9.585  1.2598  0.9702  2.5634
 3557SOL     OW22303   3.782   4.708  11.633 -0.8400 -0.3071  0.4427
 3557SOL    HW122304   3.717   4.692  11.702 -1.1945  2.3197  0.7048
 3557SOL    HW222305   3.831   0.045  11.663  0.7066 -1.5273  1.0535
 3558SOL     OW22306   3.265   2.578  13.168  0.0042  0.1463  0.0159
 3558SOL    HW122307   3.352   2.596  13.204 -0.4922  1.2118  0.7008
 3558SOL    HW222308   3.220   2.663  13.173 -1.5310 -0.7374  1.3794
 3559SOL     OW22309   0.304   4.370   7.990  0.0560 -0.1779 -0.3015
 3559SOL    HW122310   0.265   4.367   8.077 -0.8632  0.6861 -0.6807
 3559SOL    HW222311   0.235   4.339   7.933 -0.3809  1.9540 -0.9474
 3560SOL     OW22312   0.570   1.403   2.004 -0.4003 -0.6843 -0.2797
 3560SOL    HW122313   0.663   1.421   1.993 -0.3432 -0.1725  1.0750
 3560SOL    HW222314   0.550   1.463   2.076  1.5217  0.4222 -0.6825
 3561SOL     OW22315   1.904   1.999   0.244 -0.2692  0.0428 -0.3635
 3561SOL    HW122316   1.901   1.932   0.312 -0.5990  1.3733  0.9518
 3561SOL    HW222317   1.957   1.965   0.172  0.6276 -0.3383  0.4750
 3562SOL     OW22318   1.635   3.598   2.379  0.1601 -0.5469 -0.3424
 3562SOL    HW122319   1.654   3.688   2.408  1.6562 -0.7442 -0.7146
 3562SOL    HW222320   1.587   3.604   2.297 -0.7705 -4.8957 -0.1041
 3563SOL     OW22321   0.917   1.466   7.215  0.0307 -0.1204  0.6153
 3563SOL    HW122322   1.009   1.466   7.188 -0.0561 -0.0152  0.3230
 3563SOL    HW222323   0.926   1.390   7.273 -1.3445 -3.2174 -3.2442
 3564SOL     OW22324   0.427   1.814  12.879 -0.3980  0.4435 -0.1265
 3564SOL    HW122325   0.468   1.887  12.831 -0.4603  0.2869 -0.4155
 3564SOL    HW222326   0.476   1.741  12.842  0.5867  0.6568  0.7502
 3565SOL     OW22327   2.499   2.465  16.776  0.3116  0.4363  0.1797
 3565SOL    HW122328   2.491   2.557  16.752  1.5557  0.5219  0.1305
 3565SOL    HW222329   2.590   2.451  16.752  0.0094 -0.9686 -0.1576
 3566SOL     OW22330   0.296   4.614   8.304 -0.1607 -0.4417  0.0521
 3566SOL    HW122331   0.238   4.680   8.265  1.1799  0.0692 -1.0813
 3566SOL    HW222332   0.240   4.540   8.281  0.9398 -1.7066  1.4765
 3567SOL     OW22333   1.889   1.741   1.480 -0.2054 -0.2152  0.1984
 3567SOL    HW122334   1.959   1.721   1.418  1.7137 -3.1195  3.2828
 3567SOL    HW222335   1.841   1.802   1.424 -1.4306 -0.8730  0.5342
 3568SOL     OW22336   3.209   4.530   9.257 -0.3260 -0.4475 -0.1001
 3568SOL    HW122337   3.117   4.528   9.282 -0.2837 -1.3090 -0.0123
 3568SOL    HW222338   3.255   4.489   9.330  2.2673 -0.6495 -1.8337
 3569SOL     OW22339   3.479   1.502   5.438  0.1134 -0.4714 -0.3060
 3569SOL    HW122340   3.519   1.416   5.424  3.2894  0.9010  0.4023
 3569SOL    HW222341   3.391   1.490   5.401 -0.7174  3.2689  0.4628
 3570SOL     OW22342   3.761   0.531  16.234 -0.1859  0.8000  0.3477
 3570SOL    HW122343   3.670   0.516  16.261 -0.2928  0.7337 -0.0635
 3570SOL    HW222344   3.792   0.568  16.318 -0.8968  2.2056 -0.0079
 3571SOL     OW22345   0.868   3.894  17.742  0.1775  0.6946  0.1510
 3571SOL    HW122346   0.826   3.914   0.070 -0.0586 -1.0297  0.4532
 3571SOL    HW222347   0.785   3.889  17.695  0.2390 -1.5523  0.2954
 3572SOL     OW22348   4.564   2.977   7.379 -0.0737 -0.4451 -0.2746
 3572SOL    HW122349   4.532   3.067   7.385  0.1466 -0.3127 -1.1127
 3572SOL    HW222350   4.486   2.926   7.400  1.1209 -1.6099  1.3711
 3573SOL     OW22351   1.459   0.060   6.537  0.0966  0.6098 -0.4266
 3573SOL    HW122352   1.545   0.096   6.514 -0.1641 -0.0786 -2.5234
 3573SOL    HW222353   1.469   0.059   6.632 -1.6237 -1.5524 -0.2747
 3574SOL     OW22354   1.149   0.195   7.053 -0.2631  0.1612  0.0126
 3574SOL    HW122355   1.191   0.264   7.105  1.8494  0.7584 -2.5015
 3574SOL    HW222356   1.177   0.207   6.962  0.2950 -1.4721 -0.0312
 3575SOL     OW22357   4.699   0.463   6.480  0.6773 -0.0549  0.1512
 3575SOL    HW122358   0.051   0.435   6.472  0.8899  0.8481 -0.5252
 3575SOL    HW222359   4.694   0.490   6.572 -1.1305  1.9171 -0.5160
 3576SOL     OW22360   2.779   4.149  11.486  0.2698 -0.0480  0.2120
 3576SOL    HW122361   2.837   4.127  11.559 -0.2311 -2.8652 -0.2371
 3576SOL    HW222362   2.738   4.069  11.455  0.1371 -0.8246  2.4080
 3577SOL     OW22363   4.720   3.334   9.430 -0.0140  0.5951  0.1370
 3577SOL    HW122364   4.695   3.423   9.407 -0.3659  0.7845  1.2506
 3577SOL    HW222365   4.678   3.279   9.363  0.0554  0.8234 -0.0945
 3578SOL     OW22366   2.040   4.346   6.406  0.4400 -0.4456  0.2805
 3578SOL    HW122367   2.097   4.315   6.336 -1.1393 -0.7180 -0.9003
 3578SOL    HW222368   2.104   4.402   6.449 -1.4625  0.6704  1.6865
 3579SOL     OW22369   1.839   1.649   4.804 -0.5213  0.4962  0.3012
 3579SOL    HW122370   1.872   1.623   4.718  1.5253  0.0764  1.2136
 3579SOL    HW222371   1.850   1.564   4.847 -2.9944 -1.3409 -2.6474
 3580SOL     OW22372   1.196   4.120   3.836 -0.3474 -0.4514 -0.3774
 3580SOL    HW122373   1.260   4.053   3.859 -1.4347 -0.8010  1.5988
 3580SOL    HW222374   1.211   4.187   3.903  3.0988 -2.3645  0.7576
 3581SOL     OW22375   0.719   3.710   7.525 -0.5594  0.1982  0.1991
 3581SOL    HW122376   0.813   3.718   7.505 -0.5075 -3.5950 -1.1541
 3581SOL    HW222377   0.699   3.624   7.489 -2.5984  0.9635 -0.4546
 3582SOL     OW22378   2.363   2.356  16.299 -0.0959  0.1288  0.0477
 3582SOL    HW122379   2.365   2.398  16.213 -3.8744  0.8438  0.3332
 3582SOL    HW222380   2.433   2.292  16.286  0.7302  1.3096 -1.3434
 3583SOL     OW22381   1.441   2.252   4.178  0.7483  0.2028  0.1741
 3583SOL    HW122382   1.473   2.176   4.129 -0.2779 -0.7590  1.0255
 3583SOL    HW222383   1.507   2.316   4.148  0.9381 -0.1857 -0.2489
 3584SOL     OW22384   4.510   0.375   2.119  0.4156  0.4207  0.3398
 3584SOL    HW122385   4.420   0.360   2.146  0.4535  2.0583  1.3685
 3584SOL    HW222386   4.530   0.446   2.180  0.0773 -0.0641  1.0119
 3585SOL     OW22387   0.076   1.869   3.898 -0.0088  0.1665 -0.1611
 3585SOL    HW122388   0.091   1.876   3.993 -2.2146  0.0206  0.2022
 3585SOL    HW222389   0.069   1.775   3.887 -5.3774  0.2792  2.0751
 3586SOL     OW22390   3.993   3.637   7.618  0.4747 -0.2808  0.1976
 3586SOL    HW122391   3.929   3.582   7.664  0.1783  0.8681  1.1381
 3586SOL    HW222392   4.024   3.690   7.691 -0.8549  1.7773 -0.7474
 3587SOL     OW22393   2.725   2.703   3.931  0.4406  0.4747 -0.2023
 3587SOL    HW122394   2.657   2.769   3.940  0.4122  0.4570 -0.2821
 3587SOL    HW222395   2.733   2.663   4.017 -1.2856 -0.4839 -0.4886
 3588SOL     OW22396   0.059   3.162   3.694 -0.4490  0.1291  0.2152
 3588SOL    HW122397   0.012   3.223   3.637  0.7224 -2.5025 -3.5540
 3588SOL    HW222398   0.001   3.088   3.680  2.1067 -2.0899  1.3138
 3589SOL     OW22399   2.708   3.241  12.688 -0.1179  0.7084 -0.4850
 3589SOL    HW122400   2.760   3.317  12.712 -0.1597  0.7733 -0.6022
 3589SOL    HW222401   2.625   3.261  12.732 -0.3846  1.2455 -1.2453
 3590SOL     OW22402   3.012   2.484  13.123  0.4581  0.2820  0.1699
 3590SOL    HW122403   3.099   2.511  13.150  1.7480 -1.9125 -1.7751
 3590SOL    HW222404   2.956   2.452  13.193  2.7438  0.2995  2.0058
 3591SOL     OW22405   1.666   2.121  14.588 -0.2084 -0.3507  0.6951
 3591SOL    HW122406   1.639   2.175  14.514  1.1923  0.4000  0.7265
 3591SOL    HW222407   1.686   2.039  14.544  0.6166  0.5672 -0.6623
 3592SOL     OW22408   0.542   3.926  17.396  0.3174 -0.2183 -0.2436
 3592SOL    HW122409   0.557   3.992  17.463  2.5530 -1.1309  0.1745
 3592SOL    HW222410   0.582   3.972  17.322  0.3811  0.4312  0.1979
 3593SOL     OW22411   2.765   1.684  11.807 -0.3294  0.1120 -0.2389
 3593SOL    HW122412   2.818   1.762  11.791 -0.8628  0.4939 -0.1361
 3593SOL    HW222413   2.820   1.613  11.772 -0.3540 -0.1300  0.2099
 3594SOL     OW22414   4.023   4.043   8.230 -0.1888  0.2911 -0.6718
 3594SOL    HW122415   4.118   4.038   8.219 -0.1965 -0.8340 -0.2044
 3594SOL    HW222416   4.014   4.090   8.313 -0.2194  3.5927 -2.5731
 3595SOL     OW22417   3.805   3.499  11.492  0.3232  0.0761 -0.6290
 3595SOL    HW122418   3.806   3.441  11.568  0.8160  0.0860 -0.6299
 3595SOL    HW222419   3.710   3.508  11.485  0.0990 -0.5559  1.5481
 3596SOL     OW22420   3.837   2.121  13.241  0.4922  0.1332  0.0171
 3596SOL    HW122421   3.929   2.120  13.215 -0.0018  1.0493 -1.8184
 3596SOL    HW222422   3.798   2.082  13.162  2.1154 -0.1488 -0.6403
 3597SOL     OW22423   3.849   4.443   1.967 -0.0712 -0.1804  0.2382
 3597SOL    HW122424   3.781   4.446   2.035 -0.5079  0.3061 -0.2268
 3597SOL    HW222425   3.928   4.458   2.019  1.3249 -0.3247 -1.8587
 3598SOL     OW22426   1.636   1.027  15.348  0.5545  0.2466  0.3673
 3598SOL    HW122427   1.571   1.088  15.315  0.5361 -1.1120 -2.1073
 3598SOL    HW222428   1.622   0.955  15.286  0.8684 -0.0559  0.6399
 3599SOL     OW22429   1.733   1.727   2.657 -0.7145 -0.4475  0.0215
 3599SOL    HW122430   1.799   1.759   2.719  1.4947 -2.9518 -1.0089
 3599SOL    HW222431   1.797   1.683   2.600  0.1649 -1.3714  1.7220
 3600SOL     OW22432   2.610   4.711  11.157  0.4125  0.3165  0.3824
 3600SOL    HW122433   2.687   0.028  11.163  0.0562  0.7151  1.2639
 3600SOL    HW222434   2.540   0.021  11.201 -0.1337 -1.2822  1.2900
 3601SOL     OW22435   2.541   2.905   3.966 -0.4345  0.1694 -0.5499
 3601SOL    HW122436   2.508   2.995   3.968 -0.0565  0.2722  0.7536
 3601SOL    HW222437   2.464   2.855   3.989  0.5520  0.0055  2.3157
 3602SOL     OW22438   3.226   1.128  17.397  0.8072  0.0946 -0.6141
 3602SOL    HW122439   3.152   1.184  17.422  1.4860 -0.9168  3.6443
 3602SOL    HW222440   3.189   1.099  17.313  1.2350  1.0954 -1.1604
 3603SOL     OW22441   0.092   0.082  11.166 -0.2357  0.4757  0.4464
 3603SOL    HW122442   0.082   0.177  11.162 -1.9725  0.2837  0.4969
 3603SOL    HW222443   0.003   0.057  11.141  1.2133 -5.7047  1.4732
 3604SOL     OW22444   1.633   0.423  12.523 -0.8198 -0.3126 -0.5144
 3604SOL    HW122445   1.659   0.435  12.432  3.0560  1.1039  0.7840
 3604SOL    HW222446   1.538   0.433  12.513 -1.0102 -1.1582  0.4480
 3605SOL     OW22447   0.561   3.943   5.223  0.2433 -0.3284  0.1311
 3605SOL    HW122448   0.650   3.918   5.198  1.3626  1.4856  2.2869
 3605SOL    HW222449   0.575   3.994   5.303 -0.4786 -0.0451  0.0810
 3606SOL     OW22450   1.151   4.039   7.674  0.0843  0.0189  0.2959
 3606SOL    HW122451   1.105   4.118   7.704 -1.0461 -0.8552  0.8277
 3606SOL    HW222452   1.218   4.036   7.742 -1.3272  1.8273  1.7459
 3607SOL     OW22453   3.567   1.222   5.044 -0.2341  0.2084 -0.2231
 3607SOL    HW122454   3.610   1.302   5.073 -0.4596  1.2813 -2.8461
 3607SOL    HW222455   3.512   1.268   4.980  1.3148  0.9254 -1.0354
 3608SOL     OW22456   1.435   3.302   6.455 -0.1883  0.2079 -0.1920
 3608SOL    HW122457   1.531   3.303   6.455 -0.1627 -1.8853  0.1209
 3608SOL    HW222458   1.419   3.210   6.475 -0.6268  0.6443  1.4394
 3609SOL     OW22459   2.481   3.113   4.312  0.3916  0.5207 -0.7260
 3609SOL    HW122460   2.431   3.089   4.390  1.0305 -0.8199 -0.7219
 3609SOL    HW222461   2.566   3.084   4.346  0.2616 -0.9185 -1.5963
 3610SOL     OW22462   2.856   0.873   5.975 -0.0318 -0.1364 -0.4042
 3610SOL    HW122463   2.817   0.802   5.923 -0.4789  0.2820 -0.6399
 3610SOL    HW222464   2.903   0.925   5.910 -1.5352  0.8560 -0.6946
 3611SOL     OW22465   4.177   1.463  17.024 -0.2823  0.0044 -0.4596
 3611SOL    HW122466   4.199   1.489  16.934  0.2024  0.5367 -0.1875
 3611SOL    HW222467   4.254   1.510  17.057  0.0387  0.1942 -1.4557
 3612SOL     OW22468   4.277   1.802   3.536  0.0529  0.0764 -0.3300
 3612SOL    HW122469   4.217   1.830   3.467  0.6870  1.6807 -0.2317
 3612SOL    HW222470   4.311   1.721   3.500 -0.4612 -1.7772  3.2980
 3613SOL     OW22471   0.239   0.887   5.898  0.6003  0.0278  0.4267
 3613SOL    HW122472   0.242   0.827   5.823  0.8934 -0.8920  1.1770
 3613SOL    HW222473   0.284   0.959   5.855 -0.2111  1.1317  1.4288
 3614SOL     OW22474   3.286   1.326   4.916 -0.2137  0.0948 -0.0060
 3614SOL    HW122475   3.208   1.373   4.943 -1.1078 -1.5218  0.2536
 3614SOL    HW222476   3.263   1.307   4.825  0.3879 -2.8741  0.4656
 3615SOL     OW22477   1.682   1.906   2.308  1.1238  0.5840  0.0558
 3615SOL    HW122478   1.665   1.815   2.333  2.9959  0.3726  0.5071
 3615SOL    HW222479   1.775   1.915   2.326  0.8115  4.4279 -0.1225
 3616SOL     OW22480   1.371   0.345   6.588 -0.0812 -0.3647 -0.1532
 3616SOL    HW122481   1.307   0.380   6.527 -0.8085  0.4653  1.0869
 3616SOL    HW222482   1.394   0.267   6.537  2.1716 -1.1134  1.9894
 3617SOL     OW22483   0.180   0.828   6.899  0.2112 -0.4595  0.4476
 3617SOL    HW122484   0.201   0.907   6.849  0.5089 -1.2204 -0.6121
 3617SOL    HW222485   0.089   0.845   6.926 -0.2019 -0.6210 -0.8495
 3618SOL     OW22486   0.588   1.527   3.370 -0.0426  0.2182 -0.0684
 3618SOL    HW122487   0.598   1.437   3.339 -0.1965 -0.1069  0.8219
 3618SOL    HW222488   0.500   1.551   3.341 -0.3536 -1.2989 -0.3407
 3619SOL     OW22489   0.535   3.744   6.926  0.9304  0.3437 -0.2284
 3619SOL    HW122490   0.477   3.815   6.899 -0.6251 -0.8002  0.0691
 3619SOL    HW222491   0.538   3.754   7.022  0.4240  1.5067 -0.3398
 3620SOL     OW22492   2.142   1.058   1.128 -0.6326  0.6505 -0.6224
 3620SOL    HW122493   2.214   1.101   1.175  0.9891 -3.2911  0.5021
 3620SOL    HW222494   2.196   0.989   1.087  0.8708  2.7959 -2.2586
 3621SOL     OW22495   2.633   2.616   1.523 -0.0054  0.1342 -0.1457
 3621SOL    HW122496   2.712   2.654   1.485  0.4388  0.6746  1.3118
 3621SOL    HW222497   2.636   2.524   1.496  0.1840  0.0586  0.1363
 3622SOL     OW22498   4.039   3.342   4.987 -0.5702  0.6280 -0.0259
 3622SOL    HW122499   4.045   3.372   4.897  0.0422 -1.1882 -0.5948
 3622SOL    HW222500   4.061   3.253   4.961 -0.5025  0.8113 -0.5908
 3623SOL     OW22501   1.918   4.622  15.749 -0.1459  0.3269 -0.2875
 3623SOL    HW122502   1.958   4.539  15.725 -1.8577 -0.1319 -1.5536
 3623SOL    HW222503   1.997   4.672  15.770  0.0656 -0.3376  0.5283
 3624SOL     OW22504   3.846   2.218  16.813  0.5800  0.5043 -0.0534
 3624SOL    HW122505   3.791   2.141  16.827 -0.0068  1.2791  1.8814
 3624SOL    HW222506   3.782   2.289  16.828 -1.2305 -1.7814  3.0431
 3625SOL     OW22507   4.587   0.579  11.103  0.2574  0.0883 -0.3229
 3625SOL    HW122508   4.650   0.643  11.071  3.0738 -1.8281  1.3848
 3625SOL    HW222509   4.503   0.625  11.107  0.2366 -0.0719  1.1166
 3626SOL     OW22510   4.007   1.184   4.134  0.0387  0.3199  0.2916
 3626SOL    HW122511   3.948   1.145   4.070 -1.7132 -1.1573  2.8114
 3626SOL    HW222512   4.074   1.116   4.123 -0.2140  0.1158  0.0352
 3627SOL     OW22513   3.393   3.508   4.423 -0.0188 -0.1357  0.5225
 3627SOL    HW122514   3.401   3.415   4.444  3.2213  1.0890  4.7571
 3627SOL    HW222515   3.314   3.516   4.371  0.8983 -2.4856 -1.2208
 3628SOL     OW22516   4.134   3.624  11.713  0.0517  0.1847  0.5522
 3628SOL    HW122517   4.102   3.637  11.623  1.5754  3.1053  0.4451
 3628SOL    HW222518   4.117   3.706  11.758 -1.5148 -0.7670  1.6948
 3629SOL     OW22519   1.534   3.923  15.544  0.1973 -0.2487  0.0215
 3629SOL    HW122520   1.542   3.989  15.613 -2.5981 -0.7496  0.8336
 3629SOL    HW222521   1.475   3.861  15.586  0.7595  0.2576  1.5462
 3630SOL     OW22522   0.179   3.244   9.592 -0.1431  0.0810 -0.1164
 3630SOL    HW122523   0.114   3.269   9.527  0.8277 -0.0913 -1.1641
 3630SOL    HW222524   0.137   3.243   9.678  2.3850  1.6594  1.1286
 3631SOL     OW22525   2.927   0.340   2.166  1.1937 -0.1830 -0.2577
 3631SOL    HW122526   2.881   0.314   2.085 -1.5323  3.3977  0.1320
 3631SOL    HW222527   2.929   0.436   2.170 -2.1698 -0.1044 -0.4466
 3632SOL     OW22528   3.102   3.572   3.490  0.2826  0.4702 -0.2441
 3632SOL    HW122529   3.169   3.503   3.494 -0.2843 -0.0288  0.6352
 3632SOL    HW222530   3.081   3.580   3.583 -3.4577  0.8751 -1.1508
 3633SOL     OW22531   4.384   2.217   4.749 -0.0486 -0.6016  0.1595
 3633SOL    HW122532   4.409   2.187   4.836  0.7770  1.6474  0.6973
 3633SOL    HW222533   4.469   2.258   4.735  0.0095  0.3015  3.0552
 3634SOL     OW22534   0.313   0.885   2.189 -0.1579 -0.2490 -0.0358
 3634SOL    HW122535   0.246   0.864   2.123 -0.2941 -0.5780  0.2068
 3634SOL    HW222536   0.297   0.978   2.205  0.9280 -0.0500 -0.0969
 3635SOL     OW22537   3.526   2.879   9.308  0.6974  0.5057 -0.1313
 3635SOL    HW122538   3.469   2.803   9.299 -1.4998  2.0496  0.6006
 3635SOL    HW222539   3.599   2.860   9.249 -2.6788 -2.0633 -3.4874
 3636SOL     OW22540   1.173   0.669   2.952  0.8521  0.6076  0.3000
 3636SOL    HW122541   1.202   0.677   2.861  2.5984 -1.3527  0.6805
 3636SOL    HW222542   1.087   0.628   2.943  1.7636 -1.1526 -0.3605
 3637SOL     OW22543   0.351   1.684  13.122  0.3902  0.3037  0.1117
 3637SOL    HW122544   0.359   1.723  13.035  0.9365 -0.1535 -0.0476
 3637SOL    HW222545   0.271   1.719  13.161  0.8344 -2.5262  3.5616
 3638SOL     OW22546   4.369   2.622   2.884  0.0382 -0.0604 -0.2811
 3638SOL    HW122547   4.306   2.605   2.954  0.5652  0.5358  0.3392
 3638SOL    HW222548   4.296   2.615   2.822  1.6717 -3.1281 -1.8468
 3639SOL     OW22549   2.909   4.281  11.137  0.0450 -0.6747 -0.0488
 3639SOL    HW122550   2.896   4.366  11.095  0.2855 -2.1383 -3.1005
 3639SOL    HW222551   2.933   4.224  11.064 -1.5357  0.2205 -1.2615
 3640SOL     OW22552   3.548   3.641   3.913 -0.0977 -0.8118  0.0867
 3640SOL    HW122553   3.526   3.683   3.830  3.5124  1.8065  0.4560
 3640SOL    HW222554   3.605   3.705   3.957 -1.1608  1.1597 -1.4623
 3641SOL     OW22555   0.710   3.112   3.500 -0.1442 -0.2724  0.1429
 3641SOL    HW122556   0.714   3.016   3.504  0.7487 -0.2225  0.6406
 3641SOL    HW222557   0.674   3.112   3.589 -0.0306 -0.5019  0.1897
 3642SOL     OW22558   3.478   4.143   5.417 -0.7429 -0.0186  0.3349
 3642SOL    HW122559   3.414   4.194   5.466 -0.8018  0.4004 -0.1685
 3642SOL    HW222560   3.476   4.056   5.454  1.6036 -0.1291  0.2075
 3643SOL     OW22561   2.557   0.176   8.471  0.0233 -0.5458  0.1806
 3643SOL    HW122562   2.472   0.199   8.510  0.3213  0.8494 -0.0060
 3643SOL    HW222563   2.614   0.208   8.541  1.3437  0.3573 -1.3196
 3644SOL     OW22564   1.821   1.331   9.336 -0.4728 -0.9231 -0.0044
 3644SOL    HW122565   1.782   1.261   9.284 -1.6526  1.2008 -1.9687
 3644SOL    HW222566   1.882   1.284   9.393 -1.1217  0.3767  1.7600
 3645SOL     OW22567   0.569   0.422   9.308 -0.9495 -0.1334 -0.0946
 3645SOL    HW122568   0.526   0.337   9.311  0.1341 -0.7456 -1.9425
 3645SOL    HW222569   0.500   0.489   9.307  0.1097  0.9589 -0.1002
 3646SOL     OW22570   4.168   1.161  17.045 -0.0817  0.1359  0.2981
 3646SOL    HW122571   4.139   1.251  17.031  1.6274 -0.1303 -4.8246
 3646SOL    HW222572   4.101   1.115  16.995 -2.5617  2.9491  1.0065
 3647SOL     OW22573   2.006   1.179   2.919 -0.2816  0.1348 -0.5260
 3647SOL    HW122574   2.002   1.095   2.873  0.2251  0.6099 -1.4295
 3647SOL    HW222575   2.101   1.187   2.926 -0.5334  3.3948 -0.7562
 3648SOL     OW22576   3.619   0.700   4.059  0.0617 -0.3455 -0.4824
 3648SOL    HW122577   3.678   0.677   4.131 -1.7023 -3.1712  0.0494
 3648SOL    HW222578   3.617   0.796   4.055  2.2524 -0.3211 -0.8294
 3649SOL     OW22579   4.063   0.941  10.822 -0.0582 -0.2856 -0.5588
 3649SOL    HW122580   4.014   1.004  10.874  2.2024 -0.2673  1.5109
 3649SOL    HW222581   4.032   0.965  10.734  0.1123  0.1990 -0.4855
 3650SOL     OW22582   0.200   1.733  15.048  0.3731 -0.2295 -0.0809
 3650SOL    HW122583   0.110   1.716  15.076  0.6271 -1.8892 -0.2499
 3650SOL    HW222584   0.196   1.703  14.957  0.5172  0.8082 -0.4353
 3651SOL     OW22585   3.865   3.150   6.952  0.2972 -0.1481  0.3302
 3651SOL    HW122586   3.875   3.244   6.971 -2.0638  0.9249 -3.6415
 3651SOL    HW222587   3.953   3.117   6.936  0.6569 -0.1047  2.2256
 3652SOL     OW22588   1.543   3.165  16.804 -0.3819 -0.4119 -0.0943
 3652SOL    HW122589   1.536   3.143  16.897 -1.0655  0.6917  0.1110
 3652SOL    HW222590   1.451   3.184  16.788 -0.1739 -0.2603 -1.1041
 3653SOL     OW22591   4.223   0.019  17.424 -0.0162 -0.2688 -0.2243
 3653SOL    HW122592   4.134   0.027  17.390 -0.7264  0.9864  1.9001
 3653SOL    HW222593   4.281   0.030  17.350 -0.5443 -1.6469 -0.8341
 3654SOL     OW22594   2.314   3.960   6.839 -0.5057 -0.2405 -0.0866
 3654SOL    HW122595   2.308   4.053   6.863 -0.1883 -0.3734  0.5153
 3654SOL    HW222596   2.323   3.914   6.922  0.9997  0.9028  0.3958
 3655SOL     OW22597   3.871   1.200   9.493 -0.5044  0.5415  0.2088
 3655SOL    HW122598   3.907   1.139   9.558 -0.2457  0.3540 -0.1106
 3655SOL    HW222599   3.831   1.260   9.557  0.8606  0.0161  1.5583
 3656SOL     OW22600   1.770   3.817   7.739 -0.6361 -0.3884 -0.3370
 3656SOL    HW122601   1.791   3.858   7.823 -0.3688  0.6890 -0.9149
 3656SOL    HW222602   1.746   3.728   7.764 -0.8396 -0.4597 -0.7936
 3657SOL     OW22603   1.697   2.657   2.008 -0.4590 -0.3401 -0.6527
 3657SOL    HW122604   1.753   2.580   2.002  1.2089  0.8920 -0.8959
 3657SOL    HW222605   1.619   2.610   2.038  0.6120 -1.1220  0.8443
 3658SOL     OW22606   0.489   2.478   5.839  0.5633 -0.4581  0.3530
 3658SOL    HW122607   0.418   2.438   5.889  1.1456  0.7129  2.1106
 3658SOL    HW222608   0.560   2.465   5.902 -0.5513  0.7865  1.8500
 3659SOL     OW22609   0.333   2.297   7.455 -0.3846  0.4238  0.0142
 3659SOL    HW122610   0.349   2.391   7.463  0.5356  0.2643  0.1258
 3659SOL    HW222611   0.242   2.291   7.484  1.1705 -0.6327  4.7455
 3660SOL     OW22612   0.294   4.428   3.063 -0.2226  0.5001  0.8708
 3660SOL    HW122613   0.371   4.374   3.082 -0.2009 -0.3032 -1.5093
 3660SOL    HW222614   0.241   4.375   3.003 -0.8204  1.8184  0.2487
 3661SOL     OW22615   4.720   0.691   1.865  0.2411  0.4007  0.1665
 3661SOL    HW122616   0.070   0.659   1.861 -0.2386 -0.6729 -1.9715
 3661SOL    HW222617   4.671   0.610   1.876 -0.3243  0.9358  1.6305
 3662SOL     OW22618   3.860   3.950   3.050 -0.3761  0.1287  0.1292
 3662SOL    HW122619   3.944   3.995   3.059 -0.7405  0.6667  0.8375
 3662SOL    HW222620   3.893   3.860   3.042 -0.0762  0.3511 -1.1600
 3663SOL     OW22621   1.668   3.991   9.289 -0.4473 -0.1591 -0.3221
 3663SOL    HW122622   1.637   4.073   9.326 -0.2428 -0.6057  0.8491
 3663SOL    HW222623   1.669   3.944   9.372 -0.7502  0.9366  0.3025
 3664SOL     OW22624   1.961   2.554  15.111  0.1264  0.2934 -0.8097
 3664SOL    HW122625   1.953   2.506  15.193  1.0463  1.3539 -0.0876
 3664SOL    HW222626   1.947   2.485  15.046  2.2941 -0.2861 -0.6652
 3665SOL     OW22627   1.389   4.083  16.965 -0.2723  0.3529  0.2061
 3665SOL    HW122628   1.383   3.992  16.935 -0.6528 -0.0961  1.6595
 3665SOL    HW222629   1.296   4.103  16.961 -0.3469 -0.0766 -0.2895
 3666SOL     OW22630   2.123   1.368  16.189 -0.3221 -0.2638  0.1166
 3666SOL    HW122631   2.049   1.312  16.213 -0.6536  0.0582 -0.1508
 3666SOL    HW222632   2.122   1.433  16.260 -1.6012  0.2716 -0.4014
 3667SOL     OW22633   1.415   3.668  17.374  0.1682 -0.1012  0.4714
 3667SOL    HW122634   1.385   3.754  17.405 -0.4166 -0.3083  0.4718
 3667SOL    HW222635   1.509   3.675  17.387  0.2645 -0.8623  0.1620
 3668SOL     OW22636   2.966   0.367  12.023 -0.1118 -0.8710 -0.0891
 3668SOL    HW122637   3.008   0.366  12.109 -0.3203  2.3705  0.0508
 3668SOL    HW222638   2.980   0.457  11.993 -1.0499 -1.2178 -1.5856
 3669SOL     OW22639   2.692   0.885   3.853  0.5686  0.5348  0.0517
 3669SOL    HW122640   2.755   0.953   3.828  1.3911 -0.2603 -0.0397
 3669SOL    HW222641   2.756   0.823   3.887  1.0504 -0.1893 -2.1486
 3670SOL     OW22642   2.789   1.466   8.101 -0.0111  0.6586 -0.5175
 3670SOL    HW122643   2.764   1.384   8.060 -0.6986  0.9058 -0.6076
 3670SOL    HW222644   2.817   1.436   8.187 -1.2960  3.7111  0.9864
 3671SOL     OW22645   3.618   1.343   4.111 -0.6936  0.1433 -0.9390
 3671SOL    HW122646   3.603   1.416   4.050 -1.2391  0.4303 -0.4703
 3671SOL    HW222647   3.699   1.368   4.155 -1.9721  0.8781  0.9709
 3672SOL     OW22648   2.980   3.257   5.062 -0.5807  0.1645 -0.0471
 3672SOL    HW122649   2.990   3.200   4.985 -1.1617  1.7027 -1.2608
 3672SOL    HW222650   2.892   3.249   5.098 -0.5127 -0.3023  0.0128
 3673SOL     OW22651   4.350   4.141  11.490  0.0982 -0.2581  0.1599
 3673SOL    HW122652   4.331   4.149  11.397 -3.4099 -0.8332  0.7948
 3673SOL    HW222653   4.401   4.060  11.491 -0.0338 -0.3413  0.2057
 3674SOL     OW22654   2.033   0.576   8.582 -0.0474 -0.0383  0.1864
 3674SOL    HW122655   2.058   0.503   8.526  1.3229  0.5785 -0.0036
 3674SOL    HW222656   2.026   0.647   8.519  0.7780  0.4498  0.6367
 3675SOL     OW22657   4.357   3.726   7.107  0.0069 -0.0335  0.4013
 3675SOL    HW122658   4.265   3.729   7.132  0.2977  1.7995  1.2275
 3675SOL    HW222659   4.338   3.761   7.019 -0.8278  1.7168  1.2793
 3676SOL     OW22660   0.165   1.725   8.467 -0.0997  0.2796 -0.1752
 3676SOL    HW122661   0.133   1.786   8.401  0.2189  0.5860 -0.0457
 3676SOL    HW222662   0.238   1.771   8.510 -0.9948 -0.1927  1.8389
 3677SOL     OW22663   3.173   3.020   0.919  0.2556  0.4467  0.3822
 3677SOL    HW122664   3.266   3.037   0.935  0.8220 -0.8355 -1.6267
 3677SOL    HW222665   3.159   3.085   0.850  0.1924  0.7961  0.7202
 3678SOL     OW22666   1.621   2.954   6.357  0.1368  0.1509  0.3471
 3678SOL    HW122667   1.624   3.006   6.438  0.4334  0.3313  0.2210
 3678SOL    HW222668   1.616   3.023   6.291 -2.5681 -0.7051 -0.3400
 3679SOL     OW22669   4.293   3.078  13.567  0.4970  0.1491 -0.5267
 3679SOL    HW122670   4.366   3.060  13.507  0.0461 -2.6376 -0.2627
 3679SOL    HW222671   4.247   2.996  13.548  0.5479 -0.3279  1.4867
 3680SOL     OW22672   1.186   4.006  14.839  0.3417 -0.2993  0.1221
 3680SOL    HW122673   1.175   3.926  14.788 -1.3951  0.2889 -0.4211
 3680SOL    HW222674   1.142   3.979  14.920  0.8099 -1.5698 -0.0468
 3681SOL     OW22675   2.795   4.298  13.247 -0.3034 -0.2158 -0.2659
 3681SOL    HW122676   2.795   4.211  13.287 -0.7749 -0.3787 -0.6214
 3681SOL    HW222677   2.706   4.325  13.268 -0.3619  0.1926 -1.0325
 3682SOL     OW22678   4.398   2.853   9.928 -0.3070 -0.1480 -0.6863
 3682SOL    HW122679   4.392   2.922   9.994 -1.3693 -0.1404 -0.7787
 3682SOL    HW222680   4.476   2.852   9.873 -0.3653  0.6490 -0.7862
 3683SOL     OW22681   4.389   0.771   2.321 -0.2080  0.3194  0.0858
 3683SOL    HW122682   4.422   0.861   2.321  0.9812 -0.1087 -0.1105
 3683SOL    HW222683   4.304   0.779   2.278 -1.0102 -1.0468  1.4120
 3684SOL     OW22684   2.367   3.655   4.876 -0.5851  0.0079  0.0863
 3684SOL    HW122685   2.286   3.631   4.921 -1.4390 -0.3206 -1.6256
 3684SOL    HW222686   2.346   3.748   4.867 -0.7163  0.1056  1.4371
 3685SOL     OW22687   1.974   0.837   2.479 -0.2338 -0.5374 -0.2443
 3685SOL    HW122688   1.955   0.868   2.390 -0.3824  2.5498  0.8570
 3685SOL    HW222689   2.048   0.779   2.462  0.2460  0.0478 -0.1693
 3686SOL     OW22690   0.829   3.444  16.891  0.2295 -0.5550  0.0781
 3686SOL    HW122691   0.769   3.488  16.951  0.0579 -0.6670 -0.0112
 3686SOL    HW222692   0.762   3.404  16.835  0.8717 -0.9826 -0.3902
 3687SOL     OW22693   0.532   4.019   9.199 -0.1753 -0.3270  0.0562
 3687SOL    HW122694   0.573   3.995   9.116 -2.2173  0.5758 -1.2220
 3687SOL    HW222695   0.609   4.025   9.256 -0.1492 -1.7219  0.1654
 3688SOL     OW22696   0.498   1.466  10.507 -0.7168 -0.1138 -0.1284
 3688SOL    HW122697   0.503   1.539  10.569  0.0624 -2.0962  2.1736
 3688SOL    HW222698   0.442   1.503  10.440 -0.1767  0.0782 -0.4781
 3689SOL     OW22699   1.969   1.498  12.661  0.3964  0.2806  0.0398
 3689SOL    HW122700   2.022   1.453  12.596  1.5252  2.9920 -0.9179
 3689SOL    HW222701   1.994   1.453  12.742  2.4801  0.4819 -0.4983
 3690SOL     OW22702   3.386   2.284   8.436 -0.0139 -0.5187 -0.0009
 3690SOL    HW122703   3.321   2.228   8.395 -2.2156  0.4378  2.2082
 3690SOL    HW222704   3.412   2.231   8.511 -2.4088 -0.9370  0.5301
 3691SOL     OW22705   1.879   3.894   2.112 -0.4221 -0.2552  0.1302
 3691SOL    HW122706   1.920   3.909   2.197 -0.3903  0.3213  0.0115
 3691SOL    HW222707   1.932   3.822   2.078  0.3887 -1.3512  3.7250
 3692SOL     OW22708   1.210   3.020   2.596  0.5597 -0.3909  0.2992
 3692SOL    HW122709   1.178   3.062   2.676 -1.0825  1.0311 -1.1394
 3692SOL    HW222710   1.135   2.971   2.563 -0.6947  2.5491 -1.1339
 3693SOL     OW22711   2.140   3.632   5.003 -0.2886 -0.1238 -0.3168
 3693SOL    HW122712   2.072   3.616   5.068  1.5537 -3.2299  0.8301
 3693SOL    HW222713   2.128   3.726   4.993 -0.5727  0.1321  2.2463
 3694SOL     OW22714   3.643   3.201   8.871 -0.5328  0.4226  0.2529
 3694SOL    HW122715   3.581   3.214   8.799  0.5003  1.5590 -0.4264
 3694SOL    HW222716   3.586   3.205   8.947  0.7673  0.1018  1.2519
 3695SOL     OW22717   0.899   4.550   4.451 -0.4721  0.0893  0.2199
 3695SOL    HW122718   0.957   4.593   4.389 -1.0646  0.5717 -0.0006
 3695SOL    HW222719   0.933   4.461   4.464 -1.1238 -0.6466 -3.3277
 3696SOL     OW22720   2.272   1.134  10.167  0.4465 -0.0277 -0.0640
 3696SOL    HW122721   2.293   1.150  10.259  1.1164 -0.8784 -0.0703
 3696SOL    HW222722   2.356   1.095  10.141  0.6433 -0.9738  2.0221
 3697SOL     OW22723   1.514   3.139  12.450 -0.5896 -0.1264  0.0968
 3697SOL    HW122724   1.567   3.164  12.525  0.5429 -0.2907 -0.6496
 3697SOL    HW222725   1.543   3.049  12.436 -0.2657  0.0281 -0.2137
 3698SOL     OW22726   2.435   0.052  16.561 -0.0643 -0.1303  0.5343
 3698SOL    HW122727   2.432   4.696  16.560 -0.1213 -0.1271  0.3023
 3698SOL    HW222728   2.525   0.073  16.536 -0.6108 -1.9437 -3.0527
 3699SOL     OW22729   2.854   3.645   4.651  0.7019 -0.3540 -0.0305
 3699SOL    HW122730   2.802   3.566   4.650  2.0511 -1.2463 -0.3027
 3699SOL    HW222731   2.916   3.632   4.579  1.7153  1.4817  0.4979
 3700SOL     OW22732   2.508   4.282  12.895  0.0862  0.1053  0.1561
 3700SOL    HW122733   2.466   4.217  12.951 -0.0085  0.5879  0.6538
 3700SOL    HW222734   2.589   4.300  12.941  0.4781  0.8966 -0.8511
 3701SOL     OW22735   1.486   4.260   4.761  0.5076 -0.8966 -0.1070
 3701SOL    HW122736   1.460   4.342   4.718  0.2470 -0.2031  1.3727
 3701SOL    HW222737   1.461   4.193   4.698  0.3975 -0.8547 -0.1071
 3702SOL     OW22738   2.642   2.657   9.745 -0.4164 -0.0103 -0.3399
 3702SOL    HW122739   2.592   2.732   9.713 -0.3284  0.1797 -0.0247
 3702SOL    HW222740   2.656   2.691   9.833 -1.4077  0.4585 -0.3655
 3703SOL     OW22741   0.020   1.419   6.245  0.1044  0.1988  0.1039
 3703SOL    HW122742   4.708   1.493   6.278  1.5156  2.6413 -3.0642
 3703SOL    HW222743   4.688   1.375   6.200 -0.6046  0.4735  0.9746
 3704SOL     OW22744   0.947   1.218  11.103  0.4057 -0.0047  0.0580
 3704SOL    HW122745   0.901   1.277  11.043 -0.5806 -1.0925 -0.2583
 3704SOL    HW222746   0.902   1.232  11.186  1.6903  3.1939  0.2212
 3705SOL     OW22747   3.251   3.621  16.267  0.1971 -0.3232  0.2186
 3705SOL    HW122748   3.297   3.587  16.344 -0.7642 -0.2610  0.8155
 3705SOL    HW222749   3.266   3.715  16.272 -0.7814 -0.1241 -0.5887
 3706SOL     OW22750   3.169   2.071   2.181  0.5145 -0.5990 -0.4524
 3706SOL    HW122751   3.210   2.040   2.262 -1.5186  0.6496  1.0394
 3706SOL    HW222752   3.078   2.073   2.210 -0.2270 -1.7896 -2.6612
 3707SOL     OW22753   0.639   3.540   5.744  0.2840  0.4320 -0.3292
 3707SOL    HW122754   0.545   3.520   5.738 -0.0279  1.6418  0.4592
 3707SOL    HW222755   0.636   3.633   5.724 -1.5388  0.7627  1.4434
 3708SOL     OW22756   3.613   2.381   9.570 -0.5155  0.6246 -0.2193
 3708SOL    HW122757   3.606   2.474   9.548  3.1571  0.9105 -0.0572
 3708SOL    HW222758   3.706   2.374   9.550 -1.1491  0.7603 -3.3401
 3709SOL     OW22759   1.152   3.251   8.339  0.1690 -0.1294  0.0612
 3709SOL    HW122760   1.080   3.286   8.288 -0.5027 -1.1752  0.3064
 3709SOL    HW222761   1.227   3.265   8.281  1.7963  0.8385  2.3719
 3710SOL     OW22762   0.566   4.194   3.205 -0.3968  0.0023 -0.4663
 3710SOL    HW122763   0.592   4.115   3.252 -0.0303 -0.8713 -2.1651
 3710SOL    HW222764   0.607   4.257   3.265 -0.9233  0.0631 -0.1679
 3711SOL     OW22765   2.571   1.350  15.642  0.1121 -0.1587  0.8038
 3711SOL    HW122766   2.635   1.371  15.574  0.0369 -1.5788  0.3074
 3711SOL    HW222767   2.615   1.274  15.679  1.3379  0.0561 -0.2385
 3712SOL     OW22768   0.385   2.679   8.442 -0.9560  0.0773  0.4569
 3712SOL    HW122769   0.367   2.652   8.352 -0.7381  0.0944  0.4082
 3712SOL    HW222770   0.451   2.745   8.422 -1.5566 -0.3259 -2.7822
 3713SOL     OW22771   2.965   0.330  17.609  0.7534  0.3473 -0.2834
 3713SOL    HW122772   2.951   0.311  17.702  1.3367  0.3067 -0.2062
 3713SOL    HW222773   3.025   0.404  17.614  1.3864 -0.2216  0.4996
 3714SOL     OW22774   2.116   1.344   4.334 -0.2398  0.2944  0.3072
 3714SOL    HW122775   2.110   1.276   4.266 -1.6068 -0.4620  1.1762
 3714SOL    HW222776   2.211   1.349   4.324 -0.1346  1.8395  2.0880
 3715SOL     OW22777   1.345   0.487  11.725 -0.1652 -0.3205 -0.2694
 3715SOL    HW122778   1.289   0.416  11.755 -1.5552  0.9253  0.1218
 3715SOL    HW222779   1.413   0.431  11.691 -0.1956 -0.2056 -0.5220
 3716SOL     OW22780   0.717   3.553   2.854 -0.1105 -0.1285  0.7433
 3716SOL    HW122781   0.681   3.582   2.938 -3.0639  2.0155 -1.2799
 3716SOL    HW222782   0.763   3.472   2.879  0.0907 -0.4158 -0.5757
 3717SOL     OW22783   1.658   0.486  12.263 -0.1246 -0.0895 -0.3536
 3717SOL    HW122784   1.653   0.580  12.275  2.4109 -0.0389  0.2960
 3717SOL    HW222785   1.634   0.467  12.172  1.8477 -3.7213 -0.1273
 3718SOL     OW22786   0.679   2.547  11.328 -0.1175 -0.2431  0.8950
 3718SOL    HW122787   0.708   2.629  11.288 -0.6941 -0.4296  0.0915
 3718SOL    HW222788   0.728   2.552  11.410 -1.6534  1.4277  1.7033
 3719SOL     OW22789   0.010   2.480   1.016  0.0856  0.2734  0.1921
 3719SOL    HW122790   0.053   2.398   1.038  1.1597  0.9468  0.6222
 3719SOL    HW222791   4.668   2.447   0.978  1.0036  2.2259 -3.4431
 3720SOL     OW22792   4.532   3.027   4.607 -0.1656  0.2804  0.4648
 3720SOL    HW122793   4.627   3.024   4.592 -0.5311 -0.2274 -1.7046
 3720SOL    HW222794   4.508   3.096   4.547  0.4548  1.7199  1.8710
 3721SOL     OW22795   2.576   4.174   1.510 -0.0475  0.8884  0.6084
 3721SOL    HW122796   2.667   4.188   1.538  0.5377 -1.4694 -0.1577
 3721SOL    HW222797   2.575   4.205   1.420  1.5276  0.8390  0.5753
 3722SOL     OW22798   1.634   2.263   9.705 -0.5463 -0.4403  0.3673
 3722SOL    HW122799   1.670   2.347   9.734 -0.4428 -0.0204 -0.9866
 3722SOL    HW222800   1.691   2.242   9.631  1.2386 -0.1811  1.6644
 3723SOL     OW22801   1.294   1.892   4.397  0.0639  0.1756  0.2340
 3723SOL    HW122802   1.227   1.833   4.361 -0.3699  1.9457 -1.8331
 3723SOL    HW222803   1.270   1.979   4.365 -2.3462  0.4939  2.9120
 3724SOL     OW22804   2.188   0.670  17.009  0.2503 -0.9961  0.1378
 3724SOL    HW122805   2.217   0.744  16.955  1.3459 -1.7834 -0.3584
 3724SOL    HW222806   2.110   0.644  16.960 -1.3424  0.9246  1.6428
 3725SOL     OW22807   3.381   4.323  11.484 -0.2564 -0.4368  0.1224
 3725SOL    HW122808   3.408   4.397  11.430 -0.9651  0.1487  0.5659
 3725SOL    HW222809   3.299   4.301  11.439  0.1202  1.1556 -1.3007
 3726SOL     OW22810   3.367   1.855   8.419  0.0773  0.3807  0.8848
 3726SOL    HW122811   3.453   1.827   8.387  0.2538  0.8360  0.9550
 3726SOL    HW222812   3.326   1.777   8.455 -0.6026  0.7423  0.8965
 3727SOL     OW22813   2.176   3.068   0.385  0.2026  0.2397 -0.0218
 3727SOL    HW122814   2.172   2.978   0.417  0.1539  0.3266  0.2194
 3727SOL    HW222815   2.125   3.061   0.305 -1.0720  0.4331  0.7836
 3728SOL     OW22816   1.571   0.669   7.735  0.5708 -0.0927  0.4086
 3728SOL    HW122817   1.555   0.764   7.733  0.1395 -0.1172  1.9364
 3728SOL    HW222818   1.502   0.629   7.683 -0.0875  0.4605  0.8376
 3729SOL     OW22819   2.193   0.594   8.883 -0.1438  0.1655 -0.5809
 3729SOL    HW122820   2.103   0.568   8.863  0.3815  0.0898 -2.9262
 3729SOL    HW222821   2.183   0.612   8.976 -1.8718  2.4170 -1.1942
 3730SOL     OW22822   3.231   4.384  10.000 -0.5507  0.2846  0.1794
 3730SOL    HW122823   3.163   4.403  10.065  1.3151 -2.2082  2.8507
 3730SOL    HW222824   3.290   4.334  10.056  0.4131  2.4479  1.1089
 3731SOL     OW22825   2.288   0.597  10.767 -0.1198  0.1778 -0.0464
 3731SOL    HW122826   2.248   0.531  10.711 -1.8293  2.3538 -1.3767
 3731SOL    HW222827   2.381   0.594  10.742 -0.3035 -2.2912 -0.4397
 3732SOL     OW22828   2.266   1.640   9.177 -0.3228  0.0397 -0.2780
 3732SOL    HW122829   2.237   1.549   9.182 -1.4810  0.5538  2.3272
 3732SOL    HW222830   2.357   1.630   9.208  0.4687  1.0975 -2.2927
 3733SOL     OW22831   2.034   1.613  14.512  0.0831  0.1654  0.0248
 3733SOL    HW122832   2.007   1.695  14.552  1.6495  2.4613 -3.6381
 3733SOL    HW222833   2.114   1.590  14.560 -0.3726  0.6680  1.0210
 3734SOL     OW22834   0.915   3.065   6.158 -0.3447  0.0580  0.1480
 3734SOL    HW122835   0.821   3.075   6.172  0.1743  1.9031  2.3081
 3734SOL    HW222836   0.924   2.976   6.123 -0.8711  0.5773 -1.3078
 3735SOL     OW22837   4.668   2.943   6.506 -0.0999 -0.2728  0.0859
 3735SOL    HW122838   4.732   2.881   6.474  0.6579  0.1160  0.8394
 3735SOL    HW222839   4.597   2.914   6.449 -0.3904 -0.9380  0.7815
 3736SOL     OW22840   4.398   4.021   5.346 -0.3405  0.3006  0.0453
 3736SOL    HW122841   4.363   3.933   5.357 -0.0635  0.3035  0.9621
 3736SOL    HW222842   4.324   4.048   5.293  0.9523  1.0600 -1.3801
 3737SOL     OW22843   0.183   2.615   7.164  0.3646 -0.1107 -0.3809
 3737SOL    HW122844   0.247   2.611   7.234 -1.0842  0.0408  0.9555
 3737SOL    HW222845   0.198   2.696   7.115 -0.5227  0.2008 -0.1392
 3738SOL     OW22846   3.529   3.138   4.605  0.1726 -0.3293  0.1035
 3738SOL    HW122847   3.580   3.095   4.535 -0.6247  0.4576 -0.9591
 3738SOL    HW222848   3.479   3.201   4.554  0.0882 -0.8008 -0.3977
 3739SOL     OW22849   3.964   0.080   5.041  0.2226  0.3255  0.3874
 3739SOL    HW122850   3.954   4.734   4.999  0.0292  0.1825  0.7189
 3739SOL    HW222851   3.965   0.047   5.131  0.7745 -1.3819 -0.2552
 3740SOL     OW22852   3.490   4.486   9.125  0.1250  0.3519 -0.3609
 3740SOL    HW122853   3.477   4.554   9.059 -0.4178  1.9256  1.3976
 3740SOL    HW222854   3.423   4.426   9.091  3.4240 -2.2515 -2.2816
 3741SOL     OW22855   4.064   0.107  15.868 -0.4970  0.4189 -0.2263
 3741SOL    HW122856   4.040   0.132  15.957  2.3648 -2.2747  1.2767
 3741SOL    HW222857   4.027   0.180  15.818  0.7838  2.5458  1.9514
 3742SOL     OW22858   2.222   4.292   7.523 -0.4957 -0.2908  0.3153
 3742SOL    HW122859   2.219   4.367   7.583 -2.0264 -1.5562  1.8051
 3742SOL    HW222860   2.219   4.217   7.582  1.7727 -1.5057 -1.1213
 3743SOL     OW22861   4.738   1.602   8.088  0.4060  0.1176 -0.0825
 3743SOL    HW122862   0.071   1.632   8.032  1.3458  1.6454  1.9706
 3743SOL    HW222863   4.686   1.538   8.039  1.7935 -0.7730 -0.3724
 3744SOL     OW22864   3.596   4.378  11.648 -0.0416  0.3036  0.1194
 3744SOL    HW122865   3.543   4.335  11.581 -1.4689  1.2119  0.6785
 3744SOL    HW222866   3.664   4.431  11.606  0.3607 -0.4375 -0.1614
 3745SOL     OW22867   2.218   0.286   7.869 -0.1434  0.3826  0.1614
 3745SOL    HW122868   2.160   0.357   7.896 -0.5057  0.7402 -1.5863
 3745SOL    HW222869   2.161   0.231   7.816  2.0906  0.2248 -2.0922
 3746SOL     OW22870   1.222   4.276   3.279  0.7008  0.4173  0.2601
 3746SOL    HW122871   1.247   4.229   3.358 -3.0172 -2.1619 -0.0704
 3746SOL    HW222872   1.214   4.366   3.312 -1.3898  0.5320 -0.4958
 3747SOL     OW22873   4.186   0.144   5.274 -0.7070 -0.0934 -0.0034
 3747SOL    HW122874   4.127   0.215   5.246  1.4537  2.0509  0.8656
 3747SOL    HW222875   4.255   0.156   5.209  0.1961 -1.1633  0.7707
 3748SOL     OW22876   4.720   1.561  15.282 -0.0779 -0.3484 -0.0950
 3748SOL    HW122877   4.734   1.613  15.361 -0.7375  0.4294 -0.4975
 3748SOL    HW222878   4.625   1.569  15.280 -0.0421  0.4928  2.3076
 3749SOL     OW22879   0.257   3.152  11.990  0.0524 -0.6614  0.0492
 3749SOL    HW122880   0.332   3.110  11.948  1.4341  1.0843  0.7484
 3749SOL    HW222881   0.269   3.116  12.078  0.5859  0.9447  0.6473
 3750SOL     OW22882   0.288   3.312   5.376 -0.5212  0.5816 -0.0665
 3750SOL    HW122883   0.320   3.353   5.457 -1.2118  1.0662 -0.0378
 3750SOL    HW222884   0.371   3.299   5.330 -1.5215  2.2958 -2.3351
 3751SOL     OW22885   1.616   3.271   5.742  0.2692 -0.2642 -0.5395
 3751SOL    HW122886   1.667   3.351   5.750  0.5037 -0.5548  0.7724
 3751SOL    HW222887   1.555   3.303   5.676 -1.9994  0.5312  1.9507
 3752SOL     OW22888   2.560   2.013   1.581 -0.2200  0.5318  0.4649
 3752SOL    HW122889   2.616   1.936   1.585  1.0250  1.3503 -1.3604
 3752SOL    HW222890   2.548   2.036   1.673  0.0307  0.9843  0.3861
 3753SOL     OW22891   0.010   3.028   9.550 -0.3097  0.4322 -0.4013
 3753SOL    HW122892   4.674   2.970   9.540 -2.5462  3.2113  0.3841
 3753SOL    HW222893   4.712   3.099   9.497  0.2821  2.2432  1.6013
 3754SOL     OW22894   1.232   4.519   3.448 -0.8278 -0.1258  0.0621
 3754SOL    HW122895   1.153   4.488   3.492 -1.3303 -2.1060 -2.2362
 3754SOL    HW222896   1.290   4.539   3.521 -2.5239  2.7852  0.6221
 3755SOL     OW22897   1.777   3.328  16.661 -0.3104  0.3000  0.2780
 3755SOL    HW122898   1.835   3.322  16.585 -0.9596 -2.0239 -0.0441
 3755SOL    HW222899   1.709   3.263  16.642  0.6217 -0.4156 -0.6403
 3756SOL     OW22900   1.766   0.578   2.205 -0.4785 -0.4979 -0.2373
 3756SOL    HW122901   1.758   0.669   2.233  1.9674 -0.2604 -0.3020
 3756SOL    HW222902   1.840   0.557   2.262 -1.0324 -0.5950  0.4469
 3757SOL     OW22903   2.300   4.459   6.583  0.0292  0.7418  0.0519
 3757SOL    HW122904   2.297   4.553   6.563 -0.3446  0.7050 -0.0701
 3757SOL    HW222905   2.368   4.456   6.650  2.3347 -0.9705 -2.4123
 3758SOL     OW22906   0.568   1.594  16.937  0.4602  0.0401 -0.1928
 3758SOL    HW122907   0.572   1.620  17.030 -1.2366  3.1507 -0.9804
 3758SOL    HW222908   0.624   1.517  16.940  1.2350  0.6361  0.5752
 3759SOL     OW22909   0.491   3.630   4.423  0.4238  0.2962  0.3942
 3759SOL    HW122910   0.531   3.696   4.480  1.5748  1.5884 -1.9093
 3759SOL    HW222911   0.517   3.663   4.337 -2.9264  0.2223 -0.6433
 3760SOL     OW22912   4.346   2.360   0.117  0.2315  0.1309  0.8678
 3760SOL    HW122913   4.380   2.357   0.028 -1.7899 -1.1036  0.1514
 3760SOL    HW222914   4.339   2.264   0.119  1.4059  0.0373  0.8668
 3761SOL     OW22915   0.224   0.707   6.432 -0.9342 -0.0270 -0.3358
 3761SOL    HW122916   0.156   0.775   6.434 -0.0320  0.8389  0.8619
 3761SOL    HW222917   0.176   0.640   6.384  3.7247 -1.3867 -3.1091
 3762SOL     OW22918   4.706   1.170   7.972  0.1713 -0.5067  0.0457
 3762SOL    HW122919   4.644   1.102   7.998 -0.6089 -0.5467 -1.9462
 3762SOL    HW222920   4.661   1.249   8.003 -0.5263 -1.4137  1.3585
 3763SOL     OW22921   3.060   2.056   7.572 -0.4119  0.3453 -0.2854
 3763SOL    HW122922   2.969   2.031   7.557  0.1823 -2.5705  1.0123
 3763SOL    HW222923   3.098   2.050   7.484  2.2957 -0.0484  0.9274
 3764SOL     OW22924   1.401   0.348   7.776 -0.4140 -0.3483  0.3270
 3764SOL    HW122925   1.382   0.410   7.706  2.6470 -0.6706 -0.7388
 3764SOL    HW222926   1.353   0.272   7.743 -1.9287  0.9865 -0.5920
 3765SOL     OW22927   1.490   0.128   7.965  0.0672  0.2220  0.4492
 3765SOL    HW122928   1.475   0.221   7.949  1.4207  0.4969  0.7188
 3765SOL    HW222929   1.419   0.091   8.018  1.0529 -0.5018  1.2852
 3766SOL     OW22930   0.948   0.984   5.338 -0.3542  1.0625 -0.2342
 3766SOL    HW122931   0.958   1.079   5.347 -0.7482  1.0568  0.2244
 3766SOL    HW222932   0.932   0.976   5.244 -1.4811  0.0998  0.0414
 3767SOL     OW22933   3.617   0.006   4.819 -0.0028  0.1163 -0.1975
 3767SOL    HW122934   3.583   0.089   4.851  0.4422  0.7494 -1.3570
 3767SOL    HW222935   3.638   4.707   4.904  1.2105  1.2447  0.0148
 3768SOL     OW22936   1.186   0.251  11.725  0.3939 -0.0729 -0.3366
 3768SOL    HW122937   1.226   0.168  11.698  1.1857 -0.0183  0.6735
 3768SOL    HW222938   1.094   0.233  11.707 -0.2546  2.2089  0.7305
 3769SOL     OW22939   0.174   4.291   2.848  0.3191 -0.0071  0.1839
 3769SOL    HW122940   0.182   4.209   2.898 -0.1516  1.2823  2.3516
 3769SOL    HW222941   0.177   4.258   2.758  0.5664  0.5904 -0.0269
 3770SOL     OW22942   3.966   1.386   9.827 -0.0708 -0.3094 -0.6373
 3770SOL    HW122943   3.996   1.464   9.780 -0.3050  0.0290 -0.2326
 3770SOL    HW222944   3.877   1.383   9.792 -0.6552  2.2183  0.6138
 3771SOL     OW22945   3.799   0.270   9.081 -0.1931  0.0117  0.0957
 3771SOL    HW122946   3.743   0.330   9.032 -0.8135 -0.9900 -0.4183
 3771SOL    HW222947   3.736   0.232   9.143 -0.3276  1.9357  1.1573
 3772SOL     OW22948   2.948   1.008   5.783 -0.1113 -0.0373  0.1012
 3772SOL    HW122949   3.040   0.986   5.766 -0.6482 -1.8971 -0.4452
 3772SOL    HW222950   2.954   1.101   5.803 -0.7746 -0.6111  3.0894
 3773SOL     OW22951   1.271   3.658  13.342  0.0225  0.2570  0.0974
 3773SOL    HW122952   1.349   3.660  13.398 -0.4327 -0.3699  0.7599
 3773SOL    HW222953   1.250   3.564  13.345 -1.5760  0.6452  0.6142
 3774SOL     OW22954   3.730   1.497   0.938 -0.0795  0.2728 -0.0934
 3774SOL    HW122955   3.734   1.405   0.913  1.1313  0.3022  0.0236
 3774SOL    HW222956   3.648   1.524   0.897 -1.2122  1.7210  3.0890
 3775SOL     OW22957   2.924   3.354   6.962 -0.1355 -0.0816  0.3483
 3775SOL    HW122958   2.865   3.289   7.001 -0.5134  0.7417  1.1397
 3775SOL    HW222959   2.933   3.323   6.872  0.5849  0.2046  0.3201
 3776SOL     OW22960   1.675   3.689   6.960 -0.0919  0.0270 -0.2503
 3776SOL    HW122961   1.614   3.689   7.034 -0.3419 -0.3352 -0.4559
 3776SOL    HW222962   1.740   3.625   6.989 -0.7114  0.3754  1.9221
 3777SOL     OW22963   2.257   2.757   8.520 -0.3571  0.2098 -0.5891
 3777SOL    HW122964   2.293   2.734   8.605 -2.8938 -1.0236  0.1529
 3777SOL    HW222965   2.256   2.675   8.470 -0.2660  0.6598 -1.3432
 3778SOL     OW22966   2.456   1.748   8.064  0.3072  0.1705 -0.0310
 3778SOL    HW122967   2.511   1.825   8.081 -1.3810  1.0358  1.5573
 3778SOL    HW222968   2.377   1.789   8.030  0.3612  0.2360 -0.0761
 3779SOL     OW22969   3.073   0.484   5.093  0.2063 -0.0086  0.0645
 3779SOL    HW122970   3.027   0.478   5.009 -1.5355 -0.8791  1.0748
 3779SOL    HW222971   3.023   0.418   5.142 -2.1279  1.7663  0.0566
 3780SOL     OW22972   2.281   3.079   1.552  0.5902 -0.1079 -0.7443
 3780SOL    HW122973   2.377   3.074   1.548  0.5333 -0.2032 -2.3312
 3780SOL    HW222974   2.250   3.068   1.462  1.5545  0.8261 -1.1938
 3781SOL     OW22975   0.943   2.026   7.638 -0.2974  0.1673  0.6644
 3781SOL    HW122976   1.013   2.014   7.573 -2.1824  0.8251 -1.4632
 3781SOL    HW222977   0.908   1.940   7.660  0.2244 -0.2862 -0.3161
 3782SOL     OW22978   2.035   2.017  11.648 -0.2343  0.0422 -0.4416
 3782SOL    HW122979   2.001   2.105  11.662 -0.4965 -0.2408  0.7616
 3782SOL    HW222980   1.950   1.974  11.648  0.4483 -1.3242 -1.0520
 3783SOL     OW22981   1.709   0.109   8.182 -0.8819  0.3067  0.2958
 3783SOL    HW122982   1.760   0.188   8.166  0.6216 -0.6387  0.4432
 3783SOL    HW222983   1.668   0.100   8.096  2.5819 -1.6005 -1.1599
 3784SOL     OW22984   3.420   2.009   3.320 -0.2337 -0.1334 -0.7079
 3784SOL    HW122985   3.464   1.973   3.397  2.6781  1.9828 -1.3729
 3784SOL    HW222986   3.330   2.001   3.348  0.6420  0.6727  2.2821
 3785SOL     OW22987   2.107   3.016   9.607 -0.3077 -0.2777 -0.0454
 3785SOL    HW122988   2.200   3.036   9.617  0.3796 -3.2417 -0.6985
 3785SOL    HW222989   2.095   2.938   9.661  0.0518 -0.0020  0.4280
 3786SOL     OW22990   1.833   2.385  14.138 -0.2188  0.1088  0.0032
 3786SOL    HW122991   1.839   2.430  14.222 -2.0112 -1.4320  0.9612
 3786SOL    HW222992   1.841   2.293  14.163 -0.8773 -0.1003 -0.5569
 3787SOL     OW22993   4.467   3.208   5.028  0.3141  0.0359 -0.1140
 3787SOL    HW122994   4.458   3.283   4.969 -0.4999 -0.2146 -0.3193
 3787SOL    HW222995   4.441   3.235   5.116  0.3899 -0.9253  0.1993
 3788SOL     OW22996   2.900   1.050   3.772 -0.1433 -0.5033  0.2428
 3788SOL    HW122997   2.934   0.984   3.711  3.0977  1.3718  0.0542
 3788SOL    HW222998   2.917   1.129   3.722  1.1352 -0.7883  0.2190
 3789SOL     OW22999   1.874   4.233   9.390 -0.0927  0.0271 -0.4503
 3789SOL    HW123000   1.794   4.183   9.403 -0.3051  0.5041  0.0551
 3789SOL    HW223001   1.940   4.171   9.360 -0.5762  0.1645 -1.8304
 3790SOL     OW23002   2.106   4.593   4.236  0.5260 -0.0465  0.3653
 3790SOL    HW123003   2.105   4.555   4.148 -2.3042  1.6574 -0.3407
 3790SOL    HW223004   2.090   4.684   4.210  2.6456 -0.1346 -1.2945
 3791SOL     OW23005   1.944   4.030   4.324 -0.4109  0.0957  0.4462
 3791SOL    HW123006   1.945   3.961   4.391 -1.6531  0.6156  0.9855
 3791SOL    HW223007   2.012   4.092   4.351 -0.6507  0.9130 -0.8644
 3792SOL     OW23008   1.544   2.543   3.014  0.6468 -0.6627  0.4970
 3792SOL    HW123009   1.560   2.618   3.072 -0.8009  0.5618 -0.6941
 3792SOL    HW223010   1.621   2.494   3.043  1.1379  0.2557  0.7686
 3793SOL     OW23011   4.163   1.116   1.744 -0.4141  0.1451  0.0509
 3793SOL    HW123012   4.219   1.174   1.796 -0.5638 -0.7154  1.1811
 3793SOL    HW223013   4.076   1.156   1.749 -0.4890  0.4216 -3.5617
 3794SOL     OW23014   3.691   1.779  15.246  0.9317  0.4704 -0.6421
 3794SOL    HW123015   3.693   1.756  15.339 -0.9525 -1.4029 -1.0661
 3794SOL    HW223016   3.769   1.726  15.227 -0.5607 -3.0406  2.9813
 3795SOL     OW23017   3.990   0.194   4.312 -0.4968 -0.0262  0.1488
 3795SOL    HW123018   4.016   0.223   4.224 -1.8636 -1.8272 -0.8507
 3795SOL    HW223019   3.976   0.101   4.296 -2.9584  0.3680 -0.0303
 3796SOL     OW23020   2.758   1.424   3.501 -0.3148  0.0332 -0.3830
 3796SOL    HW123021   2.686   1.487   3.503  0.0621  0.4425  0.2393
 3796SOL    HW223022   2.725   1.345   3.458 -0.0618  0.2960 -1.0591
 3797SOL     OW23023   4.620   0.339  12.615  0.2444 -0.0701 -0.3082
 3797SOL    HW123024   4.533   0.302  12.602 -0.9759  2.6583  0.0394
 3797SOL    HW223025   4.642   0.286  12.691  0.3711 -2.8085 -2.2846
 3798SOL     OW23026   4.212   0.508   9.279  0.0774  0.2024 -0.8932
 3798SOL    HW123027   4.299   0.512   9.318  0.3242  0.8668 -1.5092
 3798SOL    HW223028   4.200   0.600   9.257  0.0172  0.4174  0.0437
 3799SOL     OW23029   1.457   1.524   4.293  0.6053  0.0591 -0.2634
 3799SOL    HW123030   1.389   1.502   4.358  0.0122  1.0959 -0.5281
 3799SOL    HW223031   1.505   1.591   4.342 -0.1722 -1.0966  2.1228
 3800SOL     OW23032   0.772   0.258   2.192 -0.5893  0.2130  0.4029
 3800SOL    HW123033   0.713   0.317   2.146 -0.0257 -0.7215 -1.5604
 3800SOL    HW223034   0.808   0.226   2.109 -0.4161  0.7413  0.2745
 3801SOL     OW23035   3.888   3.096   9.242 -0.7400  0.2231  0.3930
 3801SOL    HW123036   3.892   3.043   9.322  1.6081  0.0236  0.1295
 3801SOL    HW223037   3.802   3.138   9.245 -1.3994 -0.9575 -1.6973
 3802SOL     OW23038   1.054   2.379   1.944 -0.3384  0.0374  0.3178
 3802SOL    HW123039   1.078   2.471   1.957 -1.1417  0.2573  0.2479
 3802SOL    HW223040   1.143   2.346   1.933 -0.3758 -0.6926  2.1716
 3803SOL     OW23041   0.124   1.099   1.695 -0.0922 -0.2154  0.0168
 3803SOL    HW123042   0.041   1.063   1.725 -0.4816  0.6182 -0.0553
 3803SOL    HW223043   0.145   1.148   1.774  1.0640 -0.6702 -0.0025
 3804SOL     OW23044   0.522   1.306  15.985 -0.4352 -0.0191 -0.4590
 3804SOL    HW123045   0.492   1.265  15.904 -0.8363  1.8899 -1.2540
 3804SOL    HW223046   0.509   1.400  15.978 -2.2555 -0.4262 -2.5463
 3805SOL     OW23047   1.532   2.333   4.977  0.1522  0.0908  0.5309
 3805SOL    HW123048   1.565   2.334   4.887 -0.7361  2.0074  0.2160
 3805SOL    HW223049   1.436   2.331   4.967  0.2133  0.4466 -0.1694
 3806SOL     OW23050   1.299   4.213   7.120 -0.0332  0.0753 -0.0685
 3806SOL    HW123051   1.235   4.147   7.092 -1.9167  1.8056  0.1751
 3806SOL    HW223052   1.265   4.235   7.206 -3.8584  0.1749 -1.6284
 3807SOL     OW23053   3.921   1.195  15.253  0.4089 -0.5173  0.1577
 3807SOL    HW123054   3.891   1.156  15.171  1.3943  0.0162 -0.4449
 3807SOL    HW223055   3.851   1.257  15.275 -0.2346 -0.9367 -0.6721
 3808SOL     OW23056   3.463   1.230   9.104 -0.2469 -0.2651  0.2900
 3808SOL    HW123057   3.384   1.201   9.150 -0.3107 -1.2731 -0.4453
 3808SOL    HW223058   3.528   1.214   9.173  0.6144 -0.3353 -0.5333
 3809SOL     OW23059   2.625   3.732  17.630  0.0912 -0.4748  0.2321
 3809SOL    HW123060   2.695   3.787  17.665 -1.2406  1.0749  0.4835
 3809SOL    HW223061   2.639   3.730  17.535  0.2899 -1.4834  0.2915
 3810SOL     OW23062   1.191   4.576  13.818  0.3305  0.1366  0.0031
 3810SOL    HW123063   1.152   4.519  13.885  0.4700  0.0220 -0.0129
 3810SOL    HW223064   1.216   4.657  13.863  0.7752  0.2518 -0.4500
 3811SOL     OW23065   2.333   2.586  14.846  0.2791 -0.0378  1.0366
 3811SOL    HW123066   2.300   2.520  14.786 -1.1869  0.8206  0.9180
 3811SOL    HW223067   2.257   2.613  14.897  2.0342  2.7414  2.1935
 3812SOL     OW23068   4.297   2.692  16.239 -0.3206 -0.7605  0.5067
 3812SOL    HW123069   4.295   2.599  16.260  1.8213 -0.4494  2.1522
 3812SOL    HW223070   4.262   2.695  16.150  1.5888 -0.1277 -0.2100
 3813SOL     OW23071   1.413   3.673   1.300  0.4253  0.0533 -0.1150
 3813SOL    HW123072   1.358   3.634   1.232  0.1770 -0.1185  0.1838
 3813SOL    HW223073   1.422   3.599   1.360 -0.8389  1.5743  1.9247
 3814SOL     OW23074   0.328   2.985   8.120 -0.4641 -0.0290 -0.8041
 3814SOL    HW123075   0.406   2.987   8.064  1.5201  1.6510  2.0270
 3814SOL    HW223076   0.349   3.061   8.175 -1.4178 -1.7604  1.9345
 3815SOL     OW23077   2.026   3.313   4.656 -0.3737 -0.2235 -0.4774
 3815SOL    HW123078   1.960   3.382   4.669  0.5821  0.5621  0.2327
 3815SOL    HW223079   1.976   3.245   4.701 -1.2507  2.5538  2.7797
 3816SOL     OW23080   2.936   3.407   1.334 -0.2296 -0.1421  0.5111
 3816SOL    HW123081   2.874   3.357   1.387  1.6685 -1.6027  1.3190
 3816SOL    HW223082   3.026   3.378   1.348 -0.1142  0.9063  1.8732
 3817SOL     OW23083   3.065   2.838   3.496 -0.1828  0.4880  0.4060
 3817SOL    HW123084   3.139   2.784   3.469 -0.0289 -0.6591  3.1522
 3817SOL    HW223085   2.998   2.771   3.485  0.7736 -0.2133 -1.2337
 3818SOL     OW23086   1.959   1.970   2.127 -0.1188 -0.1363 -0.0170
 3818SOL    HW123087   1.926   2.052   2.090  0.0023 -1.0678 -2.1734
 3818SOL    HW223088   1.985   1.910   2.058  0.9536  1.6517 -1.1625
 3819SOL     OW23089   4.585   4.228   1.935  0.6673 -0.6282 -0.6852
 3819SOL    HW123090   4.543   4.307   1.901  4.1843  0.3549 -2.7735
 3819SOL    HW223091   4.671   4.231   1.893 -0.0459  0.0893 -2.0976
 3820SOL     OW23092   1.086   3.427   4.665 -0.3937 -0.5263  0.0751
 3820SOL    HW123093   1.105   3.333   4.655  2.3210  0.1411 -0.9497
 3820SOL    HW223094   0.998   3.426   4.703 -1.2414  0.5457 -1.8755
 3821SOL     OW23095   2.285   2.414   2.446 -0.2385  0.3231  0.5953
 3821SOL    HW123096   2.357   2.439   2.504 -0.1663 -0.3602  0.7974
 3821SOL    HW223097   2.227   2.477   2.489 -1.0404  1.0558 -1.5353
 3822SOL     OW23098   3.629   2.388   0.908  0.7553 -0.6127  0.1588
 3822SOL    HW123099   3.639   2.370   1.002 -0.5601  1.3736  0.6863
 3822SOL    HW223100   3.606   2.299   0.881 -1.3005  0.6802 -2.2615
 3823SOL     OW23101   4.259   4.040   7.745  0.2149  0.2980  0.1677
 3823SOL    HW123102   4.219   4.054   7.831 -0.0984  1.0071 -0.0937
 3823SOL    HW223103   4.200   4.104   7.705  1.4533  0.6922 -1.0300
 3824SOL     OW23104   4.107   2.276   2.279 -0.2857  0.5165  0.1684
 3824SOL    HW123105   4.167   2.329   2.331  1.1300  1.0819 -2.0150
 3824SOL    HW223106   4.142   2.188   2.296  0.8147  0.8140 -0.5523
 3825SOL     OW23107   0.007   2.072   5.960  0.3390  0.0709 -0.2553
 3825SOL    HW123108   0.091   2.065   6.006 -0.6836 -0.2281  1.5798
 3825SOL    HW223109   4.675   2.066   6.024  1.2898  1.1959  0.9154
 3826SOL     OW23110   2.745   0.667   5.809 -0.0517  0.1511  0.0731
 3826SOL    HW123111   2.679   0.636   5.870  0.1403  2.9715  1.7207
 3826SOL    HW223112   2.755   0.594   5.748  4.5508  1.3426 -0.6218
 3827SOL     OW23113   2.433   0.155   4.851 -0.2010  0.6148  0.9193
 3827SOL    HW123114   2.470   0.097   4.918 -1.4566 -1.0758  0.1383
 3827SOL    HW223115   2.391   0.095   4.790 -1.1253 -0.4909  2.6383
 3828SOL     OW23116   1.762   4.540   4.897 -0.0298 -0.2318  0.4061
 3828SOL    HW123117   1.716   4.475   4.951 -1.3491  0.4369  0.0900
 3828SOL    HW223118   1.692   4.605   4.891 -0.7608 -0.8586  2.2217
 3829SOL     OW23119   3.170   3.720   1.386 -0.6064  0.1487 -0.5175
 3829SOL    HW123120   3.171   3.774   1.307  1.3384  1.3005  0.2953
 3829SOL    HW223121   3.077   3.699   1.395 -0.8619  1.8472  0.9813
 3830SOL     OW23122   1.790   0.238   5.048  0.0677 -0.1126  0.7264
 3830SOL    HW123123   1.721   0.206   5.107 -0.0228 -0.7792  0.2511
 3830SOL    HW223124   1.766   0.331   5.042  0.8346  0.0391  0.0715
 3831SOL     OW23125   3.319   0.677  11.632  0.2586  0.2591  0.4455
 3831SOL    HW123126   3.323   0.650  11.724 -0.8691  0.0517  0.4328
 3831SOL    HW223127   3.227   0.661  11.609 -0.1944  1.9699  1.0555
 3832SOL     OW23128   1.255   3.726  17.697 -0.2430  0.0982 -0.2242
 3832SOL    HW123129   1.273   3.668  17.622  0.5436 -1.7570  1.4094
 3832SOL    HW223130   1.184   3.782  17.668 -2.0219 -1.8748  0.3385
 3833SOL     OW23131   3.799   1.174   3.551 -0.7233  0.1932  0.3198
 3833SOL    HW123132   3.706   1.197   3.555 -1.5844 -3.1076 -0.9695
 3833SOL    HW223133   3.801   1.080   3.566 -0.0282 -0.0498 -1.2764
 3834SOL     OW23134   4.043   1.895   5.817 -0.3196 -0.1127 -0.5138
 3834SOL    HW123135   4.125   1.911   5.770  0.0842  2.1601  0.9168
 3834SOL    HW223136   4.067   1.934   5.901 -1.0152  0.8602 -0.7708
 3835SOL     OW23137   1.110   2.307   3.490 -0.4378 -0.7091  0.8325
 3835SOL    HW123138   1.192   2.345   3.459  0.2728 -3.0866 -0.2077
 3835SOL    HW223139   1.103   2.356   3.572 -4.1930  3.2449 -1.9082
 3836SOL     OW23140   3.921   1.018  10.597  0.2034  0.1616 -0.3782
 3836SOL    HW123141   3.854   0.958  10.564 -0.0272 -0.8264  1.8777
 3836SOL    HW223142   3.892   1.102  10.561  2.0377  0.6763 -0.6523
 3837SOL     OW23143   1.324   3.898  15.337  0.4366  0.1671 -0.4375
 3837SOL    HW123144   1.350   3.922  15.248  0.5727  2.1914  0.1415
 3837SOL    HW223145   1.409   3.887  15.380 -0.0929  0.8921  0.7759
 3838SOL     OW23146   2.430   4.499  16.940 -0.0178  0.1650 -0.0741
 3838SOL    HW123147   2.517   4.540  16.935  0.4412 -0.6376  1.4032
 3838SOL    HW223148   2.369   4.571  16.953  2.9332  2.4667  1.0815
 3839SOL     OW23149   2.751   3.799   9.129 -0.4323  0.1707  0.1667
 3839SOL    HW123150   2.846   3.815   9.129 -0.4970  0.5781  0.7856
 3839SOL    HW223151   2.720   3.865   9.067  0.6944  0.9020  0.3753
 3840SOL     OW23152   1.627   1.042   2.469 -0.0940 -0.3130 -0.6111
 3840SOL    HW123153   1.560   0.984   2.504  0.0819  0.4342  0.9941
 3840SOL    HW223154   1.606   1.121   2.519  1.2653 -0.4693  0.2061
 3841SOL     OW23155   0.480   1.530   4.574  0.4274 -0.2470 -0.1189
 3841SOL    HW123156   0.408   1.592   4.583 -0.7950 -1.4449 -1.4536
 3841SOL    HW223157   0.443   1.472   4.507 -0.7706 -0.1726  0.4771
 3842SOL     OW23158   4.126   1.701  15.779 -0.1165  0.5047 -0.1126
 3842SOL    HW123159   4.217   1.700  15.748  0.1011 -0.3138  0.5751
 3842SOL    HW223160   4.134   1.701  15.874  0.4337  1.4172 -0.1599
 3843SOL     OW23161   2.037   2.416   0.249 -0.2407 -0.1938 -0.0507
 3843SOL    HW123162   1.978   2.443   0.319 -0.4433 -2.5979  0.7337
 3843SOL    HW223163   2.018   2.322   0.244 -1.7743  0.2175 -1.9757
 3844SOL     OW23164   3.257   1.192   6.575  0.2454 -0.1024 -0.4118
 3844SOL    HW123165   3.271   1.270   6.522  0.3151  0.0513 -0.1698
 3844SOL    HW223166   3.177   1.221   6.619  0.7787  0.2678  0.3296
 3845SOL     OW23167   2.278   2.524  14.162 -0.1461  0.2198 -0.0003
 3845SOL    HW123168   2.318   2.570  14.236  0.3821 -1.2917  0.6535
 3845SOL    HW223169   2.261   2.587  14.093  1.3877  1.3521  0.6632
 3846SOL     OW23170   1.636   1.995   7.027  0.0417 -0.4046  0.2798
 3846SOL    HW123171   1.548   2.014   7.058 -0.2521 -1.0861 -0.1204
 3846SOL    HW223172   1.631   2.031   6.938 -0.0603 -0.3870  0.2931
 3847SOL     OW23173   0.255   3.336  14.819 -0.0373 -0.0150 -0.0955
 3847SOL    HW123174   0.265   3.303  14.908  3.3470  0.4589 -0.3088
 3847SOL    HW223175   0.344   3.332  14.785 -0.2522  1.2410 -0.8197
 3848SOL     OW23176   2.866   4.173   7.892 -0.1077 -0.2674 -0.7163
 3848SOL    HW123177   2.885   4.090   7.849 -0.0164 -0.2291 -0.7504
 3848SOL    HW223178   2.825   4.145   7.974 -0.2706 -0.3096 -0.8108
 3849SOL     OW23179   4.575   4.334  14.768 -0.5697  0.8172  0.1882
 3849SOL    HW123180   4.546   4.380  14.690 -0.2834  0.3150 -0.2110
 3849SOL    HW223181   4.488   4.315  14.805  0.1232  0.0687  1.4527
 3850SOL     OW23182   4.600   1.838  15.151  0.8532  0.1039 -0.0987
 3850SOL    HW123183   4.678   1.852  15.205  0.7838  1.6139 -0.3802
 3850SOL    HW223184   4.564   1.765  15.200 -1.3869  0.5171 -1.1270
 3851SOL     OW23185   0.370   3.065   5.569  0.2580 -0.6720 -0.2621
 3851SOL    HW123186   0.395   3.085   5.660 -0.5002  1.5412 -0.5555
 3851SOL    HW223187   0.421   3.122   5.511  0.4998 -1.7489 -1.1009
 3852SOL     OW23188   4.267   2.259   6.086 -0.3033 -0.4318 -0.0172
 3852SOL    HW123189   4.338   2.267   6.150 -2.1707 -1.8805  2.2358
 3852SOL    HW223190   4.203   2.303   6.140 -3.2688 -2.4880 -1.8601
 3853SOL     OW23191   4.561   4.304   6.062  0.8111  0.2995 -0.2217
 3853SOL    HW123192   4.640   4.355   6.044 -0.0010  2.2383  1.5263
 3853SOL    HW223193   4.518   4.357   6.130  1.5269 -0.7732  1.0676
 3854SOL     OW23194   2.969   3.921   8.835  0.9309 -0.0253  0.0506
 3854SOL    HW123195   2.952   3.978   8.761  2.3519 -0.8060 -0.8907
 3854SOL    HW223196   2.882   3.920   8.874  0.5604  2.4780 -0.7129
 3855SOL     OW23197   0.900   4.676   7.450 -0.0664  0.2305  0.5998
 3855SOL    HW123198   0.915   0.028   7.473  0.5762  0.5510 -1.1441
 3855SOL    HW223199   0.915   4.680   7.356  0.1137 -1.1344  0.5701
 3856SOL     OW23200   4.030   1.954   2.146 -0.7415 -0.2107 -0.6937
 3856SOL    HW123201   3.943   1.975   2.114 -1.1230  1.2022  1.2635
 3856SOL    HW223202   4.044   1.873   2.098 -0.8371  0.5906 -2.0693
 3857SOL     OW23203   1.639   3.717   8.290 -0.0964 -0.1734  0.3979
 3857SOL    HW123204   1.726   3.703   8.253 -0.5620 -0.4998 -0.5635
 3857SOL    HW223205   1.587   3.754   8.219 -0.2340  1.3156  1.2675
 3858SOL     OW23206   0.403   0.731   5.678 -0.0014  0.0221  0.2365
 3858SOL    HW123207   0.368   0.655   5.723 -0.1392  0.3939  0.7494
 3858SOL    HW223208   0.362   0.729   5.591  1.6268 -3.7576 -0.4279
 3859SOL     OW23209   2.088   2.536   7.365  0.1715 -0.1300  0.5543
 3859SOL    HW123210   2.065   2.613   7.313  0.9203 -1.4583 -1.7267
 3859SOL    HW223211   2.182   2.552   7.374  0.4362 -2.9137  2.5055
 3860SOL     OW23212   3.119   1.407   2.430 -0.0051  0.2915  0.2396
 3860SOL    HW123213   3.042   1.423   2.376  0.9574  0.0057 -1.2425
 3860SOL    HW223214   3.102   1.320   2.467  1.0502  0.0753  0.2318
 3861SOL     OW23215   2.164   2.990   9.292 -0.4368 -0.0907 -0.2506
 3861SOL    HW123216   2.154   2.963   9.201  1.7006 -1.0863 -0.1881
 3861SOL    HW223217   2.076   3.028   9.295  0.0522  0.8361  1.9010
 3862SOL     OW23218   0.239   0.460   6.711 -0.3972  0.0269 -0.8214
 3862SOL    HW123219   0.244   0.489   6.802 -2.8386  0.5587 -0.8494
 3862SOL    HW223220   0.146   0.462   6.689 -0.2765 -1.8618 -1.4732
 3863SOL     OW23221   0.790   1.551   6.450 -0.0391  0.1062  0.1921
 3863SOL    HW123222   0.744   1.514   6.375  1.5951  0.1487 -0.8402
 3863SOL    HW223223   0.864   1.491   6.444  0.9708  1.5970 -2.4413
 3864SOL     OW23224   0.595   2.800   8.855 -0.6109 -0.5344 -0.0175
 3864SOL    HW123225   0.654   2.728   8.881  0.2914  0.9522  2.0766
 3864SOL    HW223226   0.546   2.823   8.934 -1.1567 -0.0201 -0.5174
 3865SOL     OW23227   1.458   1.816   0.162  0.1638 -0.0223  0.0747
 3865SOL    HW123228   1.476   1.726   0.190  0.6463 -0.0502 -0.3378
 3865SOL    HW223229   1.469   1.855   0.249 -0.1241  0.8883 -0.2970
 3866SOL     OW23230   1.673   4.189   4.436  0.3867  0.0171  0.4999
 3866SOL    HW123231   1.719   4.145   4.508  0.8696  0.6061  0.5532
 3866SOL    HW223232   1.697   4.130   4.365  0.2431  2.5915 -1.6944
 3867SOL     OW23233   3.875   4.378   6.038 -0.8489  0.3063  0.1461
 3867SOL    HW123234   3.873   4.282   6.031  1.5190  0.2728 -0.1294
 3867SOL    HW223235   3.834   4.401   6.121 -1.7226  1.5639 -0.6219
 3868SOL     OW23236   4.134   1.245   0.658  0.0557  0.1980 -0.3870
 3868SOL    HW123237   4.181   1.255   0.575  1.1665  1.7276  0.4334
 3868SOL    HW223238   4.042   1.248   0.633  0.1341 -0.4579 -0.7518
 3869SOL     OW23239   2.900   0.218   5.743 -0.1187  0.0964  0.6537
 3869SOL    HW123240   2.897   0.123   5.731  0.8763 -0.1883  2.6798
 3869SOL    HW223241   2.987   0.239   5.775 -0.8187  2.5643  0.9561
 3870SOL     OW23242   2.926   3.741  10.833  0.1164  0.2587 -0.0107
 3870SOL    HW123243   2.885   3.656  10.817 -1.1943  0.9729 -0.4301
 3870SOL    HW223244   2.850   3.792  10.804 -0.9252 -1.3061 -0.0142
 3871SOL     OW23245   1.745   4.723   2.145  0.0577  0.0559 -0.6926
 3871SOL    HW123246   1.792   4.640   2.138 -1.9106 -0.9809 -1.4966
 3871SOL    HW223247   1.816   0.048   2.148  2.4003 -2.4604 -2.2533
 3872SOL     OW23248   2.653   1.371   6.979  0.6891 -0.4637 -0.1100
 3872SOL    HW123249   2.660   1.434   7.051  0.3596  0.9939 -1.3639
 3872SOL    HW223250   2.655   1.424   6.900  3.2007  0.7351  0.7719
 3873SOL     OW23251   1.386   2.998   2.158  0.0169 -0.0350 -0.1740
 3873SOL    HW123252   1.359   3.021   2.247  1.5688 -0.9940  0.5439
 3873SOL    HW223253   1.419   3.083   2.130  1.1897  0.0515  1.4689
 3874SOL     OW23254   2.637   1.209  11.665 -0.0891  0.6599  0.5648
 3874SOL    HW123255   2.556   1.184  11.621 -0.5437  3.3781 -0.1683
 3874SOL    HW223256   2.678   1.124  11.682  1.6000  1.3396 -0.1306
 3875SOL     OW23257   3.372   4.656   7.994 -0.3648 -0.4166  0.2619
 3875SOL    HW123258   3.405   4.718   7.928  0.0962  0.5298  1.3647
 3875SOL    HW223259   3.291   4.633   7.949  0.4935 -1.3366 -0.8327
 3876SOL     OW23260   0.863   2.149   7.876  0.5175 -0.3241 -0.5126
 3876SOL    HW123261   0.899   2.128   7.789  0.8323  3.2617 -1.2666
 3876SOL    HW223262   0.785   2.094   7.876  0.4507 -0.2143  2.7828
 3877SOL     OW23263   3.344   1.685   2.118 -0.6431  0.8972 -0.1949
 3877SOL    HW123264   3.284   1.611   2.116  0.3673  0.1223 -1.6618
 3877SOL    HW223265   3.313   1.723   2.036 -1.1040  0.4747 -0.2101
 3878SOL     OW23266   1.786   1.396  16.599  0.7511  0.2930  0.5359
 3878SOL    HW123267   1.864   1.395  16.543 -1.2151 -0.5604 -2.1471
 3878SOL    HW223268   1.787   1.489  16.621 -1.2743  0.8982 -1.9435
 3879SOL     OW23269   1.965   4.235  14.856  0.0708 -0.3772  0.3071
 3879SOL    HW123270   1.976   4.291  14.779 -0.0486  0.9605  1.2723
 3879SOL    HW223271   2.050   4.193  14.869  0.8012  0.7581 -0.8343
 3880SOL     OW23272   3.817   3.888   0.789  0.2093 -0.0989 -0.1957
 3880SOL    HW123273   3.845   3.952   0.723  1.0016 -0.5025 -0.2528
 3880SOL    HW223274   3.880   3.918   0.855 -0.7541  0.8173  0.3200
 3881SOL     OW23275   0.556   0.509  13.393  0.1883  0.1245 -0.4122
 3881SOL    HW123276   0.593   0.424  13.371  0.5220  0.2831 -0.4577
 3881SOL    HW223277   0.629   0.570  13.383 -0.3647  1.4001  3.5413
 3882SOL     OW23278   4.118   1.619   5.881  0.2341 -0.2385  0.1708
 3882SOL    HW123279   4.109   1.539   5.934 -0.9693 -1.7770 -2.3474
 3882SOL    HW223280   4.191   1.664   5.923  0.1881 -0.1230  0.1262
 3883SOL     OW23281   3.398   2.517   4.909 -0.3442  0.7366 -0.2978
 3883SOL    HW123282   3.374   2.601   4.870 -0.5238  0.6951 -0.2772
 3883SOL    HW223283   3.442   2.560   4.982  1.3488 -1.6435  0.0931
 3884SOL     OW23284   0.466   3.960   8.924 -0.1121  0.1385  0.1110
 3884SOL    HW123285   0.450   3.884   8.869  0.5709 -0.9052  1.3618
 3884SOL    HW223286   0.386   3.961   8.977  0.3175  1.3380  0.7450
 3885SOL     OW23287   2.747   3.576   7.246  0.3107  0.4994  0.3858
 3885SOL    HW123288   2.708   3.654   7.206 -1.1824 -0.2183  0.4449
 3885SOL    HW223289   2.712   3.581   7.335  1.5365 -0.1349  0.9125
 3886SOL     OW23290   0.509   4.286  11.479  0.6900 -0.2500  0.1107
 3886SOL    HW123291   0.426   4.267  11.524  0.2456 -4.3428 -2.4872
 3886SOL    HW223292   0.550   4.207  11.513 -1.9356 -2.1296 -1.0592
 3887SOL     OW23293   2.687   2.924   5.742 -0.6495  0.4439 -0.0255
 3887SOL    HW123294   2.706   2.883   5.657 -0.3557 -1.9282  1.1801
 3887SOL    HW223295   2.690   2.849   5.801 -2.3516  1.3163  1.1533
 3888SOL     OW23296   2.077   2.396  11.970  0.2609 -0.1330 -0.4168
 3888SOL    HW123297   2.080   2.476  12.023 -1.9923 -0.7459  0.5917
 3888SOL    HW223298   1.986   2.380  11.993 -0.1822  0.8492 -1.4981
 3889SOL     OW23299   1.357   0.818   9.114  0.0196 -0.1585 -0.1674
 3889SOL    HW123300   1.393   0.811   9.025  0.5275 -0.6788  0.0844
 3889SOL    HW223301   1.262   0.828   9.103  0.4945  1.9372 -2.3391
 3890SOL     OW23302   0.122   0.972   4.537 -0.0833  0.0592 -0.3155
 3890SOL    HW123303   0.200   0.974   4.594 -1.0368  0.8423  0.9584
 3890SOL    HW223304   0.061   1.008   4.601  0.2369 -0.4279  0.2699
 3891SOL     OW23305   0.949   1.911   8.506  0.6814  0.7486 -0.1146
 3891SOL    HW123306   0.906   1.927   8.590  2.1222  3.1526  0.1743
 3891SOL    HW223307   1.041   1.929   8.528  0.6330 -0.6754  1.3076
 3892SOL     OW23308   2.458   1.459  15.872  0.7106  0.1066 -0.1099
 3892SOL    HW123309   2.463   1.527  15.805  1.3451 -0.0644 -0.2373
 3892SOL    HW223310   2.503   1.385  15.833 -0.3353 -0.7579  0.3406
 3893SOL     OW23311   4.645   0.499   8.839  0.1906  0.4631 -0.2417
 3893SOL    HW123312   4.609   0.478   8.926 -0.1302  1.0663 -0.2314
 3893SOL    HW223313   4.735   0.523   8.861  0.2127 -1.1749  1.4464
 3894SOL     OW23314   3.215   2.987  17.489  0.5892  0.3188  0.5157
 3894SOL    HW123315   3.181   2.899  17.502 -1.3440  1.2332  1.7649
 3894SOL    HW223316   3.301   2.976  17.530  1.4638 -1.7050 -1.9266
 3895SOL     OW23317   0.382   4.386   5.732  0.7761  0.4751 -1.3121
 3895SOL    HW123318   0.414   4.388   5.822  2.0785 -0.6448 -1.7479
 3895SOL    HW223319   0.293   4.355   5.746  0.4985  1.0984 -1.7227
 3896SOL     OW23320   3.472   4.410   5.202  0.1871  0.5879 -0.0199
 3896SOL    HW123321   3.397   4.436   5.255 -1.2017 -2.0163 -0.7141
 3896SOL    HW223322   3.536   4.366   5.259  1.4823  2.9921  0.3886
 3897SOL     OW23323   2.442   4.634   9.254 -0.0420 -0.0777 -0.2321
 3897SOL    HW123324   2.480   4.628   9.342 -1.2656 -1.5040  0.1945
 3897SOL    HW223325   2.514   4.678   9.210  0.0221 -0.0935 -0.1433
 3898SOL     OW23326   1.354   0.400   5.699  0.3537 -0.0515 -0.5499
 3898SOL    HW123327   1.327   0.403   5.791 -0.5026 -1.1875 -0.7588
 3898SOL    HW223328   1.308   0.479   5.671 -0.1416  0.9450  3.0251
 3899SOL     OW23329   0.916   1.890   1.649 -0.5452  0.4026  0.2365
 3899SOL    HW123330   0.984   1.852   1.705  0.9011  0.0133 -1.7822
 3899SOL    HW223331   0.927   1.982   1.674  1.1102  0.6388 -1.3412
 3900SOL     OW23332   4.222   2.919   9.709  0.6657 -0.3614 -0.3621
 3900SOL    HW123333   4.224   2.846   9.647  0.1168  0.5591 -1.4672
 3900SOL    HW223334   4.271   2.883   9.783 -1.1466 -1.3430  0.3417
 3901SOL     OW23335   1.057   3.124  14.360  0.1074  0.6145  0.0094
 3901SOL    HW123336   0.978   3.118  14.306  1.9080  0.9403 -2.6884
 3901SOL    HW223337   1.081   3.216  14.347 -2.9128  1.3131 -0.5124
 3902SOL     OW23338   3.723   2.991   1.241  0.0263  0.4280  0.1352
 3902SOL    HW123339   3.810   2.978   1.203 -0.4181  0.0157 -0.7328
 3902SOL    HW223340   3.676   2.920   1.196 -0.5746  0.8419  0.1135
 3903SOL     OW23341   1.699   2.179  15.411 -0.4587 -0.7066  0.9575
 3903SOL    HW123342   1.644   2.200  15.487 -1.4281  2.2265 -0.5461
 3903SOL    HW223343   1.664   2.093  15.388  1.0514 -0.7244 -1.2180
 3904SOL     OW23344   1.898   3.740   5.359 -0.3933 -0.3846  0.3596
 3904SOL    HW123345   1.973   3.737   5.418  0.1070 -1.3299 -0.3238
 3904SOL    HW223346   1.937   3.804   5.300  0.5573 -2.6773 -1.5153
 3905SOL     OW23347   4.075   4.605   2.975 -0.3052 -0.2419  0.4658
 3905SOL    HW123348   4.119   4.597   2.891 -0.9932 -0.0986  0.0900
 3905SOL    HW223349   4.032   4.690   2.965  0.4437 -0.1540 -1.9305
 3906SOL     OW23350   3.184   0.536  12.982  0.2149 -0.3659  0.2961
 3906SOL    HW123351   3.253   0.572  12.926 -2.0108  0.7105 -1.7775
 3906SOL    HW223352   3.104   0.580  12.953 -0.4085 -1.1075  0.9043
 3907SOL     OW23353   0.779   4.601   3.880 -0.1487  0.0437 -0.1665
 3907SOL    HW123354   0.702   4.599   3.937 -1.8237 -1.9423 -2.5010
 3907SOL    HW223355   0.810   4.690   3.896 -0.0052 -0.2932  1.4479
 3908SOL     OW23356   1.402   1.499   4.008  0.0578 -0.2812  0.3613
 3908SOL    HW123357   1.402   1.511   4.103  2.1675  0.3743  0.2719
 3908SOL    HW223358   1.488   1.472   3.979 -0.2185 -0.5857 -0.1678
 3909SOL     OW23359   3.542   1.098   9.671 -0.2823  0.6813  0.0234
 3909SOL    HW123360   3.458   1.095   9.715 -0.1166  1.0050  0.3595
 3909SOL    HW223361   3.501   1.128   9.590 -1.3109 -0.2053  0.2228
 3910SOL     OW23362   4.591   3.790   9.264 -0.2863 -1.0760  0.2582
 3910SOL    HW123363   4.666   3.749   9.221 -0.4443 -1.3279  0.2254
 3910SOL    HW223364   4.538   3.819   9.190  0.4301 -1.3264 -0.3480
 3911SOL     OW23365   3.956   1.472   3.544 -0.3384 -0.5766 -0.4265
 3911SOL    HW123366   3.933   1.380   3.528  1.1642 -0.7656 -1.5368
 3911SOL    HW223367   4.046   1.469   3.578  0.0376  0.2218 -1.3336
 3912SOL     OW23368   2.031   4.040   2.655  0.1460 -0.2696  0.0707
 3912SOL    HW123369   1.972   4.115   2.654 -0.1969 -0.5362  1.3109
 3912SOL    HW223370   2.106   4.080   2.611 -0.4012  1.5387  0.7766
 3913SOL     OW23371   3.086   2.980  13.620 -0.3730  0.5569 -0.2672
 3913SOL    HW123372   3.021   3.050  13.630  0.0400  1.0524 -0.9630
 3913SOL    HW223373   3.159   3.030  13.584  2.0149 -2.2734  0.7275
 3914SOL     OW23374   3.383   1.382   7.567 -0.1305  0.3179  0.2638
 3914SOL    HW123375   3.334   1.447   7.617  0.8837  1.2438  0.0420
 3914SOL    HW223376   3.320   1.315   7.541 -0.0965 -0.7508  2.9362
 3915SOL     OW23377   0.669   2.230   1.376 -0.6816  0.4170  0.1881
 3915SOL    HW123378   0.690   2.281   1.455  1.5896 -0.1026 -0.0830
 3915SOL    HW223379   0.679   2.140   1.406 -1.3042  0.4811  0.5965
 3916SOL     OW23380   4.371   0.926   7.744  0.1714  0.0493  0.3082
 3916SOL    HW123381   4.456   0.940   7.702 -0.5477  0.3892 -1.0112
 3916SOL    HW223382   4.335   0.855   7.691 -1.4512  0.4598  0.8647
 3917SOL     OW23383   2.253   3.816   6.244 -0.3824  0.5047  0.2771
 3917SOL    HW123384   2.317   3.852   6.183 -0.5213 -0.2207 -0.3043
 3917SOL    HW223385   2.305   3.791   6.320  0.4683 -0.4957 -0.6306
 3918SOL     OW23386   3.447   3.785   3.329  0.2120  0.1258 -0.2446
 3918SOL    HW123387   3.352   3.775   3.332  0.4175 -1.2130  1.4803
 3918SOL    HW223388   3.472   3.755   3.416 -1.4974 -0.3273  0.0944
 3919SOL     OW23389   3.500   2.147   8.665 -0.2552  0.2413 -0.5893
 3919SOL    HW123390   3.463   2.125   8.751 -1.1014  2.6488 -0.3150
 3919SOL    HW223391   3.537   2.061   8.646 -1.6804 -0.9356  1.9137
 3920SOL     OW23392   2.022   2.925  15.173  0.2548 -0.3730  0.5507
 3920SOL    HW123393   2.109   2.925  15.213 -0.1929  0.3802  1.5324
 3920SOL    HW223394   1.990   2.851  15.225  0.1270 -1.5665 -1.2343
 3921SOL     OW23395   3.334   0.415   7.718 -0.2837 -0.0308 -0.0976
 3921SOL    HW123396   3.334   0.356   7.643 -1.9678  0.4405 -0.4670
 3921SOL    HW223397   3.321   0.497   7.671 -0.0582  0.5862  0.9077
 3922SOL     OW23398   2.883   4.633   2.126 -0.1535 -0.3434  0.2257
 3922SOL    HW123399   2.978   4.631   2.138 -0.8479  0.3081  5.4239
 3922SOL    HW223400   2.854   4.673   2.208  0.3686  0.0359  0.2265
 3923SOL     OW23401   4.437   2.889   0.302  0.0798 -0.6397 -0.3063
 3923SOL    HW123402   4.523   2.930   0.293 -0.6794  1.0919  0.3212
 3923SOL    HW223403   4.465   2.801   0.278  2.6812  0.1679 -0.2457
 3924SOL     OW23404   4.402   1.470   6.743  0.0363  0.0236  0.2308
 3924SOL    HW123405   4.471   1.475   6.809  0.7581  3.3461 -0.7827
 3924SOL    HW223406   4.335   1.421   6.791 -1.1001 -0.4740 -1.8461
 3925SOL     OW23407   3.792   3.142  12.519  0.1774  0.0469  0.3107
 3925SOL    HW123408   3.871   3.091  12.503 -0.9366 -1.5213 -0.2695
 3925SOL    HW223409   3.751   3.139  12.432  0.5916 -2.4584  0.2100
 3926SOL     OW23410   0.309   1.540   3.289  0.0631  0.4961  0.0578
 3926SOL    HW123411   0.272   1.610   3.342  0.4594  0.5526  0.2580
 3926SOL    HW223412   0.279   1.458   3.326  0.7566  1.0023  1.7155
 3927SOL     OW23413   1.607   3.406   2.586 -0.3721 -0.0898 -0.4083
 3927SOL    HW123414   1.583   3.493   2.554  2.2916  0.1490 -1.8014
 3927SOL    HW223415   1.563   3.409   2.671  2.5562 -0.2863  1.1412
 3928SOL     OW23416   2.168   4.445   3.673 -0.0467  0.5235  0.9852
 3928SOL    HW123417   2.165   4.432   3.579  4.4515 -0.6714  0.9842
 3928SOL    HW223418   2.079   4.423   3.700 -0.6184  0.4659 -0.9692
 3929SOL     OW23419   4.707   3.955   5.135  0.0647  1.1543  0.0540
 3929SOL    HW123420   4.718   4.006   5.055 -0.1890 -0.3054 -0.9073
 3929SOL    HW223421   0.038   3.998   5.184  0.1938  1.6599 -0.5779
 3930SOL     OW23422   2.697   2.151  17.744  0.5521 -0.0386 -0.2226
 3930SOL    HW123423   2.641   2.206   0.043  1.1697  1.1423 -0.7989
 3930SOL    HW223424   2.642   2.074   0.003  0.9156 -0.9931 -3.8251
 3931SOL     OW23425   4.653   0.759   4.831  0.0081 -0.1878  0.3389
 3931SOL    HW123426   4.724   0.812   4.796  1.9572 -2.1827  1.2687
 3931SOL    HW223427   4.675   0.669   4.806 -0.4805 -0.2490  0.1091
 3932SOL     OW23428   2.656   1.762   3.712  0.3485 -0.3527  0.0571
 3932SOL    HW123429   2.733   1.751   3.656  0.5073  2.5358 -0.2965
 3932SOL    HW223430   2.696   1.745   3.797 -0.0348 -0.4120  0.2278
 3933SOL     OW23431   4.372   3.804  17.079  0.3225 -0.4531 -0.1863
 3933SOL    HW123432   4.347   3.745  17.150 -0.6917  0.4753  0.2313
 3933SOL    HW223433   4.465   3.822  17.091  0.9811 -2.9235 -1.6555
 3934SOL     OW23434   2.356   0.921   3.513 -0.3884 -0.4629 -0.6004
 3934SOL    HW123435   2.431   0.871   3.545 -0.0953 -0.5103 -1.3476
 3934SOL    HW223436   2.282   0.865   3.536  0.8365 -2.4167 -1.4434
 3935SOL     OW23437   2.087   0.934  10.072  0.1983  0.7193  0.5043
 3935SOL    HW123438   2.138   0.989  10.131  0.4594 -0.6010  1.5069
 3935SOL    HW223439   2.007   0.985  10.062 -0.8115 -1.1280 -0.9279
 3936SOL     OW23440   0.239   0.203   2.011 -0.6017  0.1735  0.1351
 3936SOL    HW123441   0.173   0.168   2.070 -0.5260  0.6696  0.5162
 3936SOL    HW223442   0.319   0.163   2.046 -0.4884  0.0688 -0.2405
 3937SOL     OW23443   0.122   0.001   7.242 -0.5913 -0.3747  0.7445
 3937SOL    HW123444   0.037   0.031   7.211 -0.7832 -0.3069  1.3394
 3937SOL    HW223445   0.104   4.648   7.264 -0.9061 -0.5173 -0.1181
 3938SOL     OW23446   1.420   2.945   7.458  0.6712  0.0427 -0.2321
 3938SOL    HW123447   1.400   2.966   7.367  1.3154 -1.1663 -0.6466
 3938SOL    HW223448   1.413   2.850   7.471  2.2505  0.1624  1.5418
 3939SOL     OW23449   2.467   3.651   6.131 -0.3533 -0.6028  0.1545
 3939SOL    HW123450   2.468   3.742   6.101  0.8072 -0.8822 -0.6146
 3939SOL    HW223451   2.559   3.654   6.158 -0.1440 -0.8691 -0.5354
 3940SOL     OW23452   4.425   4.634   1.952  0.5241 -0.0570 -0.2487
 3940SOL    HW123453   4.516   4.662   1.962  0.4393  0.7975 -1.8263
 3940SOL    HW223454   4.391   4.670   2.034 -1.5186 -0.8013 -0.7608
 3941SOL     OW23455   4.697   4.250   2.428  0.2265 -0.4212  0.0001
 3941SOL    HW123456   0.033   4.232   2.371 -0.9887  1.2990 -2.1521
 3941SOL    HW223457   4.631   4.197   2.383  0.2940  0.7879 -1.5411
 3942SOL     OW23458   2.440   0.092   2.534  0.6184  0.2531  0.1468
 3942SOL    HW123459   2.468   0.173   2.490 -3.9568 -0.3656 -3.9487
 3942SOL    HW223460   2.524   0.052   2.558 -0.0567 -1.7730 -0.8694
 3943SOL     OW23461   2.044   1.510   7.063 -0.2732 -0.0625 -0.2503
 3943SOL    HW123462   2.101   1.552   6.999  0.3417 -0.2707  0.1601
 3943SOL    HW223463   2.057   1.416   7.050  3.8067  0.5614 -0.6149
 3944SOL     OW23464   2.085   3.018   4.259  0.2085 -0.4712 -0.5854
 3944SOL    HW123465   2.065   3.071   4.335 -1.0698 -1.8531  0.0230
 3944SOL    HW223466   2.090   3.082   4.188  2.1799  0.9315  0.8261
 3945SOL     OW23467   3.051   3.020   2.515  0.0513  0.4043  0.1903
 3945SOL    HW123468   3.094   3.033   2.430  0.4453 -0.0439  0.3200
 3945SOL    HW223469   2.958   3.023   2.490  0.5042 -1.7596 -1.8105
 3946SOL     OW23470   0.128   3.772  12.521  0.4526 -0.3767 -0.0089
 3946SOL    HW123471   0.157   3.856  12.558  0.1765 -0.2859  0.0002
 3946SOL    HW223472   0.059   3.747  12.582  0.4338 -1.6810 -0.5687
 3947SOL     OW23473   3.120   2.802   5.429  0.5741 -0.2403 -0.2541
 3947SOL    HW123474   3.085   2.728   5.477 -1.7377 -0.5845 -2.4656
 3947SOL    HW223475   3.086   2.873   5.483 -0.8429 -0.8880 -0.2996
 3948SOL     OW23476   0.258   2.976   8.603  0.3589 -0.0024  0.2829
 3948SOL    HW123477   0.337   2.953   8.553  0.5151 -0.3670  0.6882
 3948SOL    HW223478   0.239   3.054   8.552 -0.4456 -0.9121 -0.8127
 3949SOL     OW23479   2.697   4.024  16.688  0.2681 -0.1973 -0.1016
 3949SOL    HW123480   2.615   4.072  16.679 -0.3576 -1.3457 -0.4975
 3949SOL    HW223481   2.734   4.078  16.757  0.7778  0.9928 -1.3241
 3950SOL     OW23482   2.704   0.586   8.933 -0.1596  0.9321  0.4382
 3950SOL    HW123483   2.658   0.502   8.923 -0.6870  1.1648  0.8930
 3950SOL    HW223484   2.647   0.651   8.892 -2.5028 -0.5229  1.3231
 3951SOL     OW23485   4.642   1.767   4.646 -0.0086  0.1251  0.2797
 3951SOL    HW123486   4.547   1.754   4.641 -0.3318  1.7011  2.1633
 3951SOL    HW223487   4.685   1.682   4.636 -0.4608  0.0454 -0.9516
 3952SOL     OW23488   0.492   4.301   1.108 -0.4071  0.4409  0.4498
 3952SOL    HW123489   0.522   4.314   1.018 -1.1298 -0.5835  0.0615
 3952SOL    HW223490   0.434   4.377   1.120 -0.2993  0.5930  0.0174
 3953SOL     OW23491   1.443   0.836   2.342 -0.3331  0.2269 -0.8761
 3953SOL    HW123492   1.441   0.752   2.388 -2.0368  0.2163 -0.9771
 3953SOL    HW223493   1.350   0.854   2.326 -0.2560 -0.7524 -2.4833
 3954SOL     OW23494   3.967   0.848   7.158  0.8333 -0.1344  0.2557
 3954SOL    HW123495   4.009   0.772   7.198 -1.1612 -0.4976  1.6271
 3954SOL    HW223496   3.917   0.883   7.232  0.0581  0.6951 -0.6625
 3955SOL     OW23497   1.724   1.836  17.505 -0.0478  0.5304  0.3062
 3955SOL    HW123498   1.728   1.741  17.507  0.2707  0.5373 -0.0192
 3955SOL    HW223499   1.704   1.864  17.594 -1.2525  1.5415 -0.2801
 3956SOL     OW23500   1.078   3.893  17.565  0.0721 -0.5774 -0.4787
 3956SOL    HW123501   1.027   3.901  17.646  0.3314  1.2636 -0.4769
 3956SOL    HW223502   1.040   3.965  17.514 -0.3171 -0.3966  0.0603
 3957SOL     OW23503   0.676   3.575   6.308  0.0449 -0.0280 -0.0996
 3957SOL    HW123504   0.741   3.543   6.245  0.2371  1.2857 -0.5602
 3957SOL    HW223505   0.709   3.665   6.317 -1.0365  0.5263 -1.8290
 3958SOL     OW23506   0.706   4.642   2.910  0.5534  0.0148 -0.5643
 3958SOL    HW123507   0.756   4.673   2.835  0.5373  0.7832 -0.2627
 3958SOL    HW223508   0.762   4.683   2.976 -1.8503  0.4814  1.1886
 3959SOL     OW23509   2.480   2.743  16.739  0.3428 -0.3853 -0.5696
 3959SOL    HW123510   2.444   2.824  16.704 -0.0253  0.3029  1.3880
 3959SOL    HW223511   2.573   2.767  16.737  0.3869 -0.5733 -0.7885
 3960SOL     OW23512   3.771   0.991   6.491 -0.1272 -0.7961 -0.3793
 3960SOL    HW123513   3.719   0.912   6.508 -0.8203 -0.4504 -0.8957
 3960SOL    HW223514   3.702   1.057   6.485 -0.2535 -1.0318 -1.4536
 3961SOL     OW23515   1.196   2.469   2.649  0.2929  0.0116  0.1899
 3961SOL    HW123516   1.216   2.434   2.563 -1.8993  0.7664 -0.6148
 3961SOL    HW223517   1.245   2.408   2.704  0.8973  1.9202  1.8013
 3962SOL     OW23518   1.978   2.035   5.030  0.1552 -0.2229 -0.0979
 3962SOL    HW123519   1.886   2.062   5.026  0.1386 -0.4925 -1.6828
 3962SOL    HW223520   1.970   1.939   5.025  0.2945 -0.2185 -0.4149
 3963SOL     OW23521   2.799   2.488   3.217  0.1169  0.0525  0.5335
 3963SOL    HW123522   2.798   2.416   3.155  0.9230  1.5925 -1.2730
 3963SOL    HW223523   2.716   2.469   3.260 -0.6455 -1.8867 -1.8635
 3964SOL     OW23524   4.462   0.940   3.873  0.1745  0.0042 -0.1687
 3964SOL    HW123525   4.455   0.965   3.965  2.0164 -1.1257  0.2543
 3964SOL    HW223526   4.402   0.865   3.873  3.2789 -2.4566  0.3678
 3965SOL     OW23527   2.358   3.969  15.138  0.1827 -0.8967 -0.4618
 3965SOL    HW123528   2.327   4.021  15.064  0.3482  1.6046  1.2437
 3965SOL    HW223529   2.368   3.879  15.107  1.5211 -0.4938 -1.2004
 3966SOL     OW23530   1.395   2.123   6.558 -0.0392 -0.1505 -0.4801
 3966SOL    HW123531   1.325   2.076   6.602 -1.3937  2.9161  0.6825
 3966SOL    HW223532   1.446   2.052   6.519 -0.6381 -0.9329  0.1868
 3967SOL     OW23533   1.913   0.254   2.736  0.6814 -0.2629  0.3696
 3967SOL    HW123534   1.843   0.279   2.797  0.2074 -0.7859  0.0387
 3967SOL    HW223535   1.959   0.336   2.719 -1.4866  0.7903 -0.3629
 3968SOL     OW23536   1.081   4.438   6.708 -0.2911 -0.1111 -0.5443
 3968SOL    HW123537   1.075   4.379   6.783  1.3648  0.5121  0.0756
 3968SOL    HW223538   1.126   4.393   6.636  1.1221  1.9597 -0.9311
 3969SOL     OW23539   1.213   1.014  13.647  0.4775 -0.2498  0.5592
 3969SOL    HW123540   1.277   1.055  13.589 -0.1039  0.6597  0.5470
 3969SOL    HW223541   1.129   1.035  13.606  0.5134  0.3890  0.8062
 3970SOL     OW23542   0.718   4.558   1.153 -0.3081  0.3603 -0.1803
 3970SOL    HW123543   0.781   4.592   1.089 -1.1840  1.6026 -0.3782
 3970SOL    HW223544   0.635   4.591   1.119 -0.8784  0.0719  0.9384
 3971SOL     OW23545   0.314   0.896   8.880  0.4197  0.1673 -0.0741
 3971SOL    HW123546   0.321   0.856   8.793  1.0734 -2.0075  0.9765
 3971SOL    HW223547   0.349   0.984   8.863 -0.3792  0.6619  0.8375
 3972SOL     OW23548   1.440   0.899   7.565  0.0575  0.0071 -0.2976
 3972SOL    HW123549   1.357   0.852   7.571  0.8273 -1.2655  0.3126
 3972SOL    HW223550   1.412   0.983   7.603 -0.3518 -0.1706 -0.1995
 3973SOL     OW23551   0.070   3.407  15.017 -0.4305  0.1666  0.2885
 3973SOL    HW123552   0.071   3.502  15.025  0.8680  0.1565  0.2738
 3973SOL    HW223553   0.127   3.398  14.941  1.0281  1.5946  1.2274
 3974SOL     OW23554   3.671   1.679   3.346  0.1167 -0.2986  0.0565
 3974SOL    HW123555   3.605   1.610   3.348 -0.8954  0.6830  0.7218
 3974SOL    HW223556   3.705   1.666   3.258  1.3077 -3.8768  1.0642
 3975SOL     OW23557   3.097   1.880   3.130 -0.2102  0.0091 -0.5772
 3975SOL    HW123558   3.066   1.969   3.147  2.8521  1.1911 -1.0295
 3975SOL    HW223559   3.063   1.826   3.201 -0.9933 -0.6337 -1.4458
 3976SOL     OW23560   4.224   2.549   5.501 -0.3136  0.3259  0.7471
 3976SOL    HW123561   4.169   2.475   5.526 -2.2229  0.5852 -2.8144
 3976SOL    HW223562   4.219   2.548   5.406  1.1888  1.4505  0.6533
 3977SOL     OW23563   0.137   2.959   3.270 -0.4646  0.0328  0.1821
 3977SOL    HW123564   0.179   3.038   3.303  0.3357 -0.3725  0.1392
 3977SOL    HW223565   0.045   2.985   3.267 -0.7586 -0.8873  1.0663
 3978SOL     OW23566   3.027   2.942   3.068 -0.1896 -0.3730  0.3952
 3978SOL    HW123567   3.007   2.971   3.157 -0.0696 -2.7966  1.2148
 3978SOL    HW223568   2.984   2.857   3.076  1.6333 -1.4755 -1.8357
 3979SOL     OW23569   1.012   3.054   4.043  0.1455  0.4539 -0.0383
 3979SOL    HW123570   0.947   3.124   4.042  0.1217  0.3947 -1.6867
 3979SOL    HW223571   1.092   3.100   4.016  0.1193  0.6861  0.2681
 3980SOL     OW23572   4.232   2.420   2.467  0.3157  0.4614  0.0569
 3980SOL    HW123573   4.320   2.457   2.465  0.2998  0.6331  2.5521
 3980SOL    HW223574   4.230   2.412   2.562  0.0121  2.5822  0.2253
 3981SOL     OW23575   4.339   4.307   5.518  0.5295  0.2638  0.4027
 3981SOL    HW123576   4.334   4.402   5.531  0.3274  0.3310 -0.1593
 3981SOL    HW223577   4.359   4.265   5.601 -1.6432 -1.5732  0.0039
 3982SOL     OW23578   3.695   3.264  15.962  0.3899 -0.4696 -0.1866
 3982SOL    HW123579   3.717   3.194  16.024 -2.0527 -1.0358  0.0241
 3982SOL    HW223580   3.612   3.231  15.927 -0.5637  1.3539  0.3893
 3983SOL     OW23581   0.980   1.269   3.046  0.1064  0.2169  0.5089
 3983SOL    HW123582   0.983   1.252   2.951  0.0613  2.2389  0.1412
 3983SOL    HW223583   0.999   1.183   3.083 -0.5571 -0.7992 -1.4698
 3984SOL     OW23584   4.367   1.625   8.002  0.1752 -0.6467 -0.3516
 3984SOL    HW123585   4.277   1.637   7.972 -0.7218 -1.9754  1.8262
 3984SOL    HW223586   4.419   1.678   7.942 -0.6380  0.8967  0.3122
 3985SOL     OW23587   4.261   0.518   2.471 -1.0350  0.2302  0.0615
 3985SOL    HW123588   4.342   0.556   2.438 -0.8960  0.3489  0.5377
 3985SOL    HW223589   4.216   0.594   2.508  1.0967  0.7946  1.4897
 3986SOL     OW23590   0.807   3.462   4.730  0.3720 -0.2683 -0.0643
 3986SOL    HW123591   0.828   3.419   4.812 -1.4586 -0.2850  0.3925
 3986SOL    HW223592   0.763   3.387   4.689 -2.1291  1.8155 -1.2236
 3987SOL     OW23593   0.426   2.607   4.019  0.2067 -0.5543 -0.1823
 3987SOL    HW123594   0.491   2.538   4.030 -0.7550 -1.3115  0.7622
 3987SOL    HW223595   0.368   2.564   3.956  1.4840 -0.9733 -1.0750
 3988SOL     OW23596   1.745   0.550   9.084  0.0960 -0.2987 -0.1501
 3988SOL    HW123597   1.703   0.621   9.132 -1.3012 -2.5978  2.0572
 3988SOL    HW223598   1.809   0.593   9.027 -1.1288  0.2854 -1.0808
 3989SOL     OW23599   4.042   1.307   2.065  0.6204  0.1659  0.8438
 3989SOL    HW123600   4.000   1.370   2.006  0.0452 -0.2788  0.7806
 3989SOL    HW223601   4.000   1.229   2.030 -0.4255  0.7389  0.8452
 3990SOL     OW23602   1.874   2.558  12.480  0.8029  0.0609  0.4466
 3990SOL    HW123603   1.862   2.581  12.572 -1.5540 -0.7324  0.3432
 3990SOL    HW223604   1.945   2.615  12.452 -0.7406  0.8926 -1.8421
 3991SOL     OW23605   1.975   1.798   7.492 -0.1591 -0.6011 -0.0527
 3991SOL    HW123606   2.017   1.880   7.517  0.6955 -0.5858 -1.5097
 3991SOL    HW223607   1.994   1.746   7.570 -0.7055 -2.3699 -1.1039
 3992SOL     OW23608   3.565   1.874  15.030 -0.7290  0.0168 -0.4014
 3992SOL    HW123609   3.559   1.789  14.986 -2.3480 -1.5908  2.9050
 3992SOL    HW223610   3.607   1.847  15.112 -1.0780  0.2177 -0.1591
 3993SOL     OW23611   3.517   3.759   6.447  0.3569  0.2274 -0.0103
 3993SOL    HW123612   3.528   3.843   6.491 -1.8056 -0.7949  2.4852
 3993SOL    HW223613   3.587   3.767   6.383 -1.0327 -1.3554 -1.7209
 3994SOL     OW23614   0.275   2.315   9.403 -0.2306 -0.2073 -0.1712
 3994SOL    HW123615   0.332   2.337   9.477 -2.0708 -1.1462  1.5175
 3994SOL    HW223616   0.193   2.345   9.441  0.1410  1.5721 -0.7410
 3995SOL     OW23617   4.390   0.117   2.561  0.2202  0.2625 -0.0100
 3995SOL    HW123618   4.402   0.024   2.581 -2.3317 -0.3052 -1.1232
 3995SOL    HW223619   4.477   0.133   2.525  0.0043  0.2410 -0.5320
 3996SOL     OW23620   1.922   1.185   2.564  0.3026 -0.1664  0.4356
 3996SOL    HW123621   1.893   1.150   2.480 -0.8323  0.5466  0.5317
 3996SOL    HW223622   1.889   1.121   2.628 -0.0975  0.6902  1.0819
 3997SOL     OW23623   2.096   1.456  10.258 -0.2862 -0.2608 -0.1260
 3997SOL    HW123624   2.093   1.549  10.278 -0.2638 -0.3642  0.3441
 3997SOL    HW223625   2.048   1.427  10.336  0.0162  0.1170  0.1979
 3998SOL     OW23626   0.204   1.584   7.693  0.0190  0.2299  0.2610
 3998SOL    HW123627   0.127   1.605   7.745 -1.0803  0.5191 -1.4747
 3998SOL    HW223628   0.185   1.604   7.601 -2.8970  0.7843  0.9937
 3999SOL     OW23629   1.452   4.407   7.990  0.2284  0.2035  0.4824
 3999SOL    HW123630   1.532   4.458   7.977  0.4691 -0.2162  0.2867
 3999SOL    HW223631   1.477   4.345   8.058  1.7645  2.1709  1.7046
 4000SOL     OW23632   4.373   2.949   5.368 -0.0554  0.8342 -0.0367
 4000SOL    HW123633   4.449   2.945   5.426 -1.5298  0.6551  1.9041
 4000SOL    HW223634   4.393   3.029   5.318  0.8281  2.4181  2.8513
 4001SOL     OW23635   2.545   2.344  12.393 -0.0889  0.7066  0.1103
 4001SOL    HW123636   2.618   2.374  12.339 -0.8254  2.0765 -0.1171
 4001SOL    HW223637   2.471   2.377  12.341 -0.1419 -1.7679 -1.4013
 4002SOL     OW23638   3.405   4.209   3.101 -1.0224  0.2381 -0.1359
 4002SOL    HW123639   3.469   4.163   3.046  0.9980  2.2677  0.4999
 4002SOL    HW223640   3.417   4.177   3.190  0.4736  2.7904  0.5711
 4003SOL     OW23641   3.984   4.571   6.257 -0.2756 -0.0847 -0.1985
 4003SOL    HW123642   3.934   4.647   6.229  1.1338  0.6451 -0.7459
 4003SOL    HW223643   3.952   4.570   6.348  2.4410 -0.6351  0.7772
 4004SOL     OW23644   2.533   0.902  13.321 -0.0018 -0.4236 -0.0020
 4004SOL    HW123645   2.470   0.895  13.250 -0.2628  0.3071  0.1561
 4004SOL    HW223646   2.516   0.994  13.344 -1.8327 -1.3343  2.2570
 4005SOL     OW23647   1.917   4.267   7.957 -0.3842  0.2114  0.8238
 4005SOL    HW123648   1.876   4.240   7.874 -1.8022  0.7641  1.3498
 4005SOL    HW223649   1.959   4.184   7.982 -1.7303 -0.3197  1.2950
 4006SOL     OW23650   1.617   1.547   7.780  0.6530 -0.3489 -0.2467
 4006SOL    HW123651   1.621   1.627   7.833 -1.7172 -0.8229  0.6170
 4006SOL    HW223652   1.660   1.578   7.700 -0.5725  1.9028 -0.0322
 4007SOL     OW23653   0.316   4.212   3.377 -0.4655  0.3564  0.0854
 4007SOL    HW123654   0.378   4.217   3.449 -0.2936  1.8579 -0.1841
 4007SOL    HW223655   0.370   4.219   3.298 -1.4662  0.1399 -0.6128
 4008SOL     OW23656   4.568   3.228   4.163 -0.1382 -0.3594  0.3892
 4008SOL    HW123657   4.535   3.164   4.100  1.9806 -0.0700 -1.0268
 4008SOL    HW223658   4.489   3.251   4.212  0.6463  0.4852  1.2598
 4009SOL     OW23659   2.386   3.361   3.428  0.6829 -0.1573  0.0009
 4009SOL    HW123660   2.450   3.381   3.360  1.0382  1.9715  0.9686
 4009SOL    HW223661   2.452   3.327   3.488 -0.7120 -1.6603  0.7138
 4010SOL     OW23662   3.984   0.761   8.117  0.5300 -0.0089  0.4976
 4010SOL    HW123663   3.951   0.737   8.203  1.5779  0.2769  0.9795
 4010SOL    HW223664   3.980   0.857   8.110  1.1776 -0.0866 -1.0233
 4011SOL     OW23665   3.712   3.244   5.181  0.1130 -1.2031  0.1437
 4011SOL    HW123666   3.707   3.190   5.259 -1.9121 -1.4988 -0.2030
 4011SOL    HW223667   3.630   3.291   5.168 -0.2630 -1.3286  2.0844
 4012SOL     OW23668   2.708   3.427   0.597  0.1548 -0.2504  0.0511
 4012SOL    HW123669   2.715   3.502   0.656 -0.3709 -0.9095  0.9429
 4012SOL    HW223670   2.667   3.371   0.662  0.8161 -0.8637 -0.0555
 4013SOL     OW23671   2.975   1.376  13.359 -0.8654  0.0903 -0.5983
 4013SOL    HW123672   2.992   1.458  13.407  0.6060 -2.2940  2.9481
 4013SOL    HW223673   3.056   1.330  13.380 -1.3306 -0.3728  0.1847
 4014SOL     OW23674   0.181   0.996   7.565 -0.3389  0.3108 -0.5563
 4014SOL    HW123675   0.139   1.077   7.593 -0.0560  0.8203 -1.6051
 4014SOL    HW223676   0.241   1.020   7.495  1.4846 -0.7522  0.6560
 4015SOL     OW23677   0.562   0.712  11.680  0.1366 -0.4290 -0.5149
 4015SOL    HW123678   0.656   0.714  11.667 -0.2181  1.1524 -2.7892
 4015SOL    HW223679   0.557   0.762  11.761  1.7713  0.9991 -1.3149
 4016SOL     OW23680   0.779   1.779   4.059 -0.2305  0.1988  0.5680
 4016SOL    HW123681   0.860   1.824   4.035 -0.0548  1.3151  3.1804
 4016SOL    HW223682   0.776   1.711   3.993 -0.0818 -0.4769  1.2610
 4017SOL     OW23683   2.061   0.014  11.939 -0.0938 -0.2094  0.1685
 4017SOL    HW123684   2.148   0.051  11.951 -0.5300  1.5158 -1.9083
 4017SOL    HW223685   2.040   0.070  11.864 -2.1683  1.0454  1.6840
 4018SOL     OW23686   3.325   1.999   2.702 -0.5030  0.0725  1.3198
 4018SOL    HW123687   3.257   2.040   2.755 -0.8666  2.3774 -0.9296
 4018SOL    HW223688   3.352   1.945   2.776 -1.2540 -3.1503 -0.7247
 4019SOL     OW23689   1.084   1.119   6.374  0.1563  0.1073  0.4929
 4019SOL    HW123690   1.159   1.097   6.319  0.0353 -1.9987  1.1790
 4019SOL    HW223691   1.019   1.053   6.349 -1.7397  1.4334  1.9078
 4020SOL     OW23692   2.323   4.108   1.913  0.1014  0.0334 -0.1015
 4020SOL    HW123693   2.414   4.117   1.940 -0.6093 -1.9219  2.9093
 4020SOL    HW223694   2.293   4.036   1.969 -0.4161  0.3306 -0.0034
 4021SOL     OW23695   3.463   1.367   4.647  0.3052 -0.0914  0.0118
 4021SOL    HW123696   3.445   1.439   4.707 -1.8842  0.0047 -0.7804
 4021SOL    HW223697   3.558   1.367   4.655  0.2487 -2.8980  0.6956
 4022SOL     OW23698   1.064   2.476   3.711 -0.1686 -0.0329 -0.1842
 4022SOL    HW123699   1.029   2.428   3.786  0.4028  2.7258  1.8160
 4022SOL    HW223700   1.030   2.563   3.732 -1.8252 -0.5487 -0.7299
 4023SOL     OW23701   0.054   4.736   4.462  0.2778  0.3417  0.1969
 4023SOL    HW123702   0.122   4.670   4.448 -1.8603 -1.1158 -3.5158
 4023SOL    HW223703   0.101   0.077   4.484 -0.6514  0.8215  0.4185
 4024SOL     OW23704   3.517   1.887   2.968 -0.4668  0.1942 -0.5910
 4024SOL    HW123705   3.505   1.969   3.017 -1.4086 -0.2818 -0.0213
 4024SOL    HW223706   3.427   1.856   2.958 -1.3686  1.7664  2.6091
 4025SOL     OW23707   3.930   1.653   4.379 -0.9710 -0.1271  0.5052
 4025SOL    HW123708   3.926   1.719   4.311  1.4885 -0.4563  0.0337
 4025SOL    HW223709   3.929   1.575   4.324 -0.1435  1.5718 -1.8915
 4026SOL     OW23710   1.045   0.488   6.163  0.0134  0.2982  0.0767
 4026SOL    HW123711   0.951   0.496   6.147  0.0857  1.1629  0.0795
 4026SOL    HW223712   1.074   0.578   6.182  0.7344 -0.1491  1.0970
 4027SOL     OW23713   4.123   3.574   5.083  0.3361 -0.5331  0.6127
 4027SOL    HW123714   4.094   3.486   5.059 -0.5455 -0.4260  1.2927
 4027SOL    HW223715   4.214   3.554   5.106  0.8568 -1.5088 -2.2876
 4028SOL     OW23716   1.668   3.267  13.138  0.0779  0.9045  0.4725
 4028SOL    HW123717   1.581   3.292  13.169  0.6163  0.7307  2.1712
 4028SOL    HW223718   1.730   3.274  13.211  0.8769  0.8606 -0.2059
 4029SOL     OW23719   3.530   0.472   1.112 -0.6791  0.0856 -1.2237
 4029SOL    HW123720   3.438   0.488   1.135 -0.4286 -0.5057  0.1851
 4029SOL    HW223721   3.531   0.377   1.104 -3.2925 -0.1939  1.5692
 4030SOL     OW23722   2.589   3.251   3.594  0.8999 -0.3171  0.3868
 4030SOL    HW123723   2.617   3.160   3.580 -0.2306 -0.6083  0.0221
 4030SOL    HW223724   2.613   3.260   3.686  0.3051 -1.1211  0.6258
 4031SOL     OW23725   3.323   0.252  15.333  0.0260  0.1335 -0.0890
 4031SOL    HW123726   3.346   0.302  15.411 -1.3911 -0.2255  0.5679
 4031SOL    HW223727   3.375   0.172  15.339 -0.8875 -0.4078  0.8109
 4032SOL     OW23728   1.655   2.433   1.676  0.2480 -0.8122 -0.4285
 4032SOL    HW123729   1.606   2.364   1.722  1.4542 -1.1500  0.3557
 4032SOL    HW223730   1.732   2.447   1.731 -0.8879  1.0056  0.6974
 4033SOL     OW23731   1.354   1.944   0.635 -0.2522  0.1032 -0.0276
 4033SOL    HW123732   1.395   1.925   0.551  0.0132 -0.0443  0.1353
 4033SOL    HW223733   1.267   1.967   0.602 -0.1723 -2.3815 -1.9842
 4034SOL     OW23734   0.897   4.326  14.474  0.0500 -0.2091  0.4346
 4034SOL    HW123735   0.915   4.381  14.398  0.9867  1.1384  1.6348
 4034SOL    HW223736   0.812   4.364  14.495 -0.0907  0.1409 -0.7282
 4035SOL     OW23737   3.341   2.255  14.695 -0.2113  0.5673 -0.0930
 4035SOL    HW123738   3.424   2.294  14.723 -1.7525  2.7202  1.5053
 4035SOL    HW223739   3.293   2.247  14.777 -0.2866 -0.6551 -0.2653
 4036SOL     OW23740   2.820   0.157   1.960 -0.0574  0.1079  0.2127
 4036SOL    HW123741   2.881   0.094   1.922  1.2864  1.0739  0.7644
 4036SOL    HW223742   2.795   0.203   1.880  0.2813  0.1722  0.1436
 4037SOL     OW23743   1.984   3.314   7.990 -0.3425  0.2410 -0.3351
 4037SOL    HW123744   1.913   3.364   8.030 -0.0863  1.0688 -0.9316
 4037SOL    HW223745   1.963   3.222   8.005  0.9385 -0.4147 -2.5189
 4038SOL     OW23746   4.295   3.773   5.308  0.3447 -0.3019 -0.3932
 4038SOL    HW123747   4.362   3.704   5.314 -1.6649 -2.0083  2.2036
 4038SOL    HW223748   4.215   3.728   5.333 -0.0656  0.5392 -0.1972
 4039SOL     OW23749   3.536   2.755   6.571 -0.2697  0.1150  0.0850
 4039SOL    HW123750   3.616   2.800   6.599 -0.7863 -0.8007  3.0229
 4039SOL    HW223751   3.525   2.673   6.619 -0.7062 -0.1190 -0.4150
 4040SOL     OW23752   0.781   4.038   9.345  0.0611 -0.3158 -0.6284
 4040SOL    HW123753   0.824   4.001   9.422  2.7207  2.9304 -0.5718
 4040SOL    HW223754   0.820   3.988   9.273 -0.4601 -1.9101  0.1842
 4041SOL     OW23755   4.508   1.082   9.852 -0.0847  0.3511  0.7242
 4041SOL    HW123756   4.562   1.017   9.806  1.3152 -0.0263  2.8840
 4041SOL    HW223757   4.455   1.127   9.787  1.9685  1.0404 -0.4628
 4042SOL     OW23758   0.991   3.181   4.359  0.2203 -0.1174  0.2354
 4042SOL    HW123759   0.913   3.126   4.349  0.2719 -0.4624  1.7697
 4042SOL    HW223760   1.059   3.115   4.366  1.2033  0.6168 -2.3976
 4043SOL     OW23761   0.225   4.516   4.526 -0.3448 -0.0744 -0.3325
 4043SOL    HW123762   0.177   4.454   4.470 -0.2395  0.1286 -0.6481
 4043SOL    HW223763   0.315   4.498   4.499  0.0849 -0.4231  1.3293
 4044SOL     OW23764   0.835   0.044  16.966 -0.1756  0.1402 -0.2762
 4044SOL    HW123765   0.837   0.123  17.020 -2.3692  1.2961 -1.8675
 4044SOL    HW223766   0.925   0.021  16.944 -0.2672 -1.0388  0.6055
 4045SOL     OW23767   0.587   2.950   0.198 -0.4971  0.2627 -0.0124
 4045SOL    HW123768   0.569   3.043   0.195 -0.2318  0.2623 -1.5212
 4045SOL    HW223769   0.499   2.914   0.190 -1.1077  2.1911 -1.7929
 4046SOL     OW23770   4.100   2.221   1.818  0.0189  0.3451  0.4854
 4046SOL    HW123771   4.045   2.148   1.791  0.4354 -0.5015  1.9270
 4046SOL    HW223772   4.108   2.277   1.741  3.4864 -0.2491  0.4187
 4047SOL     OW23773   1.045   1.508   6.677  0.6117  0.4669  0.5223
 4047SOL    HW123774   1.046   1.412   6.670 -1.0656  0.4807  0.2472
 4047SOL    HW223775   0.958   1.512   6.637 -0.3016 -0.0477  2.4888
 4048SOL     OW23776   3.004   1.046   5.081 -0.3118  0.4161 -0.8456
 4048SOL    HW123777   2.963   1.042   4.994 -0.2330  0.7175 -0.8942
 4048SOL    HW223778   3.050   0.963   5.067  0.6142  0.3449  2.6651
 4049SOL     OW23779   4.214   1.872  16.153 -0.5596  0.0478 -0.2080
 4049SOL    HW123780   4.221   1.922  16.071 -0.5172  0.9349  0.3441
 4049SOL    HW223781   4.190   1.795  16.102 -0.3448 -1.3380  1.7947
 4050SOL     OW23782   4.279   0.621   9.939  0.0680  0.0130 -0.3166
 4050SOL    HW123783   4.206   0.562   9.921  0.1028 -0.4989  1.2501
 4050SOL    HW223784   4.237   0.707   9.941 -1.0619 -0.5305 -1.0112
 4051SOL     OW23785   0.076   3.511   3.458  0.5051  0.8449 -0.6301
 4051SOL    HW123786   0.149   3.451   3.473  0.8847  0.9305 -2.1042
 4051SOL    HW223787   0.118   3.596   3.472  3.1196 -0.6696  0.6232
 4052SOL     OW23788   0.616   0.336   8.231  0.2463 -0.5443  0.4222
 4052SOL    HW123789   0.643   0.427   8.233 -1.9121  0.1191 -1.3375
 4052SOL    HW223790   0.536   0.341   8.178  0.0358 -0.2323  0.7726
 4053SOL     OW23791   3.086   2.666   1.979  0.0255  0.6550  0.0233
 4053SOL    HW123792   3.049   2.695   2.062  1.0912  3.0647 -0.3229
 4053SOL    HW223793   3.061   2.574   1.976  3.3512 -0.2852  0.7078
 4054SOL     OW23794   1.049   1.594   8.323  0.2130 -0.2904 -0.1067
 4054SOL    HW123795   1.094   1.650   8.260 -1.1893  0.0189 -0.8357
 4054SOL    HW223796   1.107   1.518   8.314  1.5107  0.6170  0.6999
 4055SOL     OW23797   4.328   2.499   8.337 -0.0009  0.2715 -0.3085
 4055SOL    HW123798   4.270   2.473   8.265  0.1250 -0.0312 -0.2998
 4055SOL    HW223799   4.274   2.479   8.414 -2.3387  1.8150 -1.5339
 4056SOL     OW23800   1.121   3.036  11.334 -0.1889  0.1221 -0.1051
 4056SOL    HW123801   1.163   3.055  11.250  0.4615 -2.6088 -0.3805
 4056SOL    HW223802   1.092   3.124  11.358 -2.7358 -1.1826  1.5886
 4057SOL     OW23803   2.192   2.916   1.266  0.0584  0.8821  0.2103
 4057SOL    HW123804   2.266   2.957   1.221 -0.6308  1.3346 -0.5211
 4057SOL    HW223805   2.242   2.852   1.317 -1.5143 -1.0095 -0.6361
 4058SOL     OW23806   0.530   4.270   4.010 -0.0870 -1.0204  0.2707
 4058SOL    HW123807   0.575   4.249   3.928  0.5562  1.2405  0.0444
 4058SOL    HW223808   0.464   4.330   3.974  0.1821 -1.0475 -0.2735
 4059SOL     OW23809   0.646   2.431   3.584  0.2628 -0.0608 -0.2310
 4059SOL    HW123810   0.711   2.374   3.541  0.1681 -1.5492  1.5578
 4059SOL    HW223811   0.599   2.366   3.636  1.8619 -1.8273 -0.9576
 4060SOL     OW23812   1.915   3.230   3.678 -0.5000 -0.6535  0.7926
 4060SOL    HW123813   2.001   3.251   3.715 -0.3318  1.5146 -0.8019
 4060SOL    HW223814   1.922   3.291   3.604  1.4887 -0.7225  0.9252
 4061SOL     OW23815   4.286   0.944   9.451  0.2087 -0.0672 -0.4822
 4061SOL    HW123816   4.330   0.873   9.498 -1.1393  0.5855  1.7033
 4061SOL    HW223817   4.331   0.952   9.367 -0.7879  0.6018 -0.9473
 4062SOL     OW23818   0.442   1.927   9.589 -0.0162 -0.3425 -0.0530
 4062SOL    HW123819   0.495   1.851   9.565  0.2167 -0.3057  0.3519
 4062SOL    HW223820   0.393   1.927   9.507  1.3363  3.6773 -0.8512
 4063SOL     OW23821   1.949   3.435  10.197  0.7415  0.4328  0.1029
 4063SOL    HW123822   1.860   3.402  10.208  0.5175  0.6884 -0.9225
 4063SOL    HW223823   1.926   3.506  10.137  1.1006  0.9309  0.5541
 4064SOL     OW23824   4.572   2.011   1.600 -0.0465 -0.0905  0.2610
 4064SOL    HW123825   4.581   1.931   1.549 -1.1138  0.2824 -0.5175
 4064SOL    HW223826   4.537   1.974   1.681 -2.1335  0.1078 -0.5544
 4065SOL     OW23827   1.523   4.699   4.457  0.3189  0.7379 -0.1681
 4065SOL    HW123828   1.439   4.693   4.413 -0.0927 -0.8011  0.8006
 4065SOL    HW223829   1.533   0.049   4.489  1.5343  1.0337 -1.3866
 4066SOL     OW23830   3.061   4.433   2.635 -0.0804  0.3642 -0.0253
 4066SOL    HW123831   3.121   4.397   2.570  0.8696 -0.4512  1.3170
 4066SOL    HW223832   3.002   4.483   2.579  1.9055  2.6322 -0.0939
 4067SOL     OW23833   0.126   0.631   8.099  0.3959 -0.2546 -0.0323
 4067SOL    HW123834   0.124   0.567   8.171 -2.3594  0.8930  0.9036
 4067SOL    HW223835   0.123   0.717   8.139  0.0789 -0.5491  0.5762
 4068SOL     OW23836   2.286   4.218   6.984  0.6426 -0.4851  0.0581
 4068SOL    HW123837   2.339   4.237   7.062  1.5663 -0.3410 -0.6048
 4068SOL    HW223838   2.306   4.295   6.930  0.1426 -0.8737 -0.6650
 4069SOL     OW23839   3.070   2.338   2.752  0.4279 -0.1442  0.0743
 4069SOL    HW123840   2.981   2.328   2.717  1.1358  4.7786 -3.1889
 4069SOL    HW223841   3.074   2.407   2.819 -1.3632  1.6256 -1.6104
 4070SOL     OW23842   2.242   4.195  11.589  0.1715  0.0649 -0.4651
 4070SOL    HW123843   2.264   4.182  11.682  1.4609  0.4798 -0.7120
 4070SOL    HW223844   2.185   4.272  11.583 -0.0160  0.1411  2.0263
 4071SOL     OW23845   1.494   0.236   9.847  0.0411 -0.0217 -0.2305
 4071SOL    HW123846   1.589   0.250   9.839  0.1326 -1.1785 -1.1407
 4071SOL    HW223847   1.481   0.162   9.789 -0.0421 -0.6349  0.5790
 4072SOL     OW23848   3.015   2.567  15.389 -0.0582 -0.1535 -0.4553
 4072SOL    HW123849   3.018   2.474  15.409  0.6248  0.3398  1.7858
 4072SOL    HW223850   2.944   2.596  15.445  1.3220  0.3568  1.0356
 4073SOL     OW23851   2.348   1.547   4.157 -0.4410  0.4174 -0.0591
 4073SOL    HW123852   2.290   1.539   4.081  1.4476 -1.8676 -1.2691
 4073SOL    HW223853   2.343   1.641   4.174 -0.4495  0.2875  0.6267
 4074SOL     OW23854   0.295   3.445  12.173 -0.1514  0.4607  0.3364
 4074SOL    HW123855   0.318   3.410  12.087  2.4197  0.1767  1.1510
 4074SOL    HW223856   0.379   3.477  12.206  1.0428 -1.9615 -0.3929
 4075SOL     OW23857   2.567   4.203   2.692  0.1431  0.1793  0.5077
 4075SOL    HW123858   2.655   4.222   2.726 -0.3662 -1.1426  2.5827
 4075SOL    HW223859   2.587   4.148   2.616  0.3284  1.9978 -0.7558
 4076SOL     OW23860   2.141   3.614   7.608  0.7002 -0.0111 -0.0627
 4076SOL    HW123861   2.134   3.707   7.626 -0.4003 -0.0606 -0.2433
 4076SOL    HW223862   2.078   3.601   7.537  1.6269 -0.2521 -0.8442
 4077SOL     OW23863   2.516   0.651   3.879 -0.4239 -0.6317  0.3699
 4077SOL    HW123864   2.468   0.610   3.951 -3.5968  0.7561 -0.9936
 4077SOL    HW223865   2.559   0.732   3.907 -0.0166 -1.2781  1.6654
 4078SOL     OW23866   0.451   4.622   7.324  0.1460 -0.1881 -0.0248
 4078SOL    HW123867   0.415   4.627   7.413  1.3413  3.7290  0.2673
 4078SOL    HW223868   0.544   4.639   7.339  0.0483 -1.0593  1.5443
 4079SOL     OW23869   3.077   0.386   7.760 -0.2278 -0.5989 -0.0832
 4079SOL    HW123870   3.081   0.409   7.853 -0.1308  0.4988 -0.3637
 4079SOL    HW223871   3.168   0.394   7.731  0.2630 -1.8197  1.1301
 4080SOL     OW23872   2.310   1.386  11.366  0.5050  0.1065  0.3328
 4080SOL    HW123873   2.400   1.355  11.363  1.3550  2.4293  1.6045
 4080SOL    HW223874   2.262   1.303  11.362 -1.5452  1.3607 -1.3757
 4081SOL     OW23875   2.865   3.316   4.375 -0.4835 -0.0684 -0.1604
 4081SOL    HW123876   2.857   3.242   4.315 -0.6677 -0.6198  0.5371
 4081SOL    HW223877   2.778   3.325   4.415  0.1639  1.4437  0.9311
 4082SOL     OW23878   4.531   2.469  14.936  0.2699  0.7648 -0.0251
 4082SOL    HW123879   4.583   2.541  14.898  1.9525 -1.2774 -1.5851
 4082SOL    HW223880   4.516   2.428  14.851  0.4664 -0.3893  0.4999
 4083SOL     OW23881   1.738   3.293   7.410 -0.1694  0.2560  0.5133
 4083SOL    HW123882   1.769   3.223   7.468 -0.3986 -1.1998 -1.1473
 4083SOL    HW223883   1.681   3.242   7.352 -1.2761  1.8811  0.1719
 4084SOL     OW23884   3.257   3.530  14.320  0.3664 -0.5192  0.0976
 4084SOL    HW123885   3.321   3.601  14.327 -0.4293  0.3177 -0.9926
 4084SOL    HW223886   3.260   3.507  14.227 -0.3876  0.7942 -0.2422
 4085SOL     OW23887   3.479   3.205   8.652  0.4586  0.5316  0.2018
 4085SOL    HW123888   3.415   3.135   8.643 -0.8809  1.9819 -1.5340
 4085SOL    HW223889   3.536   3.206   8.576  1.1110 -0.7555  0.6655
 4086SOL     OW23890   3.192   3.739  10.763 -0.2831  0.0586  0.2672
 4086SOL    HW123891   3.099   3.745  10.784 -0.3340  0.9024 -0.2188
 4086SOL    HW223892   3.226   3.690  10.838  0.7286  0.4144  0.0506
 4087SOL     OW23893   4.278   3.874   6.577 -0.1753  0.0632  0.1647
 4087SOL    HW123894   4.250   3.821   6.652  0.7557  0.0875  0.5222
 4087SOL    HW223895   4.370   3.881   6.602  0.3022 -1.5291 -1.1328
 4088SOL     OW23896   2.558   0.953   2.417 -0.2709 -0.5738 -0.2415
 4088SOL    HW123897   2.476   0.928   2.375 -1.3178  1.1906  0.7346
 4088SOL    HW223898   2.622   0.936   2.348 -0.6694 -1.9561 -0.2775
 4089SOL     OW23899   3.878   3.807  10.055 -0.2631  0.5199 -0.5504
 4089SOL    HW123900   3.878   3.731   9.997  0.0845  1.0781 -1.2842
 4089SOL    HW223901   3.899   3.768  10.140  1.0668 -0.3413 -1.2674
 4090SOL     OW23902   2.633   2.616  14.526 -0.0903  0.2225 -0.4018
 4090SOL    HW123903   2.653   2.525  14.544 -3.3664 -0.6074 -0.9461
 4090SOL    HW223904   2.715   2.657  14.554 -0.9618  0.6757  1.4773
 4091SOL     OW23905   1.797   2.685   9.292 -0.7365 -0.2932 -0.0450
 4091SOL    HW123906   1.733   2.640   9.347  0.4195  0.0084  1.5478
 4091SOL    HW223907   1.868   2.702   9.353  0.3441 -3.3697 -0.4267
 4092SOL     OW23908   3.215   4.648  16.480  0.6443 -0.1161 -0.1857
 4092SOL    HW123909   3.208   0.003  16.497  0.0241 -0.3305  0.7542
 4092SOL    HW223910   3.195   4.612  16.566  1.1548 -0.1375 -0.0767
 4093SOL     OW23911   4.005   2.171  12.633  0.4784 -0.5394  0.5291
 4093SOL    HW123912   4.099   2.189  12.639  0.3586 -0.4213  1.9282
 4093SOL    HW223913   3.965   2.213  12.708 -0.6860 -0.1852 -0.2994
 4094SOL     OW23914   2.400   3.408   1.172 -0.1796  0.6031  0.2551
 4094SOL    HW123915   2.460   3.473   1.209  1.4135  0.1422 -1.5045
 4094SOL    HW223916   2.324   3.424   1.227 -0.5532  2.5264 -0.7890
 4095SOL     OW23917   4.297   2.971   3.364 -0.2140 -0.3072  0.1618
 4095SOL    HW123918   4.346   2.891   3.349  0.5320  0.0143  0.9149
 4095SOL    HW223919   4.315   3.022   3.285 -0.0036 -0.2070  0.2756
 4096SOL     OW23920   3.247   0.070   2.263 -0.2538 -0.2745 -0.2005
 4096SOL    HW123921   3.230   0.099   2.353  0.2342  1.6397 -0.7319
 4096SOL    HW223922   3.273   0.148   2.215 -2.8056  0.6107 -0.1757
 4097SOL     OW23923   1.542   0.016   1.968 -0.1929 -0.2178  0.2280
 4097SOL    HW123924   1.611   0.021   2.035 -1.4382  0.9828  1.4184
 4097SOL    HW223925   1.531   4.660   1.965  0.3346 -0.3761  3.0241
 4098SOL     OW23926   4.739   2.041   9.953  0.1549 -0.1268 -0.0711
 4098SOL    HW123927   4.712   1.997   9.872  0.2796  1.6418 -1.0574
 4098SOL    HW223928   4.654   2.071   9.984  0.7567  1.7558 -0.2715
 4099SOL     OW23929   1.162   0.238   7.631 -0.8531  0.1244  0.2862
 4099SOL    HW123930   1.066   0.241   7.628 -0.8655 -1.4494 -0.5927
 4099SOL    HW223931   1.183   0.308   7.569 -0.1193 -0.9684 -0.6880
 4100SOL     OW23932   0.581   1.358   6.323 -0.1824  0.5393 -0.0429
 4100SOL    HW123933   0.523   1.318   6.258 -0.5296  0.7597  0.1273
 4100SOL    HW223934   0.516   1.419   6.359 -0.2115  0.8167 -0.5619
 4101SOL     OW23935   4.644   2.592   8.102 -0.5406  0.0573 -0.2210
 4101SOL    HW123936   4.576   2.534   8.066 -0.4823  0.7046 -1.3638
 4101SOL    HW223937   4.589   2.643   8.161 -1.6526 -0.7298 -0.5635
 4102SOL     OW23938   1.375   4.445   2.551  0.3290 -0.6738 -0.5489
 4102SOL    HW123939   1.383   4.409   2.640 -0.2907 -2.8875 -1.3701
 4102SOL    HW223940   1.458   4.410   2.519  0.9452  0.8810 -0.6589
 4103SOL     OW23941   4.539   0.884   5.046  0.6831 -0.0166 -0.3209
 4103SOL    HW123942   4.581   0.833   4.977 -1.3103 -0.3062 -1.3147
 4103SOL    HW223943   4.568   0.971   5.018 -0.1720 -0.6471 -3.1205
 4104SOL     OW23944   3.635   2.896   8.033  0.1189 -0.0781 -0.2657
 4104SOL    HW123945   3.605   2.807   8.048 -1.9521  0.4610 -1.2643
 4104SOL    HW223946   3.635   2.926   8.124 -0.0672 -3.1585  0.7440
 4105SOL     OW23947   2.786   3.531  10.905 -0.0954 -0.3246  0.0882
 4105SOL    HW123948   2.694   3.526  10.930 -0.2254 -3.4644 -1.0673
 4105SOL    HW223949   2.794   3.438  10.884 -1.9328 -0.0814 -1.7240
 4106SOL     OW23950   0.514   3.432   3.733  0.4186  0.2606 -0.0447
 4106SOL    HW123951   0.536   3.339   3.735  2.8406  0.8898  2.4679
 4106SOL    HW223952   0.599   3.468   3.761 -0.0809 -0.0422  1.8466
 4107SOL     OW23953   4.504   4.671   9.025 -0.6923  0.5652  0.0524
 4107SOL    HW123954   4.480   4.687   9.116  1.8640 -0.5250  0.9264
 4107SOL    HW223955   4.444   4.602   8.997  1.2669 -0.9652 -0.3708
 4108SOL     OW23956   3.788   2.296   3.485  0.0278  0.6310 -0.2110
 4108SOL    HW123957   3.797   2.347   3.565 -1.9737 -0.2795  0.5889
 4108SOL    HW223958   3.773   2.205   3.510 -2.8476  1.3237  0.5845
 4109SOL     OW23959   0.794   3.375   4.978 -0.2300  0.1859 -0.2290
 4109SOL    HW123960   0.778   3.316   5.051  1.1183  2.0911  1.5839
 4109SOL    HW223961   0.709   3.411   4.951  1.0427  0.9647 -3.2233
 4110SOL     OW23962   4.376   0.563   1.603 -0.5176  0.1918 -0.2280
 4110SOL    HW123963   4.370   0.620   1.526  2.9775  0.4732 -0.2961
 4110SOL    HW223964   4.441   0.499   1.572 -1.1467 -0.9182  0.7730
 4111SOL     OW23965   2.492   4.467   7.274  0.5455 -0.0376  0.2257
 4111SOL    HW123966   2.524   4.554   7.253  1.1466 -0.6667 -1.4716
 4111SOL    HW223967   2.408   4.486   7.315  0.2141 -1.1034  0.0428
 4112SOL     OW23968   0.031   3.136   8.282  0.1581 -0.0206  0.3574
 4112SOL    HW123969   0.019   3.213   8.227 -1.9520 -0.4182  0.2271
 4112SOL    HW223970   0.051   3.171   8.369 -0.2023 -1.1605  0.9043
 4113SOL     OW23971   1.220   3.539   2.156  0.0745  0.3852 -0.3457
 4113SOL    HW123972   1.272   3.462   2.132  1.0952 -0.1012  3.4868
 4113SOL    HW223973   1.166   3.545   2.077 -1.0264  2.4463  0.5830
 4114SOL     OW23974   3.388   3.574   1.287 -0.1975  0.0919 -0.1809
 4114SOL    HW123975   3.435   3.614   1.214  0.0893 -0.1744 -0.1370
 4114SOL    HW223976   3.311   3.632   1.286 -0.8222 -0.7574 -1.2524
 4115SOL     OW23977   3.272   1.009  11.739  1.0245 -0.0322  0.2461
 4115SOL    HW123978   3.224   0.928  11.753  0.1228  0.0113 -2.7467
 4115SOL    HW223979   3.343   1.001  11.804  0.2003 -1.3961  0.9806
 4116SOL     OW23980   2.110   2.608  12.138 -0.2636  0.2668 -0.6915
 4116SOL    HW123981   2.055   2.678  12.174 -0.7999  0.6724 -2.3017
 4116SOL    HW223982   2.194   2.653  12.151  0.1794  0.1739 -3.2956
 4117SOL     OW23983   0.556   3.355  17.197 -0.1239  0.0616  0.4329
 4117SOL    HW123984   0.489   3.415  17.231 -0.6398  0.0504 -0.5776
 4117SOL    HW223985   0.512   3.333  17.115  0.3363  1.3392 -0.1559
 4118SOL     OW23986   0.262   3.474   2.390 -0.2591  0.1597 -0.8359
 4118SOL    HW123987   0.231   3.553   2.346  1.4472  0.9552 -0.5859
 4118SOL    HW223988   0.173   3.444   2.412  0.1570  1.1453  2.1156
 4119SOL     OW23989   3.225   1.645   0.862  0.1337  0.2185 -0.2809
 4119SOL    HW123990   3.185   1.569   0.821  0.0521 -1.3322  2.6929
 4119SOL    HW223991   3.205   1.625   0.953  0.4220 -0.8921 -0.4667
 4120SOL     OW23992   1.062   1.478   5.226 -0.5550  0.3021  0.7528
 4120SOL    HW123993   1.068   1.563   5.184 -0.0835  1.5009  3.2501
 4120SOL    HW223994   0.977   1.492   5.267 -0.1095  2.8501  0.8061
 4121SOL     OW23995   4.264   3.524   5.886 -0.5128 -0.2756 -0.0830
 4121SOL    HW123996   4.207   3.581   5.939  1.3298  1.1485  0.3690
 4121SOL    HW223997   4.337   3.585   5.892  0.0672 -0.7795 -2.1441
 4122SOL     OW23998   4.313   1.943  10.412 -0.4233  0.0796 -0.4800
 4122SOL    HW123999   4.347   2.032  10.425 -0.7813  0.5137 -2.3955
 4122SOL    HW224000   4.219   1.962  10.415 -0.2758  0.7137  0.1499
 4123SOL     OW24001   1.684   4.334  15.576  0.1440 -0.4385 -0.3377
 4123SOL    HW124002   1.682   4.426  15.604 -0.0282 -0.5818  0.1243
 4123SOL    HW224003   1.598   4.323  15.537 -0.1618 -0.2659  0.2857
 4124SOL     OW24004   1.481   3.263   1.657 -0.5996  0.7475 -0.1433
 4124SOL    HW124005   1.456   3.180   1.616 -1.7567  0.9548  0.1464
 4124SOL    HW224006   1.448   3.260   1.747 -1.7629 -2.9602 -0.7041
 4125SOL     OW24007   4.284   1.761   1.774  0.5201 -0.3029  0.1175
 4125SOL    HW124008   4.345   1.809   1.830 -1.0108  3.3591 -1.3544
 4125SOL    HW224009   4.345   1.713   1.718 -0.2881 -1.0511 -0.1279
 4126SOL     OW24010   1.433   1.922   4.928  0.1971  0.8147 -0.4172
 4126SOL    HW124011   1.350   1.936   4.883 -0.9237 -1.1233  1.0724
 4126SOL    HW224012   1.410   1.871   5.006 -1.4029  2.1006 -0.0565
 4127SOL     OW24013   2.872   2.361   6.018  0.3995  0.1947  0.6621
 4127SOL    HW124014   2.786   2.320   6.019 -0.6798  2.4311 -1.6176
 4127SOL    HW224015   2.840   2.450   6.028  0.1643  0.1771  0.0532
 4128SOL     OW24016   3.934   2.435  10.877 -0.1998  0.1078 -0.4990
 4128SOL    HW124017   3.962   2.345  10.862  0.7061  0.3725 -0.3803
 4128SOL    HW224018   4.008   2.475  10.923 -0.6293  0.8555 -0.4446
 4129SOL     OW24019   0.618   2.284   7.384  0.1558  0.2012  0.1235
 4129SOL    HW124020   0.525   2.271   7.403 -0.3067  4.1325  0.4470
 4129SOL    HW224021   0.607   2.322   7.297  1.2165 -1.2585 -0.6476
 4130SOL     OW24022   4.017   1.946   8.943 -0.0665 -0.2466  0.6468
 4130SOL    HW124023   3.977   2.010   9.002  1.1570  0.9574  0.1468
 4130SOL    HW224024   3.942   1.886   8.945 -1.5745  1.6545  1.4274
 4131SOL     OW24025   0.616   0.416  12.109  0.0194 -0.2397 -0.0964
 4131SOL    HW124026   0.539   0.366  12.082 -1.5601  1.9076  0.3793
 4131SOL    HW224027   0.579   0.498  12.143  1.0767  0.5024 -0.7490
 4132SOL     OW24028   0.692   3.335   0.313  0.3766 -0.2202  0.1014
 4132SOL    HW124029   0.702   3.366   0.402  1.3991  0.7409 -0.3481
 4132SOL    HW224030   0.762   3.269   0.312 -0.4156 -1.0536 -0.8486
 4133SOL     OW24031   2.294   3.828  14.204 -0.5149 -0.3237  0.2033
 4133SOL    HW124032   2.344   3.836  14.123  0.2031  1.4878  0.8142
 4133SOL    HW224033   2.209   3.808  14.167 -1.7487 -0.8598  3.3288
 4134SOL     OW24034   3.236   0.447   8.848 -0.0658  0.0224  0.4835
 4134SOL    HW124035   3.161   0.460   8.907 -0.3474  2.9671 -0.5052
 4134SOL    HW224036   3.242   0.535   8.811 -0.5940  0.1775  0.7636
 4135SOL     OW24037   2.431   2.359   5.967  0.3757 -0.2580  0.1740
 4135SOL    HW124038   2.344   2.370   6.004 -0.3422 -0.6404 -1.3873
 4135SOL    HW224039   2.424   2.406   5.883 -1.4556  0.1425  0.5658
 4136SOL     OW24040   4.458   0.283  12.361  0.0763  0.3009 -0.2224
 4136SOL    HW124041   4.547   0.296  12.394  0.0097 -0.3099  0.1934
 4136SOL    HW224042   4.478   0.264  12.269  1.4505 -1.5212  0.4453
 4137SOL     OW24043   2.909   3.385  13.730 -0.2690  0.2048  0.1156
 4137SOL    HW124044   2.842   3.442  13.692  0.8123  0.0280 -2.0560
 4137SOL    HW224045   2.890   3.303  13.684  0.9050  0.1458 -0.2631
 4138SOL     OW24046   0.546   2.143   8.250 -0.0963  0.2567 -0.2210
 4138SOL    HW124047   0.508   2.229   8.229  2.4084  0.8163 -2.5678
 4138SOL    HW224048   0.640   2.161   8.243 -0.4075  2.1896  0.5882
 4139SOL     OW24049   3.925   2.173   0.634  0.0556  0.5349  0.2575
 4139SOL    HW124050   4.009   2.128   0.631 -0.5094 -0.5161  0.0352
 4139SOL    HW224051   3.884   2.154   0.549  2.3932 -0.4813 -0.6344
 4140SOL     OW24052   1.960   2.769   6.568 -0.3443  1.0643 -0.3538
 4140SOL    HW124053   1.885   2.730   6.524  1.2830 -0.8607 -1.4593
 4140SOL    HW224054   2.044   2.749   6.526  1.4703  0.5666  3.5042
 4141SOL     OW24055   1.675   3.297   4.495 -0.1301 -0.6231 -0.1827
 4141SOL    HW124056   1.586   3.282   4.528  0.2982 -1.0050  0.7786
 4141SOL    HW224057   1.705   3.379   4.533  0.6215 -0.9133 -0.1661
 4142SOL     OW24058   2.018   0.180  11.712 -0.5894  0.3742 -0.1922
 4142SOL    HW124059   2.013   0.275  11.721  0.5337  0.4542 -0.4688
 4142SOL    HW224060   1.947   0.154  11.653 -1.1381 -0.4463  0.8204
 4143SOL     OW24061   2.599   1.860   7.380  0.1295  0.5014  0.3168
 4143SOL    HW124062   2.581   1.906   7.462 -1.3596 -2.0555  1.4116
 4143SOL    HW224063   2.533   1.792   7.377 -0.0076  0.7057 -1.3016
 4144SOL     OW24064   3.898   0.340   5.697 -0.1748  0.0766  0.0384
 4144SOL    HW124065   3.913   0.257   5.651 -2.2664  0.1681 -0.8179
 4144SOL    HW224066   3.819   0.369   5.651  0.3372  2.8666  0.9024
 4145SOL     OW24067   2.827   1.635   7.902  0.1245 -0.1440  1.0381
 4145SOL    HW124068   2.769   1.586   7.844  2.2659 -1.0684 -0.2886
 4145SOL    HW224069   2.811   1.586   7.983  1.8433 -0.1155  1.4061
 4146SOL     OW24070   2.114   1.054   8.395  0.9455 -0.4760  0.1285
 4146SOL    HW124071   2.087   1.086   8.481 -0.9027 -2.5275  0.3254
 4146SOL    HW224072   2.120   1.138   8.350 -1.7130 -2.6443 -4.2953
 4147SOL     OW24073   0.920   1.634   2.535 -0.5888 -0.4239 -0.6363
 4147SOL    HW124074   0.931   1.582   2.615 -3.7372 -1.3226 -0.8040
 4147SOL    HW224075   1.001   1.686   2.538 -3.5785  4.0707  0.5649
 4148SOL     OW24076   2.389   2.753   9.025  0.3370  0.0329 -0.7099
 4148SOL    HW124077   2.457   2.710   8.974  1.0540 -0.3327  0.5636
 4148SOL    HW224078   2.443   2.819   9.068 -1.2189  0.7330  0.1735
 4149SOL     OW24079   0.853   2.307   2.818 -0.2636 -0.6543 -0.3287
 4149SOL    HW124080   0.914   2.370   2.856  1.1597 -2.7723  0.8591
 4149SOL    HW224081   0.907   2.257   2.757  0.4311 -1.3824  0.8846
 4150SOL     OW24082   0.386   1.926   2.546  0.5521 -0.3109 -0.6155
 4150SOL    HW124083   0.349   1.917   2.634  3.8354 -0.7199  0.7298
 4150SOL    HW224084   0.471   1.889   2.571  0.5193  0.7530  1.0586
 4151SOL     OW24085   4.642   2.499  12.754 -0.2841 -0.3007  0.1942
 4151SOL    HW124086   4.608   2.519  12.841 -2.2684  0.9276 -0.8783
 4151SOL    HW224087   4.635   2.582  12.707  2.1403  0.5572  1.3361
 4152SOL     OW24088   0.675   1.347   7.983  0.3035  0.1575  0.3059
 4152SOL    HW124089   0.617   1.404   8.034  1.4600  0.3663  1.3870
 4152SOL    HW224090   0.633   1.267   8.015  1.2618  0.0861  1.3784
 4153SOL     OW24091   0.582   2.924  12.673  0.1379  0.0253  0.6323
 4153SOL    HW124092   0.667   2.964  12.695  0.3796 -1.1894  1.9559
 4153SOL    HW224093   0.604   2.832  12.659  2.1683  0.4312  1.0413
 4154SOL     OW24094   4.033   3.750   6.472  0.2607  0.3750 -0.4005
 4154SOL    HW124095   4.100   3.780   6.534 -1.3341  1.8542  0.6431
 4154SOL    HW224096   4.031   3.825   6.412 -0.6244 -0.3876 -1.3223
 4155SOL     OW24097   3.639   3.856   5.296 -0.0581 -0.3833  0.1537
 4155SOL    HW124098   3.608   3.819   5.213 -2.1404 -1.1468  1.2767
 4155SOL    HW224099   3.643   3.949   5.276 -2.0831  0.1324  2.2460
 4156SOL     OW24100   3.000   3.334   9.592 -0.3462  0.1705 -0.6705
 4156SOL    HW124101   3.013   3.427   9.608  0.2466 -0.0798  0.3242
 4156SOL    HW224102   2.958   3.297   9.670 -1.6916  0.0932 -1.4225
 4157SOL     OW24103   3.626   1.793  12.480 -0.3737 -0.5292 -0.4790
 4157SOL    HW124104   3.530   1.790  12.485 -0.4231 -1.0795 -1.6910
 4157SOL    HW224105   3.641   1.887  12.477 -1.2349 -0.3131  1.9079
 4158SOL     OW24106   4.487   0.957  12.749 -0.1192 -0.0522  0.3618
 4158SOL    HW124107   4.530   1.042  12.741 -2.0782  0.6891 -2.5058
 4158SOL    HW224108   4.552   0.910  12.801  2.5083  3.2413  0.0834
 4159SOL     OW24109   1.207   1.421   7.183  0.3639 -0.1212  0.6945
 4159SOL    HW124110   1.264   1.345   7.190  1.1831  0.7110  3.0259
 4159SOL    HW224111   1.267   1.492   7.208 -0.5002  1.4610 -1.7193
 4160SOL     OW24112   1.278   3.969   8.188 -0.1793  0.0561 -0.0681
 4160SOL    HW124113   1.215   4.022   8.238  2.2146  0.8142  2.1848
 4160SOL    HW224114   1.295   3.900   8.252  1.2311  2.1756  1.8623
 4161SOL     OW24115   1.414   1.137  13.508 -0.3700  0.0501  0.4276
 4161SOL    HW124116   1.436   1.217  13.459  0.8883 -0.2872  0.4359
 4161SOL    HW224117   1.491   1.081  13.512  1.4207  2.4117 -0.6492
 4162SOL     OW24118   0.892   0.403   3.903  0.3007 -0.1372  0.9716
 4162SOL    HW124119   0.972   0.445   3.872 -0.8645  1.6392  0.4249
 4162SOL    HW224120   0.825   0.444   3.850  1.5228 -0.1165 -0.5655
 4163SOL     OW24121   2.770   0.923   4.224  0.3655  0.1905  0.6710
 4163SOL    HW124122   2.715   0.850   4.197  0.8803  0.6336 -1.6232
 4163SOL    HW224123   2.856   0.884   4.239 -0.6731 -2.0372  0.7787
 4164SOL     OW24124   2.919   3.998   4.738 -0.7669  0.5246  0.0712
 4164SOL    HW124125   2.934   3.913   4.781  1.2917  0.8995  0.0783
 4164SOL    HW224126   2.961   3.991   4.653  0.6916 -3.7977  1.1457
 4165SOL     OW24127   2.910   2.718   3.147  0.3974  0.5317 -0.1985
 4165SOL    HW124128   2.881   2.636   3.187  1.1186  0.3862  0.0260
 4165SOL    HW224129   2.826   2.756   3.119 -0.4816 -0.6018  0.9213
 4166SOL     OW24130   4.172   1.341   6.839 -0.2797 -0.4581  0.3820
 4166SOL    HW124131   4.120   1.275   6.793  0.2972 -0.1280 -0.7533
 4166SOL    HW224132   4.153   1.315   6.929  1.4298  0.6285  1.0419
 4167SOL     OW24133   3.724   4.096   8.451 -0.5438 -0.6754 -0.3555
 4167SOL    HW124134   3.810   4.136   8.461  0.7084 -2.8420 -2.6962
 4167SOL    HW224135   3.748   4.005   8.436 -1.2561 -0.8295 -0.5956
 4168SOL     OW24136   0.097   2.052   9.664 -0.3807  0.3399 -0.2933
 4168SOL    HW124137   0.094   2.023   9.572  0.7370  0.6591 -0.4344
 4168SOL    HW224138   0.082   1.969   9.709  0.2079 -0.7274 -2.0054
 4169SOL     OW24139   0.080   2.123   5.144  0.2557  0.5564  0.4695
 4169SOL    HW124140   0.110   2.159   5.228 -1.0740  0.1720  1.0964
 4169SOL    HW224141   0.102   2.031   5.158  2.3780  0.6695 -2.0824
 4170SOL     OW24142   1.420   4.199   5.231  0.3804 -0.0962  0.3051
 4170SOL    HW124143   1.491   4.142   5.261  0.4681  0.5963  1.4294
 4170SOL    HW224144   1.393   4.168   5.145 -2.8976  0.7397  1.0662
 4171SOL     OW24145   1.178   4.333   4.270 -0.1118 -0.7825  0.3864
 4171SOL    HW124146   1.269   4.307   4.282  0.0253 -0.5748 -0.2225
 4171SOL    HW224147   1.145   4.302   4.355  0.0812  0.6925  1.0007
 4172SOL     OW24148   1.489   0.661   7.359  0.0093  0.5330  0.2136
 4172SOL    HW124149   1.555   0.728   7.373 -1.7816  2.6321 -1.3690
 4172SOL    HW224150   1.455   0.694   7.276  1.8352 -0.2849 -0.8775
 4173SOL     OW24151   4.735   3.472   9.680  0.3061  0.3063 -0.4756
 4173SOL    HW124152   0.016   3.407   9.613 -1.5325 -1.0464  0.2751
 4173SOL    HW224153   4.641   3.486   9.668 -0.0046 -1.2137  0.1639
 4174SOL     OW24154   4.171   2.321   9.711  1.0387 -0.0811  0.0627
 4174SOL    HW124155   4.211   2.251   9.659 -0.3853 -1.6148  1.0358
 4174SOL    HW224156   4.243   2.370   9.751 -0.6291  1.5085  1.1311
 4175SOL     OW24157   3.735   2.000   5.800  0.4019 -0.0795  0.2900
 4175SOL    HW124158   3.737   2.053   5.721  0.8495  1.3923  1.2887
 4175SOL    HW224159   3.827   2.011   5.825  0.8245  0.1329 -1.3668
 4176SOL     OW24160   4.665   0.839   7.009  0.2108  0.7599 -0.2391
 4176SOL    HW124161   4.583   0.791   7.002  1.4781 -1.5343  0.4209
 4176SOL    HW224162   4.667   0.860   7.102  0.0951  1.7363 -0.4606
 4177SOL     OW24163   1.313   2.904   2.862  0.1146  0.1111  0.2262
 4177SOL    HW124164   1.403   2.924   2.837  0.7030 -0.0612  2.2039
 4177SOL    HW224165   1.267   2.928   2.781 -0.3365  0.4179  0.5734
 4178SOL     OW24166   0.022   0.381  16.644  0.1035 -0.2335 -0.2047
 4178SOL    HW124167   4.668   0.361  16.649  0.4238 -1.4747  0.6543
 4178SOL    HW224168   0.035   0.399  16.737  0.6853 -1.9258  0.0455
 4179SOL     OW24169   4.698   3.461   4.122  0.3362  0.2496  0.2675
 4179SOL    HW124170   4.707   3.447   4.028  1.3335  2.8879 -0.0172
 4179SOL    HW224171   4.681   3.371   4.151  1.1803  0.8905  2.7808
 4180SOL     OW24172   1.069   2.437   7.616 -0.0200  0.0543 -0.3757
 4180SOL    HW124173   1.059   2.475   7.529  2.4650  0.7227 -0.3688
 4180SOL    HW224174   1.141   2.490   7.652 -1.5143  0.9977  1.2264
 4181SOL     OW24175   3.654   4.192   6.856  0.1125  0.1387 -0.7591
 4181SOL    HW124176   3.719   4.240   6.907  0.1151 -1.4867  0.7644
 4181SOL    HW224177   3.612   4.150   6.931  0.3256  0.4526 -0.4626
 4182SOL     OW24178   0.177   0.142   1.756 -0.0745  0.1400 -0.1286
 4182SOL    HW124179   0.099   0.092   1.782 -0.7263  1.5268  0.5815
 4182SOL    HW224180   0.203   0.186   1.837  1.7098 -0.1756 -0.5368
 4183SOL     OW24181   1.710   0.694   5.368  0.5464  0.0777 -0.1846
 4183SOL    HW124182   1.796   0.716   5.331 -0.6427  2.0923 -1.7698
 4183SOL    HW224183   1.656   0.720   5.293  0.6612 -1.2387 -0.7290
 4184SOL     OW24184   0.392   4.632   4.748  0.2146 -0.4025 -0.6627
 4184SOL    HW124185   0.301   4.605   4.747  0.5063 -1.2747 -3.0103
 4184SOL    HW224186   0.395   4.695   4.676  2.2528 -0.3118 -0.5099
 4185SOL     OW24187   1.546   3.306  14.945 -0.2403  0.1628  0.1451
 4185SOL    HW124188   1.641   3.299  14.944 -0.3028 -0.7317  1.0503
 4185SOL    HW224189   1.526   3.251  14.869  0.4832  0.1343 -0.0233
 4186SOL     OW24190   4.642   0.835   1.427  0.2435  0.0247  0.0950
 4186SOL    HW124191   4.738   0.836   1.427  0.2412  0.2031 -0.6275
 4186SOL    HW224192   4.622   0.775   1.356  1.2626  0.3367 -0.4465
 4187SOL     OW24193   1.318   1.691   5.040  0.2158 -0.2861  0.0289
 4187SOL    HW124194   1.331   1.694   4.945  1.1605 -1.4150  0.1180
 4187SOL    HW224195   1.380   1.622   5.063  1.3339  0.2452 -1.3662
 4188SOL     OW24196   4.383   3.555   9.207 -0.9959 -0.4863  0.1834
 4188SOL    HW124197   4.304   3.535   9.157  0.3855 -0.5907 -1.9325
 4188SOL    HW224198   4.362   3.567   9.300  2.1058 -0.4878  0.8879
 4189SOL     OW24199   1.730   1.055   9.557  0.1410 -0.3593 -0.2586
 4189SOL    HW124200   1.681   1.129   9.520  0.3521  1.7366  3.6802
 4189SOL    HW224201   1.822   1.083   9.547  0.7075 -1.7479  1.0881
 4190SOL     OW24202   3.687   1.138   9.252 -0.3466 -0.1913  0.0797
 4190SOL    HW124203   3.741   1.154   9.329 -0.7419  1.7430 -0.0492
 4190SOL    HW224204   3.653   1.049   9.265  1.0588 -1.1463 -2.8680
 4191SOL     OW24205   3.279   1.851  10.589 -0.4341  0.1385  0.3474
 4191SOL    HW124206   3.318   1.777  10.635  0.1166  0.8060  0.9591
 4191SOL    HW224207   3.188   1.823  10.582 -0.2056 -0.7901  1.1035
 4192SOL     OW24208   2.260   1.148   2.855 -0.1307 -0.3347 -0.9822
 4192SOL    HW124209   2.303   1.085   2.914 -1.7504 -0.4559  0.0790
 4192SOL    HW224210   2.330   1.210   2.833 -0.6224  0.6358  0.1843
 4193SOL     OW24211   0.842   1.030   8.761 -0.1121 -0.4607 -0.7178
 4193SOL    HW124212   0.809   0.973   8.691  1.4202 -0.9942 -0.9991
 4193SOL    HW224213   0.934   1.004   8.762  0.3219  1.1377 -0.4309
 4194SOL     OW24214   0.317   0.781   8.617 -0.2897  0.8992 -0.3572
 4194SOL    HW124215   0.299   0.872   8.590 -1.1210  1.2351  1.3183
 4194SOL    HW224216   0.392   0.754   8.565  0.5588  1.7580  0.4280
 4195SOL     OW24217   4.141   1.573  14.563 -0.3949 -0.1307 -0.2892
 4195SOL    HW124218   4.077   1.626  14.516 -0.0409 -0.2297 -0.8939
 4195SOL    HW224219   4.090   1.492  14.571  0.3819 -0.5882  0.0933
 4196SOL     OW24220   1.433   0.721   5.609  0.7254  0.1681 -0.0584
 4196SOL    HW124221   1.404   0.739   5.519 -1.1334 -0.4617  0.4344
 4196SOL    HW224222   1.351   0.687   5.644  0.6223 -0.6069 -1.0510
 4197SOL     OW24223   2.406   0.871   9.577 -1.1442  0.6817  0.1817
 4197SOL    HW124224   2.394   0.918   9.659 -1.9244  0.6248  0.0994
 4197SOL    HW224225   2.499   0.849   9.576 -1.7493 -1.9424  0.2631
 4198SOL     OW24226   4.182   0.463  15.853  0.3741 -0.3468  0.0577
 4198SOL    HW124227   4.122   0.488  15.923 -2.0201  1.2994 -2.5764
 4198SOL    HW224228   4.126   0.460  15.776  1.1925 -1.7247 -0.4887
 4199SOL     OW24229   0.309   1.125   9.665  0.4474  0.5527  0.1778
 4199SOL    HW124230   0.272   1.109   9.751  0.0875 -2.4900 -0.5411
 4199SOL    HW224231   0.256   1.202   9.642 -1.3917 -1.2406 -1.5266
 4200SOL     OW24232   4.172   0.193   1.094  0.5411 -0.2516  0.2564
 4200SOL    HW124233   4.103   0.130   1.114 -2.2307  2.5024 -0.6286
 4200SOL    HW224234   4.140   0.261   1.154  2.0627  0.5018  0.2039
 4201SOL     OW24235   1.061   3.537   6.936 -0.3264  0.0179 -0.2108
 4201SOL    HW124236   1.146   3.549   6.978 -0.6548  2.5644 -0.2658
 4201SOL    HW224237   1.046   3.442   6.944  1.3628 -0.1123  1.3792
 4202SOL     OW24238   4.598   2.160   9.544  0.1237  0.3105  0.7641
 4202SOL    HW124239   4.533   2.092   9.562  1.7244 -1.4348 -0.0035
 4202SOL    HW224240   4.671   2.117   9.588  0.3827  1.6828  1.6928
 4203SOL     OW24241   3.413   2.599  16.370 -0.0812  0.3938 -0.0506
 4203SOL    HW124242   3.346   2.624  16.306  0.6218  0.4730 -0.7646
 4203SOL    HW224243   3.469   2.549  16.310 -0.8271 -0.4615 -0.0441
 4204SOL     OW24244   0.805   0.010   9.524  0.2009 -0.1376  0.7777
 4204SOL    HW124245   0.768   0.073   9.586 -0.2542  1.3039 -0.9620
 4204SOL    HW224246   0.784   0.052   9.440  0.2501  1.4922  1.5844
 4205SOL     OW24247   3.966   1.107   6.792  0.0560 -0.2748  0.1135
 4205SOL    HW124248   3.972   1.105   6.697  0.2802  1.0046  0.0936
 4205SOL    HW224249   3.995   1.020   6.819 -1.9836 -0.8987  0.3030
 4206SOL     OW24250   3.473   0.683   7.136  0.3488  0.1283 -1.0175
 4206SOL    HW124251   3.428   0.763   7.110  2.1749  1.6707  0.6380
 4206SOL    HW224252   3.554   0.718   7.172 -0.4363  1.3901 -0.4596
 4207SOL     OW24253   2.393   4.486   5.129  0.0306  0.0966  0.1338
 4207SOL    HW124254   2.411   4.543   5.203 -0.5002  1.2147 -0.5995
 4207SOL    HW224255   2.326   4.539   5.085  0.0125 -0.6390 -0.7347
 4208SOL     OW24256   0.096   3.087   2.256 -0.3733  0.2655  0.0368
 4208SOL    HW124257   0.038   3.136   2.198 -0.6405 -0.5498 -0.3802
 4208SOL    HW224258   0.177   3.131   2.232  0.6134 -1.5756  0.0168
 4209SOL     OW24259   2.131   4.164   3.467  0.4039 -0.1673 -0.2897
 4209SOL    HW124260   2.193   4.094   3.449 -0.0334 -0.4450 -0.6982
 4209SOL    HW224261   2.059   4.126   3.417  0.1319 -0.4500  0.3139
 4210SOL     OW24262   0.407   2.843  14.367  0.1419  0.5599  0.0231
 4210SOL    HW124263   0.346   2.833  14.440 -1.2432  0.6100 -1.1208
 4210SOL    HW224264   0.345   2.838  14.294 -0.4943  1.2048  0.5247
 4211SOL     OW24265   3.563   3.644  11.522 -0.4188  0.2112 -1.3735
 4211SOL    HW124266   3.522   3.727  11.546  0.3723  0.3648 -0.5623
 4211SOL    HW224267   3.582   3.655  11.429 -1.8569  2.2326 -1.4100
 4212SOL     OW24268   2.286   1.296   1.230 -0.2839  0.0295 -0.1884
 4212SOL    HW124269   2.253   1.303   1.320  1.0288 -2.1063  0.4726
 4212SOL    HW224270   2.234   1.369   1.197 -0.5516 -0.0117  0.1393
 4213SOL     OW24271   1.833   2.750   2.787  0.0325 -0.0469  0.0719
 4213SOL    HW124272   1.861   2.793   2.707  0.2170  0.1729  0.2522
 4213SOL    HW224273   1.777   2.816   2.829 -0.7177 -0.0421 -0.9389
 4214SOL     OW24274   4.565   0.993   8.113  0.0810 -0.1084 -0.1911
 4214SOL    HW124275   4.517   1.024   8.190 -0.4830 -0.3876 -0.4299
 4214SOL    HW224276   4.501   0.938   8.068 -0.7535  0.9435 -0.3062
 4215SOL     OW24277   3.884   1.901   0.737  0.0959 -0.0215 -0.4370
 4215SOL    HW124278   3.886   1.992   0.767 -0.4871  0.9565 -3.3322
 4215SOL    HW224279   3.938   1.858   0.803 -1.2111 -1.4988 -0.3192
 4216SOL     OW24280   3.028   0.935   4.593 -0.4310 -0.2810  0.3226
 4216SOL    HW124281   3.101   0.971   4.642 -1.0603 -1.3586  2.0443
 4216SOL    HW224282   2.995   1.018   4.558  0.6962 -0.0706 -0.2447
 4217SOL     OW24283   1.167   3.841   9.762  0.3614 -0.0237 -0.5683
 4217SOL    HW124284   1.103   3.884   9.819 -0.4379  1.0329 -2.2616
 4217SOL    HW224285   1.120   3.758   9.753  0.0899  0.0425  0.2033
 4218SOL     OW24286   0.428   0.297   1.426  0.7070 -0.8022  0.2312
 4218SOL    HW124287   0.453   0.309   1.335 -0.0281  0.8647  0.2471
 4218SOL    HW224288   0.427   0.202   1.438 -0.0309 -0.7549  0.5445
 4219SOL     OW24289   2.480   1.185   6.874  0.0794  0.3646 -0.0054
 4219SOL    HW124290   2.539   1.250   6.913  0.3391 -0.0413  0.2845
 4219SOL    HW224291   2.523   1.161   6.792 -0.4671 -0.6917  0.0263
 4220SOL     OW24292   1.812   2.209   2.590  0.3101 -0.4682 -0.1628
 4220SOL    HW124293   1.866   2.180   2.516 -1.3642  1.7993 -2.2968
 4220SOL    HW224294   1.881   2.235   2.650  1.4540  1.3581 -2.2585
 4221SOL     OW24295   0.249   2.754   4.148 -0.1507  0.0628 -1.0079
 4221SOL    HW124296   0.318   2.691   4.126  0.8199  0.0851  1.9548
 4221SOL    HW224297   0.277   2.784   4.234 -0.2487  1.2673 -1.4050
 4222SOL     OW24298   0.082   0.238   5.796 -0.6005  0.4742 -0.3722
 4222SOL    HW124299   0.105   0.305   5.860  1.7391  0.1909 -0.9004
 4222SOL    HW224300   0.132   0.161   5.825  0.7927  1.4784 -0.0822
 4223SOL     OW24301   2.654   3.723   5.026 -0.0513  0.1507 -0.0691
 4223SOL    HW124302   2.588   3.655   5.014 -0.1669  0.4881 -1.2417
 4223SOL    HW224303   2.615   3.793   4.974 -1.5175  0.2394  1.1525
 4224SOL     OW24304   0.731   2.349  17.540 -0.4860  0.8973 -0.0478
 4224SOL    HW124305   0.739   2.261  17.503 -1.5468  0.0829  1.6658
 4224SOL    HW224306   0.674   2.391  17.475  0.0063  1.6776  0.0279
 4225SOL     OW24307   3.708   1.018   5.520 -0.2326 -0.2203  0.5030
 4225SOL    HW124308   3.629   0.966   5.508 -1.4104  2.4024 -3.2550
 4225SOL    HW224309   3.749   0.980   5.598  2.7878  2.4633  0.2218
 4226SOL     OW24310   3.066   2.294   8.300 -0.1384  0.1257  0.0902
 4226SOL    HW124311   3.055   2.199   8.305 -0.2848  0.0853 -1.0096
 4226SOL    HW224312   3.060   2.298   8.205  1.6652  1.2591  0.0243
 4227SOL     OW24313   3.321   4.268   2.853  0.2825 -0.6510 -0.6916
 4227SOL    HW124314   3.324   4.257   2.948  0.2999 -0.8938 -0.7205
 4227SOL    HW224315   3.281   4.189   2.817 -0.6442 -1.5117  2.1965
 4228SOL     OW24316   1.919   2.512   3.954 -0.3245  0.4727 -0.3916
 4228SOL    HW124317   1.977   2.441   3.926 -1.7773 -1.0540  0.4732
 4228SOL    HW224318   1.869   2.480   4.028  0.7253 -1.9281 -0.7150
 4229SOL     OW24319   1.370   4.579   4.923  0.2617  0.3626 -0.1703
 4229SOL    HW124320   1.387   4.518   4.851 -1.1475 -1.4964  1.0962
 4229SOL    HW224321   1.342   4.514   4.987  4.0238 -0.8785  0.2392
 4230SOL     OW24322   4.202   3.953   0.418  0.0058 -0.0562  0.1317
 4230SOL    HW124323   4.140   4.025   0.430  1.3140  0.9896  0.6767
 4230SOL    HW224324   4.150   3.886   0.374  1.1048 -0.1673 -0.9931
 4231SOL     OW24325   3.364   0.148  14.776 -0.3526  0.5858 -0.5747
 4231SOL    HW124326   3.372   0.170  14.683  0.3492  3.9070  0.2794
 4231SOL    HW224327   3.319   0.063  14.776  0.0354  0.3855  0.9779
 4232SOL     OW24328   3.195   1.542   5.406 -0.2308  0.6485  0.2920
 4232SOL    HW124329   3.213   1.635   5.419 -1.1799  0.6686  1.4941
 4232SOL    HW224330   3.117   1.555   5.352 -1.2136 -0.3577  1.4593
 4233SOL     OW24331   1.962   3.222   4.087 -0.5996  0.2303 -0.6564
 4233SOL    HW124332   1.998   3.304   4.053  1.7299  0.6208  2.6799
 4233SOL    HW224333   1.909   3.253   4.161 -0.4777  0.2811 -0.5903
 4234SOL     OW24334   3.498   0.389   3.794 -0.0378  0.9848 -0.0200
 4234SOL    HW124335   3.407   0.369   3.770  0.5728 -0.8511 -0.7696
 4234SOL    HW224336   3.491   0.427   3.881 -2.3330  0.6063 -0.0358
 4235SOL     OW24337   0.522   1.906   3.649  0.0385 -0.1236 -0.4999
 4235SOL    HW124338   0.580   1.881   3.577 -2.0729  0.1499 -2.3006
 4235SOL    HW224339   0.456   1.840   3.630 -2.5106  1.7647  1.7464
 4236SOL     OW24340   0.738   2.377   4.412 -0.3471  0.1535 -0.2858
 4236SOL    HW124341   0.783   2.424   4.342  0.8239  0.6748  0.8214
 4236SOL    HW224342   0.797   2.393   4.486  1.7931  0.8836 -2.1485
 4237SOL     OW24343   2.420   0.140   6.590  0.6125 -0.4736 -0.2847
 4237SOL    HW124344   2.432   0.101   6.676  2.0866  0.0136 -0.2639
 4237SOL    HW224345   2.507   0.149   6.551 -1.0537 -1.5646 -4.2506
 4238SOL     OW24346   3.210   1.293  14.524 -0.3212  0.1523 -0.2323
 4238SOL    HW124347   3.143   1.350  14.486 -0.1842  0.0410 -0.6392
 4238SOL    HW224348   3.268   1.364  14.554  0.5105 -1.8614  2.9126
 4239SOL     OW24349   3.010   3.232   8.818 -0.2353  0.6166 -0.1483
 4239SOL    HW124350   3.013   3.223   8.913 -0.9053 -0.7561 -0.2657
 4239SOL    HW224351   3.097   3.207   8.785 -0.6366  0.2308 -0.8914
 4240SOL     OW24352   2.709   4.314  14.059 -0.4839 -0.3160  0.6463
 4240SOL    HW124353   2.702   4.219  14.054  0.8416 -0.4213  0.6039
 4240SOL    HW224354   2.737   4.321  14.150  0.6664 -1.5925  0.3998
 4241SOL     OW24355   0.354   2.765   6.663 -0.6112 -0.1589 -0.1296
 4241SOL    HW124356   0.448   2.782   6.653 -0.3199 -2.3727 -1.2250
 4241SOL    HW224357   0.312   2.846   6.634  2.9544  0.7051 -2.8601
 4242SOL     OW24358   0.344   0.475   2.028 -0.1069 -0.7250 -1.0753
 4242SOL    HW124359   0.310   0.514   1.947  0.2932  0.4190 -0.7009
 4242SOL    HW224360   0.288   0.399   2.042 -0.0253 -0.4746  0.5802
 4243SOL     OW24361   3.482   4.387   8.008  0.3492 -0.1124  0.1088
 4243SOL    HW124362   3.397   4.398   8.052 -0.0798 -0.0059 -0.7363
 4243SOL    HW224363   3.489   4.437   7.927  0.2575  1.0679  0.8247
 4244SOL     OW24364   4.295   0.101   6.837 -0.1342 -0.1176 -0.4241
 4244SOL    HW124365   4.311   0.033   6.771  0.8822 -0.3894  0.0918
 4244SOL    HW224366   4.366   0.159   6.809 -0.1305 -1.1081 -2.4136
 4245SOL     OW24367   0.737   1.196   3.535  0.1455  0.4549 -0.5528
 4245SOL    HW124368   0.792   1.273   3.549  1.9011 -0.6357 -1.4257
 4245SOL    HW224369   0.701   1.222   3.450 -1.1538 -0.1060 -0.1717
 4246SOL     OW24370   2.483   0.650   6.925 -0.5820 -0.3655  0.4143
 4246SOL    HW124371   2.552   0.716   6.923 -0.8866 -0.0507  0.2763
 4246SOL    HW224372   2.523   0.572   6.887 -1.6678 -0.7606  0.0618
 4247SOL     OW24373   3.797   2.873  13.937 -0.0629 -0.2255 -0.2482
 4247SOL    HW124374   3.823   2.964  13.952  1.4786 -0.9770  1.6834
 4247SOL    HW224375   3.844   2.832  14.010  1.6347  1.8075 -0.1692
 4248SOL     OW24376   1.198   2.635   8.322  0.4125  0.5727  0.2392
 4248SOL    HW124377   1.167   2.725   8.321 -1.4049 -0.0420 -0.0326
 4248SOL    HW224378   1.194   2.630   8.417 -1.0495  1.1688  0.2149
 4249SOL     OW24379   1.582   1.338  14.120 -0.0343 -0.2893 -0.2588
 4249SOL    HW124380   1.666   1.378  14.143 -0.7337  0.4058  1.0955
 4249SOL    HW224381   1.542   1.410  14.073  0.1339 -0.5874 -0.8635
 4250SOL     OW24382   1.878   4.384   4.356  0.6270 -0.3718  0.3764
 4250SOL    HW124383   1.819   4.311   4.375  1.1465 -0.7929  0.3745
 4250SOL    HW224384   1.962   4.342   4.338  0.9390  0.5471 -0.3402
 4251SOL     OW24385   3.396   1.549   4.438 -0.5227  0.0502 -0.2201
 4251SOL    HW124386   3.419   1.467   4.483  1.6805  0.7533 -0.0844
 4251SOL    HW224387   3.479   1.558   4.392  1.7649 -2.0321  3.5231
 4252SOL     OW24388   2.734   4.617  17.407  0.0022 -0.3253 -0.0607
 4252SOL    HW124389   2.797   4.560  17.363 -0.3224 -0.6432 -0.1074
 4252SOL    HW224390   2.662   4.579  17.358 -2.1170  2.0591  1.1744
 4253SOL     OW24391   1.500   0.488   2.327  1.2776 -0.2663  0.6732
 4253SOL    HW124392   1.577   0.536   2.298  0.6794  0.1044 -0.3181
 4253SOL    HW224393   1.501   0.419   2.261  0.3715 -0.4980  0.9004
 4254SOL     OW24394   2.916   3.523   8.758 -0.2721 -0.2299  0.0388
 4254SOL    HW124395   2.919   3.485   8.670 -2.3525 -0.5007  0.0856
 4254SOL    HW224396   2.832   3.568   8.745 -0.4750 -0.9124 -0.9863
 4255SOL     OW24397   4.355   1.098   8.286 -1.0149  0.0252 -0.5229
 4255SOL    HW124398   4.294   1.100   8.212 -0.1840  0.5897 -1.1950
 4255SOL    HW224399   4.372   1.007   8.309 -0.3285 -0.3067 -2.3939
 4256SOL     OW24400   1.639   0.989   4.276 -0.4534  1.0329  0.2724
 4256SOL    HW124401   1.554   0.999   4.232 -0.6888  2.0454  0.9555
 4256SOL    HW224402   1.606   0.939   4.350 -0.5825  1.7937  0.7329
 4257SOL     OW24403   1.710   1.255   8.946  0.2272  1.1336  0.1026
 4257SOL    HW124404   1.627   1.208   8.940  0.5119  0.2675  2.8030
 4257SOL    HW224405   1.681   1.340   8.915 -1.1514  1.0284  1.0988
 4258SOL     OW24406   1.871   3.051   4.479  0.0598 -0.0093  0.0512
 4258SOL    HW124407   1.860   3.093   4.564 -0.7524  0.5849 -0.3455
 4258SOL    HW224408   1.818   3.113   4.429  2.6777  1.4901 -0.8538
 4259SOL     OW24409   0.891   1.377   8.993  0.2078 -0.1679 -0.1195
 4259SOL    HW124410   0.888   1.358   9.087  0.2651  0.0253 -0.0781
 4259SOL    HW224411   0.955   1.318   8.954  1.2871 -0.5719  2.2216
 4260SOL     OW24412   1.296   4.737  14.759  0.1003  0.2026  0.4117
 4260SOL    HW124413   1.202   4.721  14.753  0.1599  0.6044 -1.5224
 4260SOL    HW224414   1.304   4.731  14.664 -1.2656  3.0022  0.1038
 4261SOL     OW24415   4.583   2.874   3.503  0.2326  0.0349 -0.1945
 4261SOL    HW124416   4.582   2.954   3.451  0.9448 -0.0042 -0.2734
 4261SOL    HW224417   4.598   2.900   3.594 -1.4604  0.8257 -0.1468
 4262SOL     OW24418   1.757   4.672   6.137 -0.0356 -0.0743  0.5183
 4262SOL    HW124419   1.737   4.733   6.066  1.4484 -0.4236 -0.2109
 4262SOL    HW224420   1.851   4.682   6.151  0.2455  0.8636 -1.9575
 4263SOL     OW24421   4.073   2.582   2.311 -0.0315 -0.2900  0.1326
 4263SOL    HW124422   4.129   2.542   2.378 -0.1690 -0.6056  0.0546
 4263SOL    HW224423   4.108   2.543   2.231 -3.2650 -0.9297 -0.9474
 4264SOL     OW24424   4.108   4.444   3.191 -0.3073  0.2627 -0.8363
 4264SOL    HW124425   4.099   4.499   3.113 -2.6492  0.9643 -0.0641
 4264SOL    HW224426   4.037   4.483   3.241 -0.5277 -1.1622 -0.0516
 4265SOL     OW24427   2.206   1.760   8.672  0.5138 -0.4679  0.0410
 4265SOL    HW124428   2.253   1.683   8.641  1.8689 -0.2397  1.5184
 4265SOL    HW224429   2.187   1.750   8.766 -0.8525  1.6116 -0.0069
 4266SOL     OW24430   1.642   1.915   8.887  0.2597  0.4497  0.1443
 4266SOL    HW124431   1.721   1.965   8.902  0.9032 -0.3923 -0.4629
 4266SOL    HW224432   1.670   1.894   8.798  1.5014  1.1858  0.3776
 4267SOL     OW24433   1.527   3.137   7.633 -0.1165  0.3595  0.1553
 4267SOL    HW124434   1.473   3.137   7.712 -1.6389 -0.5286 -0.8679
 4267SOL    HW224435   1.481   3.074   7.576 -0.9838 -0.1152  1.3734
 4268SOL     OW24436   3.149   1.000   4.223  0.3927 -0.3527  0.2103
 4268SOL    HW124437   3.080   1.033   4.166 -0.3618 -0.6563  0.9465
 4268SOL    HW224438   3.118   0.910   4.230 -1.2794  0.1863 -0.2782
 4269SOL     OW24439   3.592   2.462   7.906 -0.2552  0.2357  0.1777
 4269SOL    HW124440   3.647   2.536   7.881  1.2172  0.1994  3.3464
 4269SOL    HW224441   3.586   2.473   8.001 -0.0320  0.4036  0.1705
 4270SOL     OW24442   3.873   1.535   1.199  0.3757 -0.0451  0.3839
 4270SOL    HW124443   3.820   1.532   1.120 -0.7944  0.2459  1.1645
 4270SOL    HW224444   3.846   1.468   1.262 -0.5666  1.6380  1.7433
 4271SOL     OW24445   2.180   0.361  10.640  0.7269 -0.2471 -0.4102
 4271SOL    HW124446   2.166   0.275  10.680  0.0488  0.9071  1.7750
 4271SOL    HW224447   2.121   0.351  10.565 -0.3793 -3.0830  0.8463
 4272SOL     OW24448   0.269   2.375   5.954 -0.0686  0.5741 -0.3413
 4272SOL    HW124449   0.275   2.360   6.048  0.6812  0.9016 -0.3339
 4272SOL    HW224450   0.181   2.412   5.952 -0.0089  0.7216 -0.2669
 4273SOL     OW24451   4.658   0.463   3.477  0.1554  0.2674  0.0313
 4273SOL    HW124452   4.676   0.481   3.385 -0.6390  0.2555 -0.1250
 4273SOL    HW224453   4.598   0.536   3.492 -0.0247 -0.0702  0.9369
 4274SOL     OW24454   2.156   2.348  10.959  0.6176 -0.1290  0.9407
 4274SOL    HW124455   2.175   2.388  10.874  1.7069 -0.7520  0.8957
 4274SOL    HW224456   2.246   2.336  10.989  0.3062 -1.2990  1.4383
 4275SOL     OW24457   3.605   3.543   8.457  0.0906  0.1405  0.2462
 4275SOL    HW124458   3.696   3.572   8.451  0.6514 -1.3585  1.4931
 4275SOL    HW224459   3.598   3.544   8.552 -0.1016 -0.0460  0.2354
 4276SOL     OW24460   2.346   1.516   7.603 -0.8573  0.1100  0.5684
 4276SOL    HW124461   2.252   1.522   7.587 -0.1280  1.1252 -3.1279
 4276SOL    HW224462   2.364   1.579   7.672 -1.6550  0.9269  0.0282
 4277SOL     OW24463   1.189   0.892   2.359 -0.9280 -0.2769 -0.0374
 4277SOL    HW124464   1.120   0.882   2.425 -1.6695 -0.7928 -0.8854
 4277SOL    HW224465   1.129   0.879   2.285 -0.2758 -1.0008 -0.4274
 4278SOL     OW24466   2.792   1.369   3.839 -0.6797  0.1066 -0.3531
 4278SOL    HW124467   2.885   1.365   3.860 -0.9292 -1.6653  0.4895
 4278SOL    HW224468   2.779   1.463   3.824 -2.6817 -0.6279 -3.3212
 4279SOL     OW24469   2.028   2.457   5.248 -0.0299  0.6196  0.0564
 4279SOL    HW124470   2.108   2.435   5.200 -0.4818 -0.4491 -0.2000
 4279SOL    HW224471   1.954   2.447   5.189  0.3040  0.5721 -0.3537
 4280SOL     OW24472   3.039   4.524   0.170 -0.7142 -0.4726 -0.1294
 4280SOL    HW124473   3.029   4.448   0.112  1.5072 -0.5362 -0.4274
 4280SOL    HW224474   3.029   4.591   0.103 -1.6463 -1.6330 -1.1688
 4281SOL     OW24475   3.853   3.530   0.167  0.0758 -0.2222 -0.7646
 4281SOL    HW124476   3.870   3.519   0.260 -0.7155 -0.3007 -0.6270
 4281SOL    HW224477   3.788   3.461   0.150  1.0979 -1.6323  1.1488
 4282SOL     OW24478   4.679   4.192   6.286 -0.2789  0.2716 -0.0898
 4282SOL    HW124479   4.609   4.208   6.223 -1.2756 -2.6144  0.2779
 4282SOL    HW224480   4.681   4.273   6.337 -0.6629  1.1208 -1.4233
 4283SOL     OW24481   1.305   3.763  14.082  0.0490  0.4575  0.1860
 4283SOL    HW124482   1.361   3.698  14.123 -2.4727 -2.0260 -0.3248
 4283SOL    HW224483   1.366   3.836  14.070  0.3509  0.2424  0.4155
 4284SOL     OW24484   1.236   3.859   2.691 -0.2691  0.1132 -0.3336
 4284SOL    HW124485   1.292   3.813   2.754  0.1897  0.6372 -0.3620
 4284SOL    HW224486   1.154   3.810   2.694 -0.9467  1.3173  0.5679
 4285SOL     OW24487   2.591   0.449   6.530  0.5889 -0.4871  0.3259
 4285SOL    HW124488   2.529   0.433   6.601  1.1941 -0.8681  0.7731
 4285SOL    HW224489   2.665   0.401   6.567  2.1936  0.5180 -1.5329
 4286SOL     OW24490   0.275   0.588  11.638 -0.1120 -0.5677 -0.1280
 4286SOL    HW124491   0.185   0.557  11.650 -0.2360 -0.2288 -0.2085
 4286SOL    HW224492   0.264   0.631  11.554 -1.6116 -0.8019 -0.0536
 4287SOL     OW24493   1.479   3.568  13.916 -0.1569 -0.0052 -0.7756
 4287SOL    HW124494   1.430   3.647  13.892 -2.0239 -0.8249  0.3374
 4287SOL    HW224495   1.492   3.580  14.010  0.0344  0.5905 -0.8762
 4288SOL     OW24496   4.455   4.493   2.920 -0.8271 -0.3527 -0.1356
 4288SOL    HW124497   4.414   4.472   3.004  1.8374 -1.0076  0.9805
 4288SOL    HW224498   4.444   4.408   2.877  1.6674 -2.0490  2.6195
 4289SOL     OW24499   2.187   2.166   9.293  0.2552 -0.0902 -0.1601
 4289SOL    HW124500   2.269   2.211   9.273 -0.4476  1.4369  0.4156
 4289SOL    HW224501   2.233   2.087   9.321 -1.2832 -1.1635 -0.6412
 4290SOL     OW24502   0.879   1.736   2.208  0.2360 -0.2597 -0.3277
 4290SOL    HW124503   0.866   1.706   2.117 -1.6803 -1.4961  0.3332
 4290SOL    HW224504   0.876   1.659   2.265 -1.3437 -1.3026 -1.8151
 4291SOL     OW24505   4.212   1.375   3.198  0.2330  0.6009 -0.3565
 4291SOL    HW124506   4.147   1.323   3.246 -0.0680  2.7317  1.5209
 4291SOL    HW224507   4.277   1.308   3.178  0.4383  0.7348 -0.1360
 4292SOL     OW24508   0.486   1.640   1.794  0.1199 -0.1826 -0.0523
 4292SOL    HW124509   0.482   1.586   1.872 -2.3376 -0.3202 -0.2988
 4292SOL    HW224510   0.451   1.724   1.822 -0.7140 -0.7470  0.5516
 4293SOL     OW24511   2.155   0.575   4.359 -0.2981 -0.5397  0.2867
 4293SOL    HW124512   2.158   0.531   4.273 -0.8693 -0.1594  0.0741
 4293SOL    HW224513   2.218   0.520   4.406  0.0804  0.0657  0.4741
 4294SOL     OW24514   0.253   1.093   4.085 -0.5048  0.1101  0.0552
 4294SOL    HW124515   0.264   1.073   4.178  1.8728  1.6095  0.0942
 4294SOL    HW224516   0.340   1.131   4.076  0.1442 -1.0982  1.1614
 4295SOL     OW24517   2.664   3.305   2.282  0.3181  0.2176  0.3261
 4295SOL    HW124518   2.750   3.264   2.275 -0.1168 -0.2138 -2.5622
 4295SOL    HW224519   2.662   3.346   2.196  4.0132 -1.2405 -0.4419
 4296SOL     OW24520   3.665   0.737   6.532  0.1375 -0.8035  0.2780
 4296SOL    HW124521   3.753   0.731   6.570 -0.6566  0.4590  2.3572
 4296SOL    HW224522   3.608   0.746   6.609 -0.2210  1.5797 -0.2810
 4297SOL     OW24523   4.684   2.258   6.340  0.0888  0.2752 -0.0611
 4297SOL    HW124524   4.689   2.352   6.359  0.3280  0.4769 -1.1551
 4297SOL    HW224525   4.628   2.254   6.263  1.0306 -1.0673 -0.6732
 4298SOL     OW24526   3.619   0.124   6.867  0.5680  0.1518  0.0535
 4298SOL    HW124527   3.620   0.083   6.780  1.5255  3.9211 -1.7538
 4298SOL    HW224528   3.556   0.192   6.843  0.9487  0.6456  0.4747
 4299SOL     OW24529   0.642   3.042   5.734 -0.7505 -0.3956 -0.3124
 4299SOL    HW124530   0.679   3.129   5.745  0.3099 -1.1227  1.8672
 4299SOL    HW224531   0.556   3.062   5.771  0.2769  0.0017  1.8654
 4300SOL     OW24532   1.011   0.803   2.548 -0.3684 -0.3641 -0.2610
 4300SOL    HW124533   0.920   0.830   2.564  0.1005  0.3507  1.2423
 4300SOL    HW224534   1.019   0.723   2.601  1.6060 -0.5038 -0.7875
 4301SOL     OW24535   1.565   0.072   8.425  0.0223 -0.2287 -0.0123
 4301SOL    HW124536   1.634   0.012   8.453  1.2171  0.7938 -0.7810
 4301SOL    HW224537   1.590   0.089   8.334  0.6712  2.5013  0.6926
 4302SOL     OW24538   4.608   3.908   9.571 -0.1434  0.0186 -0.1294
 4302SOL    HW124539   4.612   3.989   9.621 -0.0853  0.1958 -0.4188
 4302SOL    HW224540   4.602   3.930   9.478  1.8872  0.9452 -0.0397
 4303SOL     OW24541   2.425   0.167   9.451  0.1502  0.1530  0.2613
 4303SOL    HW124542   2.452   0.176   9.360  2.3681  0.9411  0.9979
 4303SOL    HW224543   2.413   0.257   9.480  2.6832  0.3565  0.6858
 4304SOL     OW24544   3.684   3.182  11.695  0.1078 -0.2033  0.2613
 4304SOL    HW124545   3.660   3.274  11.707 -0.2401 -0.0020 -1.9528
 4304SOL    HW224546   3.596   3.158  11.664  0.2290 -0.6501  0.2735
 4305SOL     OW24547   0.672   1.263  16.957 -0.1354 -0.2198 -0.4222
 4305SOL    HW124548   0.582   1.257  16.990  0.1276 -0.9780  0.1662
 4305SOL    HW224549   0.660   1.309  16.874 -0.1324 -2.0011 -1.4184
 4306SOL     OW24550   4.258   1.880   0.977 -0.3355  0.6943 -0.6619
 4306SOL    HW124551   4.317   1.941   0.933  3.4419 -1.4052  1.4927
 4306SOL    HW224552   4.302   1.870   1.061 -1.7071  2.1123  0.2237
 4307SOL     OW24553   1.540   0.991   2.128 -0.3436 -0.0181 -0.2222
 4307SOL    HW124554   1.618   1.007   2.181  0.2828 -3.7911 -0.0002
 4307SOL    HW224555   1.488   0.939   2.189 -0.3384  0.8145  0.4972
 4308SOL     OW24556   2.189   2.955   7.625 -0.3821  0.1160 -0.2201
 4308SOL    HW124557   2.185   2.968   7.720  2.7261 -1.1090  0.0668
 4308SOL    HW224558   2.151   3.033   7.586  0.0050  1.1724  1.5459
 4309SOL     OW24559   1.991   1.312   5.946 -0.4631  0.1175  0.1332
 4309SOL    HW124560   1.973   1.400   5.979  0.3750  0.7700 -1.1461
 4309SOL    HW224561   2.017   1.265   6.025 -2.6886  0.0200  0.8023
 4310SOL     OW24562   2.033   2.181   5.374  0.4069  0.1731  0.1650
 4310SOL    HW124563   2.049   2.214   5.286  0.2394 -0.4150 -0.0872
 4310SOL    HW224564   2.126   2.163   5.391  0.9225  1.6354 -1.1282
 4311SOL     OW24565   4.128   4.181  13.741  0.0768 -0.0915  0.4237
 4311SOL    HW124566   4.094   4.210  13.657 -1.4945 -2.8895  0.0757
 4311SOL    HW224567   4.136   4.267  13.783  0.6635 -0.7172  1.6013
 4312SOL     OW24568   0.803   1.794  13.999 -0.0713 -0.3362 -0.0637
 4312SOL    HW124569   0.785   1.812  13.907 -0.8538 -1.3868 -0.1092
 4312SOL    HW224570   0.895   1.823  14.003 -0.0259 -0.6879  1.6028
 4313SOL     OW24571   3.480   0.669  13.259 -0.1225  0.5714  0.0889
 4313SOL    HW124572   3.441   0.756  13.256  1.1451  1.1820  1.2281
 4313SOL    HW224573   3.468   0.666  13.354 -0.3393  1.5408  0.0903
 4314SOL     OW24574   3.978   3.371   3.405 -0.7231  0.2157 -0.1909
 4314SOL    HW124575   4.022   3.432   3.464 -0.4438 -0.1011 -0.0741
 4314SOL    HW224576   3.894   3.369   3.451 -1.6253 -1.6184 -1.9109
 4315SOL     OW24577   0.447   3.165   4.854  0.0269  0.1218 -0.2365
 4315SOL    HW124578   0.405   3.109   4.919 -0.1201 -0.5528 -0.9230
 4315SOL    HW224579   0.529   3.116   4.850 -0.6195 -0.8724 -1.1008
 4316SOL     OW24580   1.996   0.812  14.563 -0.1537  0.3189 -0.1668
 4316SOL    HW124581   1.915   0.761  14.563 -0.4986  0.8714 -0.6425
 4316SOL    HW224582   2.061   0.766  14.510 -0.2328 -0.1862  0.1705
 4317SOL     OW24583   4.439   0.277  12.085  0.2247  0.3855  0.9095
 4317SOL    HW124584   4.534   0.290  12.076  0.2716 -0.5464  0.0123
 4317SOL    HW224585   4.407   0.331  12.012  0.0498 -1.9539 -0.7581
 4318SOL     OW24586   1.940   0.479   5.670  0.6647 -0.4392  0.0668
 4318SOL    HW124587   1.898   0.554   5.711 -0.4775 -0.0383 -1.8390
 4318SOL    HW224588   1.884   0.462   5.594 -0.2835 -2.5126  1.2144
 4319SOL     OW24589   0.187   2.882   5.690  0.1505 -0.7150  0.2702
 4319SOL    HW124590   0.255   2.944   5.664 -1.2752  0.4224 -0.7474
 4319SOL    HW224591   0.191   2.820   5.617 -1.2869 -0.6462  0.1294
 4320SOL     OW24592   0.364   1.842   1.910 -0.2317 -0.2169  0.3222
 4320SOL    HW124593   0.322   1.858   1.994  1.7862 -1.9545  1.6433
 4320SOL    HW224594   0.423   1.917   1.901 -2.1369  1.4094  1.2054
 4321SOL     OW24595   0.714   2.582   1.722  0.6522 -0.2112 -0.3124
 4321SOL    HW124596   0.795   2.609   1.764 -0.1227 -1.7921  2.2493
 4321SOL    HW224597   0.726   2.641   1.647 -0.6532  0.4271 -0.0207
 4322SOL     OW24598   4.418   3.111  15.962  0.3042 -0.6650 -0.2915
 4322SOL    HW124599   4.441   3.021  15.937 -0.2799 -1.4376  2.0001
 4322SOL    HW224600   4.475   3.121  16.038 -0.3731 -0.6516  0.2126
 4323SOL     OW24601   4.212   4.592  12.251 -0.1109 -0.6196 -0.1983
 4323SOL    HW124602   4.210   4.628  12.339  0.8635  1.7469 -1.1390
 4323SOL    HW224603   4.278   4.652  12.216 -0.2994  0.5832  1.5219
 4324SOL     OW24604   0.670   1.881   1.890 -0.0149  0.3931  0.9539
 4324SOL    HW124605   0.740   1.826   1.855  1.2381  1.9293  1.0409
 4324SOL    HW224606   0.710   1.910   1.972  0.2571  0.9211  0.6310
 4325SOL     OW24607   4.078   3.930  11.814  0.4331 -0.4621  0.2181
 4325SOL    HW124608   4.171   3.937  11.792  0.3500 -0.3827 -0.1112
 4325SOL    HW224609   4.058   3.960  11.725  2.2192 -0.8418 -0.3139
 4326SOL     OW24610   1.378   3.909   8.974  0.2972 -0.4362 -0.3178
 4326SOL    HW124611   1.378   3.825   8.929 -1.0186  0.0757 -1.2738
 4326SOL    HW224612   1.469   3.914   9.004  0.2209  2.9440 -0.6003
 4327SOL     OW24613   0.968   0.948   0.960 -0.3352 -0.4966 -0.5768
 4327SOL    HW124614   0.939   0.971   0.872  1.0803  1.4205 -0.5288
 4327SOL    HW224615   0.881   0.938   1.000  0.2867  0.7487  1.0782
 4328SOL     OW24616   3.613   1.168  16.691  0.0533 -0.7681  0.3935
 4328SOL    HW124617   3.531   1.118  16.687 -0.2953 -0.4113  2.7481
 4328SOL    HW224618   3.592   1.256  16.661  0.6149 -0.9200 -0.4128
 4329SOL     OW24619   1.100   2.523   5.810 -0.2542  0.0891 -0.0774
 4329SOL    HW124620   1.081   2.519   5.904  0.2580  1.5376  0.0915
 4329SOL    HW224621   1.185   2.481   5.810 -1.2852 -2.0023  1.6339
 4330SOL     OW24622   4.037   4.150   4.488 -0.2580 -0.5949 -0.0982
 4330SOL    HW124623   4.096   4.221   4.462  0.8578 -0.8899  1.6407
 4330SOL    HW224624   3.992   4.134   4.405 -2.1622  0.7269  0.6681
 4331SOL     OW24625   1.906   2.997   9.193  0.4970  0.0215 -0.1625
 4331SOL    HW124626   1.870   3.043   9.117  0.0206 -0.9434 -0.5264
 4331SOL    HW224627   1.888   2.906   9.171  0.6595 -0.3048  1.0789
 4332SOL     OW24628   3.850   0.336   6.160  0.4294 -0.4365  0.1075
 4332SOL    HW124629   3.761   0.360   6.187  0.7921  1.8955 -0.7469
 4332SOL    HW224630   3.900   0.400   6.212 -0.7252  0.4799  0.0807
 4333SOL     OW24631   4.081   3.196   1.655  0.1864  0.0277 -0.3840
 4333SOL    HW124632   4.175   3.179   1.658  0.3756  1.0704 -0.4370
 4333SOL    HW224633   4.036   3.129   1.706 -0.2784  0.4318 -0.2696
 4334SOL     OW24634   1.587   2.500   8.528  0.0764  0.1083 -1.0428
 4334SOL    HW124635   1.502   2.542   8.540 -1.5555 -3.0071 -1.6717
 4334SOL    HW224636   1.650   2.554   8.576  0.5378 -1.8451  0.5437
 4335SOL     OW24637   0.891   4.335  16.824 -0.0942 -0.0757  0.4827
 4335SOL    HW124638   0.964   4.385  16.788 -0.2030  0.6915  1.3258
 4335SOL    HW224639   0.829   4.405  16.846 -1.9462 -1.6893  0.4438
 4336SOL     OW24640   0.350   0.286  17.160 -0.2406  0.0062 -0.0688
 4336SOL    HW124641   0.279   0.228  17.189 -1.2149  1.1888 -0.0898
 4336SOL    HW224642   0.388   0.227  17.095 -1.8309  0.7890 -1.7439
 4337SOL     OW24643   1.673   2.296   0.699  0.9603 -0.1929  0.0503
 4337SOL    HW124644   1.697   2.365   0.762 -1.0260  0.3498  0.2202
 4337SOL    HW224645   1.633   2.238   0.764 -0.1763 -0.7957 -1.1832
 4338SOL     OW24646   3.789   0.388   1.700  0.3611  0.5353  0.4717
 4338SOL    HW124647   3.865   0.443   1.681  1.1380 -0.8066 -0.2437
 4338SOL    HW224648   3.767   0.364   1.610 -0.0174  0.7745  0.4979
 4339SOL     OW24649   0.621   0.060   5.607  0.1655 -0.2135 -0.4392
 4339SOL    HW124650   0.599   0.142   5.563 -0.4538 -0.2101 -0.1173
 4339SOL    HW224651   0.709   0.041   5.575  0.9872  1.6235  0.7068
 4340SOL     OW24652   2.660   2.286   9.157  0.2441 -0.6441 -0.3483
 4340SOL    HW124653   2.569   2.309   9.174  0.2011  1.0558 -2.7717
 4340SOL    HW224654   2.663   2.199   9.196 -0.4976 -1.2498 -1.6472
 4341SOL     OW24655   3.666   1.068  10.217  0.4912 -0.2910  0.0570
 4341SOL    HW124656   3.689   1.003  10.283  2.5985 -0.6747 -1.0927
 4341SOL    HW224657   3.744   1.122  10.230  1.5538 -2.0549  0.9033
 4342SOL     OW24658   3.908   2.835   8.005 -0.1171  0.0793 -0.1059
 4342SOL    HW124659   3.969   2.908   7.991  3.8144 -3.2132 -0.1576
 4342SOL    HW224660   3.819   2.870   8.009  0.8416  2.7167 -2.1838
 4343SOL     OW24661   2.010   2.743   8.666 -0.1871  0.3077  0.6218
 4343SOL    HW124662   1.981   2.814   8.724  2.5359  0.0024  2.3403
 4343SOL    HW224663   2.022   2.793   8.585  0.5941  0.4818  0.8472
 4344SOL     OW24664   0.044   1.765  14.141  0.1812  0.3141 -0.4172
 4344SOL    HW124665   4.692   1.749  14.163 -0.0270 -0.2200 -1.7312
 4344SOL    HW224666   0.057   1.730  14.053  0.3737  1.1471 -0.7224
 4345SOL     OW24667   1.678   0.616   8.714  1.2634 -0.1278 -0.2612
 4345SOL    HW124668   1.675   0.547   8.648  0.5054  1.3061 -1.7275
 4345SOL    HW224669   1.701   0.695   8.666 -2.7103  0.8157 -0.6220
 4346SOL     OW24670   1.698   2.593   8.969  0.1814  0.5913  0.4046
 4346SOL    HW124671   1.748   2.511   8.962  0.1983  0.6328  0.0367
 4346SOL    HW224672   1.632   2.574   9.036 -0.7079 -0.3158 -0.7187
 4347SOL     OW24673   4.733   3.404   4.501  0.3678  0.0407  0.8982
 4347SOL    HW124674   0.027   3.415   4.590 -0.6857  2.7443  0.9639
 4347SOL    HW224675   0.073   3.410   4.447 -0.1873 -2.0096 -0.1333
 4348SOL     OW24676   2.159   2.938   3.121  0.2178 -0.4025  0.0287
 4348SOL    HW124677   2.213   2.999   3.172 -2.1178  1.4209  0.2926
 4348SOL    HW224678   2.181   2.855   3.163 -1.5179 -0.5821  0.5663
 4349SOL     OW24679   0.778   2.237   8.554 -0.0506  0.5169 -0.1956
 4349SOL    HW124680   0.698   2.187   8.568 -1.5332  2.4576 -1.7820
 4349SOL    HW224681   0.841   2.192   8.610 -0.7598 -1.9296 -1.3367
 4350SOL     OW24682   4.338   2.088   6.367  0.1851  0.4582 -0.0566
 4350SOL    HW124683   4.273   2.134   6.421 -1.3143 -1.6233 -0.1032
 4350SOL    HW224684   4.296   2.004   6.354 -3.1846  2.0193  0.8271
 4351SOL     OW24685   2.385   4.513   6.943  0.8226 -0.0649 -0.5752
 4351SOL    HW124686   2.296   4.543   6.963  2.4769  1.8146  3.8550
 4351SOL    HW224687   2.442   4.579   6.981  0.9916 -1.0654  0.9167
 4352SOL     OW24688   0.706   3.880   5.941  0.1873 -0.2964  0.0041
 4352SOL    HW124689   0.627   3.856   5.991 -0.6265  2.1450 -0.0998
 4352SOL    HW224690   0.671   3.894   5.853  0.8709  2.4776  0.1813
 4353SOL     OW24691   1.283   2.915   3.191  0.1848 -0.0831  0.6361
 4353SOL    HW124692   1.371   2.946   3.213 -0.1176  0.9634  0.3880
 4353SOL    HW224693   1.280   2.929   3.096  3.6978 -0.6156  0.4266
 4354SOL     OW24694   3.789   0.998   7.374 -0.2703  0.5161 -0.1977
 4354SOL    HW124695   3.731   1.038   7.439 -1.7297 -1.1347 -0.5100
 4354SOL    HW224696   3.836   1.075   7.340  2.4224 -1.2290 -0.3962
 4355SOL     OW24697   0.881   2.786   8.338 -0.4439  0.1696 -0.1176
 4355SOL    HW124698   0.873   2.881   8.330  0.7469  0.2911  0.1342
 4355SOL    HW224699   0.867   2.769   8.244  0.4881  0.3246 -0.2819
 4356SOL     OW24700   0.222   2.171   7.772 -0.4504  0.0750 -0.3442
 4356SOL    HW124701   0.178   2.238   7.720 -1.3279 -0.1919  0.0473
 4356SOL    HW224702   0.148   2.118   7.800  0.3234 -1.0255 -0.3984
 4357SOL     OW24703   1.164   0.400  17.268 -0.2195  0.2928 -0.8574
 4357SOL    HW124704   1.090   0.460  17.264  0.8629  1.6525 -0.2665
 4357SOL    HW224705   1.227   0.441  17.327  1.2612 -1.0002 -1.5255
 4358SOL     OW24706   1.350   3.936  17.453 -0.6378  0.1109  0.5430
 4358SOL    HW124707   1.386   4.017  17.487 -0.1539 -0.7850  2.1786
 4358SOL    HW224708   1.279   3.910  17.513  0.6529  0.3336  2.1613
 4359SOL     OW24709   0.376   1.720   8.829  0.0468  0.9755  0.4602
 4359SOL    HW124710   0.449   1.685   8.777 -0.6771  0.4297 -0.1948
 4359SOL    HW224711   0.367   1.812   8.803 -1.2212  0.5468 -0.5850
 4360SOL     OW24712   4.425   2.675   3.592  0.2590 -0.0887  0.1627
 4360SOL    HW124713   4.475   2.756   3.578 -1.8338  1.8452  3.7445
 4360SOL    HW224714   4.360   2.674   3.522 -1.1931 -3.3326  1.5654
 4361SOL     OW24715   0.601   3.237   4.178 -0.1682 -0.5191  0.0110
 4361SOL    HW124716   0.657   3.182   4.232  0.3265  0.6390  0.6536
 4361SOL    HW224717   0.587   3.316   4.229  1.7302 -0.2320  0.0730
 4362SOL     OW24718   2.858   0.098   2.293  0.4471 -0.1227  0.0307
 4362SOL    HW124719   2.881   0.168   2.354 -0.3425  0.4045 -0.2776
 4362SOL    HW224720   2.894   0.147   2.220  1.1946 -1.9652 -0.8362
 4363SOL     OW24721   3.642   4.668   8.473 -0.0247  0.0317 -0.0886
 4363SOL    HW124722   3.558   4.688   8.514  0.6780  2.7472  0.0019
 4363SOL    HW224723   3.630   4.675   8.378  1.0472  2.0886 -0.0836
 4364SOL     OW24724   0.024   0.979   8.686 -0.5204  0.0621 -0.0997
 4364SOL    HW124725   0.024   1.068   8.723 -2.1031  0.7559 -1.7687
 4364SOL    HW224726   0.112   0.949   8.707 -0.6403 -0.8330 -0.8837
 4365SOL     OW24727   1.648   4.368   5.082 -0.3937 -0.2914  0.0349
 4365SOL    HW124728   1.557   4.395   5.069 -0.8677 -1.6971  0.5166
 4365SOL    HW224729   1.643   4.299   5.147 -0.9903  1.0265  1.3990
 4366SOL     OW24730   0.524   2.446  17.732  0.7084  0.2767 -0.2926
 4366SOL    HW124731   0.562   2.533  17.721 -0.3666  0.7965  0.0981
 4366SOL    HW224732   0.584   2.390  17.682 -0.5054 -0.1032 -1.3190
 4367SOL     OW24733   2.274   1.115   6.097  0.4729  0.0896  0.1808
 4367SOL    HW124734   2.302   1.167   6.172  0.1343 -0.6442  0.8129
 4367SOL    HW224735   2.179   1.124   6.104  0.2976  0.8065 -2.9395
 4368SOL     OW24736   3.579   1.578   2.588 -0.0467 -0.8149  0.1319
 4368SOL    HW124737   3.493   1.577   2.547  0.4739 -1.3795 -0.9782
 4368SOL    HW224738   3.627   1.604   2.508 -0.7598  1.8592  0.5806
 4369SOL     OW24739   0.326   0.446   3.026  0.0017 -0.3275 -0.4823
 4369SOL    HW124740   0.310   0.352   3.032  1.3587 -0.5568 -0.3971
 4369SOL    HW224741   0.244   0.489   3.003  0.1847  0.7514  0.9307
 4370SOL     OW24742   4.689   1.588   5.666 -0.3672 -0.3882  0.3243
 4370SOL    HW124743   4.681   1.664   5.608  0.2574 -0.8518 -0.3759
 4370SOL    HW224744   4.725   1.627   5.745  1.6829 -2.1858  0.2865
 4371SOL     OW24745   3.863   0.164   3.331  0.0304  0.4528 -0.1240
 4371SOL    HW124746   3.919   0.238   3.309 -0.1656  0.4427 -0.6564
 4371SOL    HW224747   3.833   0.199   3.415  1.4259 -0.0459  0.5875
 4372SOL     OW24748   2.468   0.576  13.079  0.0448  0.4966  0.1993
 4372SOL    HW124749   2.557   0.602  13.105  1.1708 -1.8081 -1.3929
 4372SOL    HW224750   2.469   0.616  12.992 -1.9117  0.2696  0.0625
 4373SOL     OW24751   3.975   1.860   4.191  0.5834 -0.1826 -0.4310
 4373SOL    HW124752   3.926   1.889   4.114  0.3143  0.7833  0.0977
 4373SOL    HW224753   4.033   1.799   4.146  2.5294  1.4611 -0.1383
 4374SOL     OW24754   3.932   4.501  17.172  0.2846 -0.1654 -0.6779
 4374SOL    HW124755   3.943   4.422  17.119  0.0670 -0.7095  0.0903
 4374SOL    HW224756   4.010   4.553  17.151  0.2381 -0.2165 -0.9860
 4375SOL     OW24757   1.313   4.232   3.019 -0.7459  0.3600 -0.2360
 4375SOL    HW124758   1.357   4.152   3.048  1.1663  1.4911 -0.0010
 4375SOL    HW224759   1.288   4.267   3.105  0.3120  1.1710 -0.2659
 4376SOL     OW24760   0.348   1.321   8.573  0.5009 -0.7306 -0.3540
 4376SOL    HW124761   0.433   1.365   8.570 -0.0449  0.2040 -2.2826
 4376SOL    HW224762   0.292   1.356   8.504  1.3230  0.3056 -0.5062
 4377SOL     OW24763   0.075   1.050  17.049  0.3081  0.4109  0.0461
 4377SOL    HW124764   0.050   1.135  17.086  1.5388  1.5007 -1.6552
 4377SOL    HW224765   4.738   0.995  17.065  0.9515 -0.3118  0.6735
 4378SOL     OW24766   1.623   4.056  10.246 -0.0670 -0.9534  0.1205
 4378SOL    HW124767   1.555   4.042  10.181 -0.3468 -1.4635  0.5212
 4378SOL    HW224768   1.645   3.966  10.269 -0.6014 -1.2868 -0.6851
 4379SOL     OW24769   0.415   1.979   4.744 -0.1645  0.0127  0.4020
 4379SOL    HW124770   0.408   1.903   4.802  0.1783  0.9141  1.6216
 4379SOL    HW224771   0.421   2.049   4.808 -0.1796  1.9957 -1.7701
 4380SOL     OW24772   3.762   3.826   6.323 -0.5497  0.1965  0.1987
 4380SOL    HW124773   3.819   3.757   6.289 -0.7428 -0.4164  1.1228
 4380SOL    HW224774   3.830   3.893   6.328 -1.5868  1.2664  0.2654
 4381SOL     OW24775   0.844   3.996   4.294  0.4152  0.4111 -0.1262
 4381SOL    HW124776   0.893   4.048   4.231 -1.3889  3.3021  0.8416
 4381SOL    HW224777   0.839   3.912   4.248  1.1938  0.1832  0.2054
 4382SOL     OW24778   0.721   2.789  13.782  0.3487 -0.3934  0.3441
 4382SOL    HW124779   0.692   2.830  13.863  0.0971 -1.6309  0.8782
 4382SOL    HW224780   0.740   2.701  13.816 -0.1998  0.1039  1.9415
 4383SOL     OW24781   2.566   2.743   7.455 -0.5713 -0.1772  0.0495
 4383SOL    HW124782   2.549   2.836   7.468 -0.7227 -0.2287  0.2290
 4383SOL    HW224783   2.659   2.737   7.475 -0.9122 -0.4540  1.5678
 4384SOL     OW24784   0.726   0.122  14.790  0.1764 -0.4988 -0.3139
 4384SOL    HW124785   0.706   0.060  14.860 -1.7596  1.0596  0.5128
 4384SOL    HW224786   0.816   0.147  14.813 -1.6239  1.9249  4.0947
 4385SOL     OW24787   3.967   2.990   1.796 -0.1312  0.8411  0.0303
 4385SOL    HW124788   4.016   2.912   1.767 -0.7752  0.8657 -1.1309
 4385SOL    HW224789   3.958   2.976   1.890 -4.1473  2.6524 -0.1044
 4386SOL     OW24790   1.324   2.894   1.815  0.5660 -0.3587  0.3513
 4386SOL    HW124791   1.254   2.874   1.878 -0.5091  0.0026 -0.7249
 4386SOL    HW224792   1.400   2.921   1.866 -0.6486  1.6687  1.0725
 4387SOL     OW24793   1.709   4.704  16.108  0.1003 -0.5704  0.1881
 4387SOL    HW124794   1.779   0.028  16.093 -1.1305  0.6422 -0.3103
 4387SOL    HW224795   1.726   4.683  16.200 -0.9291  1.2969  0.8115
 4388SOL     OW24796   1.347   0.308   7.212 -0.9109  0.3804  0.2140
 4388SOL    HW124797   1.377   0.344   7.128 -1.6870  0.5751  0.0149
 4388SOL    HW224798   1.427   0.278   7.255 -0.3886 -1.7770 -2.2484
 4389SOL     OW24799   0.868   0.409   4.702  1.0075  0.4389  0.3197
 4389SOL    HW124800   0.928   0.387   4.774  0.2079  2.8011  1.7067
 4389SOL    HW224801   0.787   0.424   4.750 -0.9455 -1.8000 -2.2408
 4390SOL     OW24802   4.552   3.566   8.728  0.0927 -0.0622 -0.6884
 4390SOL    HW124803   4.547   3.639   8.666 -1.8247 -0.9524 -1.5776
 4390SOL    HW224804   4.494   3.601   8.795  1.8580 -0.5328  1.1080
 4391SOL     OW24805   1.206   1.051   5.154  0.7604 -0.1732 -0.1317
 4391SOL    HW124806   1.115   1.078   5.152  1.0404  0.8175  0.4676
 4391SOL    HW224807   1.214   0.962   5.120 -2.1234 -0.3627 -0.2435
 4392SOL     OW24808   3.086   4.398   6.502  0.3365  0.0355  0.3068
 4392SOL    HW124809   3.067   4.487   6.531  3.3858  0.2369  1.6237
 4392SOL    HW224810   3.008   4.386   6.447 -1.1939  1.0642  2.2818
 4393SOL     OW24811   2.563   4.636   8.747  0.4255  0.1916  0.2038
 4393SOL    HW124812   2.483   4.618   8.797 -0.0746  0.0528 -0.6319
 4393SOL    HW224813   2.619   4.691   8.802 -1.9516  1.9739  0.8786
 4394SOL     OW24814   2.891   0.804   9.616  0.1466 -0.0471 -0.0740
 4394SOL    HW124815   2.858   0.862   9.685 -0.1952 -0.9149  0.5031
 4394SOL    HW224816   2.929   0.874   9.563  0.5553 -0.6178 -0.5295
 4395SOL     OW24817   3.325   1.720   0.539 -0.2970 -0.5337 -0.0276
 4395SOL    HW124818   3.289   1.662   0.605  0.2049 -1.9311 -0.9679
 4395SOL    HW224819   3.330   1.657   0.466 -0.2251 -0.8389  0.2394
 4396SOL     OW24820   1.486   3.367   8.524 -0.5744 -0.0735 -0.5211
 4396SOL    HW124821   1.516   3.278   8.541  1.0047  0.2470 -1.6935
 4396SOL    HW224822   1.573   3.404   8.507  0.5058 -1.8162  1.3271
 4397SOL     OW24823   2.500   4.577   5.496  0.6398 -0.0851 -0.0665
 4397SOL    HW124824   2.451   4.609   5.421  0.3084 -0.5643 -0.0552
 4397SOL    HW224825   2.477   4.630   5.572 -0.7738 -0.1897 -0.4336
 4398SOL     OW24826   0.107   2.958   7.267 -0.0847 -0.2213  0.1504
 4398SOL    HW124827   0.158   2.877   7.275  0.9695  0.5097  0.9193
 4398SOL    HW224828   0.042   2.944   7.336  0.0930 -0.8133  0.2004
 4399SOL     OW24829   0.684   0.924   2.431 -0.2950 -0.4773  0.1879
 4399SOL    HW124830   0.641   0.842   2.454  0.3340 -0.7089  0.5457
 4399SOL    HW224831   0.699   0.907   2.338  1.9538  0.3350  0.4009
 4400SOL     OW24832   0.190   1.595  10.173  0.2831 -0.1220  0.7338
 4400SOL    HW124833   0.160   1.629  10.089 -0.3600 -2.4315  0.0177
 4400SOL    HW224834   0.115   1.614  10.231 -2.0193  0.2679 -2.3849
 4401SOL     OW24835   0.072   3.779   0.939 -0.6688 -0.0483  0.4001
 4401SOL    HW124836   4.732   3.726   0.928  1.6087 -3.6605  1.4735
 4401SOL    HW224837   0.051   3.825   0.858  2.5971 -0.2992 -0.5680
 4402SOL     OW24838   0.679   2.163  11.231 -0.2219 -0.2781  0.0924
 4402SOL    HW124839   0.691   2.069  11.218  0.1086 -0.2774  0.3616
 4402SOL    HW224840   0.695   2.201  11.145  0.3482  0.4576  0.5167
 4403SOL     OW24841   2.295   3.333   6.513  0.2880 -0.0121 -0.0935
 4403SOL    HW124842   2.232   3.327   6.440 -0.2862 -1.0740  0.4935
 4403SOL    HW224843   2.365   3.375   6.463  2.2719 -1.5498  1.3987
 4404SOL     OW24844   1.793   0.486   4.219  0.3917 -0.2155  0.1801
 4404SOL    HW124845   1.739   0.436   4.280 -0.9963  1.4364  0.3063
 4404SOL    HW224846   1.799   0.569   4.266  1.9053 -0.4833  0.4614
 4405SOL     OW24847   4.542   0.788   2.758 -0.4434 -0.1693 -0.1591
 4405SOL    HW124848   4.610   0.833   2.709 -0.4997 -1.1807 -1.1607
 4405SOL    HW224849   4.560   0.696   2.737 -0.6327 -0.6077  1.5861
 4406SOL     OW24850   4.300   3.869   6.890  0.2254 -0.0620 -0.2459
 4406SOL    HW124851   4.228   3.933   6.888  0.6146  0.3453 -1.1569
 4406SOL    HW224852   4.267   3.796   6.837 -1.2524 -1.1206  2.0930
 4407SOL     OW24853   2.379   1.485   6.436 -0.3592  0.2307  0.7180
 4407SOL    HW124854   2.324   1.531   6.500 -2.0285 -1.2136  0.3265
 4407SOL    HW224855   2.340   1.397   6.435 -0.0680  0.1212 -1.1935
 4408SOL     OW24856   1.154   2.146   0.105 -0.2520 -0.0655  0.1953
 4408SOL    HW124857   1.232   2.171   0.155 -0.4605 -0.9405  0.9597
 4408SOL    HW224858   1.101   2.226   0.107  1.5471  1.0837  1.9957
 4409SOL     OW24859   0.773   3.727  12.209 -0.2106 -0.0085 -0.1891
 4409SOL    HW124860   0.702   3.783  12.239 -0.7947 -1.6219  1.4446
 4409SOL    HW224861   0.799   3.775  12.130  1.4702 -0.1094  0.3057
 4410SOL     OW24862   0.538   4.105   2.333  0.0831 -0.2084 -0.1365
 4410SOL    HW124863   0.591   4.139   2.261  1.5707 -0.1598  0.9930
 4410SOL    HW224864   0.587   4.146   2.404  1.1358  0.3557 -1.1958
 4411SOL     OW24865   3.729   1.468   5.993  0.2358  0.4356  0.5521
 4411SOL    HW124866   3.719   1.557   6.024 -0.0918  0.6126 -0.0489
 4411SOL    HW224867   3.741   1.476   5.898 -0.6302  2.2797  0.5974
 4412SOL     OW24868   0.880   2.029   5.637  0.3568  0.5725  0.1109
 4412SOL    HW124869   0.969   2.060   5.624  0.4079  1.1167  1.8671
 4412SOL    HW224870   0.848   2.106   5.683 -0.5386  0.7272 -0.7506
 4413SOL     OW24871   1.698   1.143   8.619 -0.0726 -0.1258  0.0540
 4413SOL    HW124872   1.736   1.056   8.610  0.5646  0.1613 -0.0506
 4413SOL    HW224873   1.768   1.202   8.647  1.1728 -1.3067 -0.5572
 4414SOL     OW24874   3.763   0.837   3.579 -0.3222  0.0563  0.1632
 4414SOL    HW124875   3.719   0.805   3.500 -0.0005 -0.6242  0.2574
 4414SOL    HW224876   3.709   0.786   3.639 -0.4547  1.4343  1.2101
 4415SOL     OW24877   0.999   1.868  12.030  0.2203 -0.0543  0.0723
 4415SOL    HW124878   0.999   1.922  11.951  2.9252  0.5879  0.5176
 4415SOL    HW224879   1.029   1.782  12.002  0.7897 -0.7320  2.8375
 4416SOL     OW24880   4.190   3.546   2.691  0.5130 -0.3170  0.5798
 4416SOL    HW124881   4.210   3.578   2.603  0.8018  1.5078  1.3018
 4416SOL    HW224882   4.115   3.491   2.667  0.9046 -0.6475  0.1109
 4417SOL     OW24883   0.233   0.521   4.420 -0.2182 -0.1899  0.2182
 4417SOL    HW124884   0.298   0.532   4.489  0.4007  0.8588 -0.5399
 4417SOL    HW224885   0.222   0.610   4.387  1.3905  0.1758  0.7028
 4418SOL     OW24886   3.963   0.271  10.172  0.6685 -0.3363 -0.0945
 4418SOL    HW124887   4.057   0.283  10.158  1.1405  0.7012  4.0951
 4418SOL    HW224888   3.938   0.344  10.114  0.3864 -0.3079  0.0615
 4419SOL     OW24889   2.430   2.880  10.056 -0.2880  0.2727 -0.0137
 4419SOL    HW124890   2.395   2.964  10.084  0.8903  0.7457  0.0225
 4419SOL    HW224891   2.399   2.870   9.966 -2.5957  0.2004  0.7851
 4420SOL     OW24892   3.358   2.200   6.162  0.5231  0.4491  0.4097
 4420SOL    HW124893   3.346   2.108   6.140  0.7478  0.1945  1.3511
 4420SOL    HW224894   3.337   2.248   6.082  0.9588  0.9238  0.5780
 4421SOL     OW24895   3.020   1.672   6.863 -0.1006 -0.1295  0.2597
 4421SOL    HW124896   2.963   1.707   6.795  2.4195  0.7737 -1.3704
 4421SOL    HW224897   3.095   1.640   6.813 -0.9220 -1.5666 -0.0722
 4422SOL     OW24898   1.665   0.404  16.124 -0.4016  0.3983 -0.1747
 4422SOL    HW124899   1.644   0.466  16.193 -0.2593 -0.3777  0.5609
 4422SOL    HW224900   1.738   0.359  16.167 -1.7466  0.3774  2.0755
 4423SOL     OW24901   2.438   0.953   7.916  0.3160  0.5164  0.0369
 4423SOL    HW124902   2.379   0.946   7.841  1.8216  1.9861 -1.2841
 4423SOL    HW224903   2.522   0.922   7.881  0.1789  2.3368 -1.9400
 4424SOL     OW24904   0.759   3.819   2.717 -0.0994  0.1114  0.1955
 4424SOL    HW124905   0.710   3.738   2.727 -0.2724  0.0947 -0.8436
 4424SOL    HW224906   0.678   3.870   2.714 -0.0887 -0.0284 -2.4746
 4425SOL     OW24907   1.490   4.360   5.448  0.3569 -0.0868  0.0430
 4425SOL    HW124908   1.477   4.309   5.369 -0.2284  0.7904 -0.4229
 4425SOL    HW224909   1.518   4.300   5.517 -1.4128 -1.1817 -0.1878
 4426SOL     OW24910   0.338   4.252   9.133 -0.3646 -0.1132  0.0116
 4426SOL    HW124911   0.381   4.212   9.209  0.5125  0.3600 -0.2232
 4426SOL    HW224912   0.288   4.178   9.100  0.9128 -1.5513  1.2677
 4427SOL     OW24913   3.913   1.515  16.721  0.3550  0.6206  0.4833
 4427SOL    HW124914   3.918   1.428  16.760 -1.3745 -0.9753 -2.8008
 4427SOL    HW224915   4.008   1.525  16.720  0.3479  0.5253 -4.2730
 4428SOL     OW24916   0.709   1.403  15.500  0.2666 -0.5851 -0.1880
 4428SOL    HW124917   0.667   1.317  15.493 -0.2247 -0.3089 -0.6450
 4428SOL    HW224918   0.729   1.395  15.593  2.0763  1.0418 -0.4458
 4429SOL     OW24919   1.120   3.157   2.867  0.1638 -0.0563  0.9870
 4429SOL    HW124920   1.212   3.180   2.876  0.5384 -0.7793 -0.8985
 4429SOL    HW224921   1.095   3.173   2.958  0.8179  0.8334  1.0020
 4430SOL     OW24922   3.273   4.718   5.057  0.1568  0.2569 -0.0040
 4430SOL    HW124923   3.307   4.634   5.026 -1.5139  0.0902 -1.3871
 4430SOL    HW224924   3.261   0.012   4.968  0.2162  1.3599  0.4022
 4431SOL     OW24925   4.178   1.723   9.794  0.0343  0.0355 -0.6052
 4431SOL    HW124926   4.119   1.665   9.747  0.9655 -2.1499  0.9008
 4431SOL    HW224927   4.116   1.788   9.827 -0.5651 -0.2597 -1.1659
 4432SOL     OW24928   1.004   1.540  10.203  0.3279 -0.4693 -0.0351
 4432SOL    HW124929   1.086   1.527  10.251  1.2454 -1.8164 -1.9827
 4432SOL    HW224930   0.943   1.500  10.265 -0.9532  2.7761  0.8175
 4433SOL     OW24931   4.088   0.170   9.797  0.6331 -0.3352  1.0470
 4433SOL    HW124932   4.061   0.261   9.794  0.8455 -0.2311  2.1664
 4433SOL    HW224933   4.040   0.138   9.721 -0.5785  1.0386  1.2435
 4434SOL     OW24934   2.108   0.300   6.249 -0.7419  0.0380  0.0351
 4434SOL    HW124935   2.076   0.389   6.240  0.8496  0.7163  1.0589
 4434SOL    HW224936   2.133   0.303   6.342 -0.5830 -0.0972 -0.0033
 4435SOL     OW24937   1.826   1.372   2.789 -0.0251  0.2440  0.4146
 4435SOL    HW124938   1.895   1.437   2.775  0.7240 -0.3666  1.3312
 4435SOL    HW224939   1.878   1.308   2.837  0.0025 -0.8522 -1.0739
 4436SOL     OW24940   0.697   2.245   7.641  0.0973  0.1241 -0.1038
 4436SOL    HW124941   0.625   2.190   7.672  0.6311 -0.9421 -0.7984
 4436SOL    HW224942   0.688   2.240   7.546  0.2378 -1.2343 -0.0416
 4437SOL     OW24943   2.083   0.801   9.504 -0.4076  0.1392 -0.4481
 4437SOL    HW124944   2.028   0.804   9.582  0.7130 -0.0359  0.3462
 4437SOL    HW224945   2.161   0.834   9.548 -0.9399 -1.5559  1.7952
 4438SOL     OW24946   0.349   1.116   5.790  0.7110 -0.1478 -0.4967
 4438SOL    HW124947   0.360   1.192   5.733 -0.1692 -0.3845 -0.9824
 4438SOL    HW224948   0.302   1.170   5.854  1.0410 -0.4528  0.0019
 4439SOL     OW24949   2.477   0.424   6.238  0.0003 -0.0960  0.7665
 4439SOL    HW124950   2.562   0.386   6.214  1.2727  3.4617 -0.2527
 4439SOL    HW224951   2.494   0.461   6.324  0.9394  2.9056 -0.7095
 4440SOL     OW24952   1.621   1.957  15.302 -0.7044  0.2257  0.4096
 4440SOL    HW124953   1.632   1.862  15.299 -0.4105  0.3492 -1.9164
 4440SOL    HW224954   1.530   1.974  15.281  0.0779  1.2928 -2.0312
 4441SOL     OW24955   3.244   4.364   8.151  0.3911  0.0333  0.2081
 4441SOL    HW124956   3.250   4.286   8.206  0.3757  2.3222  3.4867
 4441SOL    HW224957   3.151   4.382   8.162  0.4036  0.5708 -0.5374
 4442SOL     OW24958   0.123   2.789   2.738 -0.1638 -0.4673 -0.0309
 4442SOL    HW124959   0.098   2.714   2.792  0.1449 -0.5719 -0.0330
 4442SOL    HW224960   0.113   2.859   2.802 -1.2405 -0.8977  0.2650
 4443SOL     OW24961   1.257   0.734  13.663 -0.5698  0.1698 -0.4607
 4443SOL    HW124962   1.347   0.746  13.631 -0.2398  1.7338  1.0303
 4443SOL    HW224963   1.231   0.826  13.649 -0.1607  0.3109 -0.3003
 4444SOL     OW24964   3.622   1.317   2.278  0.0049  0.0813 -0.4542
 4444SOL    HW124965   3.555   1.383   2.294  0.6405  1.1884 -2.2850
 4444SOL    HW224966   3.622   1.300   2.183  0.1547 -0.4702 -0.3576
 4445SOL     OW24967   1.928   0.472   7.476 -0.4818 -0.5896 -0.4936
 4445SOL    HW124968   2.005   0.528   7.489 -0.2854 -1.1732  0.8385
 4445SOL    HW224969   1.891   0.528   7.407  0.6662  1.6570  0.7213
 4446SOL     OW24970   2.134   4.170   5.563 -0.2786  0.4251  0.4011
 4446SOL    HW124971   2.149   4.259   5.595  2.1303  0.4891 -0.8559
 4446SOL    HW224972   2.145   4.184   5.469 -1.1223  0.8675  0.3662
 4447SOL     OW24973   4.397   4.618   6.667  0.3356  0.5637  0.5022
 4447SOL    HW124974   4.466   4.563   6.630 -0.9223  0.0567 -1.0337
 4447SOL    HW224975   4.357   4.648   6.586  0.0262 -0.5620  0.2417
 4448SOL     OW24976   1.471   2.037  10.964 -0.3530  0.5043 -0.7605
 4448SOL    HW124977   1.525   1.965  10.997  0.6085  0.9426 -1.3844
 4448SOL    HW224978   1.534   2.110  10.967  0.1057  0.0700  0.3734
 4449SOL     OW24979   2.137   2.591   8.351  0.0476 -0.4211 -0.2750
 4449SOL    HW124980   2.175   2.615   8.267 -1.2334 -0.2481 -0.8045
 4449SOL    HW224981   2.056   2.643   8.348 -0.1319 -0.7443 -0.9266
 4450SOL     OW24982   0.134   2.037   2.945  0.8455  0.5324 -0.1056
 4450SOL    HW124983   0.128   2.127   2.912  4.0333  0.9587  0.5226
 4450SOL    HW224984   0.055   1.999   2.907 -0.5234 -0.3667  3.5650
 4451SOL     OW24985   1.420   0.844  12.105 -0.1809  0.5048  0.6368
 4451SOL    HW124986   1.440   0.930  12.069  0.1718  0.2484  0.2199
 4451SOL    HW224987   1.413   0.787  12.029 -0.5986  0.7416  0.4962
 4452SOL     OW24988   3.550   3.415  14.938 -0.1200 -0.0767 -0.3631
 4452SOL    HW124989   3.578   3.499  14.973  0.3505 -0.0619 -0.7800
 4452SOL    HW224990   3.631   3.393  14.893  1.1699 -0.8139  2.3056
 4453SOL     OW24991   0.646   4.545  15.414 -0.1184 -0.0567  0.8216
 4453SOL    HW124992   0.626   4.579  15.501 -0.6230  0.9169  0.3222
 4453SOL    HW224993   0.739   4.523  15.405 -0.1799  0.3713 -0.7523
 4454SOL     OW24994   2.240   1.313   7.840  0.0612 -0.0554  0.0343
 4454SOL    HW124995   2.321   1.348   7.877 -0.1945  2.1461 -1.4777
 4454SOL    HW224996   2.263   1.326   7.747 -3.0064 -1.3051 -0.8809
 4455SOL     OW24997   3.313   4.187  13.518  0.1650  0.4958  0.1273
 4455SOL    HW124998   3.226   4.195  13.557  1.0243  1.3836  1.8685
 4455SOL    HW224999   3.296   4.236  13.438 -0.4426  0.3368  0.1629
 4456SOL     OW25000   2.851   2.485   7.817 -0.0377  0.1756  0.2853
 4456SOL    HW125001   2.912   2.411   7.813 -1.1220 -0.6083 -1.9760
 4456SOL    HW225002   2.810   2.476   7.731 -1.1537 -0.1729  0.8541
 4457SOL     OW25003   3.960   1.150  13.069  0.4060  0.0760 -0.4976
 4457SOL    HW125004   3.886   1.123  13.123  0.9204 -0.9605 -0.2928
 4457SOL    HW225005   3.982   1.232  13.112  1.0157 -1.2245  1.6509
 4458SOL     OW25006   0.579   4.220   6.891 -0.1213  0.5670 -0.0496
 4458SOL    HW125007   0.497   4.214   6.842 -0.6973 -1.4752  1.1791
 4458SOL    HW225008   0.597   4.128   6.907  1.5990  1.2239  1.7998
 4459SOL     OW25009   4.695   2.148   8.928 -0.3578  0.6648 -0.1718
 4459SOL    HW125010   4.657   2.212   8.989 -0.4315 -0.5423  1.0511
 4459SOL    HW225011   0.022   2.198   8.880 -1.1486 -0.3553 -2.2989
 4460SOL     OW25012   2.693   2.337   4.048 -0.2715  0.3332 -0.1616
 4460SOL    HW125013   2.693   2.417   4.101  2.7308 -1.9575  3.3835
 4460SOL    HW225014   2.779   2.349   4.007  0.2886 -0.7907  0.6627
 4461SOL     OW25015   1.370   0.550   8.939 -0.5103 -0.0485 -0.5630
 4461SOL    HW125016   1.431   0.624   8.937  0.1356 -0.5822 -0.6746
 4461SOL    HW225017   1.368   0.522   9.030  2.4528  0.4540 -0.3400
 4462SOL     OW25018   2.569   4.145   6.202  0.2290 -0.4730  0.4330
 4462SOL    HW125019   2.513   4.175   6.273  0.7064 -1.1118  1.0808
 4462SOL    HW225020   2.593   4.227   6.158  1.4554 -0.1396  1.7360
 4463SOL     OW25021   0.249   0.925   1.919 -0.2527 -0.1646  0.1176
 4463SOL    HW125022   0.281   0.870   1.847 -1.6954 -0.6868 -0.1425
 4463SOL    HW225023   0.161   0.952   1.890 -0.5395  1.0003  2.0897
 4464SOL     OW25024   2.039   3.981   5.304  0.1346  0.4259  0.1155
 4464SOL    HW125025   2.115   3.965   5.249  0.6432 -0.3697  1.0542
 4464SOL    HW225026   2.038   4.076   5.298  0.6044  0.4468  0.3951
 4465SOL     OW25027   2.946   0.836  16.762 -0.4563  0.4712 -0.3870
 4465SOL    HW125028   2.866   0.858  16.810  0.4776  1.3476  0.7618
 4465SOL    HW225029   2.919   0.794  16.680  1.9026 -0.3186 -0.7335
 4466SOL     OW25030   1.247   3.504   3.654  0.0543  0.7783 -0.0526
 4466SOL    HW125031   1.340   3.481   3.661  0.4040  2.0791 -0.5341
 4466SOL    HW225032   1.219   3.515   3.745 -0.8374 -4.0004  0.2737
 4467SOL     OW25033   2.276   1.457   9.721 -0.3560  0.5114 -0.4212
 4467SOL    HW125034   2.342   1.434   9.786 -1.3176  0.7625  0.6244
 4467SOL    HW225035   2.202   1.403   9.746  0.9677 -0.4331  1.4381
 4468SOL     OW25036   2.328   4.634   3.846  0.2197 -1.0016 -0.2973
 4468SOL    HW125037   2.299   4.719   3.811  3.7158  0.2407 -0.1701
 4468SOL    HW225038   2.245   4.614   3.890  0.2249  0.0886  0.2040
 4469SOL     OW25039   0.105   1.998   4.858  0.0841 -0.2607  0.4140
 4469SOL    HW125040   0.084   2.025   4.768 -0.1987 -0.3302  0.4597
 4469SOL    HW225041   0.169   2.062   4.888  2.1295 -2.8242  1.5396
 4470SOL     OW25042   1.392   1.506   6.928  0.4925  0.4962  0.4038
 4470SOL    HW125043   1.327   1.461   6.983  1.4307  0.3207  1.3621
 4470SOL    HW225044   1.473   1.490   6.977  0.1516 -0.7130  0.5652
 4471SOL     OW25045   2.906   2.676   5.809  0.2952 -0.4891  0.2876
 4471SOL    HW125046   2.878   2.649   5.897 -1.0303 -0.9146 -0.2770
 4471SOL    HW225047   2.861   2.609   5.758 -0.2439 -0.2056  0.3957
 4472SOL     OW25048   1.459   3.530   5.215 -0.3438  0.0628  0.1034
 4472SOL    HW125049   1.428   3.459   5.159 -1.7577 -0.5216  1.6473
 4472SOL    HW225050   1.377   3.543   5.261 -0.2524  2.7400 -0.4905
 4473SOL     OW25051   4.005   3.945   2.666  0.0765  0.3134  0.3575
 4473SOL    HW125052   4.046   3.911   2.587 -1.6703 -1.2383  0.1185
 4473SOL    HW225053   4.029   3.871   2.722 -0.0159  0.4817  0.6192
 4474SOL     OW25054   2.940   0.019   5.032 -0.7718  0.3531 -0.3870
 4474SOL    HW125055   2.952   4.720   4.944 -3.2899 -3.4337  0.8891
 4474SOL    HW225056   3.029   0.040   5.059 -0.3340 -1.3398 -0.5124
 4475SOL     OW25057   3.424   3.173   9.065  0.3875 -0.3029 -0.4906
 4475SOL    HW125058   3.373   3.122   9.128 -1.3903  0.3609 -1.3904
 4475SOL    HW225059   3.355   3.236   9.043 -0.7086 -1.7394 -1.1831
 4476SOL     OW25060   2.410   1.846  12.422 -0.1334 -0.0341  0.3788
 4476SOL    HW125061   2.386   1.938  12.433  0.0778  0.1459 -0.6356
 4476SOL    HW225062   2.506   1.854  12.421 -0.2721  1.6096 -0.7290
 4477SOL     OW25063   2.855   3.006   6.754 -0.2895  0.1632  0.0554
 4477SOL    HW125064   2.782   2.954   6.719 -0.4950 -0.0072  0.7327
 4477SOL    HW225065   2.858   2.960   6.837  1.4270  0.9012  0.4036
 4478SOL     OW25066   3.229   0.215  15.054 -0.5343 -0.1022  0.4357
 4478SOL    HW125067   3.320   0.229  15.026 -1.0439 -2.0357 -2.1563
 4478SOL    HW225068   3.242   0.240  15.146  0.8891  2.1843 -0.3958
 4479SOL     OW25069   2.493   4.703   8.299 -0.1376 -0.0489  0.5870
 4479SOL    HW125070   2.510   0.039   8.355 -0.4762 -0.7025  1.5721
 4479SOL    HW225071   2.510   4.625   8.352  0.0840 -1.7801 -1.9917
 4480SOL     OW25072   2.155   1.271   8.239 -0.1735  0.0908  0.7042
 4480SOL    HW125073   2.112   1.340   8.187  2.2842  0.7415 -0.4491
 4480SOL    HW225074   2.208   1.233   8.169 -1.1902 -1.2483  0.6614
 4481SOL     OW25075   2.785   3.670   7.862  0.2400  0.1984 -0.5473
 4481SOL    HW125076   2.690   3.679   7.858  0.3750  1.0095 -1.7727
 4481SOL    HW225077   2.819   3.755   7.835 -0.7562  0.8186  0.1381
 4482SOL     OW25078   1.172   0.643   5.658  0.3213 -0.5953 -0.2513
 4482SOL    HW125079   1.133   0.585   5.593 -0.7241  2.7983 -2.6767
 4482SOL    HW225080   1.148   0.731   5.629 -0.1547 -0.5740  0.1994
 4483SOL     OW25081   2.317   3.442  15.042  0.6068 -0.4636  0.1612
 4483SOL    HW125082   2.226   3.429  15.070  1.5456 -4.4271  1.5275
 4483SOL    HW225083   2.324   3.392  14.961 -0.8432  0.4128 -0.4969
 4484SOL     OW25084   4.622   3.600   4.337  0.5193 -0.0703  0.2928
 4484SOL    HW125085   4.651   3.560   4.255 -2.3480 -0.9589 -0.3076
 4484SOL    HW225086   4.665   3.541   4.398  1.7469  3.1995  2.6115
 4485SOL     OW25087   3.465   4.314  17.291 -0.3802  0.1217  0.3638
 4485SOL    HW125088   3.510   4.314  17.376 -0.0480  0.4067  0.1911
 4485SOL    HW225089   3.528   4.333  17.221 -2.1506 -0.6563 -1.4222
 4486SOL     OW25090   2.502   2.765  14.717  0.5588 -0.0707 -0.0972
 4486SOL    HW125091   2.467   2.683  14.752 -0.5417  1.2596  1.9357
 4486SOL    HW225092   2.540   2.725  14.639  1.8132 -1.1872  1.1049
 4487SOL     OW25093   3.675   2.204   6.168  0.1965  0.0119 -0.2320
 4487SOL    HW125094   3.749   2.144   6.174 -1.8793 -2.4506  0.5966
 4487SOL    HW225095   3.610   2.144   6.132 -0.2692  0.6370 -0.4478
 4488SOL     OW25096   3.283   1.114   5.100 -0.3574 -0.3687 -0.0447
 4488SOL    HW125097   3.217   1.161   5.151 -1.2236 -0.6859 -0.8610
 4488SOL    HW225098   3.325   1.192   5.064  1.3585 -0.9560  0.6688
 4489SOL     OW25099   4.230   2.113  16.324 -0.1151  0.0344  0.3273
 4489SOL    HW125100   4.137   2.113  16.347 -0.5541 -3.9767 -1.4031
 4489SOL    HW225101   4.241   2.030  16.278 -0.2808 -2.0374  4.0014
 4490SOL     OW25102   2.556   0.720  12.863 -0.2800  0.1144  0.3869
 4490SOL    HW125103   2.584   0.665  12.790  1.2463 -0.1584  1.1718
 4490SOL    HW225104   2.553   0.804  12.817 -0.2593 -0.3349 -0.4314
 4491SOL     OW25105   1.189   2.718   2.374 -0.4126 -0.1549  0.3586
 4491SOL    HW125106   1.232   2.733   2.290  2.2359  1.2012  1.9582
 4491SOL    HW225107   1.267   2.675   2.409  0.3948  1.2819  0.2895
 4492SOL     OW25108   3.889   2.701   2.697 -0.5355  0.1169  0.2718
 4492SOL    HW125109   3.872   2.660   2.781 -1.4006 -1.4210 -0.6483
 4492SOL    HW225110   3.801   2.698   2.658  0.4568 -1.5747 -1.8795
 4493SOL     OW25111   1.790   4.151  12.929  0.2331 -0.5530  0.0500
 4493SOL    HW125112   1.764   4.220  12.868  1.1618 -1.8848 -1.8746
 4493SOL    HW225113   1.705   4.117  12.959 -0.1022  0.8523  0.6829
 4494SOL     OW25114   1.911   3.700   8.291  0.1404  1.2788 -0.3351
 4494SOL    HW125115   1.965   3.633   8.334 -1.3389  1.2050  1.3917
 4494SOL    HW225116   1.969   3.773   8.311 -0.1586  0.8228  2.1644
 4495SOL     OW25117   2.373   3.712  17.732  0.0046 -0.2732 -0.1076
 4495SOL    HW125118   2.405   3.754   0.056  0.6831 -0.5286 -0.2515
 4495SOL    HW225119   2.457   3.719  17.687  0.2017 -1.2632  0.1128
 4496SOL     OW25120   4.492   2.582   6.882 -0.2861 -0.5585 -0.2445
 4496SOL    HW125121   4.566   2.533   6.846  0.0415  0.1733 -0.5676
 4496SOL    HW225122   4.521   2.590   6.973 -1.6437  0.8697  0.0515
 4497SOL     OW25123   3.144   0.812   5.088 -0.4054 -0.4354  0.2284
 4497SOL    HW125124   3.224   0.827   5.038 -1.2688 -0.2845 -1.0964
 4497SOL    HW225125   3.173   0.750   5.155  0.9991 -0.2886 -0.2374
 4498SOL     OW25126   2.302   2.437   4.580 -0.1288  0.1562 -0.2442
 4498SOL    HW125127   2.296   2.342   4.589 -3.3621  0.3704 -0.0407
 4498SOL    HW225128   2.364   2.462   4.648  1.0232  2.1591 -2.0526
 4499SOL     OW25129   4.305   2.768   7.597 -0.8109  0.1154  0.1681
 4499SOL    HW125130   4.297   2.751   7.503  0.3034 -1.2289  0.3229
 4499SOL    HW225131   4.222   2.814   7.610 -0.5282  1.0163 -1.2440
 4500SOL     OW25132   1.600   3.328   2.258 -0.0962  0.4747 -0.4066
 4500SOL    HW125133   1.633   3.389   2.323  0.4163  1.0058 -1.1559
 4500SOL    HW225134   1.670   3.263   2.246 -1.9608 -1.8978  1.6418
 4501SOL     OW25135   0.425   3.759   4.020 -0.1779  0.3295 -0.6723
 4501SOL    HW125136   0.481   3.748   4.097 -1.9442  0.2551  0.5954
 4501SOL    HW225137   0.397   3.849   4.034  0.9247  0.6098 -0.2317
 4502SOL     OW25138   4.472   0.616  17.493 -0.3018 -0.0823  0.1819
 4502SOL    HW125139   4.398   0.567  17.528  0.0418 -0.9538 -0.3095
 4502SOL    HW225140   4.433   0.679  17.432  2.2522  1.2978 -0.0093
 4503SOL     OW25141   4.677   1.803   3.443  0.2514 -0.5448  0.0461
 4503SOL    HW125142   4.629   1.761   3.515 -0.1337 -1.8349 -0.9594
 4503SOL    HW225143   4.621   1.782   3.368  0.1347  0.6340 -0.1959
 4504SOL     OW25144   3.452   3.416   7.874 -0.3638  0.4899  0.4937
 4504SOL    HW125145   3.377   3.455   7.919 -0.3811  0.4734  0.4791
 4504SOL    HW225146   3.494   3.497   7.843 -1.0966  0.9593  0.7288
 4505SOL     OW25147   1.178   4.635   6.118 -0.0624  0.4216 -0.2017
 4505SOL    HW125148   1.111   4.600   6.177  1.2533  1.7395  2.0724
 4505SOL    HW225149   1.194   4.576   6.045  2.7042 -0.0366  0.7874
 4506SOL     OW25150   2.354   3.134   8.805 -0.2702  0.0133 -0.5258
 4506SOL    HW125151   2.369   3.061   8.745  3.2608 -2.1786  2.9813
 4506SOL    HW225152   2.419   3.198   8.776 -0.2728  0.2435 -0.0218
 4507SOL     OW25153   0.544   0.622   6.757  0.1833  0.0664 -0.7127
 4507SOL    HW125154   0.557   0.665   6.842  0.2747 -2.2840  0.4603
 4507SOL    HW225155   0.485   0.689   6.721  0.5503  0.2984 -0.8873
 4508SOL     OW25156   1.678   3.718  14.343 -0.4305 -1.6884  0.0481
 4508SOL    HW125157   1.596   3.744  14.386  1.8034  1.5959  2.3098
 4508SOL    HW225158   1.728   3.673  14.411 -0.6803  0.5344  1.7297
 4509SOL     OW25159   3.529   3.850   3.705  0.7306 -0.4876 -0.0607
 4509SOL    HW125160   3.495   3.924   3.655 -0.6912  0.0324  1.6880
 4509SOL    HW225161   3.586   3.901   3.762  0.0371  0.3983 -0.1551
 4510SOL     OW25162   0.131   0.627   8.514 -0.7941  0.9171  1.2180
 4510SOL    HW125163   0.188   0.682   8.567  0.1127  2.2566 -1.1523
 4510SOL    HW225164   0.132   0.543   8.561 -0.6280  0.2142 -0.0379
 4511SOL     OW25165   2.252   0.097   2.729  0.4762  0.2193  0.3204
 4511SOL    HW125166   2.262   0.192   2.735  0.2183  0.3275 -0.9713
 4511SOL    HW225167   2.321   0.080   2.665  0.1611 -1.7313  0.5154
 4512SOL     OW25168   0.139   1.234   7.046 -0.2535  0.1924 -0.2858
 4512SOL    HW125169   0.083   1.194   7.112  0.4287  0.9030  0.7176
 4512SOL    HW225170   0.209   1.267   7.102 -0.7590 -0.7669  0.8882
 4513SOL     OW25171   2.342   1.489   2.734 -0.1599 -0.3002  0.8050
 4513SOL    HW125172   2.310   1.426   2.669 -1.2078  0.0683  0.9546
 4513SOL    HW225173   2.259   1.515   2.774 -0.7800  0.6576 -1.1290
 4514SOL     OW25174   3.093   2.925   8.836  0.2076 -0.6083 -0.3912
 4514SOL    HW125175   3.094   2.833   8.808  2.9839 -0.8832  0.5153
 4514SOL    HW225176   3.016   2.940   8.891  0.7810 -0.0410  0.2641
 4515SOL     OW25177   3.358   4.261   3.388  0.5152 -0.3311 -0.7359
 4515SOL    HW125178   3.277   4.272   3.339  0.0336  0.2833  0.2188
 4515SOL    HW225179   3.378   4.354   3.397 -0.0817 -0.2261 -0.4967
 4516SOL     OW25180   2.124   2.342  12.528 -0.3539 -0.2280 -0.4196
 4516SOL    HW125181   2.048   2.338  12.469 -0.3144 -0.0680 -0.4816
 4516SOL    HW225182   2.131   2.248  12.547 -2.8823 -0.0296  1.4749
 4517SOL     OW25183   1.907   2.178  15.675  0.3505 -0.2004  0.2418
 4517SOL    HW125184   1.934   2.142  15.591  0.5480  1.5668 -0.4592
 4517SOL    HW225185   1.893   2.102  15.732  0.9745 -0.6694 -0.2345
 4518SOL     OW25186   2.157   4.221   6.203  0.6088  0.1335  0.1005
 4518SOL    HW125187   2.230   4.174   6.243 -0.1349  0.0141  1.3295
 4518SOL    HW225188   2.203   4.296   6.166  0.4797 -0.0586 -0.4445
 4519SOL     OW25189   3.367   3.317   1.979  0.7878  0.3348  0.1317
 4519SOL    HW125190   3.414   3.400   1.966 -0.4550  1.2784  1.7058
 4519SOL    HW225191   3.383   3.279   1.892  0.8371  0.7316 -0.0326
 4520SOL     OW25192   0.248   0.595  16.295 -0.2399 -0.4164 -0.8694
 4520SOL    HW125193   0.284   0.508  16.314  2.1931  0.3576 -1.9143
 4520SOL    HW225194   0.329   0.642  16.277 -1.2585  0.0517 -4.1360
 4521SOL     OW25195   2.972   4.302  15.840 -0.3718 -0.2370 -0.0125
 4521SOL    HW125196   2.884   4.284  15.873 -0.2253  0.1122  0.5761
 4521SOL    HW225197   2.960   4.379  15.785 -0.9888 -1.1294 -1.1351
 4522SOL     OW25198   1.653   3.507  17.175 -0.1121  0.5605  0.1583
 4522SOL    HW125199   1.662   3.436  17.239 -0.4161  0.6791  0.3309
 4522SOL    HW225200   1.589   3.463  17.118 -0.5622  0.6425  0.5981
 4523SOL     OW25201   1.393   1.823   7.270  0.1245  0.0679 -0.3839
 4523SOL    HW125202   1.399   1.727   7.266  1.0481  0.0963  0.4467
 4523SOL    HW225203   1.447   1.842   7.347  1.1950 -3.2712 -0.3102
 4524SOL     OW25204   1.067   3.258  14.650 -0.8311  0.0440 -0.8030
 4524SOL    HW125205   1.107   3.218  14.573 -0.2863 -3.2814  1.2044
 4524SOL    HW225206   1.146   3.287  14.697 -1.3886 -0.3601  0.3839
 4525SOL     OW25207   4.677   2.712  14.073 -0.3180 -0.5496 -0.0030
 4525SOL    HW125208   0.012   2.669  14.029 -0.0823 -0.3612  0.2142
 4525SOL    HW225209   4.621   2.743  14.002 -0.6450  1.1855  1.0338
 4526SOL     OW25210   3.247   4.660   5.947  0.0114 -0.8814 -0.5451
 4526SOL    HW125211   3.212   4.714   6.018  2.0777  1.1973 -1.1308
 4526SOL    HW225212   3.271   4.729   5.886  0.2803 -1.3412 -0.9547
 4527SOL     OW25213   0.739   0.535   3.711  0.0356  0.3262  0.4186
 4527SOL    HW125214   0.661   0.561   3.760 -0.0726 -0.9875  0.9421
 4527SOL    HW225215   0.801   0.608   3.711 -0.2958  0.5988 -0.9654
 4528SOL     OW25216   4.260   0.345   2.945 -0.0768 -0.5255  0.1417
 4528SOL    HW125217   4.265   0.355   2.850 -2.6773  0.4131  0.0862
 4528SOL    HW225218   4.344   0.306   2.965  0.0451 -0.2620  0.1492
 4529SOL     OW25219   4.618   0.152   6.561 -0.1166 -0.1475 -0.0235
 4529SOL    HW125220   4.637   0.089   6.631  0.9911  0.3480  0.1215
 4529SOL    HW225221   4.593   0.234   6.603  1.8584  0.4008  0.0666
 4530SOL     OW25222   1.452   1.729  17.374  0.2811  0.3319 -1.0457
 4530SOL    HW125223   1.427   1.756  17.463 -2.9050 -0.5109 -1.7005
 4530SOL    HW225224   1.363   1.728  17.339 -0.7552  0.9830  1.5717
 4531SOL     OW25225   0.199   3.681   4.488 -0.5510 -0.1442 -0.1326
 4531SOL    HW125226   0.149   3.728   4.421 -0.2579  1.3288  0.6788
 4531SOL    HW225227   0.270   3.651   4.431 -0.8003 -1.4365  0.2373
 4532SOL     OW25228   3.361   0.146   6.283  0.0796 -0.2120 -0.8305
 4532SOL    HW125229   3.412   0.067   6.263  1.0428 -0.5315  2.8622
 4532SOL    HW225230   3.314   0.117   6.362  0.1529  3.5722  0.5931
 4533SOL     OW25231   1.941   3.615  12.505  0.2028  0.2625 -0.4646
 4533SOL    HW125232   2.021   3.638  12.552 -1.2361  0.7176  1.7828
 4533SOL    HW225233   1.962   3.635  12.414 -1.4443  3.5201 -0.1317
 4534SOL     OW25234   2.665   4.493   3.438  0.6017  0.8118 -0.3143
 4534SOL    HW125235   2.585   4.467   3.484 -1.2289  4.3941 -1.4108
 4534SOL    HW225236   2.668   4.587   3.458  2.7230  0.6050  0.3198
 4535SOL     OW25237   2.284   0.794   5.275  0.5131  0.3244  0.1115
 4535SOL    HW125238   2.285   0.703   5.306 -0.0338 -1.3130 -4.7297
 4535SOL    HW225239   2.336   0.784   5.196 -0.7420  0.7149 -0.7656
 4536SOL     OW25240   1.139   3.658   4.570  0.3667  0.2742 -0.1351
 4536SOL    HW125241   1.135   3.569   4.606  1.0116 -0.7474 -2.6139
 4536SOL    HW225242   1.050   3.683   4.595  1.1220  2.1343  0.6973
 4537SOL     OW25243   1.578   0.165   7.280 -0.0162  0.2145  0.1058
 4537SOL    HW125244   1.593   0.143   7.372  1.0685 -2.2339 -0.6753
 4537SOL    HW225245   1.615   0.253   7.273 -1.6052  0.8976  0.2734
 4538SOL     OW25246   4.551   3.679   0.987 -0.5929  0.1427 -0.5548
 4538SOL    HW125247   4.568   3.601   1.039 -0.9150  1.1708  1.1064
 4538SOL    HW225248   4.461   3.658   0.961  0.5239 -3.8112 -1.1522
 4539SOL     OW25249   0.266   3.748   1.888  0.2302  0.1375 -0.9095
 4539SOL    HW125250   0.309   3.702   1.960 -0.2491 -2.0531 -2.0073
 4539SOL    HW225251   0.243   3.831   1.929 -0.4481 -0.6035  0.1926
 4540SOL     OW25252   1.543   3.350  12.258 -0.0352  0.0803  0.2519
 4540SOL    HW125253   1.497   3.283  12.308 -1.7415 -0.6495 -2.2454
 4540SOL    HW225254   1.630   3.348  12.297 -0.0098 -1.2424  0.1117
 4541SOL     OW25255   4.002   1.580   2.344  0.3017 -0.3072  0.5820
 4541SOL    HW125256   4.021   1.487   2.347  1.2655 -0.1791 -1.6392
 4541SOL    HW225257   4.091   1.609   2.324 -0.8291  2.2140 -0.8883
 4542SOL     OW25258   2.440   0.241   0.646  0.0340  0.5143  0.1404
 4542SOL    HW125259   2.453   0.258   0.553  2.2677  0.9241  0.5160
 4542SOL    HW225260   2.370   0.176   0.646  0.1585  0.3827  0.8027
 4543SOL     OW25261   1.081   4.467   5.905 -0.2015  0.0580  0.2555
 4543SOL    HW125262   1.038   4.428   5.981 -1.9235  0.4958 -0.4876
 4543SOL    HW225263   1.007   4.515   5.867 -1.9676 -0.6411  2.8098
 4544SOL     OW25264   0.714   0.200   9.343 -0.5673  0.5677 -0.1947
 4544SOL    HW125265   0.725   0.188   9.248  1.4850 -0.3273  0.1465
 4544SOL    HW225266   0.678   0.289   9.335 -0.0135  0.6698 -1.5613
 4545SOL     OW25267   2.870   3.440   1.817  0.0926  0.3226  0.3738
 4545SOL    HW125268   2.868   3.347   1.798  0.5471  0.1172  1.3238
 4545SOL    HW225269   2.934   3.444   1.888 -1.3460  1.2648  1.6382
 4546SOL     OW25270   3.629   4.687   3.504 -0.9608 -0.1424  0.0685
 4546SOL    HW125271   3.572   4.660   3.432 -0.6396  2.3724 -1.1280
 4546SOL    HW225272   3.715   4.701   3.465 -1.4478  0.5456 -0.7625
 4547SOL     OW25273   3.234   2.979   9.164  0.4068  0.3064  0.4302
 4547SOL    HW125274   3.232   2.887   9.138  0.7122  0.7815 -1.3137
 4547SOL    HW225275   3.147   3.005   9.133 -0.3098 -2.7886 -0.1629
 4548SOL     OW25276   3.277   2.404   5.842  0.4960 -0.5360  0.1078
 4548SOL    HW125277   3.344   2.471   5.826 -0.6745  0.5965 -0.0321
 4548SOL    HW225278   3.336   2.329   5.852 -1.5450 -1.9398  1.4897
 4549SOL     OW25279   4.256   0.279   0.831  0.5321 -0.4167 -0.1544
 4549SOL    HW125280   4.221   0.277   0.920 -1.1342 -1.4550 -0.8244
 4549SOL    HW225281   4.237   0.367   0.798  0.8585  0.0745  0.9673
 4550SOL     OW25282   2.094   2.740  12.497  0.2434  0.3107  0.1489
 4550SOL    HW125283   2.119   2.754  12.588 -0.3903  0.3813  0.3118
 4550SOL    HW225284   2.179   2.706  12.469  0.0277 -1.1255  1.1877
 4551SOL     OW25285   2.974   2.098   4.990 -0.3211  0.3860 -0.2385
 4551SOL    HW125286   3.001   2.184   5.021 -0.1557  0.6785 -1.2087
 4551SOL    HW225287   3.062   2.059   4.989 -0.3241  0.2661  3.3927
 4552SOL     OW25288   4.394   0.176   4.076 -0.1725  0.4916 -0.1084
 4552SOL    HW125289   4.341   0.139   4.146 -0.6906  1.0848 -0.1839
 4552SOL    HW225290   4.373   0.123   3.999  0.1291 -1.1790  0.9666
 4553SOL     OW25291   2.961   4.298   7.060  0.1346  0.1323 -0.3848
 4553SOL    HW125292   2.963   4.337   6.973 -0.4847  1.0491  0.0065
 4553SOL    HW225293   3.005   4.217   7.038  0.6749  0.4614 -0.5087
 4554SOL     OW25294   4.652   2.286  16.028  0.5600 -0.5308  0.1785
 4554SOL    HW125295   4.646   2.339  15.948  1.3053  0.2942  0.6777
 4554SOL    HW225296   0.008   2.284  16.020  0.5853 -1.7106  0.7647
 4555SOL     OW25297   4.044   2.436   0.617 -0.2964 -0.4817 -0.2869
 4555SOL    HW125298   3.973   2.466   0.674  0.0435 -0.6330  0.2124
 4555SOL    HW225299   4.026   2.342   0.611 -0.9837 -0.3267 -0.7476
 4556SOL     OW25300   0.559   3.519  13.348  0.0989 -0.0678  0.5543
 4556SOL    HW125301   0.537   3.601  13.305  1.9880  0.5566  0.7813
 4556SOL    HW225302   0.633   3.487  13.296  0.9650  0.4302  1.4675
 4557SOL     OW25303   3.873   4.005   8.961  0.0306  0.8059  0.1733
 4557SOL    HW125304   3.836   3.926   8.999  1.6921 -1.0561 -2.0846
 4557SOL    HW225305   3.796   4.058   8.939 -0.3144 -0.5010 -1.7675
 4558SOL     OW25306   4.613   3.636   3.661  0.2326 -0.0259 -0.1375
 4558SOL    HW125307   4.654   3.647   3.575  0.9260  0.4929  0.2681
 4558SOL    HW225308   4.687   3.616   3.718  0.4468  2.3653  0.3932
 4559SOL     OW25309   3.317   1.023   2.267 -0.7127  0.1648 -0.2097
 4559SOL    HW125310   3.411   1.020   2.250 -0.8816 -0.3003 -1.0763
 4559SOL    HW225311   3.311   1.094   2.331 -0.8156  0.7832 -0.8907
 4560SOL     OW25312   4.725   0.322   6.979  0.6572 -0.1793 -0.2688
 4560SOL    HW125313   4.698   0.335   7.070  3.1179 -1.1024  0.5905
 4560SOL    HW225314   0.042   0.398   6.969  1.2719 -0.5698  0.2405
 4561SOL     OW25315   4.314   0.716   3.899  0.5256 -0.3762  0.0953
 4561SOL    HW125316   4.231   0.711   3.946  0.2704 -1.0424 -0.4101
 4561SOL    HW225317   4.338   0.625   3.878  1.8998  0.3943 -1.6773
 4562SOL     OW25318   3.198   1.349   5.919  0.1070  0.1543 -0.1871
 4562SOL    HW125319   3.216   1.313   5.832 -0.9262 -0.8606  0.0151
 4562SOL    HW225320   3.281   1.388   5.948  0.3364 -0.0429 -0.5796
 4563SOL     OW25321   3.282   3.429   7.036 -0.0694 -0.0668  0.3299
 4563SOL    HW125322   3.338   3.351   7.032 -0.1143 -0.0695 -0.3790
 4563SOL    HW225323   3.249   3.418   7.125  0.0059  0.7387  0.4545
 4564SOL     OW25324   1.347   2.633   8.541 -0.5880  0.1404 -0.4757
 4564SOL    HW125325   1.292   2.642   8.619 -1.3655  0.6075 -1.0804
 4564SOL    HW225326   1.410   2.703   8.561 -1.3034  0.7318 -0.3200
 4565SOL     OW25327   3.111   0.066   6.123 -0.0634  0.3931 -0.0228
 4565SOL    HW125328   3.125   0.151   6.166  2.8097  0.4252 -0.9823
 4565SOL    HW225329   3.079   0.014   6.196 -0.7180  2.2974  1.0461
 4566SOL     OW25330   3.963   2.992   9.483 -0.8848 -0.6771 -0.3220
 4566SOL    HW125331   4.011   2.911   9.466  1.3554  0.2266  1.8013
 4566SOL    HW225332   4.023   3.046   9.534 -1.8717 -0.2042  0.3366
 4567SOL     OW25333   4.618   3.923   3.212 -0.0155  0.4146 -0.4434
 4567SOL    HW125334   4.579   4.010   3.214  0.4111  0.5618  1.2737
 4567SOL    HW225335   4.711   3.945   3.216 -0.5557  2.0120  3.0492
 4568SOL     OW25336   4.019   3.904   4.662 -0.1628  0.9169  0.5396
 4568SOL    HW125337   4.038   3.977   4.603 -2.4065  0.3681 -0.8795
 4568SOL    HW225338   4.093   3.918   4.720  1.5110 -1.0239 -1.1598
 4569SOL     OW25339   0.816   1.955   2.773 -0.2740 -0.2765  0.0064
 4569SOL    HW125340   0.905   1.983   2.751  1.3346 -4.2426  1.4474
 4569SOL    HW225341   0.798   2.015   2.845 -0.9046 -1.8763  1.1939
 4570SOL     OW25342   2.204   3.436   2.363  0.3026 -0.3698  0.0331
 4570SOL    HW125343   2.128   3.461   2.416  0.5728  0.8856 -0.1901
 4570SOL    HW225344   2.162   3.378   2.300 -0.0312  1.9909 -1.9196
 4571SOL     OW25345   0.745   1.201   6.482 -0.3899 -0.5769  0.1093
 4571SOL    HW125346   0.783   1.268   6.426  1.2094  0.0891  2.0174
 4571SOL    HW225347   0.658   1.192   6.441  0.4031 -1.8535 -1.2902
 4572SOL     OW25348   2.593   2.308   0.168 -0.2498 -0.1528  0.2035
 4572SOL    HW125349   2.631   2.376   0.224 -1.3938  2.1170 -1.8086
 4572SOL    HW225350   2.498   2.316   0.173 -0.1473  1.2395 -0.0754
 4573SOL     OW25351   3.479   3.511   2.672  0.1406 -0.2090 -0.3689
 4573SOL    HW125352   3.534   3.559   2.734  0.3794 -1.5022  0.4230
 4573SOL    HW225353   3.544   3.452   2.633  0.9766 -0.2568  1.1034
 4574SOL     OW25354   3.214   2.507   2.597 -0.3030 -0.0116  0.1046
 4574SOL    HW125355   3.173   2.423   2.618 -0.0907 -0.2467 -0.4002
 4574SOL    HW225356   3.262   2.482   2.518 -1.8077  1.6357 -1.3227
 4575SOL     OW25357   3.753   3.202  16.715  0.1907  0.2101  0.4729
 4575SOL    HW125358   3.697   3.125  16.705 -0.9998  1.2132 -0.6043
 4575SOL    HW225359   3.785   3.188  16.804 -0.5274 -1.2590  0.5011
 4576SOL     OW25360   0.482   1.116  15.005 -0.2989 -0.0484 -0.2131
 4576SOL    HW125361   0.459   1.038  15.054 -2.5149  0.9798  0.4127
 4576SOL    HW225362   0.434   1.101  14.923  0.9916  0.1771 -1.0158
 4577SOL     OW25363   1.545   0.534   6.745 -0.3258 -0.2143 -0.3557
 4577SOL    HW125364   1.499   0.489   6.675 -0.1455 -0.1608 -0.5086
 4577SOL    HW225365   1.633   0.502   6.725 -0.8291 -2.4974  1.0516
 4578SOL     OW25366   1.643   1.405   1.396  0.3047  0.2494  0.3004
 4578SOL    HW125367   1.620   1.467   1.328 -2.0963  0.0928  0.9621
 4578SOL    HW225368   1.731   1.377   1.373  0.8004  1.0502  1.2065
 4579SOL     OW25369   2.018   3.820   6.942 -0.1981 -0.0372  0.0734
 4579SOL    HW125370   2.101   3.830   6.989  0.6757  0.8187 -1.6545
 4579SOL    HW225371   1.987   3.911   6.937  0.2127  0.2675  2.9424
 4580SOL     OW25372   4.716   1.694   2.908 -0.3899 -0.4411  0.3258
 4580SOL    HW125373   4.718   1.632   2.835  1.1984 -0.5173  0.4404
 4580SOL    HW225374   0.023   1.651   2.980  1.1608  2.1476  0.8547
 4581SOL     OW25375   2.815   3.681   2.546  0.2693  0.7641 -0.2193
 4581SOL    HW125376   2.743   3.736   2.576 -0.1667  0.7229 -1.1840
 4581SOL    HW225377   2.769   3.639   2.473  1.9418 -1.9408  0.2716
 4582SOL     OW25378   4.444   3.081  11.783  0.0775  0.3028 -0.5069
 4582SOL    HW125379   4.401   3.164  11.807 -0.1725  0.1705 -0.4946
 4582SOL    HW225380   4.389   3.022  11.836  0.4963  0.2653 -0.1128
 4583SOL     OW25381   2.262   1.314   1.498  0.2508 -0.2060  0.4804
 4583SOL    HW125382   2.196   1.378   1.524  0.3778  0.5204 -1.0340
 4583SOL    HW225383   2.258   1.238   1.556  0.0819  0.7214  1.6836
 4584SOL     OW25384   0.455   1.846   8.295 -0.6122  0.1177  0.5477
 4584SOL    HW125385   0.367   1.860   8.260 -1.1220 -1.4429  1.2098
 4584SOL    HW225386   0.484   1.937   8.287 -2.7864  0.4782 -2.9596
 4585SOL     OW25387   0.987   1.762  10.058 -0.5893  0.0179 -0.1504
 4585SOL    HW125388   0.956   1.818  10.128  2.2391  2.6445 -1.0024
 4585SOL    HW225389   0.981   1.678  10.104  1.3964  0.9392  1.7735
 4586SOL     OW25390   2.446   3.516   0.887 -0.2097  0.0226  0.1095
 4586SOL    HW125391   2.418   3.453   0.952 -1.6674 -0.2328 -0.7704
 4586SOL    HW225392   2.369   3.568   0.864 -0.2128  0.3548  0.8729
 4587SOL     OW25393   3.625   4.390   8.733 -0.1311  0.1137 -0.3871
 4587SOL    HW125394   3.531   4.408   8.738  0.0912  1.0831  0.2732
 4587SOL    HW225395   3.665   4.457   8.788 -1.3774 -0.2138  0.8945
 4588SOL     OW25396   4.675   2.194   3.616 -0.1924  0.3335 -0.2154
 4588SOL    HW125397   4.669   2.259   3.547 -1.5316 -0.2285 -0.6487
 4588SOL    HW225398   4.587   2.158   3.628  0.8671 -2.5143 -1.0457
 4589SOL     OW25399   2.745   2.507  16.215  0.2988  0.6848 -0.1695
 4589SOL    HW125400   2.832   2.494  16.252 -0.1533 -1.5835  0.1457
 4589SOL    HW225401   2.701   2.535  16.295  0.3342 -0.6853  0.3395
 4590SOL     OW25402   0.233   0.472   8.297  0.3796 -0.5058  0.2727
 4590SOL    HW125403   0.186   0.392   8.320  1.5804 -1.5101 -0.7983
 4590SOL    HW225404   0.218   0.521   8.379  0.4439 -1.9046  1.1222
 4591SOL     OW25405   1.999   3.245   8.328  0.3120  0.4336  0.4488
 4591SOL    HW125406   2.066   3.289   8.276  1.2836 -0.7666  0.6754
 4591SOL    HW225407   2.051   3.206   8.399  0.8410  1.1083  0.4325
 4592SOL     OW25408   3.372   4.113   6.528  0.1375  0.4096  0.4102
 4592SOL    HW125409   3.301   4.070   6.574 -1.7859  2.3208 -0.7613
 4592SOL    HW225410   3.448   4.067   6.562  0.9580  0.7516 -0.9233
 4593SOL     OW25411   4.162   0.200  11.039  0.5752 -0.4762  0.4160
 4593SOL    HW125412   4.140   0.110  11.066  0.2855 -0.5075  0.0826
 4593SOL    HW225413   4.087   0.216  10.982 -0.8761 -1.7320  1.9603
 4594SOL     OW25414   3.806   1.593   6.452 -0.1427 -0.1503  0.1580
 4594SOL    HW125415   3.711   1.584   6.459 -0.1505 -0.6624 -0.5802
 4594SOL    HW225416   3.826   1.653   6.524 -2.4774  0.7264  0.0779
 4595SOL     OW25417   1.606   2.812   0.048  0.4174  0.2080 -0.1966
 4595SOL    HW125418   1.565   2.782  17.722  2.4881 -3.4663  0.1081
 4595SOL    HW225419   1.693   2.798   0.010  0.6608  1.0158  0.0558
 4596SOL     OW25420   3.895   0.408  14.306  0.5835 -0.1695  0.3256
 4596SOL    HW125421   3.887   0.386  14.399  4.7377  2.9213  1.4078
 4596SOL    HW225422   3.838   0.340  14.270  0.2005  0.4247 -0.1798
 4597SOL     OW25423   4.232   0.983   9.028  0.3458 -0.0810  0.4281
 4597SOL    HW125424   4.139   0.999   9.012  0.4953  1.6615  1.3752
 4597SOL    HW225425   4.268   1.028   8.952 -2.4263 -0.4944 -1.1390
 4598SOL     OW25426   3.522   3.828   0.357 -0.2880 -0.2980  0.1264
 4598SOL    HW125427   3.603   3.879   0.351  0.3019 -1.1121  1.2668
 4598SOL    HW225428   3.509   3.793   0.269  1.4083  0.6209 -0.5070
 4599SOL     OW25429   3.743   2.364  13.752 -1.0439 -0.8187  0.3845
 4599SOL    HW125430   3.704   2.370  13.839  2.1451  1.5386  1.6302
 4599SOL    HW225431   3.792   2.286  13.777  1.3331  1.1169  1.8177
 4600SOL     OW25432   0.884   3.010   1.414 -0.4501  0.0696 -0.1006
 4600SOL    HW125433   0.942   3.074   1.455 -1.3181  0.8599 -0.0841
 4600SOL    HW225434   0.827   3.064   1.359 -1.0848  0.8168  1.2876
 4601SOL     OW25435   0.053   3.281   6.067  0.4267  0.5228  0.6487
 4601SOL    HW125436   0.136   3.304   6.110  1.2543  0.0574 -0.7238
 4601SOL    HW225437   0.069   3.189   6.045 -0.8201  0.2451  0.9346
 4602SOL     OW25438   0.958   3.820   6.037 -0.4944 -0.0248 -0.8497
 4602SOL    HW125439   1.024   3.837   5.970 -0.9676  0.8558 -1.0900
 4602SOL    HW225440   0.875   3.850   6.000 -0.1036  1.3180 -0.6216
 4603SOL     OW25441   2.279   0.742  13.568  0.2151  0.3425 -0.2291
 4603SOL    HW125442   2.287   0.697  13.484 -1.2083  0.2979 -0.3426
 4603SOL    HW225443   2.363   0.788  13.576  0.5822 -0.2995 -0.3560
 4604SOL     OW25444   0.659   1.748   7.536  0.1394 -0.0480 -0.3597
 4604SOL    HW125445   0.583   1.765   7.591 -0.1646 -0.8668 -0.5196
 4604SOL    HW225446   0.690   1.835   7.512 -0.4108  0.0474 -0.7271
 4605SOL     OW25447   1.728   3.568   7.458  0.2883  0.7113  0.0324
 4605SOL    HW125448   1.740   3.477   7.430 -1.4893  0.9111 -1.3406
 4605SOL    HW225449   1.644   3.599   7.426 -0.6141 -3.4037 -1.5936
 4606SOL     OW25450   3.600   2.484  16.210  0.2274  0.3509 -0.4410
 4606SOL    HW125451   3.662   2.443  16.270 -0.2860  0.5440  0.2108
 4606SOL    HW225452   3.567   2.407  16.165  0.0695 -0.9043  1.8382
 4607SOL     OW25453   2.011   1.421  16.471  0.1152  0.1315 -0.5135
 4607SOL    HW125454   2.088   1.387  16.516  0.0353  0.9346  0.2220
 4607SOL    HW225455   1.991   1.338  16.427  2.1883 -0.1419 -0.9567
 4608SOL     OW25456   3.825   3.652   4.411 -0.7637  0.0967 -0.1751
 4608SOL    HW125457   3.832   3.557   4.406 -0.3716  0.2315 -1.9686
 4608SOL    HW225458   3.899   3.668   4.469  0.1079  0.3684 -1.3765
 4609SOL     OW25459   1.393   0.774   7.141  0.1465 -0.6556  0.5820
 4609SOL    HW125460   1.304   0.796   7.167 -0.2199  0.1909 -1.3820
 4609SOL    HW225461   1.391   0.785   7.046 -0.5371  0.3833  0.7184
 4610SOL     OW25462   2.596   2.415   8.416 -0.2027  0.1908 -0.4155
 4610SOL    HW125463   2.526   2.365   8.459 -0.0207 -0.5446 -0.9840
 4610SOL    HW225464   2.638   2.345   8.367 -0.6977 -0.8891  0.6880
 4611SOL     OW25465   3.344   4.249   6.076  0.2342  0.1533  0.0698
 4611SOL    HW125466   3.289   4.313   6.030 -1.0281 -0.5930  0.5210
 4611SOL    HW225467   3.307   4.244   6.165 -0.1385 -0.8051 -0.1438
 4612SOL     OW25468   2.454   2.088   1.129  0.9481 -0.7937  0.0517
 4612SOL    HW125469   2.450   2.114   1.037 -0.3533 -1.1143  0.0132
 4612SOL    HW225470   2.520   2.150   1.158  0.0558 -0.7819  2.0181
 4613SOL     OW25471   3.492   2.542   7.647 -0.1114 -0.3707  0.1455
 4613SOL    HW125472   3.411   2.516   7.690  0.1381  0.6837  1.2530
 4613SOL    HW225473   3.552   2.554   7.720 -0.0937  0.8154 -0.0622
 4614SOL     OW25474   1.354   0.323   3.983  0.9053 -0.0199  0.2676
 4614SOL    HW125475   1.368   0.403   3.931 -0.9404 -0.4637 -0.8991
 4614SOL    HW225476   1.445   0.313   4.011  0.4628 -1.1756  1.2476
 4615SOL     OW25477   3.423   1.895   3.894  0.2656 -0.1514  0.5965
 4615SOL    HW125478   3.494   1.959   3.881  1.0417 -0.8957  1.1852
 4615SOL    HW225479   3.460   1.819   3.849 -0.6397 -0.2932  0.1033
 4616SOL     OW25480   2.582   2.222   4.572  0.5332 -0.1007 -0.2309
 4616SOL    HW125481   2.668   2.262   4.556  0.5711 -0.1903 -0.2524
 4616SOL    HW225482   2.542   2.227   4.485 -1.5505 -1.1648  0.6845
 4617SOL     OW25483   4.564   4.362  15.563  0.0033  0.1865  0.6145
 4617SOL    HW125484   4.550   4.419  15.487 -0.6831 -3.3047 -1.8721
 4617SOL    HW225485   4.538   4.277  15.527 -1.0360  1.3610 -1.4270
 4618SOL     OW25486   2.227   4.673   2.442  0.2209  0.9572 -0.5567
 4618SOL    HW125487   2.298   4.691   2.503 -1.4389 -0.3008  1.7296
 4618SOL    HW225488   2.241   4.729   2.366 -2.2770  0.2842 -1.5296
 4619SOL     OW25489   4.440   2.451  16.509 -0.3859  0.1753  0.4843
 4619SOL    HW125490   4.500   2.506  16.458 -1.8505  2.2003  0.9442
 4619SOL    HW225491   4.371   2.512  16.536 -0.5048  0.5162 -0.5697
 4620SOL     OW25492   0.594   3.409   9.409 -0.5013  0.3326  0.2393
 4620SOL    HW125493   0.554   3.480   9.358 -0.6597  0.9886  1.2670
 4620SOL    HW225494   0.576   3.448   9.495  0.1554 -1.3893  1.1451
 4621SOL     OW25495   3.524   2.514  12.288 -0.2224  0.0071  0.2862
 4621SOL    HW125496   3.438   2.502  12.247 -0.4203 -1.1989  1.0245
 4621SOL    HW225497   3.558   2.599  12.263  2.0202 -1.0458 -0.2200
 4622SOL     OW25498   1.676   0.731   2.460 -0.1700 -0.2380 -0.5414
 4622SOL    HW125499   1.729   0.751   2.538  0.0419 -1.0269 -0.4840
 4622SOL    HW225500   1.632   0.816   2.455 -0.6541 -0.3850  1.0115
 4623SOL     OW25501   2.874   3.930   7.748 -0.0513 -0.2547 -0.0405
 4623SOL    HW125502   2.802   3.884   7.704 -0.2590  0.7937 -0.8163
 4623SOL    HW225503   2.931   3.952   7.674  0.0693 -2.2626 -0.5223
 4624SOL     OW25504   4.245   2.908   7.110 -0.2552  0.3678  0.1103
 4624SOL    HW125505   4.161   2.871   7.136  0.1049 -0.9095 -0.5388
 4624SOL    HW225506   4.244   2.992   7.157  0.1316  0.7076 -0.4937
 4625SOL     OW25507   1.079   3.097   5.662  0.0020 -0.5023  0.3058
 4625SOL    HW125508   1.138   3.041   5.713 -0.7070 -0.5912  1.0379
 4625SOL    HW225509   1.035   3.142   5.735 -2.2732 -1.1928 -0.6273
 4626SOL     OW25510   2.916   2.681   9.081  0.6327  0.1063  0.5458
 4626SOL    HW125511   3.001   2.709   9.116  0.7589 -0.3111  0.5692
 4626SOL    HW225512   2.894   2.766   9.042  0.6847 -0.2832 -0.3196
 4627SOL     OW25513   1.688   1.102   6.654  0.0234  0.0046 -0.3941
 4627SOL    HW125514   1.745   1.025   6.660  1.3192  0.9910 -0.1798
 4627SOL    HW225515   1.692   1.145   6.739  1.7683  1.7801 -1.3657
 4628SOL     OW25516   3.402   1.677  15.616  0.3324  0.7164 -0.3449
 4628SOL    HW125517   3.408   1.687  15.711  0.7069  1.3431 -0.4328
 4628SOL    HW225518   3.475   1.732  15.588  0.8112 -0.0704 -0.6225
 4629SOL     OW25519   2.862   3.783   5.298 -0.0420 -0.8327 -0.1135
 4629SOL    HW125520   2.854   3.851   5.231  2.2756  1.2884  1.7861
 4629SOL    HW225521   2.957   3.773   5.309  0.2875  1.2024 -1.1421
 4630SOL     OW25522   2.227   0.833   3.880  0.4062 -0.1641  0.6718
 4630SOL    HW125523   2.183   0.834   3.795 -1.5750  0.7572  1.7212
 4630SOL    HW225524   2.295   0.896   3.855 -1.2033  0.7969 -1.1846
 4631SOL     OW25525   2.441   1.155  16.213 -0.1716 -0.2365  0.0330
 4631SOL    HW125526   2.443   1.226  16.278  1.7925 -0.4145  0.1731
 4631SOL    HW225527   2.391   1.196  16.143 -0.8812  0.7894  1.1587
 4632SOL     OW25528   0.252   4.593   8.981  0.5938  0.5235  0.1269
 4632SOL    HW125529   0.163   4.561   8.972  1.7462 -2.6452 -0.0003
 4632SOL    HW225530   0.279   4.552   9.064  0.2266  2.0383  1.0068
 4633SOL     OW25531   1.704   0.103   6.449 -0.6517  0.4705  0.3075
 4633SOL    HW125532   1.748   0.151   6.380 -1.1521  1.2067  0.4977
 4633SOL    HW225533   1.758   0.024   6.454 -1.6096 -0.1625  0.7298
 4634SOL     OW25534   2.094   4.071   7.076  0.1506  0.4634 -0.7334
 4634SOL    HW125535   2.167   4.114   7.032  1.7727 -1.9667 -0.4243
 4634SOL    HW225536   2.061   4.150   7.119  1.9273  0.7513  0.1037
 4635SOL     OW25537   0.108   2.657   4.731 -0.5562  0.2563 -0.5229
 4635SOL    HW125538   0.016   2.644   4.753 -0.7754  0.9240 -1.0361
 4635SOL    HW225539   0.126   2.563   4.724  2.5162  0.9779 -2.2252
 4636SOL     OW25540   2.208   0.879   7.777 -0.0074  0.0051  0.1823
 4636SOL    HW125541   2.212   0.855   7.685 -2.1301  0.9394 -0.1567
 4636SOL    HW225542   2.178   0.802   7.826  0.1996  0.5910  1.2510
 4637SOL     OW25543   2.229   4.045   7.634  0.1629  0.1535 -0.0807
 4637SOL    HW125544   2.304   3.995   7.667 -0.2537  0.1117  0.7984
 4637SOL    HW225545   2.158   3.984   7.616 -2.0235  2.8568 -0.5802
 4638SOL     OW25546   1.744   2.071   1.298  1.1518  0.7205  0.4154
 4638SOL    HW125547   1.766   2.161   1.322 -0.5129  1.0259  0.8190
 4638SOL    HW225548   1.697   2.042   1.376 -0.3898  1.9561 -0.0306
 4639SOL     OW25549   0.127   1.904   7.364 -0.7032  0.9346 -0.1057
 4639SOL    HW125550   0.195   1.939   7.422  1.1970 -0.2930 -1.5817
 4639SOL    HW225551   0.139   1.960   7.287  1.0746  0.7975  0.0628
 4640SOL     OW25552   4.453   2.331   3.292 -0.1771 -0.8984  0.0931
 4640SOL    HW125553   4.541   2.325   3.329  0.9212 -0.6374 -2.4212
 4640SOL    HW225554   4.445   2.426   3.287  1.8720 -0.6789  1.2976
 4641SOL     OW25555   1.279   1.013   6.207 -0.4769 -0.0719  0.0137
 4641SOL    HW125556   1.286   1.098   6.163 -0.9278  0.9059  1.8257
 4641SOL    HW225557   1.370   0.992   6.228  0.2501  1.6836 -1.3653
 4642SOL     OW25558   0.541   4.622  12.990 -0.4644  1.2302 -0.4153
 4642SOL    HW125559   0.532   4.608  12.896  0.5262 -0.1134 -0.3156
 4642SOL    HW225560   0.602   4.695  12.991  2.0563 -0.8247 -2.2758
 4643SOL     OW25561   2.445   0.125  10.286  0.0139  0.2210  0.0220
 4643SOL    HW125562   2.521   0.163  10.330  0.5208 -1.6622  0.7513
 4643SOL    HW225563   2.421   0.076  10.365 -0.3868 -0.8558 -0.7669
 4644SOL     OW25564   1.512   0.233   1.797 -0.1471 -0.0810  0.4013
 4644SOL    HW125565   1.606   0.228   1.781  0.0390  2.1716  0.7424
 4644SOL    HW225566   1.503   0.156   1.853  0.0633  1.6832  2.8689
 4645SOL     OW25567   1.397   3.935   0.421  0.6608  0.5412 -0.1667
 4645SOL    HW125568   1.425   3.920   0.511 -0.1707  1.2094  0.1998
 4645SOL    HW225569   1.308   3.900   0.425  0.6687  0.4026 -1.0823
 4646SOL     OW25570   2.296   4.498   3.245 -0.2676  0.5330  0.0672
 4646SOL    HW125571   2.317   4.588   3.222  2.5174 -0.2493 -0.4902
 4646SOL    HW225572   2.223   4.523   3.301 -1.1452 -0.7439 -0.4931
 4647SOL     OW25573   4.402   2.418   5.222  0.3205  0.0664  0.3164
 4647SOL    HW125574   4.338   2.490   5.222  0.6743  0.3792  1.3399
 4647SOL    HW225575   4.482   2.458   5.256  1.1507 -0.1135 -1.4152
 4648SOL     OW25576   3.553   3.215   3.707 -0.9013 -0.2865 -0.1482
 4648SOL    HW125577   3.513   3.128   3.701  0.9983 -1.1009 -1.0217
 4648SOL    HW225578   3.500   3.246   3.781  1.5784  2.9475  0.2609
 4649SOL     OW25579   2.764   0.897   2.238  0.4656  0.5103  0.1587
 4649SOL    HW125580   2.815   0.866   2.312  0.5020 -0.0316 -0.0944
 4649SOL    HW225581   2.836   0.917   2.179 -0.8551  0.5545 -1.4418
 4650SOL     OW25582   4.199   1.204  15.307  0.1561 -0.5524  0.3648
 4650SOL    HW125583   4.243   1.125  15.276 -0.6205 -1.4077  1.4753
 4650SOL    HW225584   4.108   1.177  15.299 -0.5822  1.4662  2.1050
 4651SOL     OW25585   0.092   1.120   1.201 -0.0779  0.7105 -0.0479
 4651SOL    HW125586   0.148   1.054   1.243 -2.1433 -1.2293 -0.3719
 4651SOL    HW225587   0.015   1.066   1.185  1.8955 -2.9101  2.5420
 4652SOL     OW25588   3.466   0.520   7.938 -0.1554  0.0471  0.4580
 4652SOL    HW125589   3.414   0.478   7.869 -0.7863  0.6218  0.5860
 4652SOL    HW225590   3.421   0.485   8.015  0.3948  1.1763  1.2838
 4653SOL     OW25591   2.092   1.650   1.322 -0.5625 -0.3009 -0.2703
 4653SOL    HW125592   2.159   1.719   1.321 -2.3625  1.4542  0.0477
 4653SOL    HW225593   2.120   1.593   1.250 -0.2522 -0.7623  0.2221
 4654SOL     OW25594   3.938   0.566   1.540 -0.6398  0.0758 -0.0272
 4654SOL    HW125595   3.927   0.534   1.451 -0.2789 -0.1686  0.0147
 4654SOL    HW225596   3.974   0.655   1.531  1.9954 -0.8972  0.8971
 4655SOL     OW25597   2.429   2.745   2.302  0.4208 -0.0676  0.4853
 4655SOL    HW125598   2.399   2.834   2.283  0.3423  0.4477  2.9660
 4655SOL    HW225599   2.512   2.752   2.253  0.8059 -0.3990  1.0948
 4656SOL     OW25600   3.802   1.809   3.831  0.0814  0.2706 -0.1748
 4656SOL    HW125601   3.841   1.893   3.856  3.3999 -1.4236  0.3811
 4656SOL    HW225602   3.840   1.794   3.745 -4.1291 -0.8384 -1.7971
 4657SOL     OW25603   0.164   0.374   2.658 -0.0344 -0.1086 -0.3980
 4657SOL    HW125604   0.247   0.419   2.646  0.3846 -0.6965  0.3238
 4657SOL    HW225605   0.131   0.409   2.741  1.0513 -0.4745  0.1830
 4658SOL     OW25606   1.953   0.886  10.446 -0.2235 -0.1310  0.4498
 4658SOL    HW125607   1.865   0.867  10.412 -0.1102 -1.0805  0.6939
 4658SOL    HW225608   1.957   0.981  10.439  1.6081 -0.3535 -1.5917
 4659SOL     OW25609   3.207   3.705   3.096 -0.0795  0.4394 -0.2210
 4659SOL    HW125610   3.250   3.671   3.018 -0.9559 -1.3285  0.0726
 4659SOL    HW225611   3.115   3.688   3.074  0.1632 -0.3463 -0.6212
 4660SOL     OW25612   2.067   4.444   7.789 -0.1225  0.2606 -0.3413
 4660SOL    HW125613   2.000   4.511   7.799  0.2621  0.5934  0.0234
 4660SOL    HW225614   2.032   4.370   7.838  1.6438  0.6881  1.5745
 4661SOL     OW25615   0.941   4.645  13.707  0.1248 -0.3508 -0.1984
 4661SOL    HW125616   0.939   4.575  13.641 -1.5201 -0.3741 -0.1256
 4661SOL    HW225617   1.034   4.655  13.726  0.4128 -1.1649 -1.1586
 4662SOL     OW25618   2.880   1.700   9.342  0.1858  0.4889  0.2149
 4662SOL    HW125619   2.868   1.785   9.299 -3.1369  0.4706  1.1203
 4662SOL    HW225620   2.884   1.720   9.435 -0.8412 -1.1007  0.6100
 4663SOL     OW25621   2.985   0.921   2.059  0.0087  0.5314 -0.3471
 4663SOL    HW125622   2.938   0.937   1.977 -0.2381  1.0570 -0.1019
 4663SOL    HW225623   3.078   0.923   2.036 -0.3167  2.3134 -1.4726
 4664SOL     OW25624   0.394   2.507  11.273 -0.1115  0.2853  0.5272
 4664SOL    HW125625   0.375   2.530  11.364 -1.0205  0.7239  0.2239
 4664SOL    HW225626   0.481   2.469  11.288  1.3533  3.5462  0.5637
 4665SOL     OW25627   1.063   3.835   8.903 -0.5769 -0.0091  0.2424
 4665SOL    HW125628   1.034   3.921   8.935  0.8295 -0.0768  1.6757
 4665SOL    HW225629   1.143   3.825   8.954 -0.9458 -0.1716  0.7944
 4666SOL     OW25630   2.116   0.531  13.615 -0.3298 -0.3730  0.1606
 4666SOL    HW125631   2.190   0.480  13.650  1.3474  0.8679 -1.6126
 4666SOL    HW225632   2.148   0.621  13.609 -2.0407  0.3876  2.3704
 4667SOL     OW25633   1.141   2.724   5.330  0.0957 -0.3382  0.2758
 4667SOL    HW125634   1.068   2.672   5.296 -2.2975  1.9997  1.8343
 4667SOL    HW225635   1.095   2.807   5.342 -2.2778 -1.6255  0.1236
 4668SOL     OW25636   3.526   2.022   5.096  0.2484  0.2177 -0.1704
 4668SOL    HW125637   3.515   2.007   5.002 -1.7494 -0.9463  0.2495
 4668SOL    HW225638   3.528   1.930   5.123  0.8358 -0.1721 -1.5705
 4669SOL     OW25639   3.880   2.323   9.468  0.8310 -0.1917  0.1179
 4669SOL    HW125640   3.970   2.333   9.436  0.0070 -1.9050 -2.7659
 4669SOL    HW225641   3.866   2.228   9.467 -2.2880  0.2429  2.4697
 4670SOL     OW25642   2.322   1.681  15.747 -0.1504  0.2728 -0.4379
 4670SOL    HW125643   2.269   1.614  15.791 -0.3383  1.5767  1.3110
 4670SOL    HW225644   2.328   1.661  15.654  0.1471 -0.4524 -0.2633
 4671SOL     OW25645   4.514   2.019   8.555  0.7372 -0.0329  0.4424
 4671SOL    HW125646   4.486   2.096   8.604 -1.4999 -0.4547 -0.1415
 4671SOL    HW225647   4.475   2.026   8.467  1.8745  1.2189  0.0460
 4672SOL     OW25648   1.148   2.190   0.956  0.3635  0.2728 -0.0987
 4672SOL    HW125649   1.163   2.131   1.030  0.2053  1.2851  0.7500
 4672SOL    HW225650   1.057   2.169   0.939  0.5091 -0.7777  0.3884
 4673SOL     OW25651   4.580   4.586   7.057 -0.1845  0.0482 -0.1749
 4673SOL    HW125652   4.615   4.538   7.132  0.6141  0.3065 -0.3916
 4673SOL    HW225653   4.597   4.676   7.083  0.0952 -0.4289  1.2977
 4674SOL     OW25654   4.206   4.401  17.375 -0.1810  0.2883 -0.1013
 4674SOL    HW125655   4.302   4.393  17.373 -0.2035  0.6438 -1.9880
 4674SOL    HW225656   4.194   4.467  17.308  0.6486  1.3433  0.7976
 4675SOL     OW25657   0.822   2.189   4.135  0.2169  0.2738 -0.2962
 4675SOL    HW125658   0.754   2.183   4.068  1.4244 -1.3745 -1.3963
 4675SOL    HW225659   0.905   2.190   4.087 -0.0678  0.5571 -0.7856
 4676SOL     OW25660   3.255   0.217   7.976 -0.2343 -0.0538 -0.3746
 4676SOL    HW125661   3.337   0.251   7.941 -0.2787  1.3277  0.8590
 4676SOL    HW225662   3.224   0.292   8.027  0.7401  1.5347 -2.1390
 4677SOL     OW25663   0.630   0.053  10.449 -0.2992 -0.4053 -0.2408
 4677SOL    HW125664   0.535   0.066  10.444 -0.4196 -0.9036  0.9155
 4677SOL    HW225665   0.657   0.144  10.465 -0.9054 -0.4616  1.0939
 4678SOL     OW25666   0.377   0.320   3.644  0.2416  0.8532 -0.1491
 4678SOL    HW125667   0.309   0.386   3.630  0.3539  0.9216 -0.3762
 4678SOL    HW225668   0.437   0.355   3.710 -1.2948  1.6469  0.8399
 4679SOL     OW25669   4.380   1.613  17.116  0.3552  0.2816 -0.0228
 4679SOL    HW125670   4.311   1.660  17.163  0.3800  0.8054 -0.5115
 4679SOL    HW225671   4.453   1.661  17.156 -0.2128  1.0006  0.1521
 4680SOL     OW25672   0.562   4.088   4.969 -0.3152  0.0022  0.1927
 4680SOL    HW125673   0.476   4.088   4.927 -0.0079  1.6778 -0.4616
 4680SOL    HW225674   0.553   4.013   5.027 -3.0568 -1.4861 -2.1341
 4681SOL     OW25675   4.303   4.559   6.952  0.1329  0.5268  0.2268
 4681SOL    HW125676   4.323   4.563   6.859  0.9180 -2.3953  0.2947
 4681SOL    HW225677   4.382   4.545   7.004 -0.7933  0.4374  1.6281
 4682SOL     OW25678   1.703   2.305  17.286 -0.1387  0.3062 -0.1283
 4682SOL    HW125679   1.739   2.238  17.344 -0.5356  0.3007  0.1123
 4682SOL    HW225680   1.780   2.348  17.248  1.3824 -2.2282  0.0919
 4683SOL     OW25681   2.011   0.744   4.482 -0.2524  0.2045 -0.8502
 4683SOL    HW125682   2.053   0.666   4.444 -0.7409  0.2477 -1.4673
 4683SOL    HW225683   2.095   0.784   4.505 -0.2557 -1.5798  2.3415
 4684SOL     OW25684   3.556   3.975   7.327 -0.4513 -0.4234  0.4489
 4684SOL    HW125685   3.565   4.041   7.395  1.5608 -1.8326  1.5580
 4684SOL    HW225686   3.463   3.961   7.314 -0.4181  0.2375 -0.5638
 4685SOL     OW25687   3.583   2.211   7.894  0.4959  0.1736 -0.1345
 4685SOL    HW125688   3.513   2.250   7.945 -0.9116 -1.9496 -0.4645
 4685SOL    HW225689   3.605   2.295   7.854 -2.6670  0.3797 -1.3842
 4686SOL     OW25690   2.942   3.418   1.067 -0.2227 -0.5848 -0.5697
 4686SOL    HW125691   2.854   3.390   1.045 -0.7634 -0.2854  1.2170
 4686SOL    HW225692   2.941   3.431   1.162  0.2134 -0.1645 -0.6193
 4687SOL     OW25693   2.426   2.225   4.308  0.3880  0.2123 -0.5641
 4687SOL    HW125694   2.408   2.307   4.262 -0.1457 -0.9493 -2.4171
 4687SOL    HW225695   2.348   2.226   4.364  0.9281  1.6615  0.1681
 4688SOL     OW25696   3.725   0.923  13.457  0.2283  0.0336 -0.1416
 4688SOL    HW125697   3.673   0.851  13.494 -2.2980  0.7451 -2.2609
 4688SOL    HW225698   3.737   0.958  13.545  0.3702  1.4992 -0.7509
 4689SOL     OW25699   4.232   0.801   5.016 -0.3027  0.1852  0.1638
 4689SOL    HW125700   4.206   0.874   5.071  0.5762  0.9388 -0.4169
 4689SOL    HW225701   4.328   0.800   5.022 -0.2484 -0.5793 -0.7126
 4690SOL     OW25702   0.118   0.057  10.775  0.5095  0.0916 -0.5344
 4690SOL    HW125703   0.081   0.142  10.800 -0.1719 -0.0756 -0.9946
 4690SOL    HW225704   0.184   0.054  10.844 -1.2292  0.5937  1.1655
 4691SOL     OW25705   4.041   2.845   3.309  0.3378  0.1670 -0.2069
 4691SOL    HW125706   4.132   2.856   3.338 -0.6211  0.2978  2.6809
 4691SOL    HW225707   3.995   2.916   3.355  0.4537  0.9564 -1.3009
 4692SOL     OW25708   3.896   2.058   7.764 -0.3797  0.1162  0.3824
 4692SOL    HW125709   3.850   2.064   7.680  2.6944 -3.7945 -1.5865
 4692SOL    HW225710   3.872   2.141   7.804  0.0771  1.5577 -2.3328
 4693SOL     OW25711   2.077   2.240   7.664  0.1142  0.4283  0.2756
 4693SOL    HW125712   2.143   2.308   7.655  0.4465 -0.4617 -4.2183
 4693SOL    HW225713   2.074   2.204   7.753 -0.8392 -3.0359 -1.1417
 4694SOL     OW25714   1.665   1.607  17.651  0.1815 -0.3140  0.3379
 4694SOL    HW125715   1.681   1.587  17.744 -1.0557  1.8316  1.0021
 4694SOL    HW225716   1.728   1.553  17.603  0.3375  1.9087 -1.9144
 4695SOL     OW25717   2.423   2.763   1.457  0.2352 -0.2032  0.5661
 4695SOL    HW125718   2.472   2.689   1.493 -0.5168 -1.7874 -1.6703
 4695SOL    HW225719   2.499   2.799   1.411  1.2001  0.8755  3.0282
 4696SOL     OW25720   0.657   2.706   5.391  0.0067  0.3282  0.4829
 4696SOL    HW125721   0.628   2.686   5.479 -2.0366 -1.3310 -0.5810
 4696SOL    HW225722   0.589   2.674   5.332 -0.0554 -0.5544  1.0447
 4697SOL     OW25723   4.382   4.581   5.895 -0.4448  0.3532  0.0284
 4697SOL    HW125724   4.333   4.524   5.954  1.7068 -0.5607  0.9344
 4697SOL    HW225725   4.374   4.542   5.808 -1.0910 -1.2307  0.7999
 4698SOL     OW25726   3.868   0.658  16.852  0.1643 -0.6305 -0.3086
 4698SOL    HW125727   3.797   0.595  16.860  0.2794 -0.8833 -1.2932
 4698SOL    HW225728   3.830   0.729  16.903  2.5343  0.6588 -0.3681
 4699SOL     OW25729   0.613   0.090   2.487  0.4555  0.3367  0.1194
 4699SOL    HW125730   0.670   0.118   2.559  1.5840 -2.5009  0.3182
 4699SOL    HW225731   0.677   0.089   2.416  2.7938 -0.8683  2.2140
 4700SOL     OW25732   4.187   4.287   0.744 -0.1035 -0.2960  0.2274
 4700SOL    HW125733   4.245   4.290   0.668 -1.1671  2.1383 -0.4816
 4700SOL    HW225734   4.254   4.263   0.809 -0.6203 -2.0803  0.1002
 4701SOL     OW25735   2.552   0.815   8.795 -0.0923  0.1931  0.2308
 4701SOL    HW125736   2.505   0.740   8.758 -0.5035 -0.7801  2.7232
 4701SOL    HW225737   2.486   0.884   8.805  0.6649  0.7102  1.8039
 4702SOL     OW25738   2.894   4.011   7.266  0.0960 -0.1296  0.3642
 4702SOL    HW125739   2.919   3.941   7.326 -3.2770 -1.2841  0.4103
 4702SOL    HW225740   2.971   4.034   7.213 -1.5907  2.2291 -1.0745
 4703SOL     OW25741   4.401   1.591   4.923 -0.4534  0.8546  0.4631
 4703SOL    HW125742   4.451   1.643   4.860 -0.9475 -0.5725 -1.0974
 4703SOL    HW225743   4.431   1.634   5.004 -0.2381  1.0130  0.2969
 4704SOL     OW25744   0.464   0.145   2.181  0.7001  0.3557  0.1654
 4704SOL    HW125745   0.479   0.136   2.275 -0.6661  0.3623  0.3844
 4704SOL    HW225746   0.525   0.213   2.153  3.4718 -1.5107  1.6431
 4705SOL     OW25747   4.572   0.372  14.695 -0.1928  0.1911  0.0142
 4705SOL    HW125748   4.650   0.425  14.711  1.2037 -1.5072 -1.1926
 4705SOL    HW225749   4.591   0.344  14.605  2.4800 -2.5802  1.4486
 4706SOL     OW25750   2.544   2.144  11.464 -0.0442  0.2286 -0.1179
 4706SOL    HW125751   2.632   2.128  11.497 -0.5320 -1.4410  0.3969
 4706SOL    HW225752   2.531   2.080  11.393  2.1792  0.9960 -1.2114
 4707SOL     OW25753   3.929   2.472   5.369 -0.3519 -0.5657 -0.6330
 4707SOL    HW125754   3.971   2.405   5.423 -0.0337 -0.6011 -0.9224
 4707SOL    HW225755   3.939   2.425   5.286 -0.0946  0.4462 -1.1705
 4708SOL     OW25756   0.063   2.059   0.901 -0.2233  0.4020  0.4258
 4708SOL    HW125757   0.071   1.965   0.915 -2.6708  0.2910  1.0500
 4708SOL    HW225758   0.003   2.090   0.969  0.7254 -1.2893  2.0154
 4709SOL     OW25759   2.398   1.111   4.125  0.0363 -0.1509 -0.1195
 4709SOL    HW125760   2.417   1.024   4.161  0.3306 -0.5045 -1.1499
 4709SOL    HW225761   2.418   1.102   4.032  1.2832 -3.0551  0.4273
 4710SOL     OW25762   0.721   1.895  10.706 -0.0427 -0.7521 -0.1723
 4710SOL    HW125763   0.711   1.849  10.789 -0.1901 -2.0559 -0.9175
 4710SOL    HW225764   0.656   1.965  10.704  0.9481  0.1888  0.2772
 4711SOL     OW25765   1.485   0.390   1.558  0.2901 -0.5532  0.5898
 4711SOL    HW125766   1.519   0.318   1.611 -2.1419 -3.1305 -1.3416
 4711SOL    HW225767   1.401   0.356   1.527 -1.1052  1.3146  2.2971
 4712SOL     OW25768   0.956   0.073   7.811  0.3318 -0.5656  0.3315
 4712SOL    HW125769   1.045   0.109   7.814 -0.3917  1.0834  2.0932
 4712SOL    HW225770   0.909   0.118   7.881  0.0699  0.9670 -0.8279
 4713SOL     OW25771   2.569   0.588  15.940 -0.5678 -0.2332  0.7604
 4713SOL    HW125772   2.658   0.563  15.964 -0.1441 -0.6808 -1.3271
 4713SOL    HW225773   2.543   0.512  15.888  1.0113  0.2378 -0.7112
 4714SOL     OW25774   2.516   1.312   2.853 -0.1948  0.2449  0.0692
 4714SOL    HW125775   2.475   1.379   2.797 -0.7021  0.8315  1.1461
 4714SOL    HW225776   2.554   1.258   2.784  4.0737  1.4881  1.4650
 4715SOL     OW25777   0.578   3.580  10.414  0.5383 -0.4814  0.3655
 4715SOL    HW125778   0.491   3.555  10.381 -0.2265  2.2105  0.3763
 4715SOL    HW225779   0.624   3.544  10.338 -0.6584 -2.0688  0.3890
 4716SOL     OW25780   2.371   2.472   2.750 -0.0348 -0.0631 -0.9560
 4716SOL    HW125781   2.337   2.546   2.801  0.7207 -0.0139 -0.5122
 4716SOL    HW225782   2.437   2.509   2.691  1.2262 -0.8820 -0.0718
 4717SOL     OW25783   4.739   0.320   6.147 -0.0893 -0.4603  0.2886
 4717SOL    HW125784   0.027   0.272   6.225  1.2465 -1.3752 -0.7503
 4717SOL    HW225785   4.668   0.260   6.124  0.7101 -1.1502 -0.4009
 4718SOL     OW25786   3.587   4.474   9.593  0.2755  0.1704 -0.1713
 4718SOL    HW125787   3.500   4.461   9.633  0.1300  1.5982 -0.0184
 4718SOL    HW225788   3.615   4.559   9.627  2.7614  0.2094 -2.2951
 4719SOL     OW25789   2.428   2.035   8.157  0.2127 -0.3510  0.1256
 4719SOL    HW125790   2.374   2.093   8.104 -1.8900 -1.5953  0.8990
 4719SOL    HW225791   2.494   2.097   8.187 -1.0205  1.0572 -0.0656
 4720SOL     OW25792   4.017   4.613   3.617  0.6523 -0.4527 -0.3187
 4720SOL    HW125793   3.952   4.625   3.686 -0.3269  1.1988 -1.5176
 4720SOL    HW225794   4.052   4.701   3.604 -0.4364 -0.4206 -3.0194
 4721SOL     OW25795   0.785   0.298   1.244  0.1506  0.4289 -0.2934
 4721SOL    HW125796   0.821   0.216   1.212 -0.9825 -0.6205  1.1435
 4721SOL    HW225797   0.807   0.281   1.336 -0.0120  1.3196 -0.0829
 4722SOL     OW25798   0.279   2.782  17.383 -0.8891 -0.0338  0.0461
 4722SOL    HW125799   0.302   2.757  17.294  0.6283 -2.1602  1.0687
 4722SOL    HW225800   0.193   2.824  17.371  0.1272  2.0735  0.1694
 4723SOL     OW25801   4.021   2.442  13.503  0.1213  0.4143 -0.8189
 4723SOL    HW125802   4.008   2.511  13.568 -0.2348 -0.8788  0.5014
 4723SOL    HW225803   4.027   2.367  13.563 -0.8610  0.8345 -0.1974
 4724SOL     OW25804   1.060   1.131  15.726  1.2445 -0.6072  0.0789
 4724SOL    HW125805   1.071   1.222  15.700  1.3957 -0.1141  1.8742
 4724SOL    HW225806   1.152   1.108  15.744  1.2009 -0.6030  0.3067
 4725SOL     OW25807   3.370   2.403   2.410 -0.6730  0.0834  0.2040
 4725SOL    HW125808   3.373   2.338   2.481  0.6335  0.6092  0.6343
 4725SOL    HW225809   3.456   2.443   2.418  0.1145 -1.5561 -0.0800
 4726SOL     OW25810   0.022   3.097   4.383  0.6429 -0.1516 -0.2679
 4726SOL    HW125811   0.049   3.169   4.441 -0.2132 -0.5345  0.6121
 4726SOL    HW225812   4.725   3.150   4.312  2.4818 -2.1928 -2.7304
 4727SOL     OW25813   3.058   1.783   8.612  0.2794  0.3933 -0.3741
 4727SOL    HW125814   3.105   1.854   8.657  1.7848 -1.9597  1.7660
 4727SOL    HW225815   3.003   1.832   8.551  0.1326 -0.3016 -0.7915
 4728SOL     OW25816   2.047   4.614  13.003 -0.3708 -1.4439 -0.0768
 4728SOL    HW125817   1.984   4.624  12.932  0.2561  0.7972 -0.3386
 4728SOL    HW225818   2.066   4.707  13.021 -2.0272 -0.9451 -0.9039
 4729SOL     OW25819   1.784   1.674   2.012 -0.2029 -0.4769  0.1991
 4729SOL    HW125820   1.758   1.583   2.005  0.2386 -0.5804 -0.0671
 4729SOL    HW225821   1.787   1.685   2.107  1.8307 -0.7685  0.1549
 4730SOL     OW25822   3.937   0.419  10.697  0.5916  0.2144  0.3518
 4730SOL    HW125823   3.930   0.356  10.625  0.0377  0.0723  0.5276
 4730SOL    HW225824   3.931   0.360  10.772 -0.3742 -1.8258 -1.3083
 4731SOL     OW25825   0.680   3.381   3.375  0.0303 -0.1923 -0.1990
 4731SOL    HW125826   0.687   3.293   3.413 -1.3401 -0.3251 -0.2607
 4731SOL    HW225827   0.773   3.380   3.353  0.0846 -1.8848  0.1159
 4732SOL     OW25828   0.334   1.657   3.678  0.0247 -1.1385  0.3724
 4732SOL    HW125829   0.266   1.633   3.742 -1.2029  0.3577 -0.3730
 4732SOL    HW225830   0.278   1.692   3.608  0.6049  3.4050  2.1670
 4733SOL     OW25831   4.112   0.825   0.840  0.1689 -0.1289 -0.0708
 4733SOL    HW125832   4.019   0.844   0.831 -0.0069 -0.9731 -0.1166
 4733SOL    HW225833   4.156   0.910   0.837 -0.2640  0.0802 -0.4540
 4734SOL     OW25834   2.424   3.858  13.530  0.2636  0.4082  0.1365
 4734SOL    HW125835   2.413   3.807  13.611 -1.0385  0.3491 -0.0772
 4734SOL    HW225836   2.437   3.948  13.559 -0.9658 -0.0407  2.1517
 4735SOL     OW25837   2.028   4.525   5.847 -0.1008  0.3424  0.1037
 4735SOL    HW125838   2.027   4.449   5.906  0.4510  0.6520  0.5021
 4735SOL    HW225839   2.117   4.521   5.812 -0.5940 -0.4636 -1.0882
 4736SOL     OW25840   1.515   4.382   7.472 -0.2867  0.0660  0.1919
 4736SOL    HW125841   1.584   4.393   7.538 -0.7270 -1.6659  0.9454
 4736SOL    HW225842   1.471   4.467   7.476 -0.3642  0.0852 -1.2001
 4737SOL     OW25843   2.931   0.120   2.608  0.4522 -0.1205  0.6664
 4737SOL    HW125844   3.019   0.142   2.576 -0.2353  1.4970 -0.1321
 4737SOL    HW225845   2.938   0.117   2.704 -3.5093 -0.2618  0.9536
 4738SOL     OW25846   3.516   4.639   6.271  0.9817  0.0720 -0.3454
 4738SOL    HW125847   3.572   4.590   6.211  0.3769 -0.8434 -0.1649
 4738SOL    HW225848   3.480   4.571   6.328 -0.4295  1.3895  0.3509
 4739SOL     OW25849   4.278   3.054   9.168  0.3408  0.4913  0.6568
 4739SOL    HW125850   4.276   3.141   9.208  1.3365  0.9175 -0.2006
 4739SOL    HW225851   4.361   3.051   9.119  0.7293  0.3158  1.3374
 4740SOL     OW25852   1.918   0.536   3.061  0.1357 -0.5812 -0.1707
 4740SOL    HW125853   1.847   0.485   3.023 -0.0963 -0.8084  0.5818
 4740SOL    HW225854   1.887   0.540   3.151 -0.7734  0.5749 -0.5408
 4741SOL     OW25855   1.582   4.046  13.494 -0.0757 -0.1897 -0.4108
 4741SOL    HW125856   1.556   4.002  13.574 -0.0992 -2.3166 -1.5980
 4741SOL    HW225857   1.676   4.032  13.484  0.0793 -0.2394  1.1657
 4742SOL     OW25858   0.895   2.753   8.070 -0.7884 -0.0889  0.3181
 4742SOL    HW125859   0.818   2.773   8.017 -0.9479  1.6067  1.2027
 4742SOL    HW225860   0.918   2.670   8.029 -0.8301 -0.7468  1.6302
 4743SOL     OW25861   2.681   4.599   1.154  0.5584  0.0885 -0.4283
 4743SOL    HW125862   2.757   4.654   1.135  0.4010  0.5351  0.2102
 4743SOL    HW225863   2.626   4.618   1.078 -0.5064  1.0658  0.5870
 4744SOL     OW25864   0.482   1.915   3.065 -0.1558 -0.5868  0.1083
 4744SOL    HW125865   0.407   1.972   3.077  1.0290  1.5804 -2.7936
 4744SOL    HW225866   0.456   1.847   3.127  0.6376 -2.1610 -1.2839
 4745SOL     OW25867   3.656   4.057   9.779  0.0544 -0.2335  0.2936
 4745SOL    HW125868   3.740   4.101   9.789 -0.6921  1.3978 -0.6168
 4745SOL    HW225869   3.621   4.034   9.865 -4.0314  1.8093 -0.7954
 4746SOL     OW25870   0.217   4.552  13.465 -0.3329  0.1788  0.1356
 4746SOL    HW125871   0.278   4.489  13.426  1.2643  0.4678  2.1863
 4746SOL    HW225872   0.258   4.638  13.453  0.3310 -0.0167  1.0022
 4747SOL     OW25873   2.006   3.896   7.269  0.4176  0.0826 -0.8188
 4747SOL    HW125874   1.918   3.906   7.305  0.8475 -1.6291  0.7462
 4747SOL    HW225875   2.008   3.958   7.197 -0.6681 -1.3255 -2.0762
 4748SOL     OW25876   3.101   1.489   3.119  0.3432  0.1913  0.1480
 4748SOL    HW125877   3.189   1.500   3.082  0.8020 -2.8292  0.3337
 4748SOL    HW225878   3.092   1.560   3.183 -1.9102  1.2613 -1.3556
 4749SOL     OW25879   3.735   0.197  14.216 -0.0620  0.9782  0.3972
 4749SOL    HW125880   3.685   0.152  14.284  0.7372  0.5421  0.6993
 4749SOL    HW225881   3.799   0.130  14.192  0.8181  1.8783  0.1954
 4750SOL     OW25882   1.083   3.781   6.848 -0.3125 -0.4778 -0.3110
 4750SOL    HW125883   1.056   3.700   6.891  0.6869 -0.0174  1.1775
 4750SOL    HW225884   1.012   3.790   6.784 -0.4771 -1.2718 -0.2446
 4751SOL     OW25885   1.039   3.633   8.410  0.5783 -0.2875 -0.7456
 4751SOL    HW125886   1.042   3.713   8.463  1.0043 -0.6703 -0.1937
 4751SOL    HW225887   1.102   3.592   8.470  0.2397 -1.2805 -1.0764
 4752SOL     OW25888   4.542   1.807  10.327 -0.5343 -0.1937 -0.0365
 4752SOL    HW125889   4.505   1.829  10.242  0.7401  1.9907 -0.0450
 4752SOL    HW225890   4.472   1.852  10.375 -0.8384 -0.3550 -0.3352
 4753SOL     OW25891   3.891   2.755  14.172 -0.8405  0.1885  0.0835
 4753SOL    HW125892   3.907   2.680  14.228 -0.4096 -0.2334 -0.6057
 4753SOL    HW225893   3.957   2.817  14.206 -0.9550  0.1502  0.3767
 4754SOL     OW25894   2.468   4.023  13.255  0.2634  0.2553  0.7735
 4754SOL    HW125895   2.437   3.973  13.331 -2.1098  1.4690  0.5951
 4754SOL    HW225896   2.421   4.106  13.264 -0.1287  0.0958  0.2063
 4755SOL     OW25897   3.843   3.808   9.414 -0.2848 -0.4939 -0.3547
 4755SOL    HW125898   3.919   3.863   9.394  0.3444 -1.7628 -1.4794
 4755SOL    HW225899   3.819   3.780   9.326 -0.0549 -0.6405 -0.3716
 4756SOL     OW25900   0.733   4.140  12.036  1.0858  0.4067 -0.1368
 4756SOL    HW125901   0.803   4.205  12.033  1.2718  0.2899  1.7210
 4756SOL    HW225902   0.739   4.109  12.126  0.1192 -0.8910 -0.5231
 4757SOL     OW25903   3.735   2.249   6.571 -0.4651  0.0112 -0.1823
 4757SOL    HW125904   3.650   2.263   6.530 -0.8395 -0.9041  0.2726
 4757SOL    HW225905   3.748   2.329   6.621  0.3737  0.1085 -0.5574
 4758SOL     OW25906   0.020   1.505   0.848  0.0204 -0.0746 -0.2185
 4758SOL    HW125907   0.013   1.588   0.895  1.9884 -0.3459  0.5740
 4758SOL    HW225908   4.681   1.507   0.794  0.1281 -0.5468 -0.3928
 4759SOL     OW25909   1.908   0.418   4.807 -0.3347 -0.5041 -0.1559
 4759SOL    HW125910   1.834   0.432   4.866  0.0016  1.0641 -0.1029
 4759SOL    HW225911   1.904   0.322   4.804  0.2935 -0.5610  0.7668
 4760SOL     OW25912   1.685   0.817  11.546  0.0643 -0.0182  0.5847
 4760SOL    HW125913   1.698   0.795  11.638 -0.6195  1.3366  1.0142
 4760SOL    HW225914   1.613   0.758  11.527  0.2383  0.1782 -0.6980
 4761SOL     OW25915   3.728   2.633   9.734 -0.6392  0.4701  0.5655
 4761SOL    HW125916   3.679   2.714   9.719  0.3364  0.9429 -0.1070
 4761SOL    HW225917   3.664   2.570   9.766 -0.4421 -1.4591 -2.8391
 4762SOL     OW25918   4.357   1.542   3.386  0.3682  0.4282  0.0587
 4762SOL    HW125919   4.278   1.507   3.345  1.2467  0.5367 -1.7395
 4762SOL    HW225920   4.399   1.465   3.424 -0.0136 -0.1373 -0.6602
 4763SOL     OW25921   0.345   1.501   1.294 -0.5146  0.1117 -0.1739
 4763SOL    HW125922   0.298   1.505   1.377  0.2579  0.1104  0.2597
 4763SOL    HW225923   0.274   1.467   1.239  0.7444 -2.1786 -0.3660
 4764SOL     OW25924   1.105   1.927   4.064 -0.4453  0.2542  0.0980
 4764SOL    HW125925   1.178   1.883   4.020 -0.3202 -0.5359  1.1108
 4764SOL    HW225926   1.097   1.870   4.140 -2.7713 -1.7616 -1.6701
 4765SOL     OW25927   1.307   4.077   2.343  0.1020 -0.4583  0.1519
 4765SOL    HW125928   1.219   4.043   2.328  0.7518 -0.7446 -3.0590
 4765SOL    HW225929   1.364   4.006   2.313  1.3438 -0.0614  1.5643
 4766SOL     OW25930   3.449   2.479   3.058  0.1868  0.4439  0.1309
 4766SOL    HW125931   3.504   2.445   3.128  0.4835  0.0704 -0.2876
 4766SOL    HW225932   3.464   2.574   3.054  1.2061  0.4323  3.3771
 4767SOL     OW25933   2.187   0.044   7.577 -0.2841  0.3050 -0.0314
 4767SOL    HW125934   2.126   0.030   7.650 -0.6314 -0.9762 -0.5568
 4767SOL    HW225935   2.129   0.089   7.516  1.1923  0.9169 -0.9668
 4768SOL     OW25936   3.924   4.304   9.345 -0.3786  0.1818 -0.2012
 4768SOL    HW125937   3.869   4.228   9.359  0.9544 -1.1074 -2.0017
 4768SOL    HW225938   3.909   4.359   9.422  0.5060 -1.1817  0.9375
 4769SOL     OW25939   1.469   4.330   4.321 -0.0219 -0.5436  0.5880
 4769SOL    HW125940   1.523   4.294   4.391  2.4362 -0.7929 -1.4630
 4769SOL    HW225941   1.531   4.307   4.252  0.2279 -0.7965  0.8999
 4770SOL     OW25942   3.920   2.757   2.403  0.2515  0.4436  0.2348
 4770SOL    HW125943   3.955   2.684   2.353  0.3876  0.3329  0.4913
 4770SOL    HW225944   3.944   2.738   2.494  1.4644  0.0643 -0.1584
 4771SOL     OW25945   1.872   3.718   5.786  0.2082  0.1375  0.1382
 4771SOL    HW125946   1.875   3.803   5.741 -0.3743 -0.1165 -0.3705
 4771SOL    HW225947   1.890   3.755   5.872  0.5398  1.8188 -0.6381
 4772SOL     OW25948   2.262   4.587  11.082  0.4377 -0.5706  0.6324
 4772SOL    HW125949   2.337   4.545  11.122 -0.5727 -0.7027  2.3744
 4772SOL    HW225950   2.194   4.546  11.135  0.2608  0.2808  1.0766
 4773SOL     OW25951   0.499   0.406   9.936 -0.1623 -0.0198  0.5722
 4773SOL    HW125952   0.545   0.452   9.866  1.6226  0.8642  2.3240
 4773SOL    HW225953   0.425   0.375   9.884  0.2485 -1.6992  0.9898
 4774SOL     OW25954   3.400   0.200   1.349 -0.7229 -0.0225 -0.4156
 4774SOL    HW125955   3.490   0.185   1.378 -0.3573  0.0913 -1.5018
 4774SOL    HW225956   3.353   0.128   1.391 -2.0434  1.3532  0.4532
 4775SOL     OW25957   1.544   0.841   6.365 -0.2271 -0.3171 -0.1561
 4775SOL    HW125958   1.547   0.864   6.272 -1.4524 -2.5007 -0.7380
 4775SOL    HW225959   1.584   0.754   6.368  2.0374  0.7642  0.8302
 4776SOL     OW25960   1.844   1.775  12.150 -0.4005 -0.9085  0.2950
 4776SOL    HW125961   1.886   1.690  12.164  0.8978 -0.3898 -0.4029
 4776SOL    HW225962   1.756   1.741  12.133 -0.1609 -1.4213  0.0757
 4777SOL     OW25963   3.621   1.880   1.429 -0.1639  0.7970  0.8143
 4777SOL    HW125964   3.704   1.913   1.393 -0.5641  0.2098 -0.6759
 4777SOL    HW225965   3.633   1.915   1.517  0.4474  1.8597  0.3024
 4778SOL     OW25966   4.730   1.554   7.214  0.1560  0.1543 -0.3758
 4778SOL    HW125967   0.047   1.476   7.219  3.1692  2.4285  1.6212
 4778SOL    HW225968   0.037   1.630   7.180 -0.4346 -0.1506 -1.8489
 4779SOL     OW25969   4.294   2.533   7.797 -0.6410 -0.0760  0.9293
 4779SOL    HW125970   4.332   2.560   7.713 -0.7668  2.0496  1.5523
 4779SOL    HW225971   4.204   2.565   7.789 -0.1446  1.2528  0.5008
 4780SOL     OW25972   1.635   2.358   6.458 -0.1996  0.2552 -0.0514
 4780SOL    HW125973   1.638   2.407   6.376 -1.2618  1.5347  0.6710
 4780SOL    HW225974   1.649   2.270   6.423  0.6833  0.3784 -0.0098
 4781SOL     OW25975   3.636   1.800   0.729  0.2633 -0.3278 -0.4245
 4781SOL    HW125976   3.717   1.847   0.712  0.0269  0.4767  0.6046
 4781SOL    HW225977   3.570   1.850   0.681  1.1617  0.6283 -0.6669
 4782SOL     OW25978   4.373   0.003  15.990 -0.0645 -0.0087  0.0974
 4782SOL    HW125979   4.399   4.734  15.898 -0.9031 -2.3092  0.0731
 4782SOL    HW225980   4.432   0.074  16.015  0.7089  0.3502 -2.6700
 4783SOL     OW25981   1.881   1.986  15.183  0.3927  0.2562 -0.3427
 4783SOL    HW125982   1.789   1.986  15.210  0.2133  2.5475 -1.0229
 4783SOL    HW225983   1.900   1.896  15.211 -0.0964  0.8260  1.8476
 4784SOL     OW25984   0.459   0.456   6.483  0.1169  0.4190 -0.1393
 4784SOL    HW125985   0.529   0.401   6.517 -1.0593 -0.7082  0.4834
 4784SOL    HW225986   0.398   0.459   6.557 -1.8972 -2.5139 -1.6887
 4785SOL     OW25987   0.812   3.199   4.637  0.3473  0.1580  0.0776
 4785SOL    HW125988   0.888   3.182   4.581  0.0040  0.6284 -0.5301
 4785SOL    HW225989   0.759   3.121   4.623 -0.4868  0.9669 -1.3309
 4786SOL     OW25990   4.181   0.022   5.827 -0.7172 -0.2446 -0.0575
 4786SOL    HW125991   4.128   4.689   5.860 -1.3230  0.8700  1.4086
 4786SOL    HW225992   4.264   4.715   5.836 -1.6831 -2.2380 -1.4714
 4787SOL     OW25993   2.143   3.778  13.432  0.3851 -0.0136 -0.1312
 4787SOL    HW125994   2.232   3.797  13.462  1.2516 -0.8651 -2.1038
 4787SOL    HW225995   2.145   3.702  13.373 -0.8794  0.5068 -0.8442
 4788SOL     OW25996   4.079   3.784   9.099 -0.3755  0.1387  0.5180
 4788SOL    HW125997   4.077   3.817   9.189 -0.8174  1.0733  0.1591
 4788SOL    HW225998   4.088   3.863   9.047  3.0203 -0.4271  0.2937
 4789SOL     OW25999   2.981   4.139   3.026  0.5280 -0.0840  0.1769
 4789SOL    HW126000   3.041   4.089   2.971 -2.3792 -0.2788 -2.7715
 4789SOL    HW226001   2.967   4.219   2.977 -0.8248 -0.4254  0.0076
 4790SOL     OW26002   3.294   2.897   6.557 -0.0517 -0.3588  0.5672
 4790SOL    HW126003   3.310   2.892   6.463 -0.3983 -1.2647  0.5613
 4790SOL    HW226004   3.381   2.877   6.594  0.6682  0.2859 -0.7999
 4791SOL     OW26005   3.074   2.375   5.014 -0.0569  0.0551 -0.7341
 4791SOL    HW126006   3.049   2.351   5.104  0.5795 -0.1810 -0.6199
 4791SOL    HW226007   3.115   2.460   5.031  0.0460  0.1918 -1.7139
 4792SOL     OW26008   4.582   1.720  17.489  0.4691  0.1399 -0.4676
 4792SOL    HW126009   4.572   1.656  17.559  1.6230 -0.3057 -0.7082
 4792SOL    HW226010   4.604   1.796  17.542 -0.4311  0.4647 -0.5655
 4793SOL     OW26011   4.709   1.162  10.373 -0.3126 -0.5968  0.4985
 4793SOL    HW126012   0.040   1.204  10.323 -0.2121 -2.0614 -0.5572
 4793SOL    HW226013   4.659   1.242  10.389 -0.3065  0.1080 -3.0793
 4794SOL     OW26014   1.882   1.097  12.085 -0.7264  0.3648 -0.0287
 4794SOL    HW126015   1.824   1.065  12.017 -2.8245  1.0431  1.4448
 4794SOL    HW226016   1.821   1.066  12.152 -0.2532 -1.5534 -0.4825
 4795SOL     OW26017   3.179   4.204   4.594  0.3265 -0.4195  0.7339
 4795SOL    HW126018   3.207   4.262   4.523  0.6121 -0.6680  0.6412
 4795SOL    HW226019   3.256   4.147   4.592  3.3570  3.6940  2.3318
 4796SOL     OW26020   4.362   3.404   6.364  0.1964  0.0218 -0.0327
 4796SOL    HW126021   4.409   3.469   6.416 -0.6172  0.9066 -0.4307
 4796SOL    HW226022   4.420   3.388   6.290  1.1909  1.2426  0.4814
 4797SOL     OW26023   0.457   4.282  15.817  0.5144 -0.7599 -0.2514
 4797SOL    HW126024   0.429   4.317  15.732 -1.3281 -0.6123  0.4027
 4797SOL    HW226025   0.521   4.346  15.846 -0.0390 -0.6202  0.6538
 4798SOL     OW26026   1.853   0.818  15.157  0.1118 -0.5106  0.1412
 4798SOL    HW126027   1.908   0.810  15.079  2.6234 -0.1635  1.8701
 4798SOL    HW226028   1.861   0.737  15.207  0.5035  0.0677  1.0188
 4799SOL     OW26029   1.146   3.535  15.629  0.2432 -0.1400 -0.3368
 4799SOL    HW126030   1.058   3.500  15.619 -0.2605  0.7368  1.2154
 4799SOL    HW226031   1.148   3.548  15.724 -0.0488  0.3901 -0.4065
 4800SOL     OW26032   1.872   0.060  10.002  0.3528  0.5414  0.2871
 4800SOL    HW126033   1.808   0.119  10.040 -0.9243 -2.1378  2.2856
 4800SOL    HW226034   1.827   4.715  10.008  1.3020  0.0576  0.7547
 4801SOL     OW26035   1.052   0.273   4.442 -0.3021  0.4793 -0.1075
 4801SOL    HW126036   1.039   0.327   4.364  3.7644 -0.3261 -1.3243
 4801SOL    HW226037   0.981   0.297   4.501  1.6650  1.6054  1.8404
 4802SOL     OW26038   4.436   3.901   2.151 -0.0555  0.0519 -0.5346
 4802SOL    HW126039   4.374   3.942   2.090 -0.7711  0.5259  0.5100
 4802SOL    HW226040   4.432   3.812   2.117  0.9059 -0.0121 -0.4720
 4803SOL     OW26041   3.462   0.138  13.118 -0.0317 -0.0466  0.1063
 4803SOL    HW126042   3.528   0.161  13.053 -1.0968 -1.5901 -1.5479
 4803SOL    HW226043   3.437   0.224  13.151  0.8452  0.0032  0.6483
 4804SOL     OW26044   2.155   0.689  13.107  0.2882  0.2139 -0.4366
 4804SOL    HW126045   2.086   0.628  13.133 -0.8475  2.1527  1.1054
 4804SOL    HW226046   2.181   0.654  13.022  1.9342 -0.1245  0.2126
 4805SOL     OW26047   4.638   0.377   7.235  0.1444  0.8605 -0.3066
 4805SOL    HW126048   4.585   0.450   7.268 -1.3579 -0.1050 -0.6108
 4805SOL    HW226049   4.716   0.389   7.290 -0.0511 -1.3822  0.4609
 4806SOL     OW26050   0.318   4.081   4.826 -0.5169 -0.6602 -0.5357
 4806SOL    HW126051   0.264   4.119   4.895 -0.4504  1.0467 -1.4133
 4806SOL    HW226052   0.249   4.075   4.760 -0.6907 -1.5718 -0.2674
 4807SOL     OW26053   1.668   3.564   5.737  0.2787  0.5828  1.0770
 4807SOL    HW126054   1.750   3.606   5.762  0.9553 -0.5038  0.6778
 4807SOL    HW226055   1.654   3.583   5.644 -3.1206  0.0691  1.4679
 4808SOL     OW26056   0.293   1.369  13.705  0.3961 -0.0009 -0.8315
 4808SOL    HW126057   0.328   1.427  13.772 -2.4993  2.1626 -1.1723
 4808SOL    HW226058   0.359   1.300  13.711  3.5147  2.9835 -0.7763
 4809SOL     OW26059   0.281   0.104  13.421  0.0381  0.2734 -0.0378
 4809SOL    HW126060   0.321   0.154  13.349  0.7651 -0.2393  0.0165
 4809SOL    HW226061   0.221   0.168  13.461 -1.1440  0.5545 -2.2209
 4810SOL     OW26062   3.395   4.720   2.950 -0.1828  0.2016 -0.1465
 4810SOL    HW126063   3.476   0.008   2.909  1.8781 -2.9067  1.8306
 4810SOL    HW226064   3.368   4.667   2.875  0.4115  1.4486 -1.2285
 4811SOL     OW26065   1.713   3.782   6.708 -0.0969 -0.3108  0.6130
 4811SOL    HW126066   1.711   3.878   6.710  0.5897 -0.2628 -1.1723
 4811SOL    HW226067   1.719   3.749   6.798 -0.5959 -4.7285 -0.9992
 4812SOL     OW26068   3.930   0.088   6.121 -0.0444 -0.1017 -0.1561
 4812SOL    HW126069   3.845   0.066   6.081 -0.9670  0.6540  1.3770
 4812SOL    HW226070   3.910   0.174   6.158 -2.8562 -0.4134 -0.8880
 4813SOL     OW26071   4.110   1.718   1.978  0.2428  0.1472  0.6914
 4813SOL    HW126072   4.141   1.683   2.062 -1.7584 -0.9191  0.9913
 4813SOL    HW226073   4.181   1.710   1.915 -1.3333 -0.2674 -1.0193
 4814SOL     OW26074   1.484   1.115  12.005  0.0086  0.1221  0.0717
 4814SOL    HW126075   1.573   1.087  11.983  0.6521  3.1708 -1.3368
 4814SOL    HW226076   1.497   1.210  12.003 -0.2487  0.1879  1.9193
 4815SOL     OW26077   3.612   3.768   3.091 -0.4648  0.0778  0.0268
 4815SOL    HW126078   3.571   3.762   3.177  1.0600 -2.1772  0.5951
 4815SOL    HW226079   3.705   3.774   3.111 -0.4222  1.0447 -0.4903
 4816SOL     OW26080   1.803   3.893  13.455 -0.0828 -0.1475 -0.0368
 4816SOL    HW126081   1.852   3.868  13.376  1.8504 -0.9840  1.4259
 4816SOL    HW226082   1.784   3.819  13.513 -1.4500  1.3479  1.4110
 4817SOL     OW26083   0.688   0.650   7.019 -0.7577 -0.2100 -0.1001
 4817SOL    HW126084   0.752   0.579   7.028 -1.8422 -0.8278  2.5837
 4817SOL    HW226085   0.709   0.709   7.091  2.6646 -1.5863  0.0545
 4818SOL     OW26086   1.198   0.222   5.570 -0.1744 -0.0848  0.0043
 4818SOL    HW126087   1.138   0.284   5.531 -0.3207  2.1493  3.7946
 4818SOL    HW226088   1.255   0.289   5.606 -0.2535  0.1311 -0.2712
 4819SOL     OW26089   3.815   4.074   7.646 -0.5824 -0.3719  0.4984
 4819SOL    HW126090   3.789   4.064   7.738  1.3568  0.7284  1.1543
 4819SOL    HW226091   3.910   4.073   7.641 -0.6722  3.2820 -2.2752
 4820SOL     OW26092   3.819   2.936   8.636  0.3882 -0.1835  0.1798
 4820SOL    HW126093   3.847   2.986   8.559 -2.4450  1.7838  0.4247
 4820SOL    HW226094   3.896   2.884   8.658 -0.6084 -1.8954 -0.4589
 4821SOL     OW26095   0.725   1.587  15.877 -0.6118  0.2136  0.4656
 4821SOL    HW126096   0.772   1.589  15.961 -0.7959  1.2370  0.5468
 4821SOL    HW226097   0.777   1.520  15.833 -1.9873  0.0022 -0.8445
 4822SOL     OW26098   2.085   4.023   0.409  0.2578  0.3141  0.3796
 4822SOL    HW126099   2.121   4.106   0.441  1.2862  0.0662 -0.1350
 4822SOL    HW226100   2.094   3.967   0.486 -0.5826 -0.0896  0.1862
 4823SOL     OW26101   0.505   0.752   2.001  0.4560 -0.0142 -0.1997
 4823SOL    HW126102   0.488   0.761   1.907 -1.5398  0.0134  0.1672
 4823SOL    HW226103   0.436   0.803   2.044  0.0110 -0.7674 -0.0025
 4824SOL     OW26104   3.407   3.184  17.310 -0.1756  0.1893  0.3174
 4824SOL    HW126105   3.502   3.192  17.314 -0.3561  1.5860  1.7408
 4824SOL    HW226106   3.383   3.267  17.351 -2.4930 -0.3363  0.0296
 4825SOL     OW26107   0.196   0.787  11.821  0.1471 -0.2255  0.5305
 4825SOL    HW126108   0.227   0.707  11.778 -1.7165 -0.0243 -1.2285
 4825SOL    HW226109   0.137   0.827  11.756 -1.2261 -2.0273  0.6744
 4826SOL     OW26110   3.713   1.148  16.977  0.0677  0.0340  0.4266
 4826SOL    HW126111   3.707   1.206  17.053  1.0288 -0.7865  1.1267
 4826SOL    HW226112   3.662   1.191  16.907 -0.0868 -0.2972  0.3373
 4827SOL     OW26113   2.249   1.592  11.534  0.7131  0.0398  0.2624
 4827SOL    HW126114   2.298   1.513  11.513 -1.7715 -1.1823 -0.8903
 4827SOL    HW226115   2.244   1.640  11.452  1.1858  0.1753  0.3116
 4828SOL     OW26116   2.148   2.173  12.278 -0.3109  0.3316  0.1834
 4828SOL    HW126117   2.078   2.238  12.272  0.4854  1.2058  0.4523
 4828SOL    HW226118   2.098   2.091  12.281 -0.6310  0.5030 -0.4430
 4829SOL     OW26119   2.424   3.248   0.967 -0.2764 -0.3582  0.0450
 4829SOL    HW126120   2.337   3.210   0.953  0.0259 -0.6862 -0.9207
 4829SOL    HW226121   2.416   3.287   1.054  0.1340 -2.1229  0.8645
 4830SOL     OW26122   2.087   1.139  15.897  0.5340 -0.4483  0.1379
 4830SOL    HW126123   2.171   1.176  15.925  0.6864  0.6700 -1.8285
 4830SOL    HW226124   2.120   1.082  15.827 -1.3863 -0.3522 -0.8543
 4831SOL     OW26125   0.541   2.874   4.069  0.4437 -0.1569 -0.4954
 4831SOL    HW126126   0.481   2.940   4.105  1.4000  0.6468 -0.3836
 4831SOL    HW226127   0.479   2.809   4.034  1.6113 -0.3515 -2.1806
 4832SOL     OW26128   2.421   2.644  14.353 -0.3476  0.1035 -0.3728
 4832SOL    HW126129   2.490   2.634  14.418 -0.4502  1.9130  0.0128
 4832SOL    HW226130   2.409   2.738  14.366  0.0216  0.4199 -2.3721
 4833SOL     OW26131   0.603   4.014  16.255  0.6950 -0.3196 -0.5304
 4833SOL    HW126132   0.660   4.034  16.181 -1.7709  0.6760 -2.1670
 4833SOL    HW226133   0.658   4.022  16.333  3.7208  0.2179 -2.7316
 4834SOL     OW26134   2.517   2.018   9.104  0.2746 -0.0322  0.2631
 4834SOL    HW126135   2.461   2.041   9.030  0.9354 -0.1721 -0.2731
 4834SOL    HW226136   2.465   1.953   9.152 -1.5696  0.1333 -1.5356
 4835SOL     OW26137   3.303   1.942   7.715 -0.2549  0.5164 -0.7369
 4835SOL    HW126138   3.262   1.952   7.801  0.9885  0.3558 -0.1205
 4835SOL    HW226139   3.235   1.966   7.652  0.9560  2.3054 -1.3648
 4836SOL     OW26140   1.073   2.163   5.316 -1.1647 -0.3112  0.1310
 4836SOL    HW126141   1.165   2.189   5.321 -1.6129  0.8997  2.2036
 4836SOL    HW226142   1.060   2.129   5.404  1.1099  1.8653  1.3118
 4837SOL     OW26143   1.665   0.445   7.308 -0.1827  0.3501 -0.5500
 4837SOL    HW126144   1.666   0.478   7.398 -2.1684 -0.2912 -0.3081
 4837SOL    HW226145   1.608   0.508   7.264 -0.5240  1.0719  0.9239
 4838SOL     OW26146   2.009   3.511   5.655  0.9031  0.9362 -0.2744
 4838SOL    HW126147   2.038   3.557   5.576  3.3285  0.4881  0.3769
 4838SOL    HW226148   1.951   3.578   5.692  0.0595  0.7952 -1.3322
 4839SOL     OW26149   4.159   1.423   4.992  0.2900 -0.1849  0.4984
 4839SOL    HW126150   4.191   1.335   4.972 -2.1296 -0.5746 -1.7055
 4839SOL    HW226151   4.238   1.476   4.997  1.4143 -1.4286 -3.9981
 4840SOL     OW26152   3.794   1.503   0.545  0.0511 -0.0100  0.7135
 4840SOL    HW126153   3.787   1.585   0.594 -1.6225  0.3022 -0.0326
 4840SOL    HW226154   3.834   1.525   0.460 -0.8469 -0.3393  0.2049
 4841SOL     OW26155   1.808   0.595  15.316 -0.1783  0.8993 -0.0144
 4841SOL    HW126156   1.817   0.502  15.333 -0.4426  0.5050 -2.0644
 4841SOL    HW226157   1.714   0.605  15.331  0.0099  0.1944  1.6109
 4842SOL     OW26158   4.010   0.632   2.122  0.2798 -0.3328  0.1098
 4842SOL    HW126159   3.957   0.611   2.199 -1.0259  1.0232 -0.4448
 4842SOL    HW226160   4.019   0.547   2.079  3.3460 -0.2244  0.4861
 4843SOL     OW26161   3.082   3.088   7.017 -0.1211  0.0305  0.6012
 4843SOL    HW126162   3.012   3.026   7.001 -1.4159  1.6857 -0.1973
 4843SOL    HW226163   3.080   3.157   6.950 -0.7470  0.6056  1.2070
 4844SOL     OW26164   1.653   3.474  16.877 -0.1970 -0.2918  0.3432
 4844SOL    HW126165   1.659   3.419  16.800 -0.9618  1.2150 -0.7933
 4844SOL    HW226166   1.566   3.448  16.908  0.8043 -1.4361  2.2011
 4845SOL     OW26167   3.952   3.148   8.974  0.0046  0.3907 -0.1295
 4845SOL    HW126168   3.935   3.144   9.069  3.1807  3.2760  0.5466
 4845SOL    HW226169   3.889   3.081   8.946 -0.0958  0.0814  0.8136
 4846SOL     OW26170   1.375   0.982   7.953  0.4122 -0.1417 -0.1165
 4846SOL    HW126171   1.376   1.077   7.969 -2.7142 -0.5952  2.7515
 4846SOL    HW226172   1.465   0.965   7.978  0.4133  0.2618  0.1623
 4847SOL     OW26173   3.014   0.146   7.663 -0.4860  0.0519 -0.3128
 4847SOL    HW126174   3.095   0.099   7.648 -0.6317 -0.2527 -0.1424
 4847SOL    HW226175   3.041   0.233   7.693 -0.3572  0.3323 -1.2309
 4848SOL     OW26176   3.656   3.229   4.345  0.0312 -0.0850  0.5603
 4848SOL    HW126177   3.731   3.264   4.394  0.4191 -3.1507  2.1638
 4848SOL    HW226178   3.670   3.265   4.258 -1.5163 -1.3702 -0.2223
 4849SOL     OW26179   0.136   1.774   0.886 -0.0678 -0.1462  0.6584
 4849SOL    HW126180   0.088   1.742   0.964 -1.3737  0.4424  0.1006
 4849SOL    HW226181   0.227   1.758   0.909  0.1787 -0.3648 -0.5044
 4850SOL     OW26182   3.483   3.696   2.124  0.2771  0.1212 -0.3152
 4850SOL    HW126183   3.394   3.662   2.129  0.2419  0.0530 -1.5215
 4850SOL    HW226184   3.483   3.762   2.194 -0.3924 -0.4304  0.2080
 4851SOL     OW26185   3.493   0.226   9.218 -0.6442 -0.1646 -0.1643
 4851SOL    HW126186   3.426   0.165   9.246 -2.1211  1.2928 -0.4968
 4851SOL    HW226187   3.565   0.190   9.270 -0.8206 -0.0162  0.1827
 4852SOL     OW26188   3.185   1.788   9.457  0.3190 -0.1839 -0.0820
 4852SOL    HW126189   3.154   1.837   9.381  0.8156  0.6047  0.2128
 4852SOL    HW226190   3.213   1.860   9.514  0.1910 -0.5478  0.4434
 4853SOL     OW26191   1.475   2.969   0.469  0.0038 -0.1010 -0.1053
 4853SOL    HW126192   1.421   2.907   0.517  1.2603 -2.0542 -1.2308
 4853SOL    HW226193   1.414   2.992   0.399  1.4074  0.5036 -1.1330
 4854SOL     OW26194   0.519   0.454   3.915 -0.0819 -0.4817  0.1329
 4854SOL    HW126195   0.541   0.458   4.008 -2.4985  1.1910  0.6395
 4854SOL    HW226196   0.515   0.358   3.908  1.0137 -0.4968 -0.2661
 4855SOL     OW26197   0.427   0.204   9.306 -0.0219  0.2360 -0.1590
 4855SOL    HW126198   0.446   0.180   9.215  0.7534  2.1952 -0.5095
 4855SOL    HW226199   0.475   0.133   9.348 -0.2590  1.5553  2.3500
 4856SOL     OW26200   3.241   0.994   8.181 -0.5887  0.3879  0.6893
 4856SOL    HW126201   3.316   1.044   8.149  0.5352 -0.2329  2.3508
 4856SOL    HW226202   3.254   1.009   8.275  0.5210 -0.4735  0.6709
 4857SOL     OW26203   3.193   2.309   4.219  0.0272 -0.5568  0.1596
 4857SOL    HW126204   3.134   2.260   4.277 -0.2565 -0.3657  0.0313
 4857SOL    HW226205   3.272   2.295   4.271 -0.4626 -0.8049  0.8470
 4858SOL     OW26206   3.577   3.140   3.110 -0.3473 -0.4355 -0.0956
 4858SOL    HW126207   3.549   3.152   3.020 -0.1220 -1.7805 -0.3366
 4858SOL    HW226208   3.668   3.109   3.106 -0.5463 -1.0841  0.3254
 4859SOL     OW26209   2.247   2.237  17.624 -0.0916  0.1815  0.1669
 4859SOL    HW126210   2.253   2.331  17.640  1.8570  0.1030 -0.1082
 4859SOL    HW226211   2.155   2.230  17.649 -0.0232  1.0195  0.6592
 4860SOL     OW26212   0.879   2.656   3.782  0.3920 -0.3067 -0.1655
 4860SOL    HW126213   0.905   2.714   3.710  0.1092  2.0942  1.6540
 4860SOL    HW226214   0.789   2.684   3.796  0.6148 -0.0281  0.7417
 4861SOL     OW26215   2.547   1.322   4.491  0.3540  0.2629 -0.1879
 4861SOL    HW126216   2.492   1.322   4.413 -1.7164  2.9220  1.2642
 4861SOL    HW226217   2.600   1.243   4.476 -0.0670  0.0754 -0.6958
 4862SOL     OW26218   0.240   3.337   1.125 -0.2898 -0.0260  0.1014
 4862SOL    HW126219   0.147   3.342   1.145 -0.3178 -0.2812  0.0318
 4862SOL    HW226220   0.243   3.414   1.068 -0.0078 -1.1763 -1.4149
 4863SOL     OW26221   1.792   0.372   9.273 -0.0113  0.2122 -0.7751
 4863SOL    HW126222   1.792   0.449   9.216 -0.8116  0.6962 -0.1224
 4863SOL    HW226223   1.744   0.308   9.221  1.7671 -1.0974 -0.7877
 4864SOL     OW26224   1.409   3.583  11.630 -0.2041  0.4641  0.1049
 4864SOL    HW126225   1.495   3.557  11.663 -0.0228 -1.8987 -2.2056
 4864SOL    HW226226   1.367   3.497  11.636 -1.6089  1.1833  0.4683
 4865SOL     OW26227   1.187   1.648   6.451 -0.0956  0.0508 -0.1343
 4865SOL    HW126228   1.185   1.634   6.546  0.3475  3.5078  0.3651
 4865SOL    HW226229   1.278   1.641   6.421  0.0340 -0.2158  0.3170
 4866SOL     OW26230   2.357   2.994   6.343  0.8071  0.0106  0.5123
 4866SOL    HW126231   2.365   2.900   6.360 -1.8398 -0.1963  0.5407
 4866SOL    HW226232   2.400   3.023   6.424  0.9691 -1.4906  0.9754
 4867SOL     OW26233   2.798   2.668  12.399  0.0633  0.0140  0.0723
 4867SOL    HW126234   2.820   2.753  12.362 -0.9916  0.2301 -0.0788
 4867SOL    HW226235   2.715   2.704  12.432 -0.3473  0.1237 -1.0909
 4868SOL     OW26236   3.450   3.885   2.343  0.2725 -0.6667  0.2569
 4868SOL    HW126237   3.363   3.915   2.319  0.9154 -0.4794 -1.8096
 4868SOL    HW226238   3.458   3.916   2.433 -2.5411  1.9504 -0.4062
 4869SOL     OW26239   4.185   0.216  12.235 -0.1124 -0.6242 -0.2419
 4869SOL    HW126240   4.198   0.121  12.234  1.7944 -0.3766 -0.8263
 4869SOL    HW226241   4.271   0.237  12.198 -0.2814 -0.5416 -0.5899
 4870SOL     OW26242   2.546   3.776   2.644  0.4761  0.0566 -0.4616
 4870SOL    HW126243   2.516   3.840   2.708  0.5202 -0.5226  0.1410
 4870SOL    HW226244   2.595   3.830   2.581  2.8239 -2.1739 -0.5706
 4871SOL     OW26245   0.029   4.070   1.172  0.7929  0.2382  0.6488
 4871SOL    HW126246   0.076   4.015   1.235  0.1913 -0.4907  0.4645
 4871SOL    HW226247   0.082   4.150   1.179  0.5754  0.7217 -2.9159
 4872SOL     OW26248   2.307   4.317  16.774  0.2760  0.1847  0.4913
 4872SOL    HW126249   2.355   4.367  16.840 -0.1007 -0.4463  1.2484
 4872SOL    HW226250   2.365   4.241  16.770  1.9331  1.5699 -1.9111
 4873SOL     OW26251   2.227   4.723   4.990 -0.1076  0.1861 -0.1931
 4873SOL    HW126252   2.134   4.707   5.009  0.2823 -0.5159  1.1192
 4873SOL    HW226253   2.233   0.079   4.993 -0.6390  0.2198 -0.2408
 4874SOL     OW26254   2.460   1.827   4.613 -0.4182 -1.1911 -0.2698
 4874SOL    HW126255   2.403   1.849   4.539  1.2973 -0.6083 -1.4114
 4874SOL    HW226256   2.476   1.735   4.592  0.8367 -1.0244 -0.0182
 4875SOL     OW26257   3.494   1.666   7.407  0.0554  0.6057  0.4943
 4875SOL    HW126258   3.431   1.655   7.477 -1.1249  3.7308 -0.0871
 4875SOL    HW226259   3.570   1.687   7.461  0.3812 -1.3623  0.7989
 4876SOL     OW26260   3.071   1.197   8.027  0.3471  0.2010 -0.4035
 4876SOL    HW126261   3.048   1.233   8.112 -0.7035 -0.2333 -0.5100
 4876SOL    HW226262   3.093   1.105   8.047 -1.0396 -0.7954 -3.4790
 4877SOL     OW26263   3.944   4.560   7.289 -0.3762  0.5606 -0.1992
 4877SOL    HW126264   3.942   4.648   7.324 -1.0367  0.8657 -0.9864
 4877SOL    HW226265   4.021   4.561   7.233 -0.1188 -0.0954  0.1436
 4878SOL     OW26266   1.827   3.197   9.002 -0.3698 -0.5338  0.2081
 4878SOL    HW126267   1.749   3.249   9.023 -0.7475 -1.8064  1.9271
 4878SOL    HW226268   1.888   3.264   8.971 -0.1904 -0.6995  0.2087
 4879SOL     OW26269   3.016   2.357   3.791  0.7602  0.4678 -0.1566
 4879SOL    HW126270   3.056   2.360   3.703  0.7457  0.3210 -0.1685
 4879SOL    HW226271   2.999   2.450   3.805 -0.1716  0.2838 -0.0776
 4880SOL     OW26272   2.543   0.167   1.978 -0.1504 -0.2275  0.0662
 4880SOL    HW126273   2.637   0.156   1.986 -0.1223  1.3989  2.1182
 4880SOL    HW226274   2.506   0.129   2.058 -2.1327  0.8562 -0.3280
 4881SOL     OW26275   3.075   1.920   7.947 -0.0890  0.5207  0.1906
 4881SOL    HW126276   3.087   1.827   7.927 -0.3887  0.6775 -0.7076
 4881SOL    HW226277   2.982   1.927   7.967 -0.4333 -1.5766 -0.6481
 4882SOL     OW26278   0.641   1.280   8.593 -0.2185 -0.1956  0.1370
 4882SOL    HW126279   0.734   1.287   8.570 -0.0667  0.1067  0.8329
 4882SOL    HW226280   0.613   1.206   8.540  2.0394 -1.4282  0.6646
 4883SOL     OW26281   1.478   1.091   6.493 -0.5192 -0.3506  0.6007
 4883SOL    HW126282   1.502   1.008   6.452  1.6390 -0.1943  1.5461
 4883SOL    HW226283   1.559   1.105   6.544 -0.1985  0.6198 -0.1734
 4884SOL     OW26284   3.243   4.368  17.488  0.0947 -0.1640 -0.5016
 4884SOL    HW126285   3.303   4.330  17.551  0.3306  0.9011 -0.0883
 4884SOL    HW226286   3.302   4.422  17.434 -0.7234  2.7110  1.4675
 4885SOL     OW26287   1.361   3.443   1.467 -0.1180  0.8794 -0.4024
 4885SOL    HW126288   1.416   3.392   1.525 -0.9620 -0.6462 -0.9373
 4885SOL    HW226289   1.329   3.374   1.409  1.2525  0.9857 -1.3031
 4886SOL     OW26290   2.070   2.751   9.733 -0.3017 -0.1469  0.5630
 4886SOL    HW126291   2.057   2.656   9.726  1.9206 -0.5098  1.3135
 4886SOL    HW226292   2.032   2.764   9.820  0.7175  4.3284  0.3314
 4887SOL     OW26293   1.320   3.307   4.882 -0.2420 -0.1492 -0.0119
 4887SOL    HW126294   1.337   3.323   4.974  0.1877  1.4061 -0.3736
 4887SOL    HW226295   1.224   3.305   4.874 -0.3218 -1.2446  1.1576
 4888SOL     OW26296   3.728   3.494   9.021 -0.5847  0.4924 -0.5674
 4888SOL    HW126297   3.670   3.549   8.968  0.4761 -0.9792 -3.2960
 4888SOL    HW226298   3.775   3.451   8.949 -0.5143 -1.0883  0.4278
 4889SOL     OW26299   0.480   3.897   6.327  0.3641 -0.4573 -0.0075
 4889SOL    HW126300   0.523   3.851   6.398  1.5502  3.5675  1.9054
 4889SOL    HW226301   0.392   3.916   6.361  0.0791  1.1319 -1.6189
 4890SOL     OW26302   4.372   3.092  14.665  0.2289 -0.0732 -0.6329
 4890SOL    HW126303   4.443   3.098  14.728  1.4516  1.0533 -2.1291
 4890SOL    HW226304   4.322   3.164  14.703 -0.7375 -0.6781 -0.7387
 4891SOL     OW26305   1.074   2.843   4.211  0.0066  0.0033  0.0548
 4891SOL    HW126306   1.152   2.824   4.158 -1.1014  3.1791 -2.6673
 4891SOL    HW226307   1.021   2.903   4.160  0.4285  1.6633  1.5525
 4892SOL     OW26308   4.580   1.825  16.123 -0.2879  0.3814 -0.0384
 4892SOL    HW126309   4.650   1.860  16.067  0.6491 -0.6894  0.4563
 4892SOL    HW226310   4.582   1.735  16.092 -0.7932  0.2142  0.4241
 4893SOL     OW26311   0.060   0.584   3.265 -0.4958  0.3107  0.7319
 4893SOL    HW126312   0.130   0.584   3.330 -1.4896 -0.8620  1.7976
 4893SOL    HW226313   0.073   0.672   3.229  4.0020 -0.7957 -0.3617
 4894SOL     OW26314   2.554   3.387   1.640  0.2107  0.4465  0.2727
 4894SOL    HW126315   2.460   3.369   1.634  0.3255  0.1164 -0.4346
 4894SOL    HW226316   2.567   3.481   1.658 -1.9888  0.7062  0.5458
 4895SOL     OW26317   2.008   2.443   9.699  0.0864  0.0701  0.1071
 4895SOL    HW126318   2.072   2.432   9.628  0.9624  1.2526  0.6969
 4895SOL    HW226319   2.043   2.381   9.764 -2.3985  0.0512  1.4334
 4896SOL     OW26320   1.183   4.120   8.982  0.1718  0.3745  0.1592
 4896SOL    HW126321   1.120   4.124   9.054  0.6420 -0.9462  0.6466
 4896SOL    HW226322   1.265   4.089   9.021 -0.4838  1.0370  2.0906
 4897SOL     OW26323   0.477   1.829  12.142  0.4300 -0.1747  0.1132
 4897SOL    HW126324   0.516   1.913  12.118 -0.7229 -0.2984 -2.1733
 4897SOL    HW226325   0.409   1.827  12.075 -0.7969 -1.1739  1.3823
 4898SOL     OW26326   3.224   0.644  17.267  0.2274  0.3230 -0.0673
 4898SOL    HW126327   3.188   0.709  17.205 -0.4071  0.4003  0.3807
 4898SOL    HW226328   3.315   0.666  17.251 -0.1964 -0.4013 -3.5348
 4899SOL     OW26329   1.194   2.743   1.577 -0.4917 -0.3177 -0.7126
 4899SOL    HW126330   1.273   2.694   1.601  1.0692  1.5294 -2.0770
 4899SOL    HW226331   1.186   2.792   1.659  1.4507 -2.5921  0.8070
 4900SOL     OW26332   4.008   1.857   7.911  0.4588 -0.2784 -0.1682
 4900SOL    HW126333   3.959   1.878   7.991 -2.6732  1.2728 -2.4656
 4900SOL    HW226334   3.962   1.925   7.861 -0.1230 -0.2605  0.3992
 4901SOL     OW26335   2.942   3.024   3.325 -0.0741  0.2003 -0.3797
 4901SOL    HW126336   2.928   3.101   3.379  0.8877  0.6224 -0.7309
 4901SOL    HW226337   2.961   2.957   3.390  0.4128 -1.3470 -2.0998
 4902SOL     OW26338   2.022   4.270   7.231 -0.0737  0.3996  0.2214
 4902SOL    HW126339   1.930   4.265   7.256 -0.0424  4.1993  1.0578
 4902SOL    HW226340   2.041   4.363   7.241 -1.2715  0.7155 -0.4690
 4903SOL     OW26341   3.549   0.369   9.595  0.1915  0.0243 -0.6640
 4903SOL    HW126342   3.474   0.405   9.548 -0.8431  0.5750  1.4292
 4903SOL    HW226343   3.534   0.275   9.582  0.7740 -0.1554 -0.0385
 4904SOL     OW26344   2.429   2.993   9.379 -0.0614 -0.0226 -0.2156
 4904SOL    HW126345   2.335   3.000   9.363 -0.0065  0.5981 -0.2355
 4904SOL    HW226346   2.424   3.059   9.448  0.2594 -0.9394  0.6899
 4905SOL     OW26347   3.481   3.284   6.648  0.3068 -0.4356 -0.5380
 4905SOL    HW126348   3.452   3.372   6.624 -1.0512 -1.2298 -1.8145
 4905SOL    HW226349   3.544   3.276   6.576  1.3687  1.5520  0.1755
 4906SOL     OW26350   0.841   4.708   3.442  0.3119  0.3386  0.1056
 4906SOL    HW126351   0.889   0.042   3.481  0.4435  1.0526 -1.3862
 4906SOL    HW226352   0.773   0.013   3.392 -0.0483 -0.2079  0.1045
 4907SOL     OW26353   4.418   4.366   7.366  0.4964  0.1998  0.4051
 4907SOL    HW126354   4.333   4.403   7.390  1.2941  1.6206  1.0371
 4907SOL    HW226355   4.428   4.311   7.443  1.7355  0.5663  0.5016
 4908SOL     OW26356   1.092   3.676   5.655 -0.6206 -0.3847 -0.1756
 4908SOL    HW126357   1.127   3.625   5.728 -1.1514 -0.6679 -0.1222
 4908SOL    HW226358   1.153   3.749   5.643 -1.2307  0.2216  0.3893
 4909SOL     OW26359   3.404   2.057  17.214 -0.3037 -0.1723 -0.1252
 4909SOL    HW126360   3.442   2.059  17.126  0.2401 -1.0765  0.0783
 4909SOL    HW226361   3.423   2.146  17.244  3.7413 -0.8375 -0.6175
 4910SOL     OW26362   2.371   0.010   3.270 -0.1191  0.1090 -0.4273
 4910SOL    HW126363   2.385   0.041   3.180 -0.2122 -3.2853 -1.6087
 4910SOL    HW226364   2.371   0.097   3.310 -0.8163 -0.5652  1.0185
 4911SOL     OW26365   1.534   2.524   7.861 -0.2077 -0.0171  0.0458
 4911SOL    HW126366   1.515   2.496   7.950  0.7063  1.1666  0.6212
 4911SOL    HW226367   1.566   2.447   7.813  0.4605  1.3434 -1.6913
 4912SOL     OW26368   0.241   3.851  14.101  0.6576  0.0205  0.0194
 4912SOL    HW126369   0.311   3.886  14.155 -1.1988  2.9936  0.4937
 4912SOL    HW226370   0.206   3.928  14.055  0.9145 -0.2314 -0.5983
 4913SOL     OW26371   3.331   2.079   1.469  0.8862 -0.4985 -0.1083
 4913SOL    HW126372   3.335   1.984   1.481 -0.5426 -0.0967  3.3164
 4913SOL    HW226373   3.312   2.108   1.558 -0.7703 -0.5546 -0.4375
 4914SOL     OW26374   2.001   2.342   2.716  0.1280 -0.1562 -0.0903
 4914SOL    HW126375   2.008   2.382   2.802  2.2584  1.8852 -1.2064
 4914SOL    HW226376   2.051   2.408   2.667  0.5342 -0.6987 -0.4151
 4915SOL     OW26377   2.873   0.967   6.679 -0.4511 -0.2258 -0.2051
 4915SOL    HW126378   2.896   1.022   6.604 -1.4436  0.5907  0.0903
 4915SOL    HW226379   2.778   0.963   6.664 -0.4178  2.2387 -1.1076
 4916SOL     OW26380   1.068   2.545   7.109 -0.1693  0.4672  0.2324
 4916SOL    HW126381   1.152   2.588   7.123  0.6486 -0.6199 -1.4101
 4916SOL    HW226382   1.035   2.602   7.040 -1.3373 -0.1233  0.2952
 4917SOL     OW26383   0.673   2.158   1.815 -0.5481  0.3370  0.2008
 4917SOL    HW126384   0.633   2.071   1.808  0.1393  0.1614 -1.5053
 4917SOL    HW226385   0.671   2.155   1.911 -0.0508  1.2398  0.2490
 4918SOL     OW26386   2.565   0.605  10.751  0.6886 -0.0325  0.4687
 4918SOL    HW126387   2.623   0.535  10.722 -0.8995 -0.9079 -0.6111
 4918SOL    HW226388   2.600   0.688  10.721  2.0047 -0.9770 -0.6115
 4919SOL     OW26389   0.837   1.617   3.140  0.1093 -0.0655 -0.0227
 4919SOL    HW126390   0.824   1.628   3.045 -1.1772  0.6128  0.2221
 4919SOL    HW226391   0.808   1.704   3.168 -1.1031 -0.0965 -1.1330
 4920SOL     OW26392   2.644   2.283   5.573 -0.0446  0.1135  0.3864
 4920SOL    HW126393   2.671   2.193   5.595 -0.4597  0.2439  1.4569
 4920SOL    HW226394   2.552   2.263   5.557  0.4908 -0.8199 -1.4884
 4921SOL     OW26395   3.771   1.534   5.719 -0.0178  0.4066 -0.2263
 4921SOL    HW126396   3.736   1.609   5.669  2.2698  1.0402 -0.8783
 4921SOL    HW226397   3.861   1.566   5.716 -0.1137  0.6372 -0.7188
 4922SOL     OW26398   1.517   2.730  17.516 -0.0014  0.1606  0.8322
 4922SOL    HW126399   1.514   2.635  17.507  1.7169  0.2240 -0.4370
 4922SOL    HW226400   1.593   2.753  17.462  0.9135  0.0258  2.0845
 4923SOL     OW26401   4.005   3.007   4.740  0.1841 -0.2814 -0.2823
 4923SOL    HW126402   4.077   3.069   4.749  0.1768 -0.3743  0.4580
 4923SOL    HW226403   3.963   3.024   4.825 -0.4099 -3.0157 -0.0433
 4924SOL     OW26404   3.567   1.160   2.801  0.1994  0.0531  0.5707
 4924SOL    HW126405   3.612   1.225   2.855  0.4643  0.2787  0.0818
 4924SOL    HW226406   3.588   1.203   2.718 -0.0019 -0.7132  0.1166
 4925SOL     OW26407   1.498   3.416   3.571  0.0127  0.6764  0.1229
 4925SOL    HW126408   1.550   3.357   3.625 -0.4006 -1.4541 -1.8107
 4925SOL    HW226409   1.465   3.366   3.496 -0.7882 -1.0031  1.5947
 4926SOL     OW26410   0.493   2.687   3.172 -0.3758  0.2987  0.0030
 4926SOL    HW126411   0.537   2.767   3.142 -1.1994  0.6996 -0.1279
 4926SOL    HW226412   0.544   2.621   3.125  0.3367  3.1586 -3.1803
 4927SOL     OW26413   3.724   3.848   8.642 -0.1034  0.1557  0.2822
 4927SOL    HW126414   3.736   3.846   8.547  0.3473  0.0334  0.3429
 4927SOL    HW226415   3.749   3.763   8.678 -1.8139 -0.7139 -0.5693
 4928SOL     OW26416   2.952   1.097   0.267  1.0743  0.6576 -0.7199
 4928SOL    HW126417   3.014   1.096   0.340  2.6925 -2.2712 -2.1473
 4928SOL    HW226418   2.866   1.116   0.303  1.5291 -0.2773  0.8665
 4929SOL     OW26419   0.568   4.296   5.270  0.3513  0.3352  0.4904
 4929SOL    HW126420   0.646   4.317   5.321 -0.3963  0.4925  1.5584
 4929SOL    HW226421   0.508   4.278   5.342  2.3075 -0.5916  1.8687
 4930SOL     OW26422   2.320   1.167  12.812  0.3436 -0.2629 -0.6653
 4930SOL    HW126423   2.322   1.083  12.765  0.9716 -0.7992  0.3242
 4930SOL    HW226424   2.364   1.228  12.753 -0.4421 -0.5294 -1.5300
 4931SOL     OW26425   2.182   2.107   0.235  0.2065 -0.1052  0.7384
 4931SOL    HW126426   2.096   2.115   0.275 -1.0160  0.2217 -1.9609
 4931SOL    HW226427   2.169   2.033   0.175 -0.1285  0.0404  0.6312
 4932SOL     OW26428   1.521   3.693   8.526 -0.0876  0.2426  0.5625
 4932SOL    HW126429   1.577   3.727   8.456 -0.4170  1.2775  0.7913
 4932SOL    HW226430   1.581   3.677   8.598  1.2908  1.4954 -0.3173
 4933SOL     OW26431   4.031   0.433   9.768  0.2883  0.3571 -0.0202
 4933SOL    HW126432   3.982   0.456   9.847  1.5062  1.4767  0.4162
 4933SOL    HW226433   3.966   0.474   9.712 -0.8564 -0.7158  0.5244
 4934SOL     OW26434   2.365   0.148   0.381 -0.5893 -0.3163  0.4659
 4934SOL    HW126435   2.393   0.122   0.293 -0.0083  1.9751 -0.0282
 4934SOL    HW226436   2.300   0.081   0.402 -2.4555  1.9674  2.0823
 4935SOL     OW26437   1.243   1.692   8.145  0.0701 -0.4550 -0.0277
 4935SOL    HW126438   1.302   1.763   8.121  1.7999 -2.5223 -1.9015
 4935SOL    HW226439   1.182   1.704   8.072  0.2820  2.9546  0.3682
 4936SOL     OW26440   3.359   1.868   5.746  0.0313  0.0229 -0.0629
 4936SOL    HW126441   3.337   1.904   5.660 -0.6559 -0.2909 -0.0145
 4936SOL    HW226442   3.289   1.804   5.752 -1.2349  1.0927 -3.3439
 4937SOL     OW26443   3.905   0.512  15.789 -0.0163  0.5371 -0.1737
 4937SOL    HW126444   3.970   0.573  15.754 -1.2247  1.4452 -0.8422
 4937SOL    HW226445   3.908   0.516  15.885 -2.5810 -0.7844 -0.0547
 4938SOL     OW26446   0.092   3.666   3.837 -0.5593  0.2858  0.6345
 4938SOL    HW126447   0.178   3.663   3.795 -1.0337  1.4292 -0.4111
 4938SOL    HW226448   0.101   3.592   3.896  0.4746  0.7730  1.0741
 4939SOL     OW26449   2.636   2.424   0.946  0.4668 -0.3289  0.2448
 4939SOL    HW126450   2.703   2.394   1.007  0.3770 -0.5566  0.2307
 4939SOL    HW226451   2.684   2.482   0.886 -0.1672 -1.0086 -0.9249
 4940SOL     OW26452   0.717   1.998  14.180  0.1368  0.1667 -0.1094
 4940SOL    HW126453   0.720   2.072  14.119  1.5508 -0.1970 -0.4846
 4940SOL    HW226454   0.742   1.927  14.121 -0.2294  1.8619 -2.3323
 4941SOL     OW26455   0.615   1.531   8.167 -0.1805  0.0811 -0.1420
 4941SOL    HW126456   0.595   1.467   8.235 -0.1639 -0.2072 -0.4076
 4941SOL    HW226457   0.668   1.581   8.228 -0.4734 -1.3970  1.3363
 4942SOL     OW26458   0.063   2.531   8.376  0.0804 -0.0103  0.8293
 4942SOL    HW126459   0.081   2.543   8.283 -2.7611  1.2401  0.4349
 4942SOL    HW226460   0.093   2.609   8.423  2.6197 -0.7069  0.3678
 4943SOL     OW26461   0.878   1.769   0.395 -0.0010  0.1174 -0.1632
 4943SOL    HW126462   0.939   1.826   0.349 -0.6711  0.2827 -0.8285
 4943SOL    HW226463   0.940   1.730   0.457  1.0047 -1.4570 -2.1424
 4944SOL     OW26464   1.360   3.612   3.340  0.1274  0.1241 -0.0743
 4944SOL    HW126465   1.313   3.558   3.276 -0.0407  1.9013 -1.4814
 4944SOL    HW226466   1.292   3.659   3.388  1.5971  2.0404  0.1115
 4945SOL     OW26467   0.726   3.552   6.727  0.0993 -0.7720  0.0690
 4945SOL    HW126468   0.800   3.609   6.706 -1.8245  1.8383  0.4298
 4945SOL    HW226469   0.682   3.617   6.782  2.7949  1.7682 -0.8076
 4946SOL     OW26470   0.487   2.035  11.839  0.3973 -0.6380 -0.2972
 4946SOL    HW126471   0.411   1.982  11.862  0.1039 -0.8666 -1.7859
 4946SOL    HW226472   0.510   2.073  11.923 -0.6933 -1.5016  0.3860
 4947SOL     OW26473   0.004   3.266   7.064  0.4763  0.0718  0.0570
 4947SOL    HW126474   4.674   3.278   6.999  0.7277  1.0348 -0.0314
 4947SOL    HW226475   0.084   3.237   7.021 -0.0942 -1.2330 -0.1177
 4948SOL     OW26476   3.558   4.296  12.394  0.4683 -0.8513 -0.4233
 4948SOL    HW126477   3.576   4.356  12.466 -0.5300 -0.5564 -0.4225
 4948SOL    HW226478   3.596   4.214  12.427 -0.6200 -0.6570  1.3354
 4949SOL     OW26479   0.679   0.176   5.019 -0.3407  0.1848 -0.3665
 4949SOL    HW126480   0.615   0.200   4.951 -3.2365 -0.4548  2.1628
 4949SOL    HW226481   0.633   0.095   5.039  0.6313  0.1997  1.8512
 4950SOL     OW26482   1.447   2.121   7.950 -0.3583 -0.4256 -0.5478
 4950SOL    HW126483   1.478   2.164   8.030 -1.3428  1.4198 -1.1585
 4950SOL    HW226484   1.353   2.115   7.969  0.0297 -2.0349  0.9164
 4951SOL     OW26485   1.209   4.631   3.897  0.2863 -0.4799  0.1339
 4951SOL    HW126486   1.173   4.720   3.898  0.5010 -0.3867 -0.2601
 4951SOL    HW226487   1.274   4.637   3.967 -1.0421 -0.8266  1.3988
 4952SOL     OW26488   3.740   3.164   4.056  0.0979  0.5049 -0.3049
 4952SOL    HW126489   3.687   3.243   4.067  0.8393  0.5959  2.7347
 4952SOL    HW226490   3.820   3.216   4.043 -1.0082  2.6654  1.3899
 4953SOL     OW26491   1.640   3.065   5.052  0.2998  0.0418  0.1028
 4953SOL    HW126492   1.676   3.057   5.140 -1.2408 -1.1283  0.6366
 4953SOL    HW226493   1.549   3.039   5.063  1.0888 -1.7652  2.3710
 4954SOL     OW26494   3.961   3.127  13.808  0.2085 -0.1104  0.0659
 4954SOL    HW126495   3.914   3.210  13.813 -1.1238 -0.9963  2.4007
 4954SOL    HW226496   3.954   3.113  13.713 -2.9602  0.7825  0.1744
 4955SOL     OW26497   1.805   1.396   2.312 -0.1518  0.1644  0.1231
 4955SOL    HW126498   1.712   1.375   2.310 -0.6914  2.5774 -1.3527
 4955SOL    HW226499   1.838   1.313   2.347  0.8015  1.1689  1.6046
 4956SOL     OW26500   2.296   3.937   4.891 -0.0405 -0.3987 -0.0479
 4956SOL    HW126501   2.310   4.027   4.919  0.3101 -0.2423 -0.7290
 4956SOL    HW226502   2.220   3.952   4.835  1.0807 -0.6440 -1.6376
 4957SOL     OW26503   0.158   1.371   9.625 -0.2248  0.0776 -0.0441
 4957SOL    HW126504   0.086   1.422   9.588  1.3316  1.5955 -0.9457
 4957SOL    HW226505   0.124   1.383   9.714  0.3854 -0.3465  0.2552
 4958SOL     OW26506   0.435   3.497  16.831 -0.4809 -0.0260 -0.5309
 4958SOL    HW126507   0.446   3.551  16.910  0.6242 -2.8853  1.2638
 4958SOL    HW226508   0.471   3.564  16.773  1.8307 -1.9183 -1.2318
 4959SOL     OW26509   2.878   2.108   2.221  0.4944  0.0754 -0.8838
 4959SOL    HW126510   2.876   2.032   2.279 -1.0489  0.9330  0.1974
 4959SOL    HW226511   2.798   2.100   2.169  0.5344  2.3482 -1.3011
 4960SOL     OW26512   3.057   3.986  13.315  0.9937  0.1455  0.7946
 4960SOL    HW126513   3.025   3.903  13.280  0.3966  1.3938 -1.5755
 4960SOL    HW226514   3.013   3.989  13.401  0.8528  0.2173  0.7196
 4961SOL     OW26515   2.885   1.510  14.193  0.1959 -0.1002  0.3316
 4961SOL    HW126516   2.908   1.593  14.235  2.3229 -1.2976  1.5391
 4961SOL    HW226517   2.789   1.513  14.197  0.3016  1.2335  1.5105
 4962SOL     OW26518   2.308   1.913   6.141 -0.2202 -0.4230 -0.3804
 4962SOL    HW126519   2.339   1.824   6.155  0.8899  0.0612  0.2386
 4962SOL    HW226520   2.381   1.974   6.152 -0.0297 -1.6900  5.3153
 4963SOL     OW26521   3.410   0.893   8.598 -0.0062 -0.1173 -0.3275
 4963SOL    HW126522   3.492   0.920   8.557 -0.0774  0.9179  0.2248
 4963SOL    HW226523   3.357   0.965   8.565 -0.5392  0.4365  1.7570
 4964SOL     OW26524   1.251   2.176   3.787 -0.8720  0.5397 -0.2631
 4964SOL    HW126525   1.310   2.109   3.821 -1.5150 -0.1163 -0.4326
 4964SOL    HW226526   1.297   2.252   3.824  1.6708  0.1595 -2.7117
 4965SOL     OW26527   3.327   4.250  11.733 -0.5044  0.2412  0.0194
 4965SOL    HW126528   3.327   4.312  11.660 -1.1825  0.1983 -0.0219
 4965SOL    HW226529   3.316   4.167  11.685 -0.3801  1.1014 -1.5016
 4966SOL     OW26530   2.584   2.006   0.660 -0.2753 -0.0472 -0.4617
 4966SOL    HW126531   2.587   2.014   0.565 -0.4811  0.6275 -0.4133
 4966SOL    HW226532   2.646   1.934   0.672  0.0277  0.5751  1.8087
 4967SOL     OW26533   3.676   3.474   7.452 -0.7940 -0.4366 -0.1667
 4967SOL    HW126534   3.689   3.556   7.404  0.1057  0.2105  1.1937
 4967SOL    HW226535   3.723   3.494   7.533  0.0768 -0.2396 -0.7192
 4968SOL     OW26536   1.181   3.893  15.725  0.0277  0.3356 -0.0398
 4968SOL    HW126537   1.204   3.967  15.669  0.4725  0.1255 -0.1347
 4968SOL    HW226538   1.258   3.886  15.782 -1.1504 -3.2475  1.0986
 4969SOL     OW26539   1.640   2.094   2.117  0.1399 -0.3438 -0.5184
 4969SOL    HW126540   1.658   2.030   2.185  1.7084 -0.2608 -0.8406
 4969SOL    HW226541   1.725   2.108   2.075  1.3317 -2.0171  1.3927
 4970SOL     OW26542   2.957   1.531   5.254 -0.3776 -0.1177  0.0318
 4970SOL    HW126543   2.930   1.440   5.240  0.4028 -0.1367 -1.3623
 4970SOL    HW226544   2.880   1.588   5.249 -1.0604 -1.0903 -0.5173
 4971SOL     OW26545   2.976   3.550  17.252 -0.2420 -0.3387 -0.0181
 4971SOL    HW126546   3.041   3.480  17.254 -2.6071 -2.6348 -2.2380
 4971SOL    HW226547   2.901   3.491  17.262  0.7371 -1.6378 -0.3716
 4972SOL     OW26548   4.464   2.779  15.190  0.0273  0.2010  0.3230
 4972SOL    HW126549   4.420   2.696  15.212 -0.7836  0.8319  1.0997
 4972SOL    HW226550   4.551   2.745  15.170 -1.4724 -3.2431 -0.4284
 4973SOL     OW26551   2.281   2.875  14.191  0.1402 -0.8483  0.4948
 4973SOL    HW126552   2.191   2.868  14.221 -0.4332 -0.8339 -1.2081
 4973SOL    HW226553   2.298   2.961  14.230 -2.8706  0.3240 -0.8394
 4974SOL     OW26554   3.511   2.252   5.619 -0.1444  0.3765  0.0533
 4974SOL    HW126555   3.558   2.203   5.552  0.2127  2.1427 -0.9900
 4974SOL    HW226556   3.586   2.278   5.674 -0.3636  0.0872  0.4911
 4975SOL     OW26557   0.113   2.488   5.691 -0.0482  0.3678  0.5410
 4975SOL    HW126558   0.043   2.479   5.755 -1.2293  0.9017 -0.6873
 4975SOL    HW226559   0.167   2.409   5.701 -2.1388 -1.3496 -1.6758
 4976SOL     OW26560   4.282   1.333   1.947  0.9638  0.1234 -0.0654
 4976SOL    HW126561   4.193   1.306   1.971  0.7795  2.5218  1.9043
 4976SOL    HW226562   4.326   1.313   2.030  0.6534 -3.2698 -0.6983
 4977SOL     OW26563   2.568   1.236   3.388  0.6045  0.0541  0.0428
 4977SOL    HW126564   2.624   1.167   3.422 -0.7603 -1.1381 -0.1254
 4977SOL    HW226565   2.488   1.189   3.366  0.0438  0.4822  1.1555
 4978SOL     OW26566   1.494   0.926   2.700  0.1442  0.1755 -0.4758
 4978SOL    HW126567   1.497   1.003   2.756  2.8419 -0.8045  0.7584
 4978SOL    HW226568   1.573   0.877   2.723  1.8140  3.0615 -0.0783
 4979SOL     OW26569   1.294   0.451   9.178  0.5790  0.0577  0.3268
 4979SOL    HW126570   1.267   0.492   9.260  0.3211 -0.7268  0.6424
 4979SOL    HW226571   1.212   0.412   9.146  1.7468 -3.1302  1.1938
 4980SOL     OW26572   1.463   1.107   8.950 -0.0170  0.8126  0.4536
 4980SOL    HW126573   1.437   1.114   8.858  1.1494  1.4547  0.1804
 4980SOL    HW226574   1.413   1.180   8.985 -0.9334  0.4808 -0.1414
 4981SOL     OW26575   4.215   3.928   5.088 -0.3305  0.2314  0.0189
 4981SOL    HW126576   4.297   3.958   5.050  1.1579 -0.5199  2.6737
 4981SOL    HW226577   4.242   3.864   5.153 -0.0714 -1.1926 -1.4834
 4982SOL     OW26578   0.516   3.925   2.044  0.0685 -0.2620  0.3756
 4982SOL    HW126579   0.445   3.868   2.074 -0.3882  0.6103  0.9681
 4982SOL    HW226580   0.529   3.974   2.125 -1.3621 -0.8456  0.9571
 4983SOL     OW26581   0.700   0.278   6.183  0.3815 -0.1806  0.0348
 4983SOL    HW126582   0.745   0.256   6.265  0.3832  1.4623  0.4910
 4983SOL    HW226583   0.721   0.372   6.182  1.7366 -0.4436  2.8948
 4984SOL     OW26584   3.947   3.371   5.996 -0.0813  0.0368 -0.4866
 4984SOL    HW126585   3.971   3.364   5.904  2.5118  0.9109  0.1140
 4984SOL    HW226586   4.026   3.348   6.046 -0.4246 -0.0946 -0.0084
 4985SOL     OW26587   3.741   0.568   8.517 -0.2939  0.4708  0.1150
 4985SOL    HW126588   3.814   0.511   8.541 -1.7969 -0.7236  1.8194
 4985SOL    HW226589   3.673   0.537   8.577 -0.6945  0.5501 -0.2955
 4986SOL     OW26590   2.340   1.118   8.108 -0.0394  0.0659 -0.1084
 4986SOL    HW126591   2.353   1.060   8.033 -2.3976  1.4076 -1.5927
 4986SOL    HW226592   2.377   1.061   8.175 -1.4165  0.5396  1.0492
 4987SOL     OW26593   2.324   2.420  12.252  0.3509  0.3296  0.1128
 4987SOL    HW126594   2.245   2.369  12.271  0.0041  0.5222 -0.7897
 4987SOL    HW226595   2.324   2.410  12.157 -0.0479  1.0436  0.0363
 4988SOL     OW26596   3.756   0.726   6.964 -0.3507 -0.3767 -0.2622
 4988SOL    HW126597   3.765   0.778   7.043  2.3836 -1.8149  0.3765
 4988SOL    HW226598   3.844   0.698   6.941  0.7411  2.1444  0.8055
 4989SOL     OW26599   1.242   1.666  17.195  0.3701  0.0824  0.0859
 4989SOL    HW126600   1.146   1.670  17.193  0.2711 -2.6160 -0.6110
 4989SOL    HW226601   1.264   1.707  17.111 -0.0343 -2.4241 -1.2419
 4990SOL     OW26602   3.412   3.481   5.456 -0.1692  0.3474 -0.0980
 4990SOL    HW126603   3.373   3.521   5.379  1.3330  1.9899 -0.0130
 4990SOL    HW226604   3.397   3.387   5.447 -1.4147  0.3769  1.6193
 4991SOL     OW26605   2.976   0.191   0.653  0.5860 -0.0855 -0.0919
 4991SOL    HW126606   3.038   0.138   0.703  0.3558 -0.7967 -0.5512
 4991SOL    HW226607   2.893   0.146   0.665  0.3486  0.6374  0.9708
 4992SOL     OW26608   1.533   2.518  12.785 -0.0835  0.0089 -0.5419
 4992SOL    HW126609   1.560   2.573  12.858  2.7290 -1.9009 -0.1499
 4992SOL    HW226610   1.611   2.462  12.783 -1.6531 -2.2091 -0.0255
 4993SOL     OW26611   2.991   1.552   3.555 -0.6231  0.1062  0.1454
 4993SOL    HW126612   2.919   1.491   3.540 -1.6349  0.6598  2.6975
 4993SOL    HW226613   3.038   1.518   3.631 -1.7184  0.4783  0.9991
 4994SOL     OW26614   0.214   3.639   3.183 -0.2402  0.6545  0.6698
 4994SOL    HW126615   0.254   3.687   3.256  0.3393  1.5851 -0.2557
 4994SOL    HW226616   0.222   3.714   3.124  1.1454  0.5025  0.6586
 4995SOL     OW26617   1.070   1.782   4.290  0.6564 -0.0390  0.1216
 4995SOL    HW126618   1.061   1.688   4.305 -0.3716 -0.0191 -0.3032
 4995SOL    HW226619   1.020   1.809   4.366 -0.0285  0.1167 -0.3803
 4996SOL     OW26620   3.636   3.955  10.049  0.0772 -0.4557 -0.0375
 4996SOL    HW126621   3.643   4.013  10.124 -4.1843 -2.2146  1.6969
 4996SOL    HW226622   3.729   3.932  10.045 -0.7668 -3.9070  0.0558
 4997SOL     OW26623   2.985   2.961   2.003  0.2916 -0.8108  0.0790
 4997SOL    HW126624   2.900   2.967   1.959  0.4780 -0.6579 -0.2570
 4997SOL    HW226625   3.010   2.871   1.981  2.2243 -0.4095  0.6075
 4998SOL     OW26626   2.748   3.549   2.781  0.0758  0.1704 -0.2303
 4998SOL    HW126627   2.824   3.492   2.767  0.6386  1.2372 -1.5307
 4998SOL    HW226628   2.750   3.599   2.700 -1.7441 -3.0291 -2.2850
 4999SOL     OW26629   1.193   0.431   7.424  0.0602  0.2152  0.5242
 4999SOL    HW126630   1.248   0.379   7.366 -2.7979  1.0683 -2.9762
 4999SOL    HW226631   1.108   0.394   7.399  0.7323  0.5887 -2.2863
 5000SOL     OW26632   2.548   0.978   6.306 -0.4997  0.0988  0.2538
 5000SOL    HW126633   2.463   0.946   6.334 -0.4452 -0.3078 -0.0485
 5000SOL    HW226634   2.558   0.927   6.226  0.3274  3.2753 -1.6760
 5001SOL     OW26635   3.280   0.924  10.165 -0.2495  0.2458 -0.0870
 5001SOL    HW126636   3.328   0.867  10.225  0.7540  0.4838 -0.6521
 5001SOL    HW226637   3.344   0.987  10.133  1.8039 -1.9976 -0.4399
 5002SOL     OW26638   3.501   3.008   3.345  0.8983  0.1757 -1.1097
 5002SOL    HW126639   3.502   3.099   3.375 -1.6309  0.7299 -2.6576
 5002SOL    HW226640   3.516   3.021   3.251 -2.4995 -1.2595 -1.8467
 5003SOL     OW26641   4.687   1.205   9.459 -0.3179  0.2252  0.2226
 5003SOL    HW126642   4.655   1.165   9.378  0.8646 -1.4023  0.5701
 5003SOL    HW226643   0.036   1.230   9.432  0.3056 -1.9371  0.2337
 5004SOL     OW26644   3.465   4.088   9.586  0.7492  0.2183 -0.0121
 5004SOL    HW126645   3.488   4.012   9.533  0.6216  0.4118 -0.3459
 5004SOL    HW226646   3.529   4.083   9.656  0.2681  1.6691  0.5288
 5005SOL     OW26647   0.292   2.109   9.954  0.6781  0.0543 -0.1565
 5005SOL    HW126648   0.308   2.036   9.894  1.5101 -0.1307  0.2905
 5005SOL    HW226649   0.199   2.101   9.977  0.8330 -1.7700 -0.1282
 5006SOL     OW26650   1.962   2.544   7.020 -0.4203 -0.0448  0.0397
 5006SOL    HW126651   1.944   2.603   6.947 -1.2068 -0.0540  0.2194
 5006SOL    HW226652   1.997   2.605   7.085 -0.8841  0.8712 -0.5693
 5007SOL     OW26653   4.343   3.292   9.321 -0.2605  0.6850 -0.1056
 5007SOL    HW126654   4.252   3.324   9.324 -0.1746  0.8839  0.4837
 5007SOL    HW226655   4.387   3.368   9.357 -1.6135  0.4452  2.1180
 5008SOL     OW26656   1.527   0.572   4.627 -0.4688  0.2510  0.1859
 5008SOL    HW126657   1.484   0.567   4.542 -2.4442 -0.9014  1.2510
 5008SOL    HW226658   1.581   0.493   4.616 -3.0680 -1.3162 -1.3686
 5009SOL     OW26659   2.438   3.925   4.141  0.0467  0.2603  0.0161
 5009SOL    HW126660   2.454   3.961   4.054 -1.3739  1.2543  0.1667
 5009SOL    HW226661   2.347   3.948   4.162 -0.3537 -0.4955 -0.8399
 5010SOL     OW26662   2.059   4.592   3.925  0.0582  0.1604 -0.3982
 5010SOL    HW126663   2.014   4.647   3.861  0.0794 -0.5697 -1.0309
 5010SOL    HW226664   2.008   4.512   3.938  1.0363 -0.5616 -0.9658
 5011SOL     OW26665   1.454   0.526   5.056  0.3329 -0.1051 -0.3272
 5011SOL    HW126666   1.388   0.596   5.061  0.2051 -0.1582 -1.3554
 5011SOL    HW226667   1.436   0.458   5.121  0.5614  1.3983  1.3042
 5012SOL     OW26668   3.778   0.953   1.513  0.0777  0.0055  0.4873
 5012SOL    HW126669   3.714   0.882   1.516 -0.7842  0.8040  0.8919
 5012SOL    HW226670   3.854   0.904   1.543 -0.7822 -2.3205 -1.1041
 5013SOL     OW26671   0.174   1.279   9.324 -0.4475 -0.1140  0.3337
 5013SOL    HW126672   0.222   1.320   9.396  2.8114 -3.0508 -0.1832
 5013SOL    HW226673   0.215   1.330   9.255  1.1876 -0.9278  0.6876
 5014SOL     OW26674   0.735   0.131   8.044 -0.1766 -0.2284 -0.8555
 5014SOL    HW126675   0.720   0.220   8.075  0.5277 -0.3239 -0.2360
 5014SOL    HW226676   0.692   0.086   8.117  0.5234 -1.3404 -1.1393
 5015SOL     OW26677   2.342   0.455   9.458  0.2584  0.2048 -0.1267
 5015SOL    HW126678   2.269   0.466   9.397  0.1903 -0.8746 -0.2252
 5015SOL    HW226679   2.313   0.503   9.536  0.6979  1.4680 -0.7438
 5016SOL     OW26680   3.462   1.263  17.439  0.0602 -0.2868  0.1473
 5016SOL    HW126681   3.367   1.248  17.443 -0.1522  0.2590 -2.5333
 5016SOL    HW226682   3.462   1.312  17.356  0.3110 -1.6698 -0.6553
 5017SOL     OW26683   1.739   2.395  17.701 -0.2226  0.2406  0.2633
 5017SOL    HW126684   1.666   2.363  17.648  0.1493  1.2190 -0.8382
 5017SOL    HW226685   1.741   2.327   0.014 -0.6804 -0.4216 -0.3756
 5018SOL     OW26686   3.346   1.804  12.503  0.3039  0.2260 -0.0612
 5018SOL    HW126687   3.348   1.897  12.525 -0.8456 -0.0785  1.3173
 5018SOL    HW226688   3.255   1.782  12.523  0.1409  0.7138 -0.2607
 5019SOL     OW26689   2.082   3.091   1.760 -0.4723  0.0090 -0.1251
 5019SOL    HW126690   2.017   3.149   1.720 -0.5342  0.0731  0.0650
 5019SOL    HW226691   2.140   3.070   1.688  1.0031  0.7383  0.8375
 5020SOL     OW26692   2.200   3.703   1.716 -0.4541 -0.0950 -0.0004
 5020SOL    HW126693   2.253   3.757   1.657 -0.3505 -2.2759 -1.9410
 5020SOL    HW226694   2.259   3.706   1.791 -0.3846  0.0066 -0.0600
 5021SOL     OW26695   3.143   1.187   8.665  0.0560  0.4208 -0.7543
 5021SOL    HW126696   3.108   1.155   8.748  2.0422  0.6284  0.1731
 5021SOL    HW226697   3.175   1.271   8.700  0.3037  0.8312 -1.9712
 5022SOL     OW26698   1.802   0.311  16.361  0.3469  0.3332 -0.6757
 5022SOL    HW126699   1.881   0.362  16.381  0.9729 -0.9556  0.1895
 5022SOL    HW226700   1.802   0.243  16.428 -0.3686  1.8305  0.8337
 5023SOL     OW26701   2.922   3.390   3.708  0.2054 -0.4520  0.2147
 5023SOL    HW126702   3.006   3.348   3.690 -0.3621 -1.4781 -0.0482
 5023SOL    HW226703   2.952   3.476   3.738 -2.2413  0.7494 -0.8078
 5024SOL     OW26704   0.217   1.886   2.190 -0.1450  0.5365 -0.1252
 5024SOL    HW126705   0.210   1.820   2.259  1.2737  0.2274 -0.2829
 5024SOL    HW226706   0.211   1.966   2.242  0.2392 -0.1328  0.9541
 5025SOL     OW26707   0.536   4.573   3.254  0.7185 -0.2457  0.3826
 5025SOL    HW126708   0.496   4.618   3.179  4.0843 -2.0969 -2.4744
 5025SOL    HW226709   0.616   4.543   3.212 -0.4631 -1.1249 -1.2571
 5026SOL     OW26710   3.400   2.487   6.576 -0.0409 -0.5370 -0.6972
 5026SOL    HW126711   3.421   2.431   6.503 -0.0672 -0.3553 -0.8448
 5026SOL    HW226712   3.465   2.455   6.639  0.3013  0.5906 -0.4768
 5027SOL     OW26713   4.626   4.203   5.366 -0.0030  0.0230  0.3425
 5027SOL    HW126714   4.578   4.281   5.394  0.7108  0.6431 -0.1549
 5027SOL    HW226715   4.557   4.145   5.335 -1.3191  0.8094  1.8331
 5028SOL     OW26716   2.990   0.467   2.838 -0.2050  0.1948  0.0455
 5028SOL    HW126717   3.061   0.405   2.820 -0.7222  0.0386 -1.5031
 5028SOL    HW226718   3.016   0.557   2.819 -0.6478 -0.2277 -2.5939
 5029SOL     OW26719   1.623   1.679   3.888 -0.0516 -0.0156  0.2585
 5029SOL    HW126720   1.586   1.596   3.857 -3.3201  1.0875  1.2337
 5029SOL    HW226721   1.690   1.636   3.940 -0.0040 -0.9921 -0.6221
 5030SOL     OW26722   2.972   1.506   1.950 -0.7745 -0.0760 -0.8102
 5030SOL    HW126723   3.034   1.468   2.012 -1.6201 -1.5538 -0.8952
 5030SOL    HW226724   2.956   1.439   1.884  0.9006 -2.9076  1.6540
 5031SOL     OW26725   2.570   0.668   8.198  0.6606 -0.0224 -0.4801
 5031SOL    HW126726   2.635   0.634   8.136  0.8107  2.8375 -1.8755
 5031SOL    HW226727   2.550   0.589   8.248 -2.0718 -0.7119 -2.6522
 5032SOL     OW26728   2.783   0.428  12.307  0.5109  0.2003  0.0638
 5032SOL    HW126729   2.758   0.494  12.242  0.9669 -1.7755 -2.0930
 5032SOL    HW226730   2.715   0.442  12.373 -0.5036 -1.9242 -0.5541
 5033SOL     OW26731   3.295   2.812   3.296 -0.4200  0.3894 -0.9730
 5033SOL    HW126732   3.374   2.858   3.267  0.6915 -0.2523  1.0485
 5033SOL    HW226733   3.256   2.786   3.213 -2.3249  1.7661 -0.5181
 5034SOL     OW26734   1.986   0.132   4.882 -0.0842  0.3822 -0.3780
 5034SOL    HW126735   1.941   0.080   4.815  0.0135 -1.9458  1.3371
 5034SOL    HW226736   1.916   0.146   4.945  1.3922  2.0600  0.8812
 5035SOL     OW26737   3.671   3.369   6.109 -0.6658 -0.2115  0.0481
 5035SOL    HW126738   3.756   3.359   6.067  0.7318  0.8879  2.6170
 5035SOL    HW226739   3.615   3.362   6.032  1.3806 -2.9489 -1.1883
 5036SOL     OW26740   0.088   1.056   2.419  0.7620  0.2476 -0.2770
 5036SOL    HW126741   0.110   1.147   2.400  0.9723  0.3273  0.3299
 5036SOL    HW226742   0.180   1.030   2.426  1.2382  2.7086  2.6969
 5037SOL     OW26743   0.646   4.082   4.612  0.2537 -0.1244 -0.8542
 5037SOL    HW126744   0.639   4.134   4.692 -0.8267  0.2541 -1.1842
 5037SOL    HW226745   0.721   4.117   4.564  0.3208  2.3737  1.0410
 5038SOL     OW26746   2.539   2.010  13.097 -0.0912 -0.4111 -0.3485
 5038SOL    HW126747   2.526   1.923  13.135 -0.6270  0.6313  1.8308
 5038SOL    HW226748   2.451   2.042  13.076 -0.3281  0.3618  1.8722
 5039SOL     OW26749   3.543   0.777   0.795 -0.0367 -0.0974  0.1514
 5039SOL    HW126750   3.584   0.742   0.874 -0.7572  0.8793  0.9686
 5039SOL    HW226751   3.562   0.871   0.794  0.7172 -0.2676 -1.3163
 5040SOL     OW26752   2.273   1.066   7.019 -0.3335  0.0591  0.4201
 5040SOL    HW126753   2.319   1.086   7.101 -0.2192 -1.5965  0.7614
 5040SOL    HW226754   2.339   1.104   6.961  0.0374 -0.7085  0.3403
 5041SOL     OW26755   3.599   1.354   7.371 -0.4289 -0.0239 -0.3064
 5041SOL    HW126756   3.531   1.378   7.434  0.5315  2.5878 -0.2489
 5041SOL    HW226757   3.561   1.372   7.285 -1.5353 -2.0109 -0.2295
 5042SOL     OW26758   1.297   3.442   2.571  0.1084 -0.3067  0.2214
 5042SOL    HW126759   1.311   3.527   2.529 -2.5527 -0.3922 -0.8903
 5042SOL    HW226760   1.202   3.428   2.574 -0.1843  1.6693  0.4581
 5043SOL     OW26761   2.387   2.892   7.172 -0.4840  0.0443 -0.0724
 5043SOL    HW126762   2.372   2.932   7.258 -2.0478 -0.0724 -0.2928
 5043SOL    HW226763   2.392   2.978   7.131  0.3403 -1.4231 -3.0042
 5044SOL     OW26764   3.329   1.807   5.021 -0.0579 -0.3940  0.1206
 5044SOL    HW126765   3.308   1.735   4.962  0.1653 -0.9514  0.7186
 5044SOL    HW226766   3.413   1.779   5.056  0.7874  1.8680 -0.1463
 5045SOL     OW26767   3.657   4.312   0.479  0.1249  0.2721 -0.4860
 5045SOL    HW126768   3.572   4.285   0.512  0.3836 -0.7815 -0.6691
 5045SOL    HW226769   3.688   4.371   0.548 -1.0689 -0.4130  0.6325
 5046SOL     OW26770   2.413   3.743   8.823 -0.7691  0.6244 -0.4726
 5046SOL    HW126771   2.379   3.722   8.910  1.0124 -1.2849 -0.2341
 5046SOL    HW226772   2.333   3.779   8.785 -2.7436 -2.2032  0.9712
 5047SOL     OW26773   1.791   1.920   3.936  0.5779  0.8241  0.1641
 5047SOL    HW126774   1.822   1.911   4.026  2.0482  1.5818 -0.2708
 5047SOL    HW226775   1.749   1.836   3.916  1.0117  0.7489 -0.4482
 5048SOL     OW26776   2.217   1.367   9.222  0.0143  0.3594 -0.2593
 5048SOL    HW126777   2.269   1.340   9.297  0.8823  0.3503 -0.8653
 5048SOL    HW226778   2.154   1.297   9.205 -0.5095  0.9827 -0.9266
 5049SOL     OW26779   4.202   1.082   5.719  0.2585  0.3853  0.5295
 5049SOL    HW126780   4.275   1.140   5.695  0.9607 -1.1514 -1.0012
 5049SOL    HW226781   4.125   1.132   5.691  0.7467  0.5088 -0.6235
 5050SOL     OW26782   2.056   2.799  11.058  0.3465  0.8995  0.0791
 5050SOL    HW126783   2.048   2.710  11.091 -2.7730  0.5670 -1.5502
 5050SOL    HW226784   2.049   2.799  10.963 -0.5147 -1.6093  0.1405
 5051SOL     OW26785   4.335   3.196   4.287 -0.5150  0.9241 -0.6492
 5051SOL    HW126786   4.380   3.224   4.367 -1.4606  0.0617  0.1793
 5051SOL    HW226787   4.333   3.100   4.292 -0.8409  1.0600  1.4113
 5052SOL     OW26788   1.875   4.146   5.845 -0.1097  0.2819 -0.2730
 5052SOL    HW126789   1.869   4.178   5.755  0.1908  0.4167 -0.2446
 5052SOL    HW226790   1.930   4.068   5.849  1.0490  1.0534 -1.0298
 5053SOL     OW26791   0.986   3.975   4.517 -0.1848 -0.3345  0.9094
 5053SOL    HW126792   0.931   3.994   4.441 -0.8819 -1.8988  1.0356
 5053SOL    HW226793   0.935   3.910   4.565 -2.0784  0.7784  0.3776
 5054SOL     OW26794   1.853   0.697   7.318  0.0376  0.0822  0.1919
 5054SOL    HW126795   1.785   0.693   7.251 -0.9859  2.1994  1.1242
 5054SOL    HW226796   1.802   0.726   7.394 -0.9034 -1.6051  0.2040
 5055SOL     OW26797   2.552   3.746  15.335  0.4674  0.2855 -0.2273
 5055SOL    HW126798   2.521   3.773  15.248 -0.8199  0.5308  0.3161
 5055SOL    HW226799   2.568   3.653  15.316  0.0548  0.3698 -0.9994
 5056SOL     OW26800   0.091   1.602   4.219  0.5167  0.1876 -0.3559
 5056SOL    HW126801   0.050   1.685   4.246 -3.5490 -2.0691  0.5421
 5056SOL    HW226802   0.181   1.623   4.240  0.9122 -2.2757  0.4205
 5057SOL     OW26803   2.221   0.093   6.099  0.3917  0.3022 -0.1644
 5057SOL    HW126804   2.193   0.174   6.142  1.2419 -0.2649  1.4828
 5057SOL    HW226805   2.155   0.028   6.122  1.3068 -1.1205 -1.5330
 5058SOL     OW26806   2.756   1.183   9.478  0.0858 -0.0191  0.2255
 5058SOL    HW126807   2.754   1.114   9.544 -0.6266  0.1847  0.4137
 5058SOL    HW226808   2.789   1.135   9.401  1.9085  1.6867 -0.0270
 5059SOL     OW26809   0.465   2.139   2.025 -0.8522  0.5106 -0.0081
 5059SOL    HW126810   0.375   2.154   1.998 -0.5293 -0.5331 -1.6186
 5059SOL    HW226811   0.457   2.124   2.120 -1.9943 -2.2182 -0.5451
 5060SOL     OW26812   1.960   2.450   8.512 -1.1000 -0.0581  0.1419
 5060SOL    HW126813   1.920   2.477   8.595 -1.1077  1.1530 -0.2630
 5060SOL    HW226814   2.013   2.528   8.494 -1.5922 -0.1312 -1.5789
 5061SOL     OW26815   0.608   0.449   2.971 -0.1988  0.3913 -0.1834
 5061SOL    HW126816   0.602   0.355   2.960  1.2044  0.3335 -0.5601
 5061SOL    HW226817   0.518   0.458   3.000  1.0067  2.8384  2.8843
 5062SOL     OW26818   3.980   3.617   9.603  0.3309  0.1042  0.4399
 5062SOL    HW126819   3.903   3.652   9.558  0.0347  0.6066  1.3350
 5062SOL    HW226820   3.938   3.568   9.673  0.7695  0.1140  0.7110
 5063SOL     OW26821   0.621   1.861   5.718  0.2060 -0.7069 -0.0118
 5063SOL    HW126822   0.616   1.900   5.805  2.0684  1.2696 -0.7988
 5063SOL    HW226823   0.607   1.931   5.654 -0.5208 -0.0843  0.8336
 5064SOL     OW26824   3.474   3.887   2.889  0.4350 -0.3383  0.2854
 5064SOL    HW126825   3.379   3.893   2.892  0.5988  1.4341  1.7037
 5064SOL    HW226826   3.497   3.828   2.961  2.0340  1.5142  1.2660
 5065SOL     OW26827   3.907   0.250  10.912 -0.1241 -0.3237  0.3799
 5065SOL    HW126828   3.918   0.155  10.903  0.6034 -0.3203  1.2268
 5065SOL    HW226829   3.817   0.261  10.942  0.3747  1.2043  1.3168
 5066SOL     OW26830   1.088   1.477   3.995  0.4311 -0.1904 -0.4878
 5066SOL    HW126831   1.089   1.549   3.932  3.3535  0.1518 -0.0566
 5066SOL    HW226832   1.182   1.479   4.013  0.2366  1.3724  0.3858
 5067SOL     OW26833   2.862   3.026  10.866 -0.4784 -0.3002  0.4835
 5067SOL    HW126834   2.910   2.972  10.803 -0.6484 -0.2876  0.3443
 5067SOL    HW226835   2.821   2.956  10.917  2.1224 -1.5236  0.9123
 5068SOL     OW26836   2.065   1.103   7.803  0.4532  0.1041  0.5037
 5068SOL    HW126837   2.100   1.014   7.802 -0.2577 -0.1543 -0.7764
 5068SOL    HW226838   2.146   1.154   7.801  0.5288 -0.0379 -0.0085
 5069SOL     OW26839   2.735   0.569   4.548 -0.4467 -0.1622  0.1411
 5069SOL    HW126840   2.687   0.510   4.606 -1.0485  0.9808  0.7974
 5069SOL    HW226841   2.798   0.619   4.599 -0.6885 -0.2811  0.5572
 5070SOL     OW26842   4.277   1.683   8.420  0.9645 -0.0338 -0.3785
 5070SOL    HW126843   4.345   1.678   8.488 -0.7930 -2.7915  1.2171
 5070SOL    HW226844   4.201   1.678   8.478  3.0153  0.1208  2.3602
 5071SOL     OW26845   3.752   2.196  13.478 -0.0615 -0.3896  0.4619
 5071SOL    HW126846   3.771   2.166  13.390 -1.4891 -1.5321  0.5329
 5071SOL    HW226847   3.802   2.277  13.480 -1.1417  0.2936 -0.5258
 5072SOL     OW26848   3.572   0.980  13.930 -0.2170  0.4145 -0.3761
 5072SOL    HW126849   3.637   0.945  13.991  1.5518  3.0390 -0.7647
 5072SOL    HW226850   3.636   1.000  13.862 -0.6750 -0.4739 -1.0755
 5073SOL     OW26851   4.137   3.139   7.617  0.0938 -0.1627  0.2436
 5073SOL    HW126852   4.114   3.049   7.594  0.7250 -0.4855  0.9097
 5073SOL    HW226853   4.060   3.186   7.583  0.4019 -0.2085 -0.5214
 5074SOL     OW26854   1.043   3.257   7.745 -0.2516  0.5763  0.4417
 5074SOL    HW126855   1.083   3.343   7.752  2.0002 -0.4969  0.8972
 5074SOL    HW226856   1.090   3.217   7.672 -0.9452  1.0906 -0.2885
 5075SOL     OW26857   2.872   3.184   5.607  0.2412  0.1701  0.4891
 5075SOL    HW126858   2.850   3.094   5.631  0.3700  0.0440  0.1307
 5075SOL    HW226859   2.813   3.235   5.663 -0.7303  0.9996 -1.2971
 5076SOL     OW26860   3.920   1.178   7.568  0.0421 -0.4065 -0.2099
 5076SOL    HW126861   3.867   1.196   7.646  0.7967  1.3046 -0.1135
 5076SOL    HW226862   3.952   1.089   7.583 -0.7936 -1.0670 -2.3586
 5077SOL     OW26863   2.849   0.694   4.948 -0.1443  0.0043  0.2729
 5077SOL    HW126864   2.906   0.685   5.024  0.0021 -2.7100 -0.1610
 5077SOL    HW226865   2.901   0.678   4.868  1.8689 -1.6955  1.9155
 5078SOL     OW26866   3.373   1.536   9.139  0.3973  0.0480 -0.2072
 5078SOL    HW126867   3.281   1.512   9.151  0.9695 -1.2979  1.4636
 5078SOL    HW226868   3.410   1.450   9.116  2.1244  1.2346 -1.9259
 5079SOL     OW26869   4.342   1.551  16.564  0.4803  0.0499 -1.0128
 5079SOL    HW126870   4.431   1.583  16.581 -0.1351  1.5172 -0.4824
 5079SOL    HW226871   4.348   1.552  16.468 -0.4704  0.2197 -1.0713
 5080SOL     OW26872   0.733   1.247   5.075 -0.2372 -0.5630 -0.1550
 5080SOL    HW126873   0.711   1.229   4.984 -4.9445  1.0307  0.6887
 5080SOL    HW226874   0.715   1.339   5.090 -0.1619 -0.6517  0.4877
 5081SOL     OW26875   3.300   4.455   4.749 -0.1362 -0.0300 -0.0381
 5081SOL    HW126876   3.290   4.476   4.656  1.3049 -1.7855 -0.5993
 5081SOL    HW226877   3.387   4.414   4.749 -0.0350  0.1608 -1.9238
 5082SOL     OW26878   0.550   2.691   3.675 -0.1174  0.4220 -0.7190
 5082SOL    HW126879   0.585   2.618   3.624 -1.3711 -0.7237  0.0568
 5082SOL    HW226880   0.466   2.690   3.629 -0.6671  1.4675  0.2658
 5083SOL     OW26881   4.457   2.248   2.662 -0.4480 -0.2929  0.2418
 5083SOL    HW126882   4.465   2.218   2.753  1.0630  0.1464  0.2531
 5083SOL    HW226883   4.365   2.272   2.649  0.2964  1.1215 -2.2378
 5084SOL     OW26884   0.435   1.511   4.861 -0.0095 -0.2438  0.1164
 5084SOL    HW126885   0.507   1.501   4.799  1.5388 -0.0226  1.8766
 5084SOL    HW226886   0.382   1.586   4.833  0.0893  0.2198  1.1655
 5085SOL     OW26887   3.517   4.595   5.893 -0.3774  0.6451  0.5207
 5085SOL    HW126888   3.424   4.577   5.906 -0.5999  1.4814  0.0787
 5085SOL    HW226889   3.529   4.584   5.799 -0.0270  0.4045  0.5906
 5086SOL     OW26890   3.286   1.463   8.094  0.2830  0.4449  0.2207
 5086SOL    HW126891   3.219   1.503   8.037  0.8522 -0.0814 -0.8218
 5086SOL    HW226892   3.342   1.416   8.032 -0.9496 -2.7553  1.5272
 5087SOL     OW26893   3.523   3.785   5.719 -0.2626 -0.0219  0.1767
 5087SOL    HW126894   3.602   3.761   5.767  0.3165  0.0959 -0.7162
 5087SOL    HW226895   3.513   3.880   5.719  1.0327  0.1134 -2.8835
 5088SOL     OW26896   2.638   2.342   2.009  0.0418  0.5452  0.4758
 5088SOL    HW126897   2.636   2.399   2.086  2.8328  1.4956 -0.1506
 5088SOL    HW226898   2.602   2.259   2.042 -2.1583  2.1384  2.0209
 5089SOL     OW26899   4.536   2.949   5.922 -0.2489  0.2434  0.3945
 5089SOL    HW126900   4.577   2.872   5.884  1.8457  1.2776  0.5478
 5089SOL    HW226901   4.609   3.002   5.955 -0.9833  2.7887 -2.0066
 5090SOL     OW26902   4.310   3.067   4.778 -0.8349 -0.0575  0.5988
 5090SOL    HW126903   4.387   3.120   4.754 -0.8493  0.1446  1.0035
 5090SOL    HW226904   4.321   3.044   4.870 -1.0080 -1.8717  0.1637
 5091SOL     OW26905   1.858   1.556   1.149 -0.0737  0.2251 -0.0990
 5091SOL    HW126906   1.883   1.609   1.073  1.6322  0.7276  0.8178
 5091SOL    HW226907   1.851   1.626   1.214  1.3144  0.3794 -0.1242
 5092SOL     OW26908   0.178   4.428   4.795  0.1003 -0.4233  0.3794
 5092SOL    HW126909   0.207   4.461   4.710  0.3416 -0.8345  0.3027
 5092SOL    HW226910   0.088   4.401   4.775  0.6773 -0.8768 -1.6551
 5093SOL     OW26911   0.521   1.154   2.047 -0.1079 -0.3737 -0.0380
 5093SOL    HW126912   0.447   1.168   2.108  0.3036  0.3229  0.3048
 5093SOL    HW226913   0.549   1.242   2.020 -1.7894 -0.4033 -1.8945
 5094SOL     OW26914   1.652   2.666   5.907  0.2448 -0.4846  0.1514
 5094SOL    HW126915   1.741   2.668   5.943  1.0279  0.2251 -1.8503
 5094SOL    HW226916   1.637   2.724   5.832  0.1253  0.1014  0.6278
 5095SOL     OW26917   0.051   2.124  15.774 -0.2394 -0.4244  0.3067
 5095SOL    HW126918   0.006   2.207  15.759 -0.7540 -0.4144  1.9786
 5095SOL    HW226919   0.129   2.153  15.726  0.1852  0.0870  1.3082
 5096SOL     OW26920   3.774   1.111  11.224  0.0216 -0.3632  0.0051
 5096SOL    HW126921   3.770   1.066  11.308  1.2770  0.7974  0.6985
 5096SOL    HW226922   3.689   1.152  11.212 -0.1625 -0.3797  1.2575
 5097SOL     OW26923   3.335   2.277   5.141  0.1762 -0.6404  0.1754
 5097SOL    HW126924   3.337   2.345   5.074 -0.0217  0.4669  1.3040
 5097SOL    HW226925   3.303   2.204   5.088  0.0143 -0.0572 -0.5312
 5098SOL     OW26926   1.465   1.998   3.907 -0.0938 -0.3470  0.2130
 5098SOL    HW126927   1.517   2.052   3.848 -0.1457  1.3345  1.7192
 5098SOL    HW226928   1.536   1.963   3.960  1.9903  3.3333 -0.1917
 5099SOL     OW26929   4.449   1.306  15.414  0.0991 -0.6655 -0.0662
 5099SOL    HW126930   4.359   1.288  15.388 -0.2744 -2.7217  2.5933
 5099SOL    HW226931   4.489   1.220  15.399  1.5593 -0.2571  1.4624
 5100SOL     OW26932   1.098   0.784   3.230  0.0638 -0.0437 -0.6605
 5100SOL    HW126933   1.114   0.751   3.319  2.1492  0.8085 -0.7052
 5100SOL    HW226934   1.175   0.752   3.182  0.3004 -1.0494  0.3597
 5101SOL     OW26935   2.649   3.027  11.182 -0.0844 -0.1983 -0.4784
 5101SOL    HW126936   2.728   3.071  11.213  0.8368 -1.7415 -0.6311
 5101SOL    HW226937   2.679   2.939  11.161 -0.3217 -1.0168  2.6878
 5102SOL     OW26938   3.685   2.734  16.864  0.7958  0.4766  0.2564
 5102SOL    HW126939   3.688   2.662  16.800  0.4858  0.2950  0.4400
 5102SOL    HW226940   3.722   2.692  16.941  1.7198 -0.8234 -0.8874
 5103SOL     OW26941   3.823   3.622   8.755  0.0194  0.6881  0.2301
 5103SOL    HW126942   3.840   3.530   8.771  0.0201  0.7777  0.7517
 5103SOL    HW226943   3.847   3.673   8.833 -0.5620  0.4417  0.5708
 5104SOL     OW26944   2.829   0.333   7.379  0.0810  0.6483  0.4936
 5104SOL    HW126945   2.880   0.386   7.440  1.0234  2.1793 -1.6013
 5104SOL    HW226946   2.806   0.266   7.443 -2.4038  1.0586  0.0291
 5105SOL     OW26947   3.152   3.766   8.673  0.0523  0.1522 -0.7880
 5105SOL    HW126948   3.116   3.814   8.747 -0.9393  0.2501 -1.3380
 5105SOL    HW226949   3.114   3.679   8.688 -0.9675  0.5000 -1.3752
 5106SOL     OW26950   1.475   1.977   5.255 -0.2429  0.6581  0.3191
 5106SOL    HW126951   1.446   1.886   5.251 -1.3157  1.0105  0.1082
 5106SOL    HW226952   1.566   1.964   5.280  0.6066  0.1904 -3.1199
 5107SOL     OW26953   2.908   1.065   2.579 -0.6068  0.1279 -0.5204
 5107SOL    HW126954   2.980   1.065   2.641 -0.7731  1.0139 -0.3249
 5107SOL    HW226955   2.840   1.104   2.635 -1.2442  0.5942 -1.5941
 5108SOL     OW26956   0.989   0.930   0.323 -0.1473  0.0985 -0.6689
 5108SOL    HW126957   0.920   0.996   0.327 -0.0051  0.1579  0.8367
 5108SOL    HW226958   0.944   0.848   0.340 -0.9342  0.5579 -0.5293
 5109SOL     OW26959   2.475   3.755   6.463 -0.0838  0.1679  0.8273
 5109SOL    HW126960   2.392   3.778   6.505 -0.2383  1.7005 -0.2814
 5109SOL    HW226961   2.544   3.798   6.512 -0.8519  0.2139  1.8637
 5110SOL     OW26962   0.725   2.768   2.710  0.0270  0.5423 -0.5936
 5110SOL    HW126963   0.740   2.700   2.776  0.9184  0.7890 -0.5487
 5110SOL    HW226964   0.806   2.818   2.716 -0.5497  1.4405 -0.3641
 5111SOL     OW26965   3.154   3.134   8.476  0.2198 -0.2108  0.3347
 5111SOL    HW126966   3.195   3.084   8.547  2.5312  3.1212  1.3480
 5111SOL    HW226967   3.110   3.062   8.431  0.5976 -0.9292  1.1084
 5112SOL     OW26968   3.044   1.266   8.310 -0.5040  0.7273 -0.0504
 5112SOL    HW126969   2.954   1.240   8.330 -0.7800  1.7378 -0.0268
 5112SOL    HW226970   3.093   1.191   8.346 -0.4059  1.2378  0.8849
 5113SOL     OW26971   4.301   3.882   4.477 -0.3881  0.7128 -0.0083
 5113SOL    HW126972   4.222   3.879   4.530 -0.2630  0.0071  0.1352
 5113SOL    HW226973   4.276   3.882   4.384  0.6384  1.5423 -0.2886
 5114SOL     OW26974   0.542   2.686   5.656 -0.1391  0.0243  0.1548
 5114SOL    HW126975   0.469   2.636   5.694 -0.2240  1.3197  1.6784
 5114SOL    HW226976   0.599   2.701   5.731 -2.5788  1.1256  1.7927
 5115SOL     OW26977   3.239   3.013   5.283  0.0492  0.4107  0.2304
 5115SOL    HW126978   3.237   2.931   5.332 -1.7276  0.1151 -0.3422
 5115SOL    HW226979   3.147   3.036   5.287 -0.1005 -0.4150  1.6365
 5116SOL     OW26980   1.832   4.463  10.703  0.3485  0.7334 -0.2675
 5116SOL    HW126981   1.885   4.427  10.632  3.2926 -1.4433  3.0128
 5116SOL    HW226982   1.744   4.434  10.680  1.9763 -3.9581 -0.6235
 5117SOL     OW26983   2.892   3.549   4.097 -0.6314 -0.1000  0.3950
 5117SOL    HW126984   2.827   3.481   4.079 -2.2286  1.6756 -0.6198
 5117SOL    HW226985   2.870   3.614   4.030 -0.6424 -0.8871 -0.3617
 5118SOL     OW26986   1.652   4.054   8.064  0.1635 -0.4268 -0.2741
 5118SOL    HW126987   1.711   4.061   8.139  1.5269 -0.4220 -1.3479
 5118SOL    HW226988   1.643   3.959   8.065 -0.9949 -0.3177  1.2428
 5119SOL     OW26989   1.486   3.785   8.094  0.3671 -0.2624  0.6381
 5119SOL    HW126990   1.503   3.724   8.022 -0.5938 -0.1210  0.2930
 5119SOL    HW226991   1.401   3.823   8.072  0.8994  0.6706  0.1874
 5120SOL     OW26992   4.403   4.623   7.573 -0.3152 -0.1696  0.2023
 5120SOL    HW126993   4.451   4.543   7.555  1.5404  0.5555  1.9013
 5120SOL    HW226994   4.334   4.605   7.637  0.1663 -1.8990  0.2179
 5121SOL     OW26995   3.358   1.750   8.868  0.3572  0.3132 -0.2337
 5121SOL    HW126996   3.383   1.672   8.918  0.9092 -0.3157 -1.4695
 5121SOL    HW226997   3.374   1.712   8.781  2.2427  1.8061 -0.5412
 5122SOL     OW26998   0.059   1.805   7.088  0.2148  0.4502  0.2460
 5122SOL    HW126999   4.725   1.847   7.134 -0.3654 -0.0708 -0.2135
 5122SOL    HW227000   0.032   1.816   6.997 -0.8447  2.6839  0.8349
 5123SOL     OW27001   1.061   0.638   6.430 -0.0358 -0.0566  0.1305
 5123SOL    HW127002   1.098   0.550   6.421  0.8563  0.2654  0.5331
 5123SOL    HW227003   1.087   0.686   6.352 -0.3201 -1.0814 -0.5920
 5124SOL     OW27004   2.806   3.265   9.353  0.0852 -0.3890 -0.3760
 5124SOL    HW127005   2.859   3.281   9.430 -3.3257  1.7623  1.5332
 5124SOL    HW227006   2.784   3.356   9.331  0.1304 -0.8240 -2.2689
 5125SOL     OW27007   2.193   2.061   3.275  0.0389  0.3959  0.3896
 5125SOL    HW127008   2.161   2.079   3.363  1.0816  0.2438  0.8028
 5125SOL    HW227009   2.174   2.141   3.227 -1.8536  1.3886  2.8654
 5126SOL     OW27010   3.930   0.311   7.234 -0.3135  0.3516 -0.3728
 5126SOL    HW127011   3.997   0.255   7.194  1.0856  1.3223  0.6405
 5126SOL    HW227012   3.981   0.387   7.260  1.2664 -0.9658  0.3779
 5127SOL     OW27013   2.692   1.832   9.158 -0.1808  0.3609 -0.5745
 5127SOL    HW127014   2.736   1.821   9.074 -1.9701 -0.1242 -1.4339
 5127SOL    HW227015   2.647   1.915   9.141 -1.2317 -0.1389 -0.2116
 5128SOL     OW27016   1.744   2.556   4.858  0.3980  0.1415  0.1544
 5128SOL    HW127017   1.672   2.616   4.878  1.8434  2.1666 -0.7319
 5128SOL    HW227018   1.698   2.489   4.808 -2.3749  2.0063  0.1606
 5129SOL     OW27019   0.082   3.551   7.201  0.4249  0.3167 -0.1117
 5129SOL    HW127020   0.023   3.493   7.249 -0.1319 -0.5802 -1.8897
 5129SOL    HW227021   0.128   3.489   7.145  2.6701 -1.1874  3.4022
 5130SOL     OW27022   2.284   2.184  14.930  0.1430  0.8053  0.2617
 5130SOL    HW127023   2.209   2.140  14.971 -0.9358  0.0869 -2.5083
 5130SOL    HW227024   2.260   2.275  14.947  3.2063  1.4957  0.7902
 5131SOL     OW27025   0.205   3.006   0.215 -0.2670 -0.4495  0.1857
 5131SOL    HW127026   0.235   3.028   0.303  0.5798  1.7035 -0.6485
 5131SOL    HW227027   0.226   3.095   0.187 -2.4348 -0.5815 -1.8538
 5132SOL     OW27028   0.912   3.731  11.373 -0.3267 -0.2603 -0.3577
 5132SOL    HW127029   0.914   3.820  11.406  1.1015 -0.4196 -0.0261
 5132SOL    HW227030   0.907   3.747  11.279  3.2734  0.1866 -0.4730
 5133SOL     OW27031   0.731   1.049   5.512  0.1195 -0.3098 -0.1899
 5133SOL    HW127032   0.699   0.968   5.552  1.2134 -0.0331  1.2246
 5133SOL    HW227033   0.818   1.011   5.497  0.3183 -0.7026  1.9728
 5134SOL     OW27034   1.813   0.669   8.166  0.2873  0.2792 -0.1265
 5134SOL    HW127035   1.751   0.600   8.191  1.7400  0.0551  2.8549
 5134SOL    HW227036   1.795   0.691   8.075  0.7002 -1.0886 -0.5291
 5135SOL     OW27037   3.750   2.134  16.250  0.1890 -0.3259  0.0571
 5135SOL    HW127038   3.783   2.058  16.201  3.9188  1.5832 -0.4058
 5135SOL    HW227039   3.704   2.185  16.184  2.0312 -0.2689 -1.1659
 5136SOL     OW27040   3.918   2.172   6.961  0.0272 -0.6729  0.7446
 5136SOL    HW127041   4.002   2.203   6.996  0.1382 -0.3377  0.1768
 5136SOL    HW227042   3.872   2.136   7.037  0.3526  0.0432  1.2889
 5137SOL     OW27043   1.480   2.547   1.263 -0.1292  0.1435  0.3574
 5137SOL    HW127044   1.573   2.551   1.239  0.0698 -0.6579  0.9805
 5137SOL    HW227045   1.472   2.467   1.316  0.7592  0.0817  0.3963
 5138SOL     OW27046   1.410   4.355  17.212  0.0509 -0.1779 -0.3931
 5138SOL    HW127047   1.460   4.286  17.254 -1.3266  0.3090  2.0530
 5138SOL    HW227048   1.422   4.417  17.284 -1.7361  2.6336 -2.4647
 5139SOL     OW27049   0.945   1.355   6.364  0.0301 -0.1133  0.7165
 5139SOL    HW127050   1.011   1.296   6.398  0.0699 -1.0704 -1.0111
 5139SOL    HW227051   0.924   1.298   6.290 -1.6135 -0.5032  1.4926
 5140SOL     OW27052   4.226   2.010   2.805 -0.2184  0.2808  0.1063
 5140SOL    HW127053   4.179   2.004   2.722 -0.1486 -2.2732  0.2364
 5140SOL    HW227054   4.220   2.103   2.824 -0.8716  0.1886  0.3619
 5141SOL     OW27055   2.116   4.076  12.683  0.5411  0.6254 -0.0288
 5141SOL    HW127056   2.144   4.165  12.703 -0.3129  0.5823  1.3590
 5141SOL    HW227057   2.072   4.051  12.764  2.9554  1.2491  1.4853
 5142SOL     OW27058   2.637   0.095   2.862 -0.2856  0.8109 -0.2432
 5142SOL    HW127059   2.655   0.068   2.772 -2.1345  2.4308 -1.0929
 5142SOL    HW227060   2.611   0.185   2.842 -1.3261 -0.0910 -2.8814
 5143SOL     OW27061   3.080   2.144   7.107 -0.6856  0.2700  0.2430
 5143SOL    HW127062   3.045   2.058   7.083 -0.8731  0.4138  0.0045
 5143SOL    HW227063   3.066   2.203   7.033 -3.4681 -0.2398  0.3733
 5144SOL     OW27064   2.100   0.287   0.704  0.0933 -0.4057  0.3022
 5144SOL    HW127065   2.088   0.305   0.797  0.9267  1.0355  0.1361
 5144SOL    HW227066   2.073   0.370   0.665 -0.0790  0.5766  2.5090
 5145SOL     OW27067   4.466   2.700   8.919  0.1432 -0.1745  0.5440
 5145SOL    HW127068   4.557   2.681   8.896  0.0696  0.4215 -0.2416
 5145SOL    HW227069   4.429   2.692   8.831  1.1149  0.5729  0.0686
 5146SOL     OW27070   3.015   4.634   6.600 -0.2448  0.5820  0.0125
 5146SOL    HW127071   2.942   4.660   6.656  0.2317  0.0678  0.8815
 5146SOL    HW227072   3.082   4.675   6.655 -1.1747 -1.7148  2.8303
 5147SOL     OW27073   3.367   3.180   1.057  0.0665  0.4315 -0.1322
 5147SOL    HW127074   3.311   3.235   1.111 -2.1758 -1.8678 -0.0949
 5147SOL    HW227075   3.375   3.098   1.106  1.0410 -0.5712 -1.9497
 5148SOL     OW27076   3.851   0.782   1.233 -0.3318  0.4829  0.0775
 5148SOL    HW127077   3.847   0.719   1.305 -0.4966  1.7771  1.1970
 5148SOL    HW227078   3.931   0.753   1.189  0.1163  1.1428  0.4629
 5149SOL     OW27079   3.185   2.106   8.098  1.1478 -0.0239 -0.7122
 5149SOL    HW127080   3.135   2.034   8.060  0.3917  0.1399 -0.0231
 5149SOL    HW227081   3.211   2.062   8.180 -0.4327  1.7915  0.7709
 5150SOL     OW27082   0.061   1.650   1.118  0.0298  0.5011 -0.3247
 5150SOL    HW127083   4.725   1.667   1.174  1.7734 -1.8534  2.7274
 5150SOL    HW227084   0.096   1.563   1.139  0.9151  0.5779 -1.4108
 5151SOL     OW27085   4.156   2.950   8.178  0.1575 -0.1843 -0.1271
 5151SOL    HW127086   4.161   2.876   8.118  0.1612  0.5309 -1.0114
 5151SOL    HW227087   4.207   3.017   8.133 -1.0700  1.5297  1.0131
 5152SOL     OW27088   0.877   1.310   9.991 -0.4655 -0.0617  0.2051
 5152SOL    HW127089   0.951   1.357  10.028 -1.2769  1.1825  0.2327
 5152SOL    HW227090   0.907   1.220   9.976  0.4983  0.7045 -2.3925
 5153SOL     OW27091   2.680   4.387  16.637 -0.2840 -0.2023  0.1694
 5153SOL    HW127092   2.685   4.329  16.713  0.9455 -0.7056 -0.3030
 5153SOL    HW227093   2.772   4.407  16.623 -0.1692 -0.5339  0.4401
 5154SOL     OW27094   4.211   0.265   5.538  0.1384 -0.0190 -0.1746
 5154SOL    HW127095   4.226   0.212   5.460 -0.2561  1.9193 -1.5619
 5154SOL    HW227096   4.116   0.251   5.546 -0.0919  1.3831 -0.3393
 5155SOL     OW27097   1.569   0.434   8.249 -0.5415  0.2175  0.3186
 5155SOL    HW127098   1.527   0.505   8.297  0.0009  0.0947  0.9833
 5155SOL    HW227099   1.628   0.404   8.318 -0.3655  0.0178  0.0805
 5156SOL     OW27100   3.239   0.791   6.046  0.3121  0.4498 -0.2108
 5156SOL    HW127101   3.299   0.832   6.108 -1.2863  1.2851  0.7715
 5156SOL    HW227102   3.275   0.837   5.970  2.5419 -0.5252  0.2569
 5157SOL     OW27103   2.713   3.161  12.395  0.3645 -0.4340 -0.0874
 5157SOL    HW127104   2.775   3.221  12.354  0.5633 -1.5032 -1.3473
 5157SOL    HW227105   2.717   3.197  12.484 -3.8808 -1.0329  0.3840
 5158SOL     OW27106   4.048   1.222   3.349  0.4988  0.4050 -0.1862
 5158SOL    HW127107   3.968   1.178   3.321  1.1566 -1.6776  1.2743
 5158SOL    HW227108   4.052   1.196   3.441 -2.6794 -0.3345 -0.2486
 5159SOL     OW27109   2.756   4.663   7.073 -0.3935  0.7873  0.1653
 5159SOL    HW127110   2.660   4.662   7.083 -0.5097  1.3152 -0.8922
 5159SOL    HW227111   2.788   4.665   7.163  2.5464  0.6812 -0.8706
 5160SOL     OW27112   0.829   0.269   5.235  0.1070 -0.0095  0.5288
 5160SOL    HW127113   0.790   0.212   5.169  1.2953  0.2169 -0.3717
 5160SOL    HW227114   0.758   0.330   5.259 -1.4049 -1.1784 -0.9893
 5161SOL     OW27115   0.972   3.617   7.584 -0.2909 -0.0860 -0.3109
 5161SOL    HW127116   1.029   3.588   7.655  0.0933 -0.1216 -0.6397
 5161SOL    HW227117   0.985   3.553   7.513  2.9754  0.2098  0.0557
 5162SOL     OW27118   3.105   2.853   4.232 -0.1503 -0.1616  0.7779
 5162SOL    HW127119   3.167   2.859   4.159 -0.3873  0.8010  0.6485
 5162SOL    HW227120   3.069   2.765   4.228 -0.0768 -0.1737  0.3575
 5163SOL     OW27121   1.515   0.834   4.456  0.0977  0.0245  0.1209
 5163SOL    HW127122   1.504   0.845   4.550  2.7394  2.6576  0.1025
 5163SOL    HW227123   1.483   0.744   4.443 -1.8226  0.8646 -0.8618
 5164SOL     OW27124   0.485   4.179  12.849  0.0020  0.2815  0.4322
 5164SOL    HW127125   0.496   4.186  12.944  0.8892  1.7868  0.2234
 5164SOL    HW227126   0.408   4.123  12.841  0.8213 -0.8079  0.2698
 5165SOL     OW27127   3.295   1.735   4.240  0.8895 -0.7065  0.1579
 5165SOL    HW127128   3.250   1.780   4.311  2.0383 -0.5156  0.7656
 5165SOL    HW227129   3.298   1.646   4.275 -1.1018 -0.9061 -0.1616
 5166SOL     OW27130   4.100   4.442   8.452  0.1480  0.0207 -0.2964
 5166SOL    HW127131   4.008   4.458   8.475  0.5965 -0.1953  1.6678
 5166SOL    HW227132   4.100   4.451   8.357  0.6625  0.2158 -0.2784
 5167SOL     OW27133   4.478   0.898   0.863  0.8498 -0.3042  0.0375
 5167SOL    HW127134   4.434   0.823   0.822 -2.6871  0.3249  2.6539
 5167SOL    HW227135   4.411   0.965   0.849 -0.1213 -0.8339  2.0418
 5168SOL     OW27136   1.219   4.654   1.004  0.0786  0.1839 -0.2384
 5168SOL    HW127137   1.197   4.578   0.950 -1.3786  0.7655 -0.4495
 5168SOL    HW227138   1.162   4.646   1.080 -0.4878 -2.1986 -0.9049
 5169SOL     OW27139   0.956   3.703   3.404 -0.0943  0.0190  0.3026
 5169SOL    HW127140   0.867   3.724   3.433 -0.6724  0.6551 -1.8705
 5169SOL    HW227141   0.948   3.669   3.315 -0.4397 -0.0224  0.3478
 5170SOL     OW27142   1.562   4.729   4.769  0.1562 -0.1323 -0.3164
 5170SOL    HW127143   1.504   0.039   4.710  0.8720 -2.0652 -2.6416
 5170SOL    HW227144   1.502   4.684   4.828  0.3471 -0.0237 -0.0417
 5171SOL     OW27145   1.206   2.625   1.920 -0.4847 -0.3819 -0.1816
 5171SOL    HW127146   1.265   2.590   1.854  1.1613  4.0082 -1.0549
 5171SOL    HW227147   1.265   2.637   1.995 -1.6356  0.0256  0.6652
 5172SOL     OW27148   0.826   3.220   0.022  0.2464  0.1830  0.4339
 5172SOL    HW127149   0.826   3.186   0.111  1.5124 -1.6396 -0.2483
 5172SOL    HW227150   0.743   3.266   0.012 -0.8548 -2.0021 -0.5426
 5173SOL     OW27151   1.925   1.924   8.064 -0.2209 -0.0472 -0.5430
 5173SOL    HW127152   1.986   1.876   8.120  1.5948  2.2591 -0.5767
 5173SOL    HW227153   1.837   1.897   8.090 -0.5305  2.2247  0.7222
 5174SOL     OW27154   1.240   1.977  12.165  0.0048  0.1289  0.0920
 5174SOL    HW127155   1.233   2.067  12.195  0.1724  0.2421 -0.2099
 5174SOL    HW227156   1.158   1.963  12.116  0.3290  1.1794 -0.7462
 5175SOL     OW27157   3.263   0.449  17.440 -0.1272  0.3241  0.5268
 5175SOL    HW127158   3.210   0.477  17.515  1.8756  1.2132  1.6133
 5175SOL    HW227159   3.242   0.516  17.375  1.5147  0.5367  0.2112
 5176SOL     OW27160   1.268   3.723   4.324  0.0366  0.1586  0.3680
 5176SOL    HW127161   1.208   3.721   4.399  1.6714  1.7550  1.6978
 5176SOL    HW227162   1.267   3.817   4.307  0.7424  0.3066  1.1550
 5177SOL     OW27163   2.086   1.673   8.055  0.7547 -0.3536  0.5519
 5177SOL    HW127164   2.146   1.742   8.026  1.5579 -1.4788 -0.4351
 5177SOL    HW227165   2.116   1.663   8.145 -0.6247  1.3204  1.2119
 5178SOL     OW27166   2.925   1.931   4.751  0.5169 -0.3301 -0.2974
 5178SOL    HW127167   2.925   2.011   4.805 -1.0169 -1.0879  0.8329
 5178SOL    HW227168   2.843   1.936   4.703  0.7811  0.5010 -0.6564
 5179SOL     OW27169   1.920   0.491  13.062  0.3048  0.1468  0.0914
 5179SOL    HW127170   1.881   0.542  12.992 -0.0767  1.4794  1.2840
 5179SOL    HW227171   1.875   0.531  13.136  0.4847 -0.2744  0.4307
 5180SOL     OW27172   3.957   2.749  16.002 -0.0376  0.2449 -0.5868
 5180SOL    HW127173   3.937   2.833  15.960  0.2839  1.3457  1.4693
 5180SOL    HW227174   3.913   2.762  16.086  0.3177 -2.0498 -0.0334
 5181SOL     OW27175   1.711   4.048   1.214 -0.1409  0.1433  0.0326
 5181SOL    HW127176   1.674   3.962   1.196  0.4423 -0.4987  1.8486
 5181SOL    HW227177   1.630   4.090   1.246  0.6331  0.9863  0.8788
 5182SOL     OW27178   3.069   2.359   8.551  0.2847  0.2348 -0.2182
 5182SOL    HW127179   3.051   2.272   8.586  0.5394  0.8346  1.4278
 5182SOL    HW227180   3.076   2.336   8.458  1.8589  0.6607 -0.2102
 5183SOL     OW27181   0.123   0.427  11.371  0.3216  0.2199  0.0411
 5183SOL    HW127182   0.176   0.375  11.431 -0.4938 -0.7311 -0.0541
 5183SOL    HW227183   0.146   0.518  11.390 -1.4760  0.6198  0.2878
 5184SOL     OW27184   0.898   4.136   5.955 -0.2195 -0.4673 -0.4252
 5184SOL    HW127185   0.827   4.074   5.939 -2.4006  1.5422  1.4572
 5184SOL    HW227186   0.944   4.129   5.872  3.8748 -0.6945  1.8788
 5185SOL     OW27187   3.252   0.910   7.814 -0.2885  0.1486 -0.2680
 5185SOL    HW127188   3.301   0.833   7.788  0.5647  0.8827 -0.8499
 5185SOL    HW227189   3.310   0.970   7.768 -0.9391  0.1015 -1.1480
 5186SOL     OW27190   0.788   0.088  13.589 -0.2425 -0.9051 -0.4089
 5186SOL    HW127191   0.825   0.020  13.646 -1.3598 -0.3219  0.9798
 5186SOL    HW227192   0.701   0.056  13.567 -1.1224  1.1443  0.1397
 5187SOL     OW27193   2.107   1.784   9.330  0.4234 -0.5156  0.9319
 5187SOL    HW127194   2.169   1.728   9.283 -0.1107  0.7750 -1.3332
 5187SOL    HW227195   2.049   1.821   9.264  2.3724 -1.0213 -1.0614
 5188SOL     OW27196   3.895   0.098   7.400  0.1331 -0.2344 -0.2893
 5188SOL    HW127197   3.802   0.079   7.416 -0.2336  0.0633 -2.0123
 5188SOL    HW227198   3.885   0.168   7.334  3.9049 -0.2472 -0.8602
 5189SOL     OW27199   4.230   1.864   5.269 -0.5119 -0.4552  0.2296
 5189SOL    HW127200   4.171   1.869   5.194 -0.0949 -0.9534 -0.1279
 5189SOL    HW227201   4.313   1.862   5.222 -1.7776 -1.5531 -1.9530
 5190SOL     OW27202   1.123   1.476  16.303  0.3103 -0.1235  0.4469
 5190SOL    HW127203   1.072   1.397  16.319  0.5477 -0.0355  1.6430
 5190SOL    HW227204   1.191   1.456  16.366  1.9810  0.1171 -1.2899
 5191SOL     OW27205   2.321   1.262  12.088 -0.3839  0.7599  0.3808
 5191SOL    HW127206   2.342   1.340  12.140 -1.7064  1.0063  0.5625
 5191SOL    HW227207   2.323   1.294  11.998  1.6472 -0.8080 -0.1217
 5192SOL     OW27208   2.068   4.480   8.444  0.1957  0.3244  0.1499
 5192SOL    HW127209   1.980   4.516   8.433  0.7909  1.4701 -0.9340
 5192SOL    HW227210   2.095   4.530   8.521 -1.9652  0.4877  0.7950
 5193SOL     OW27211   3.738   0.047  10.021  0.1690  0.3070 -0.0897
 5193SOL    HW127212   3.730   0.138   9.995  3.0087 -0.0331 -2.2326
 5193SOL    HW227213   3.822   0.039  10.065  0.2186  2.9376  0.2751
 5194SOL     OW27214   1.289   0.404   9.853 -0.1459  0.1440  0.4513
 5194SOL    HW127215   1.217   0.393   9.914 -0.6047 -1.3849 -0.3580
 5194SOL    HW227216   1.343   0.327   9.871  2.5155  2.0656  0.7210
 5195SOL     OW27217   3.669   3.265   9.215 -1.0459  0.6991  0.2313
 5195SOL    HW127218   3.603   3.270   9.145 -0.8355 -1.3798 -0.1070
 5195SOL    HW227219   3.721   3.343   9.194 -0.7685  1.0937  2.3502
 5196SOL     OW27220   4.477   2.789   2.151  0.7382  0.2833  0.6176
 5196SOL    HW127221   4.383   2.779   2.136  1.4606 -1.3583 -2.6827
 5196SOL    HW227222   4.499   2.702   2.185  0.8894  0.2813  0.5122
 5197SOL     OW27223   2.686   2.368   1.723  0.6666  0.0068 -0.2556
 5197SOL    HW127224   2.661   2.354   1.814 -0.8454  0.7365 -0.5587
 5197SOL    HW227225   2.718   2.457   1.717  2.7866 -0.5848  2.0593
 5198SOL     OW27226   2.507   3.817  13.803 -0.5409 -0.1165 -1.0999
 5198SOL    HW127227   2.603   3.809  13.801 -0.4809  0.5140 -0.5392
 5198SOL    HW227228   2.496   3.739  13.857  0.1820  0.9634  0.6112
 5199SOL     OW27229   1.661   4.139   6.242  0.2240  0.4266  0.5563
 5199SOL    HW127230   1.743   4.105   6.277 -0.7805 -1.9614  0.5704
 5199SOL    HW227231   1.681   4.232   6.233  2.0080  0.1949  2.1243
 5200SOL     OW27232   4.385   2.529   7.194 -0.2744 -0.1257 -0.2744
 5200SOL    HW127233   4.376   2.473   7.271  2.4093  1.1470  0.9545
 5200SOL    HW227234   4.475   2.559   7.205  0.0314 -0.3834 -1.9729
 5201SOL     OW27235   3.150   1.825   9.071  0.3552 -0.3542  0.6348
 5201SOL    HW127236   3.097   1.860   9.142  0.4586  1.0848  0.0081
 5201SOL    HW227237   3.095   1.750   9.047 -0.7458  0.6397  0.0272
 5202SOL     OW27238   3.216   1.496   1.724  0.7102 -0.1600 -0.2804
 5202SOL    HW127239   3.145   1.560   1.729 -1.2139 -2.2152 -1.4411
 5202SOL    HW227240   3.206   1.447   1.642  1.4794  1.7213 -1.5240
 5203SOL     OW27241   3.267   0.366  13.611 -0.3915 -0.0475 -0.5840
 5203SOL    HW127242   3.218   0.340  13.689 -0.0300  1.9133  0.2945
 5203SOL    HW227243   3.197   0.378  13.547 -1.6705  2.5777  1.3072
 5204SOL     OW27244   3.960   2.294  14.136 -0.0870  0.2754  0.3706
 5204SOL    HW127245   3.922   2.208  14.150  2.9504 -0.8771  1.5699
 5204SOL    HW227246   4.042   2.271  14.093 -0.1213 -1.8331  1.4367
 5205SOL     OW27247   3.048   2.961   5.641 -0.4797  0.1052 -0.2120
 5205SOL    HW127248   3.099   3.028   5.686 -1.0937  1.0982 -1.0048
 5205SOL    HW227249   3.008   2.920   5.718 -0.4220  3.4551  1.5744
 5206SOL     OW27250   0.241   2.643  15.119 -0.2806 -0.6482  0.1144
 5206SOL    HW127251   0.280   2.657  15.205 -0.0963 -0.3239 -0.0235
 5206SOL    HW227252   0.305   2.684  15.061 -0.8499 -0.0610 -0.1026
 5207SOL     OW27253   1.525   4.528   5.954 -0.4745 -0.1969  0.3590
 5207SOL    HW127254   1.472   4.497   6.027 -0.7889  0.2576  0.3275
 5207SOL    HW227255   1.560   4.615   5.973  2.4381 -1.3616  0.3738
 5208SOL     OW27256   0.140   3.330  11.796 -0.2995 -0.0476 -0.2423
 5208SOL    HW127257   0.182   3.299  11.876 -2.0705  0.1564  0.7721
 5208SOL    HW227258   0.190   3.282  11.730  2.8498  0.4253  1.8008
 5209SOL     OW27259   4.565   0.218  11.398 -0.4729  0.1683  0.3063
 5209SOL    HW127260   4.639   0.266  11.435  0.0058 -1.9783  2.1120
 5209SOL    HW227261   4.513   0.294  11.376  0.0311 -0.5392 -3.3461
 5210SOL     OW27262   0.253   1.526   2.323 -0.4468 -0.3366 -0.4698
 5210SOL    HW127263   0.337   1.542   2.281  0.0874 -1.0039  0.3392
 5210SOL    HW227264   0.245   1.603   2.380  4.7214 -0.9444  1.0966
 5211SOL     OW27265   3.610   1.926   6.027 -0.5483  0.2560  0.4651
 5211SOL    HW127266   3.656   1.947   5.945 -1.3517 -1.6374 -0.4871
 5211SOL    HW227267   3.678   1.935   6.094  1.6681 -0.8079 -1.5838
 5212SOL     OW27268   1.591   0.247   4.072  0.6923 -0.0387 -0.7517
 5212SOL    HW127269   1.595   0.154   4.048 -0.5175  0.3386 -2.3636
 5212SOL    HW227270   1.644   0.284   4.001 -0.3838  3.2473  0.2103
 5213SOL     OW27271   0.846   2.949   3.079 -0.5702  0.1348  0.1390
 5213SOL    HW127272   0.855   2.856   3.098 -0.2955 -0.6906 -4.0403
 5213SOL    HW227273   0.762   2.947   3.035  0.1609  1.1646 -1.3096
 5214SOL     OW27274   1.619   0.799   3.156  0.3967 -0.0216  0.3973
 5214SOL    HW127275   1.620   0.881   3.205  1.5322 -0.0723  0.4696
 5214SOL    HW227276   1.527   0.795   3.131  0.1834  0.2639  1.1549
 5215SOL     OW27277   1.777   1.014  15.873 -0.0948 -0.4119 -0.3588
 5215SOL    HW127278   1.847   0.975  15.822 -1.0117 -2.5224  0.0125
 5215SOL    HW227279   1.710   1.025  15.806 -1.3147 -0.2759  0.8765
 5216SOL     OW27280   4.082   2.007   3.333 -0.2942 -0.0442 -0.1217
 5216SOL    HW127281   3.993   1.984   3.306  0.4567 -1.7658 -1.0703
 5216SOL    HW227282   4.117   1.981   3.248 -1.5055 -0.4971 -0.4909
 5217SOL     OW27283   0.824   1.773   6.137  0.4610  0.2132 -0.6693
 5217SOL    HW127284   0.878   1.802   6.210  1.1262 -1.2356 -0.5822
 5217SOL    HW227285   0.837   1.842   6.072  1.3732  0.8024  0.1395
 5218SOL     OW27286   4.160   0.421  12.436  0.0286  0.3308 -0.0550
 5218SOL    HW127287   4.200   0.390  12.354 -0.4950  0.0013 -0.1805
 5218SOL    HW227288   4.210   0.503  12.431  1.7332 -0.7569 -1.1812
 5219SOL     OW27289   1.489   1.698   6.094 -0.4930  0.1155 -0.3367
 5219SOL    HW127290   1.461   1.780   6.052  0.1365  1.0503  1.0467
 5219SOL    HW227291   1.440   1.632   6.047  1.2839 -2.1726  1.0024
 5220SOL     OW27292   3.760   2.157   7.224  0.1519  0.0433  0.0730
 5220SOL    HW127293   3.689   2.219   7.239  1.9332  2.0985 -0.0472
 5220SOL    HW227294   3.799   2.171   7.310 -0.7751  1.9106  0.1935
 5221SOL     OW27295   1.326   3.034   8.206  0.3938 -0.3703 -0.1261
 5221SOL    HW127296   1.356   3.049   8.295 -0.5162  3.0624 -0.4017
 5221SOL    HW227297   1.239   3.002   8.231  0.5503 -0.2181  0.6128
 5222SOL     OW27298   2.841   3.449   8.518 -0.2202 -0.2698  0.0953
 5222SOL    HW127299   2.801   3.370   8.481 -0.1057  0.1332 -0.8891
 5222SOL    HW227300   2.818   3.505   8.444  1.7703 -0.3866 -0.6216
 5223SOL     OW27301   1.931   1.970   6.729  0.1769  0.0518 -0.1630
 5223SOL    HW127302   2.016   1.926   6.718 -0.4436 -0.8783 -1.2427
 5223SOL    HW227303   1.870   1.896   6.732  0.4865 -0.2723 -1.6681
 5224SOL     OW27304   2.888   2.160   8.062  0.1569 -0.1297 -0.5958
 5224SOL    HW127305   2.867   2.070   8.086  0.0838 -0.0068 -0.1940
 5224SOL    HW227306   2.926   2.137   7.977  0.8232 -0.4284 -0.2140
 5225SOL     OW27307   1.819   4.583   7.843  0.0153  0.3782  0.2199
 5225SOL    HW127308   1.775   4.547   7.920 -1.6376 -0.2162 -1.0020
 5225SOL    HW227309   1.769   4.660   7.817  0.4358  0.2533 -0.9748
 5226SOL     OW27310   3.017   1.532   5.936  0.1437 -0.3381 -0.3216
 5226SOL    HW127311   3.068   1.595   5.885 -0.9072 -0.0814 -1.0359
 5226SOL    HW227312   3.080   1.460   5.937  0.2940 -0.1997  0.8999
 5227SOL     OW27313   4.360   2.683   5.683 -0.3688  0.0848 -0.6729
 5227SOL    HW127314   4.317   2.628   5.618 -1.5014 -1.7262  1.6109
 5227SOL    HW227315   4.425   2.733   5.633  0.0570  0.0790 -0.1206
 5228SOL     OW27316   1.921   2.762  15.376 -0.0230 -0.3529  0.5266
 5228SOL    HW127317   1.974   2.682  15.369  1.8973  1.1665 -2.4013
 5228SOL    HW227318   1.835   2.729  15.401 -0.5802  0.5592 -0.2311
 5229SOL     OW27319   3.101   4.143   9.257 -0.1480 -0.1592  0.1957
 5229SOL    HW127320   3.147   4.192   9.188 -1.9437  2.3067  0.7415
 5229SOL    HW227321   3.169   4.144   9.324  1.7902  0.9306 -1.7658
 5230SOL     OW27322   2.088   3.962  13.884 -0.4392  0.1620  0.1688
 5230SOL    HW127323   2.028   4.001  13.820 -0.3805  0.4618  0.2972
 5230SOL    HW227324   2.167   3.972  13.830 -2.0366  0.6132 -2.0992
 5231SOL     OW27325   2.055   3.488   4.037 -0.3654  0.4982  0.0058
 5231SOL    HW127326   2.129   3.547   4.023 -0.9428  1.5586  1.3165
 5231SOL    HW227327   2.024   3.514   4.124 -0.3835  0.8077 -0.0944
 5232SOL     OW27328   3.776   3.063  11.413  0.2911 -0.5369 -0.4715
 5232SOL    HW127329   3.837   3.019  11.353 -0.3597 -1.2836 -0.5741
 5232SOL    HW227330   3.834   3.088  11.484 -0.1599  0.6672 -0.5280
 5233SOL     OW27331   0.271   0.518   4.138 -0.1842 -0.1424 -0.1754
 5233SOL    HW127332   0.263   0.488   4.229  0.8838  2.4317  0.7667
 5233SOL    HW227333   0.213   0.454   4.095 -0.0880  0.2322 -0.8581
 5234SOL     OW27334   3.708   2.567  17.076 -0.3605 -0.5851  0.1162
 5234SOL    HW127335   3.615   2.561  17.099 -1.7570 -0.2037 -5.2778
 5234SOL    HW227336   3.721   2.474  17.054 -1.5833 -0.7101 -0.0737
 5235SOL     OW27337   0.711   2.737   4.743 -0.2672 -0.1179 -0.1682
 5235SOL    HW127338   0.635   2.709   4.794  0.9265 -2.0977  0.5104
 5235SOL    HW227339   0.755   2.804   4.795 -1.5224  1.6561 -1.4030
 5236SOL     OW27340   2.823   2.934   8.929 -0.3173  0.1708 -0.1593
 5236SOL    HW127341   2.795   2.908   8.841  0.8854  0.1153 -0.5235
 5236SOL    HW227342   2.756   3.000   8.947 -0.5080 -0.0859  0.0627
 5237SOL     OW27343   3.381   2.774   1.989  0.3349  0.0762 -0.6148
 5237SOL    HW127344   3.310   2.718   2.018 -1.0196  1.7589 -0.6315
 5237SOL    HW227345   3.444   2.717   1.946  0.8341 -0.1174  0.3758
 5238SOL     OW27346   0.161   3.776   2.904  0.0557  0.1559  0.1435
 5238SOL    HW127347   0.117   3.764   2.820  1.3455 -0.4890 -0.4418
 5238SOL    HW227348   0.253   3.780   2.876  0.3018 -1.5899  0.7361
 5239SOL     OW27349   2.427   4.017   8.957  0.2733  0.8154 -0.4236
 5239SOL    HW127350   2.417   4.061   8.872 -1.1098 -0.6770 -1.0329
 5239SOL    HW227351   2.384   3.932   8.947  0.1321  1.0695 -2.0632
 5240SOL     OW27352   0.710   0.419   7.801  0.5163  0.0398 -0.1590
 5240SOL    HW127353   0.694   0.332   7.764  1.8841 -1.2480  2.2728
 5240SOL    HW227354   0.713   0.473   7.722 -0.9658  0.9890  0.4248
 5241SOL     OW27355   4.272   3.307   7.825  0.2043 -0.1822 -0.3986
 5241SOL    HW127356   4.178   3.323   7.832  0.0663 -1.2933  0.4160
 5241SOL    HW227357   4.299   3.394   7.854 -3.0471 -0.0075  2.1025
 5242SOL     OW27358   0.508   1.498   4.118 -0.2782  0.2966 -0.3764
 5242SOL    HW127359   0.558   1.548   4.181 -1.1492 -0.0598  0.5875
 5242SOL    HW227360   0.451   1.567   4.084  0.0779  1.5598  1.6349
 5243SOL     OW27361   3.786   1.911   7.092  0.0231 -0.1512  0.3868
 5243SOL    HW127362   3.771   1.836   7.148  0.2155  0.7951  1.7029
 5243SOL    HW227363   3.778   1.990   7.146  0.8496  0.0728  0.1962
 5244SOL     OW27364   0.645   0.674   9.885  0.5904 -0.0241 -0.7563
 5244SOL    HW127365   0.614   0.644   9.971  0.8764 -0.7327 -0.8994
 5244SOL    HW227366   0.615   0.764   9.899  0.3713 -0.3175  0.6590
 5245SOL     OW27367   0.980   0.684   5.184 -0.2918 -0.0472 -0.1200
 5245SOL    HW127368   0.945   0.680   5.273  0.4750  0.9621  0.2352
 5245SOL    HW227369   0.903   0.705   5.130  0.0490  1.1678 -0.1400
 5246SOL     OW27370   1.131   3.992   7.017  0.6639 -0.1241  0.1538
 5246SOL    HW127371   1.131   3.932   7.092  1.6684  0.5258  0.6667
 5246SOL    HW227372   1.110   3.923   6.954  0.7565 -2.3080  2.4950
 5247SOL     OW27373   3.847   3.422  13.816 -0.0318  0.5589  0.2555
 5247SOL    HW127374   3.881   3.404  13.904 -0.0770 -1.8843 -0.2295
 5247SOL    HW227375   3.792   3.499  13.829 -0.7528  0.5856 -2.9600
 5248SOL     OW27376   4.627   2.470   4.436 -0.2030  0.0969 -0.6612
 5248SOL    HW127377   4.709   2.420   4.438 -0.1415  0.1793 -1.3671
 5248SOL    HW227378   4.638   2.504   4.347  1.0363  1.2107 -0.0956
 5249SOL     OW27379   2.756   1.811  14.779 -0.6536  0.3330 -0.6449
 5249SOL    HW127380   2.748   1.740  14.716  1.3051 -1.6860  1.3688
 5249SOL    HW227381   2.688   1.873  14.752  0.1752  0.7484 -1.7618
 5250SOL     OW27382   3.567   4.526   0.255 -0.1730  0.1010  0.0367
 5250SOL    HW127383   3.638   4.484   0.305  0.6808 -1.3988 -2.4276
 5250SOL    HW227384   3.507   4.455   0.235 -2.4614  2.3192 -0.9066
 5251SOL     OW27385   0.981   0.290   4.914 -0.3439  0.4095  0.0288
 5251SOL    HW127386   1.031   0.242   4.981  0.3176 -0.2691 -0.9526
 5251SOL    HW227387   0.938   0.218   4.870  0.4264 -0.4764  0.7188
 5252SOL     OW27388   4.150   1.492  15.293 -0.1297  0.7835 -0.3015
 5252SOL    HW127389   4.207   1.484  15.216  0.8785 -0.8030  0.6178
 5252SOL    HW227390   4.161   1.405  15.331 -1.0469 -0.1800 -2.2640
 5253SOL     OW27391   3.513   2.853  10.222  0.7195 -0.1587  0.3330
 5253SOL    HW127392   3.468   2.783  10.174  0.0772  1.6086 -1.6500
 5253SOL    HW227393   3.536   2.910  10.149 -2.5170  0.7707  0.0166
 5254SOL     OW27394   4.492   4.442   6.284  0.3181 -0.4784 -0.4449
 5254SOL    HW127395   4.487   4.536   6.266  0.5569 -0.4222 -0.2205
 5254SOL    HW227396   4.425   4.431   6.352  0.1203 -2.7689 -0.9955
 5255SOL     OW27397   1.840   2.432  14.402 -0.1550 -0.6290 -0.0926
 5255SOL    HW127398   1.767   2.376  14.428  0.3142  0.0616  2.7096
 5255SOL    HW227399   1.828   2.507  14.461 -1.6492 -0.7672 -0.2039
 5256SOL     OW27400   1.100   1.727   4.780  1.0136  0.2033  0.6329
 5256SOL    HW127401   1.109   1.814   4.820  0.7173  1.1483 -1.3373
 5256SOL    HW227402   1.192   1.704   4.787  1.1768  0.5579 -0.4300
 5257SOL     OW27403   3.555   2.679  11.327  0.2947  0.0083 -0.2816
 5257SOL    HW127404   3.497   2.733  11.273  0.7074 -0.3239 -1.0526
 5257SOL    HW227405   3.530   2.590  11.301 -2.0483  1.1684 -1.9916
 5258SOL     OW27406   0.568   0.939   5.775 -0.0134 -0.3711  0.0529
 5258SOL    HW127407   0.499   0.873   5.767 -0.2682  0.3186 -3.3924
 5258SOL    HW227408   0.519   1.013   5.808 -0.5007  0.6136 -2.9030
 5259SOL     OW27409   0.163   3.090  10.809 -0.0148  0.1528  0.0464
 5259SOL    HW127410   0.248   3.127  10.787 -0.7442 -0.4298 -3.6351
 5259SOL    HW227411   0.103   3.139  10.754 -0.0510 -0.0284 -0.0755
 5260SOL     OW27412   3.309   0.665   7.647 -0.2894  0.2003 -0.0039
 5260SOL    HW127413   3.269   0.690   7.564  0.1347  1.6663  0.2328
 5260SOL    HW227414   3.380   0.730   7.646  0.4301 -0.5495  1.7850
 5261SOL     OW27415   2.328   2.515   5.743  0.2151  0.4327  0.2324
 5261SOL    HW127416   2.313   2.421   5.728  3.0196 -0.1145  0.8863
 5261SOL    HW227417   2.294   2.559   5.665 -2.7339 -1.6901  0.3285
 5262SOL     OW27418   0.738   0.837   6.784 -0.0940  0.0779  0.0241
 5262SOL    HW127419   0.722   0.765   6.845  0.2843 -1.4097 -1.6263
 5262SOL    HW227420   0.759   0.778   6.712  0.6940 -0.7822  0.9595
 5263SOL     OW27421   2.072   3.112   8.569 -0.2588  0.0240  0.3964
 5263SOL    HW127422   2.038   3.196   8.599 -0.9046 -0.2859  0.5123
 5263SOL    HW227423   2.030   3.052   8.631  0.1743 -1.7440 -1.0064
 5264SOL     OW27424   1.711   0.971  11.918  0.3909  0.3698 -0.0824
 5264SOL    HW127425   1.701   0.881  11.885  3.6409  0.1177 -0.4125
 5264SOL    HW227426   1.716   1.026  11.840  0.0703  0.8326  0.2258
 5265SOL     OW27427   0.365   2.427   9.953 -0.0495 -0.3072 -0.0644
 5265SOL    HW127428   0.459   2.446   9.953 -0.0607 -0.2519 -0.1915
 5265SOL    HW227429   0.365   2.338   9.919  1.3817 -0.4496  0.3320
 5266SOL     OW27430   1.296   4.408   5.101 -0.2272 -0.1964  0.1784
 5266SOL    HW127431   1.203   4.394   5.119  0.2936 -1.7414  1.7226
 5266SOL    HW227432   1.331   4.326   5.136  2.9656  0.7416 -0.8237
 5267SOL     OW27433   4.156   0.011   9.411  0.0667 -0.3502 -0.7293
 5267SOL    HW127434   4.139   0.105   9.415 -1.6471 -0.5665 -2.6384
 5267SOL    HW227435   4.101   4.720   9.483 -0.9305  0.4771 -1.1278
 5268SOL     OW27436   3.262   0.960   3.506  0.0285 -0.5313 -0.2672
 5268SOL    HW127437   3.313   0.925   3.579 -0.2495  1.5834  0.9377
 5268SOL    HW227438   3.284   0.904   3.431 -2.0153 -0.3319 -1.0246
 5269SOL     OW27439   2.161   4.583   5.441 -0.0680  0.2293 -0.1528
 5269SOL    HW127440   2.088   4.521   5.435 -0.3475  0.4346  1.2180
 5269SOL    HW227441   2.189   4.589   5.350 -0.1783 -0.5034 -0.2331
 5270SOL     OW27442   3.905   3.748  14.414 -0.5571  0.2461 -0.1317
 5270SOL    HW127443   3.909   3.830  14.463  0.2882 -0.7252  1.4126
 5270SOL    HW227444   3.886   3.776  14.324 -0.3453 -1.9423 -0.8662
 5271SOL     OW27445   4.664   2.842   4.350 -0.6017  0.3151 -0.5731
 5271SOL    HW127446   4.711   2.924   4.333  0.1954  0.0952  0.5434
 5271SOL    HW227447   4.678   2.834   4.444 -2.2633  1.8594 -0.1867
 5272SOL     OW27448   4.344   0.034   9.776  0.0627 -0.1020 -0.0713
 5272SOL    HW127449   4.315   4.698   9.828 -0.0692 -0.7373 -1.0676
 5272SOL    HW227450   4.267   0.090   9.762 -0.0505  0.4557  2.6973
 5273SOL     OW27451   4.308   0.862  11.631  0.3224  0.3336  0.4652
 5273SOL    HW127452   4.326   0.913  11.710  0.0105  3.7440 -1.6763
 5273SOL    HW227453   4.382   0.893  11.578 -0.5132 -0.2008 -1.0089
 5274SOL     OW27454   3.000   2.125   5.971 -0.1200 -0.1044  0.6176
 5274SOL    HW127455   2.978   2.213   6.002 -0.8071 -0.1962  0.3833
 5274SOL    HW227456   2.968   2.074   6.045  0.0626  0.4910  1.1138
 5275SOL     OW27457   4.712   2.248   2.064 -0.5174  0.0033 -0.2825
 5275SOL    HW127458   4.619   2.235   2.079 -0.6646  1.7326  0.2541
 5275SOL    HW227459   4.698   2.262   1.971 -1.3560  0.2216 -0.1229
 5276SOL     OW27460   3.687   3.790   5.954  0.0302  0.0534  0.3818
 5276SOL    HW127461   3.602   3.808   5.995  0.0894  2.6296 -0.6618
 5276SOL    HW227462   3.737   3.729   6.009  2.2968  1.1405 -0.5104
 5277SOL     OW27463   3.667   4.130   8.834  1.0126  0.2162 -0.2192
 5277SOL    HW127464   3.650   4.046   8.791 -0.9111  0.7000 -0.3927
 5277SOL    HW227465   3.683   4.194   8.765 -0.8092 -1.6611 -2.4228
 5278SOL     OW27466   0.383   3.210  15.036  0.7317 -0.0511 -0.4899
 5278SOL    HW127467   0.417   3.125  15.009  1.1893 -0.6483  1.8971
 5278SOL    HW227468   0.437   3.238  15.110 -0.4665  0.5559  0.1620
 5279SOL     OW27469   0.719   2.824   9.294  0.1955 -0.0281  0.2514
 5279SOL    HW127470   0.709   2.912   9.330 -2.0647 -0.9426  1.8359
 5279SOL    HW227471   0.802   2.840   9.249 -0.1995 -1.5107 -1.0061
 5280SOL     OW27472   3.035   4.520  15.998 -0.0026 -0.0809 -0.2420
 5280SOL    HW127473   3.097   4.498  16.067  1.7867 -0.2529 -1.9123
 5280SOL    HW227474   3.027   4.436  15.952 -0.0441  0.7578 -1.7710
 5281SOL     OW27475   3.075   3.133   1.196  0.1057  0.2610 -0.0266
 5281SOL    HW127476   3.119   3.217   1.204 -0.6403  0.5686  0.8695
 5281SOL    HW227477   3.084   3.110   1.103 -4.5326 -1.3889 -0.0554
 5282SOL     OW27478   2.844   3.961  13.912  0.0310  0.3091  0.1645
 5282SOL    HW127479   2.800   3.887  13.870  0.7188  0.6898 -1.2544
 5282SOL    HW227480   2.801   3.968  13.997  0.4722 -0.0364  0.4154
 5283SOL     OW27481   0.594   4.365  11.000 -0.3324  0.5461  0.0849
 5283SOL    HW127482   0.500   4.354  11.016 -0.6612  0.2504 -2.0271
 5283SOL    HW227483   0.625   4.413  11.077  0.9847  1.3526 -0.9542
 5284SOL     OW27484   3.319   3.883   5.087  0.3632  0.0579 -0.0700
 5284SOL    HW127485   3.291   3.898   4.997  0.7175 -0.5578 -0.2827
 5284SOL    HW227486   3.347   3.970   5.118 -1.2818  0.3034  0.7632
 5285SOL     OW27487   1.822   4.695   5.637  0.0613  0.4348 -0.3956
 5285SOL    HW127488   1.819   0.019   5.565  1.8568  1.4095  0.3816
 5285SOL    HW227489   1.729   4.676   5.643  0.8097 -2.6627  1.5377
 5286SOL     OW27490   4.590   4.417   7.613  0.3008 -0.1052  0.2545
 5286SOL    HW127491   4.554   4.408   7.702 -0.1751  1.8468  0.2629
 5286SOL    HW227492   4.584   4.326   7.584 -0.0900 -0.8942  2.7771
 5287SOL     OW27493   1.862   4.489   2.185  0.0133 -0.7589  0.1252
 5287SOL    HW127494   1.795   4.425   2.209 -1.2141 -0.2212 -1.9181
 5287SOL    HW227495   1.933   4.434   2.150  1.3532  0.8829  0.2570
 5288SOL     OW27496   0.225   3.917   6.448 -0.9016  0.2504 -0.3302
 5288SOL    HW127497   0.224   3.872   6.533  0.3374  2.2612  0.7366
 5288SOL    HW227498   0.203   4.005   6.477  0.5874 -0.2073  2.1679
 5289SOL     OW27499   0.767   0.192   8.433 -0.7974  0.5060  0.0656
 5289SOL    HW127500   0.753   0.098   8.422  0.1142  0.5579 -1.6592
 5289SOL    HW227501   0.726   0.231   8.355  2.1372  0.8021 -1.3555
 5290SOL     OW27502   1.656   3.451  10.445  1.0744 -0.1392  0.3731
 5290SOL    HW127503   1.696   3.395  10.378 -0.5379 -1.8806  0.8669
 5290SOL    HW227504   1.701   3.413  10.520 -0.9967 -2.0144  0.6401
 5291SOL     OW27505   4.193   2.617   5.222  0.0083 -0.1752 -0.1841
 5291SOL    HW127506   4.208   2.671   5.144 -1.1416 -0.1588 -0.3849
 5291SOL    HW227507   4.109   2.653   5.248  0.2069  0.2685 -0.1557
 5292SOL     OW27508   0.067   2.228   5.419  0.0221  0.2950  0.0867
 5292SOL    HW127509   0.137   2.217   5.484 -0.4522 -0.8519  0.3878
 5292SOL    HW227510   0.001   2.164   5.447  0.1550  0.5344  0.9636
 5293SOL     OW27511   0.708   3.768   8.242 -0.8159 -1.3966  0.1234
 5293SOL    HW127512   0.740   3.689   8.198 -0.4764 -1.7560  1.0231
 5293SOL    HW227513   0.740   3.835   8.181  0.2932 -3.0054 -1.0544
 5294SOL     OW27514   2.198   0.176   5.344  0.1539  0.3760 -0.4170
 5294SOL    HW127515   2.217   0.226   5.423  2.1743  1.5890 -1.6601
 5294SOL    HW227516   2.130   0.236   5.316  1.2781  1.9899  0.2917
 5295SOL     OW27517   0.000   3.862   0.451  0.1383  0.1886  0.6393
 5295SOL    HW127518   4.647   3.885   0.456 -0.1889 -0.4435 -2.3978
 5295SOL    HW227519   0.018   3.892   0.361  0.7357 -0.7020  0.4585
 5296SOL     OW27520   4.023   2.434   6.479 -0.0774 -0.2178 -0.4361
 5296SOL    HW127521   4.028   2.481   6.562  0.3758  0.6462 -0.9534
 5296SOL    HW227522   4.024   2.512   6.424 -0.1412 -0.4190 -0.7238
 5297SOL     OW27523   0.867   1.026   6.145  0.1298  0.9736  0.0506
 5297SOL    HW127524   0.916   1.107   6.158  2.2697 -0.1572 -0.8725
 5297SOL    HW227525   0.813   1.050   6.070  0.6810 -0.7900 -0.9242
 5298SOL     OW27526   2.560   2.873  14.351  0.0580 -0.2970  0.2250
 5298SOL    HW127527   2.546   2.862  14.257 -1.7130 -0.9649  0.5669
 5298SOL    HW227528   2.606   2.957  14.359 -0.2003 -0.0362 -1.0681
 5299SOL     OW27529   3.014   3.678   5.591  0.4916 -0.0979  0.6358
 5299SOL    HW127530   3.086   3.646   5.646  0.5396 -2.6100 -0.9008
 5299SOL    HW227531   3.053   3.756   5.550  1.6002 -0.1386  1.6251
 5300SOL     OW27532   1.904   0.785   3.336 -0.1461  0.3605 -0.4257
 5300SOL    HW127533   1.900   0.877   3.308  0.6958  0.7266  0.6504
 5300SOL    HW227534   1.995   0.755   3.335 -0.2429  0.0622  0.0672
 5301SOL     OW27535   3.978   0.468  16.041 -0.0006 -0.3736  0.1629
 5301SOL    HW127536   3.933   0.496  16.121 -0.7877 -1.9922  0.2799
 5301SOL    HW227537   4.009   0.385  16.077  0.0737 -0.4389 -0.0560
 5302SOL     OW27538   2.154   2.644   9.079 -0.3844 -0.0224 -0.6238
 5302SOL    HW127539   2.235   2.690   9.057  1.1529 -2.3821  0.2290
 5302SOL    HW227540   2.155   2.582   9.006  1.3044  0.6258 -1.1703
 5303SOL     OW27541   4.736   0.354  15.267 -0.3688  0.2703 -0.4395
 5303SOL    HW127542   0.072   0.371  15.211 -0.7923  2.7846 -0.2252
 5303SOL    HW227543   0.035   0.275  15.306 -0.9844 -0.4119 -1.2204
 5304SOL     OW27544   1.536   2.266   8.190  0.3694  0.1270  0.0970
 5304SOL    HW127545   1.547   2.248   8.283  1.1831  2.5402  0.4553
 5304SOL    HW227546   1.500   2.354   8.198 -0.2894 -0.1878  0.6505
 5305SOL     OW27547   1.992   2.142   3.033  0.3442  0.2049  0.3310
 5305SOL    HW127548   1.993   2.066   3.091 -0.2547 -0.1130 -0.0638
 5305SOL    HW227549   2.021   2.214   3.088 -0.3004  0.5388  0.2437
 5306SOL     OW27550   2.025   1.592  12.195 -0.1857 -0.7542  0.1268
 5306SOL    HW127551   2.109   1.582  12.150 -0.6865  0.8363 -1.2039
 5306SOL    HW227552   1.992   1.502  12.200  1.1064 -1.2634 -0.5442
 5307SOL     OW27553   0.683   4.178   7.606  0.1517  0.2132 -0.3980
 5307SOL    HW127554   0.592   4.207   7.602  0.0862 -0.1915 -1.8678
 5307SOL    HW227555   0.717   4.233   7.676  1.4150 -3.2774  1.7697
 5308SOL     OW27556   0.031   0.628  14.452 -0.1704 -0.0275 -0.1662
 5308SOL    HW127557   0.083   0.599  14.527 -1.5604 -0.8764  0.4601
 5308SOL    HW227558   4.734   0.553  14.405  1.5531 -1.1232  0.2530
 5309SOL     OW27559   0.767   4.286   2.897  0.6119  0.2164 -0.1872
 5309SOL    HW127560   0.806   4.205   2.931  0.6926  1.6013  2.9175
 5309SOL    HW227561   0.840   4.347   2.888  0.9865  0.0253  1.4963
 5310SOL     OW27562   3.456   1.036   0.664 -0.7455  0.6551  0.4145
 5310SOL    HW127563   3.485   1.127   0.660  1.9661 -0.2050  0.2323
 5310SOL    HW227564   3.389   1.034   0.596  0.1212 -1.1381 -0.3787
 5311SOL     OW27565   0.105   1.738  13.154 -0.4584 -0.0165 -0.4614
 5311SOL    HW127566   0.018   1.744  13.113 -0.6694  1.1861  0.1732
 5311SOL    HW227567   0.123   1.648  13.127 -1.3600 -0.9787  2.1952
 5312SOL     OW27568   4.215   0.321   4.380 -0.1501  0.6824  0.0675
 5312SOL    HW127569   4.197   0.335   4.287 -1.4095 -0.1501  0.1791
 5312SOL    HW227570   4.139   0.265   4.397 -0.0783  0.2289 -1.1137
 5313SOL     OW27571   2.151   1.788   4.813 -0.9331 -0.2996  0.6026
 5313SOL    HW127572   2.188   1.701   4.826 -1.2578 -0.1820  2.3898
 5313SOL    HW227573   2.216   1.847   4.850 -0.5785  1.7165 -3.2363
 5314SOL     OW27574   2.595   2.505   9.531  0.0792 -0.1867 -0.6349
 5314SOL    HW127575   2.590   2.555   9.613  0.7827 -1.2052  0.0292
 5314SOL    HW227576   2.517   2.452   9.545 -0.2940  0.8139  1.0117
 5315SOL     OW27577   1.847   1.444  13.495  0.1699 -0.4443 -1.0283
 5315SOL    HW127578   1.800   1.527  13.497 -0.2079 -0.6804 -0.2756
 5315SOL    HW227579   1.832   1.405  13.581  0.6868 -0.2535 -0.8467
 5316SOL     OW27580   0.208   2.283   8.946  0.2819 -0.1628 -0.0704
 5316SOL    HW127581   0.295   2.303   8.981  1.3923 -0.4456 -2.6712
 5316SOL    HW227582   0.161   2.365   8.963 -2.0515 -1.6000  0.3373
 5317SOL     OW27583   2.386   1.625   9.529  0.3762 -0.5551  0.1191
 5317SOL    HW127584   2.349   1.600   9.613  0.5187 -3.5641 -0.7058
 5317SOL    HW227585   2.435   1.544   9.511 -0.4593 -1.0784  0.1963
 5318SOL     OW27586   2.007   2.933  17.133  0.1893  0.3061  0.2414
 5318SOL    HW127587   2.098   2.903  17.127  0.4343  1.5431 -2.1811
 5318SOL    HW227588   2.003   2.986  17.212  1.1173  2.8361 -1.3926
 5319SOL     OW27589   4.389   0.184   1.264  0.5686 -0.0190  0.4069
 5319SOL    HW127590   4.359   0.241   1.335 -1.0888  0.7596 -0.9170
 5319SOL    HW227591   4.314   0.169   1.206  0.2490  0.6925  0.6331
 5320SOL     OW27592   3.169   3.972   2.852  0.0618  0.1061  0.6068
 5320SOL    HW127593   3.113   3.897   2.872  2.2007 -1.6255  0.1312
 5320SOL    HW227594   3.150   3.975   2.758  1.9685 -1.9005  0.1626
 5321SOL     OW27595   1.968   0.585   6.756  0.0265  0.2600 -0.0362
 5321SOL    HW127596   2.050   0.613   6.798  0.0842 -1.5900  1.0612
 5321SOL    HW227597   1.981   0.622   6.668  1.6263 -0.0454  0.0579
 5322SOL     OW27598   4.724   4.282   5.026 -0.0809 -0.7927 -0.0330
 5322SOL    HW127599   0.060   4.259   5.080  0.8135 -0.1620 -0.9992
 5322SOL    HW227600   4.675   4.346   5.077  2.2593  0.8327  0.1529
 5323SOL     OW27601   1.217   3.784   1.848  0.3919 -0.0762 -0.8330
 5323SOL    HW127602   1.171   3.700   1.856  1.6826 -0.6294  0.7292
 5323SOL    HW227603   1.226   3.792   1.753  1.0904  0.0152 -0.7578
 5324SOL     OW27604   1.837   3.577   6.286  0.1142  0.1531  0.1584
 5324SOL    HW127605   1.811   3.571   6.378 -2.6706  0.0661 -0.6511
 5324SOL    HW227606   1.752   3.573   6.242  0.3149  2.0253 -0.3878
 5325SOL     OW27607   4.077   0.182   6.515  0.7176 -0.2173 -0.6667
 5325SOL    HW127608   4.106   0.092   6.498  2.4775  0.6811 -2.3152
 5325SOL    HW227609   4.148   0.229   6.472  0.0177  2.0034  0.6054
 5326SOL     OW27610   0.382   0.160   8.029 -0.1795 -0.2800 -0.0728
 5326SOL    HW127611   0.289   0.161   8.005 -0.2495 -0.9055  0.1770
 5326SOL    HW227612   0.389   0.251   8.057 -0.0429 -0.2285 -0.2788
 5327SOL     OW27613   2.504   2.122   7.179  0.4080  0.3122  0.1762
 5327SOL    HW127614   2.415   2.088   7.194 -0.1245  1.4358 -0.4209
 5327SOL    HW227615   2.538   2.137   7.268  1.3858 -0.2615 -0.1045
 5328SOL     OW27616   1.210   2.807   0.620  0.1345  0.7757 -0.0947
 5328SOL    HW127617   1.257   2.772   0.696  1.2155  2.1637 -0.1119
 5328SOL    HW227618   1.123   2.772   0.637 -0.7791  2.4450 -1.3111
 5329SOL     OW27619   0.729   2.237  13.975  0.0320 -0.0513  0.7598
 5329SOL    HW127620   0.685   2.305  14.026  1.1036 -0.3972  2.1563
 5329SOL    HW227621   0.822   2.260  13.973 -0.0425  0.1868  0.1635
 5330SOL     OW27622   3.652   1.237   8.312  0.0086  0.5045  0.0698
 5330SOL    HW127623   3.577   1.287   8.279  0.8511  1.2362 -0.7632
 5330SOL    HW227624   3.735   1.284   8.298  0.9491 -1.2353 -0.1388
 5331SOL     OW27625   4.365   4.156   4.880  0.3686 -0.0575 -0.1591
 5331SOL    HW127626   4.391   4.179   4.970  1.0467  1.1249 -0.6628
 5331SOL    HW227627   4.330   4.237   4.843 -1.5073 -0.4316  0.7725
 5332SOL     OW27628   1.354   1.801  13.740 -1.1457 -0.0989  0.2028
 5332SOL    HW127629   1.368   1.716  13.699  1.5144  0.7494 -0.6883
 5332SOL    HW227630   1.446   1.827  13.749 -1.1231 -0.1238  0.0443
 5333SOL     OW27631   4.421   4.422   2.286  0.2640  0.5465 -0.5016
 5333SOL    HW127632   4.466   4.338   2.302 -0.5415  0.3408  0.6834
 5333SOL    HW227633   4.353   4.400   2.223 -0.9253 -0.2922  1.0604
 5334SOL     OW27634   4.201   3.933   7.469  0.3115 -0.5470 -0.2685
 5334SOL    HW127635   4.191   3.942   7.564  0.0816  1.8549 -0.5100
 5334SOL    HW227636   4.145   3.993   7.420 -1.0832 -0.8919  0.8998
 5335SOL     OW27637   3.382   2.155   5.834 -0.0693 -0.4318 -0.6986
 5335SOL    HW127638   3.410   2.064   5.846  0.7333 -0.0757  0.1533
 5335SOL    HW227639   3.423   2.180   5.751  0.5223 -0.5763 -0.4555
 5336SOL     OW27640   0.135   1.047   9.178  0.2734 -0.4173 -0.2549
 5336SOL    HW127641   0.227   1.023   9.186  0.5667  0.6941 -0.2869
 5336SOL    HW227642   0.134   1.128   9.229  0.0463 -0.3969 -0.2929
 5337SOL     OW27643   4.649   1.821   4.267 -0.4090  0.6236 -0.3858
 5337SOL    HW127644   4.619   1.906   4.297  0.7483  1.5823 -1.9005
 5337SOL    HW227645   4.565   1.789   4.234 -0.2249  0.8729 -1.0985
 5338SOL     OW27646   2.021   1.014  11.153  0.4920  0.7706  0.3525
 5338SOL    HW127647   2.043   0.938  11.207 -1.1876 -0.5285 -0.7870
 5338SOL    HW227648   2.073   0.993  11.075 -0.4655  0.3925 -0.1926
 5339SOL     OW27649   0.246   2.753   7.826  0.0726 -0.0037  0.0749
 5339SOL    HW127650   0.210   2.792   7.746 -2.3800 -0.6917  0.8371
 5339SOL    HW227651   0.177   2.779   7.887  0.8126 -1.7848  1.6525
 5340SOL     OW27652   1.179   0.710   8.785 -0.1949  0.1180 -0.3757
 5340SOL    HW127653   1.227   0.657   8.849 -0.1438 -0.1320 -0.6186
 5340SOL    HW227654   1.101   0.657   8.767  0.4996 -1.4504  1.2737
 5341SOL     OW27655   4.167   0.337   1.446 -0.1805 -0.2161  0.5053
 5341SOL    HW127656   4.077   0.361   1.422  1.4168  2.4248 -2.8620
 5341SOL    HW227657   4.191   0.418   1.491 -3.5624  1.0194  0.1385
 5342SOL     OW27658   2.959   3.112  12.580  0.2384 -0.2721 -0.0993
 5342SOL    HW127659   2.936   3.181  12.518  1.8661 -0.3111 -0.7255
 5342SOL    HW227660   2.883   3.126  12.636  0.7765 -0.6219  0.7059
 5343SOL     OW27661   0.263   0.140   3.470  0.9691 -0.1908 -0.0878
 5343SOL    HW127662   0.338   0.082   3.482  0.0902 -1.1783  0.6963
 5343SOL    HW227663   0.284   0.204   3.538 -1.9521  0.9454 -0.2240
 5344SOL     OW27664   1.015   1.038   7.423  0.2893 -0.3725  0.0204
 5344SOL    HW127665   1.018   1.130   7.448  1.5530 -0.6188  0.7583
 5344SOL    HW227666   0.929   1.035   7.380  0.9256 -0.5329 -1.2650
 5345SOL     OW27667   4.012   2.388  17.478  0.2392  0.3922 -0.2065
 5345SOL    HW127668   3.988   2.329  17.406 -1.4708  0.0298  0.6503
 5345SOL    HW227669   3.966   2.467  17.450  0.2071  0.4957  0.1305
 5346SOL     OW27670   3.996   2.830  16.297  0.4478  0.3766  0.0481
 5346SOL    HW127671   4.063   2.764  16.314  1.1621  1.0001 -0.3600
 5346SOL    HW227672   4.045   2.903  16.336 -0.4592  0.0192  1.8549
 5347SOL     OW27673   0.765   1.104   3.935 -0.5945 -0.0316 -0.2246
 5347SOL    HW127674   0.808   1.108   4.021  0.0759 -0.1989 -0.5594
 5347SOL    HW227675   0.813   1.169   3.883  0.4902 -1.4163 -0.9444
 5348SOL     OW27676   1.729   2.226   7.962 -0.2693 -0.5344 -0.5664
 5348SOL    HW127677   1.652   2.196   7.915 -0.6721 -0.2017 -0.1221
 5348SOL    HW227678   1.703   2.207   8.052  0.4655  0.9384 -0.0352
 5349SOL     OW27679   3.697   0.629   9.062  0.2529  0.2915  0.4409
 5349SOL    HW127680   3.745   0.638   8.979 -1.0232 -0.5638 -0.3868
 5349SOL    HW227681   3.716   0.714   9.102 -1.4925  1.0101 -0.2308
 5350SOL     OW27682   2.411   2.264  15.406 -0.0959 -0.4444  0.1485
 5350SOL    HW127683   2.469   2.189  15.410 -0.7506 -0.9108  0.8754
 5350SOL    HW227684   2.376   2.227  15.324  1.0261  1.4894 -1.2192
 5351SOL     OW27685   1.088   0.976   5.848 -0.9124  0.1568 -0.5309
 5351SOL    HW127686   1.015   1.039   5.841  0.0316  1.1027 -1.9593
 5351SOL    HW227687   1.166   1.032   5.853 -0.4792 -0.6489  1.9101
 5352SOL     OW27688   2.557   4.061  17.045 -0.0645  0.0809 -0.3184
 5352SOL    HW127689   2.472   4.025  17.071 -0.4955  0.0495 -1.7563
 5352SOL    HW227690   2.620   4.010  17.095 -1.8924 -1.4817  0.4147
 5353SOL     OW27691   1.809   3.099   6.994  0.2801 -0.1112 -0.4058
 5353SOL    HW127692   1.903   3.085   6.985  0.1629 -1.9591  1.2963
 5353SOL    HW227693   1.778   3.039   6.926  2.3456  0.6824 -2.0162
 5354SOL     OW27694   2.562   1.873   3.111  0.5664  0.2778 -0.0441
 5354SOL    HW127695   2.612   1.875   3.193  0.4384 -1.2529  0.0650
 5354SOL    HW227696   2.628   1.898   3.046  0.0418 -1.4179 -1.2298
 5355SOL     OW27697   0.246   1.597  14.522  0.3418 -0.3186 -0.3398
 5355SOL    HW127698   0.209   1.642  14.446  2.1242 -0.1768 -1.1367
 5355SOL    HW227699   0.332   1.563  14.498 -0.6023 -1.2200 -2.4321
 5356SOL     OW27700   3.097   4.496   8.437  0.5304  0.6730 -0.1755
 5356SOL    HW127701   3.092   4.401   8.441  0.2637  0.9282  4.9809
 5356SOL    HW227702   3.060   4.515   8.351 -0.1805 -0.1466 -0.0526
 5357SOL     OW27703   3.715   2.936   8.321  0.1417  0.2713  0.4482
 5357SOL    HW127704   3.794   2.986   8.343  0.6513 -1.2354  2.0944
 5357SOL    HW227705   3.742   2.851   8.356  0.6481  0.0765 -0.4224
 5358SOL     OW27706   3.978   4.170   8.471  0.1509 -0.0372 -0.3560
 5358SOL    HW127707   4.018   4.151   8.555 -1.0223 -1.1903 -0.0461
 5358SOL    HW227708   3.967   4.264   8.483  1.5596  0.3475 -2.1642
 5359SOL     OW27709   0.487   4.518   4.412 -0.1272  0.4698 -0.1745
 5359SOL    HW127710   0.538   4.448   4.371 -1.1106 -0.8535  0.8671
 5359SOL    HW227711   0.548   4.591   4.424  0.0328  0.2212  0.5721
 5360SOL     OW27712   1.402   2.722   2.149  0.4841  0.1958 -0.5181
 5360SOL    HW127713   1.483   2.683   2.181  0.2492  0.3681  0.2878
 5360SOL    HW227714   1.423   2.814   2.128 -0.0089  0.5031  0.3274
 5361SOL     OW27715   1.137   0.977   8.724  0.3639  0.3823 -0.3992
 5361SOL    HW127716   1.188   0.978   8.643 -0.5679  0.7882 -0.9956
 5361SOL    HW227717   1.125   0.884   8.744  3.1290  0.3200  0.8873
 5362SOL     OW27718   4.543   3.446   1.119  0.1655 -0.0830  0.3832
 5362SOL    HW127719   4.594   3.383   1.170 -0.1258  0.4581  1.3479
 5362SOL    HW227720   4.464   3.448   1.173  0.1406  0.6666  0.3185
 5363SOL     OW27721   3.306   4.739   9.570 -0.5853  0.7333 -0.9559
 5363SOL    HW127722   3.220   0.016   9.609 -0.8082 -1.1400 -0.6708
 5363SOL    HW227723   3.310   0.065   9.501  2.3754  1.5387 -0.0353
 5364SOL     OW27724   1.208   4.644   2.492  0.1067 -0.4217 -0.5178
 5364SOL    HW127725   1.253   4.719   2.453 -0.5161  0.3930  0.3324
 5364SOL    HW227726   1.275   4.576   2.488 -0.8672 -1.4419  0.3190
 5365SOL     OW27727   2.785   2.950   2.708  0.3599  0.5447  0.3938
 5365SOL    HW127728   2.697   2.961   2.744  0.4711  2.0156  0.2022
 5365SOL    HW227729   2.782   2.996   2.624 -0.2471  1.4674  0.9236
 5366SOL     OW27730   3.554   0.999   6.738  0.6212  0.3369  0.2422
 5366SOL    HW127731   3.527   0.907   6.732 -0.7468  0.8294 -1.1331
 5366SOL    HW227732   3.586   1.022   6.651  1.7648  0.3375  0.6571
 5367SOL     OW27733   2.307   0.187  11.879 -0.1675  0.2715 -0.0394
 5367SOL    HW127734   2.341   0.147  11.799 -0.9458 -1.0994  0.3292
 5367SOL    HW227735   2.384   0.234  11.912 -0.8084  1.4763 -0.2580
 5368SOL     OW27736   4.455   2.578  12.931 -0.4916 -0.0428 -0.2983
 5368SOL    HW127737   4.411   2.663  12.931  1.0059  0.7335  0.4855
 5368SOL    HW227738   4.434   2.565  13.023 -4.4223  2.0189 -0.8968
 5369SOL     OW27739   2.589   0.152   6.832  0.7819 -0.3932 -0.7721
 5369SOL    HW127740   2.673   0.169   6.791  0.1054  0.9424 -1.6051
 5369SOL    HW227741   2.564   0.244   6.835 -0.5934 -0.6828 -2.8638
 5370SOL     OW27742   3.174   2.016   6.469  0.3381 -0.2068  0.2213
 5370SOL    HW127743   3.133   1.972   6.394 -1.1609  1.2742  0.1660
 5370SOL    HW227744   3.186   2.102   6.429 -2.3342  0.2562  0.4581
 5371SOL     OW27745   1.778   0.389  11.270  0.1626  0.3174  0.0293
 5371SOL    HW127746   1.846   0.421  11.211  2.6005 -3.3345  0.8520
 5371SOL    HW227747   1.808   0.298  11.264  0.1119  0.3136 -0.1475
 5372SOL     OW27748   2.414   4.267   3.604  0.2940  0.4726  0.1739
 5372SOL    HW127749   2.330   4.273   3.559  0.3073 -0.3154  0.0371
 5372SOL    HW227750   2.459   4.202   3.550 -2.3926  0.1912 -1.7217
 5373SOL     OW27751   3.314   3.549   5.968  0.5382 -0.1788 -0.1265
 5373SOL    HW127752   3.334   3.497   6.046 -1.9714  0.4759  0.9643
 5373SOL    HW227753   3.248   3.492   5.929 -0.1833 -1.1472  2.5163
 5374SOL     OW27754   0.312   3.023   5.086  0.4340 -0.1619  0.0001
 5374SOL    HW127755   0.327   3.117   5.091 -2.2412  0.2823  0.0060
 5374SOL    HW227756   0.307   3.001   5.179 -0.4984 -1.3479 -0.3238
 5375SOL     OW27757   2.528   4.273   7.790  0.5871 -0.3619  0.2227
 5375SOL    HW127758   2.459   4.325   7.748 -0.4718 -3.6419 -2.0710
 5375SOL    HW227759   2.603   4.331   7.779 -0.0795  0.3798 -0.3995
 5376SOL     OW27760   1.475   1.144   3.782  0.3791  0.3989  0.2077
 5376SOL    HW127761   1.423   1.208   3.733  0.8034  1.8484  1.6443
 5376SOL    HW227762   1.553   1.153   3.726 -0.1883  0.9184 -0.5038
 5377SOL     OW27763   3.368   0.376  15.593 -0.1243  0.1879 -0.4633
 5377SOL    HW127764   3.404   0.453  15.549  0.0478 -0.2907 -1.1558
 5377SOL    HW227765   3.399   0.405  15.679  1.4199 -0.9676 -0.6373
 5378SOL     OW27766   4.377   3.916  15.573 -1.0558  0.2037  0.2346
 5378SOL    HW127767   4.312   3.935  15.641 -1.4734 -1.1462  0.2180
 5378SOL    HW227768   4.392   3.821  15.579  0.2819  0.4516  0.9091
 5379SOL     OW27769   2.232   1.565  11.174 -0.0279  0.5705 -0.4983
 5379SOL    HW127770   2.235   1.519  11.258 -1.9897  0.8308 -0.2908
 5379SOL    HW227771   2.261   1.489  11.124 -1.2627  0.9471 -1.7747
 5380SOL     OW27772   3.391   4.041   4.547  0.8675  0.2648 -0.4199
 5380SOL    HW127773   3.404   4.079   4.460 -0.9863  2.2990  0.1646
 5380SOL    HW227774   3.475   4.007   4.578  1.1761  0.8251 -0.6391
 5381SOL     OW27775   1.375   4.548   4.134 -0.5369  0.6942 -0.2144
 5381SOL    HW127776   1.374   4.468   4.186  2.0541  0.4848 -0.5086
 5381SOL    HW227777   1.339   4.601   4.205  0.8565 -0.1506  1.1041
 5382SOL     OW27778   4.150   1.831   3.822  0.3078 -0.1368 -0.2874
 5382SOL    HW127779   4.136   1.737   3.825 -0.0949 -0.0861 -0.6082
 5382SOL    HW227780   4.187   1.830   3.734 -1.1111  0.8961 -0.9027
 5383SOL     OW27781   3.058   4.078  15.742  0.4127  0.1906  0.1596
 5383SOL    HW127782   3.030   4.163  15.777 -1.5713 -0.8038  1.0300
 5383SOL    HW227783   2.971   4.038  15.742  0.6607 -0.3455  1.1189
 5384SOL     OW27784   3.719   1.583   4.028  0.1407  0.1837 -0.3688
 5384SOL    HW127785   3.663   1.654   4.060  0.6372  0.2381  0.4023
 5384SOL    HW227786   3.775   1.632   3.968  3.2067  1.1998  3.2921
 5385SOL     OW27787   4.115   3.107   5.891 -0.0659  0.3271  0.1735
 5385SOL    HW127788   4.079   3.063   5.813  0.8851 -0.4843  0.1837
 5385SOL    HW227789   4.043   3.098   5.953 -0.9756 -0.8289 -1.0553
 5386SOL     OW27790   4.037   4.225  13.468 -0.4187  0.9173 -0.0031
 5386SOL    HW127791   3.950   4.263  13.458 -1.4977 -0.8988  2.4932
 5386SOL    HW227792   4.014   4.133  13.462  0.0584  0.8332 -0.5646
 5387SOL     OW27793   0.273   1.824   5.179  0.1068 -0.3557 -0.0515
 5387SOL    HW127794   0.244   1.738   5.149  0.0578  0.0908 -1.2997
 5387SOL    HW227795   0.278   1.881   5.102 -1.0362  0.5286  0.5174
 5388SOL     OW27796   1.737   4.721   6.857 -0.0771  0.1766 -0.1068
 5388SOL    HW127797   1.643   4.723   6.839 -0.1511 -1.2629  0.1398
 5388SOL    HW227798   1.749   4.655   6.926  0.8273 -0.1847 -0.6051
 5389SOL     OW27799   2.046   1.903   5.540 -0.7204 -0.1891  0.1564
 5389SOL    HW127800   2.061   1.810   5.552  1.6031  0.3283  1.2292
 5389SOL    HW227801   2.048   1.912   5.445  0.8143 -0.1251  0.2019
 5390SOL     OW27802   3.814   0.983  16.722  0.0074  0.6610 -0.4838
 5390SOL    HW127803   3.768   0.906  16.687 -1.2357  1.0254  0.3324
 5390SOL    HW227804   3.755   1.059  16.723  0.5218  1.0563  0.2019
 5391SOL     OW27805   3.854   4.481   9.590 -0.2257  0.0326 -0.6130
 5391SOL    HW127806   3.765   4.447   9.583 -0.4790  0.4463  0.6239
 5391SOL    HW227807   3.891   4.417   9.650 -1.7252 -0.5839 -0.3553
 5392SOL     OW27808   2.928   4.674   6.286  0.4485  0.8387 -0.4909
 5392SOL    HW127809   2.934   4.586   6.248  1.8745  0.0843  1.4935
 5392SOL    HW227810   2.841   4.668   6.327  1.3384 -2.4633  0.9034
 5393SOL     OW27811   2.250   2.660   2.906  0.1805 -0.6526 -0.0407
 5393SOL    HW127812   2.159   2.639   2.924 -0.3054  2.4265  0.9114
 5393SOL    HW227813   2.251   2.735   2.846  2.3156 -0.2598  0.4609
 5394SOL     OW27814   4.426   1.418   7.709 -0.5086  0.0371  0.3045
 5394SOL    HW127815   4.372   1.497   7.718 -0.0492  0.4393 -0.4846
 5394SOL    HW227816   4.360   1.350   7.697 -0.5920  0.3856 -1.2093
 5395SOL     OW27817   1.684   4.029   3.454  0.6661  0.0123 -0.0101
 5395SOL    HW127818   1.618   3.982   3.505  1.5212  0.1859  1.2790
 5395SOL    HW227819   1.661   3.997   3.367 -0.2721  0.5313  0.0419
 5396SOL     OW27820   0.627   2.510   2.993  0.5436  0.3037  0.1740
 5396SOL    HW127821   0.629   2.423   3.033 -0.2264 -0.8177 -2.2228
 5396SOL    HW227822   0.549   2.487   2.942  0.2679  0.3928  0.5541
 5397SOL     OW27823   3.655   1.924   5.421  0.6822  0.0598  0.0616
 5397SOL    HW127824   3.729   1.977   5.393  1.5741 -1.3386 -0.2442
 5397SOL    HW227825   3.593   1.996   5.433  0.7901  0.4168 -1.5815
 5398SOL     OW27826   0.815   0.143   3.005  0.0753  0.2913  0.0067
 5398SOL    HW127827   0.867   0.082   3.059 -0.5166 -1.0714 -0.9575
 5398SOL    HW227828   0.742   0.158   3.066  0.8281  2.1387  0.4552
 5399SOL     OW27829   1.744   3.309   1.412 -0.1493  0.7526  0.6347
 5399SOL    HW127830   1.775   3.395   1.439  0.0884  1.2186 -1.1405
 5399SOL    HW227831   1.688   3.335   1.339  0.5631 -2.4462 -1.0290
 5400SOL     OW27832   1.906   0.888   6.266 -0.4096  0.3448 -0.1061
 5400SOL    HW127833   1.851   0.884   6.344 -2.0547  1.6743 -1.1777
 5400SOL    HW227834   1.850   0.852   6.197 -0.5838  0.3464  0.0352
 5401SOL     OW27835   0.704   0.292  13.430  0.0597 -0.3553 -0.3669
 5401SOL    HW127836   0.659   0.208  13.424 -1.5681  0.4119  1.0946
 5401SOL    HW227837   0.760   0.264  13.502 -1.4922  0.2750  1.0961
 5402SOL     OW27838   4.045   2.485   7.389 -0.1018 -0.0734 -0.4581
 5402SOL    HW127839   4.129   2.448   7.417  0.7721 -0.2173 -3.3189
 5402SOL    HW227840   4.061   2.505   7.297  0.8626 -0.4663 -0.3746
 5403SOL     OW27841   2.415   1.047   3.857  0.1250  0.2614 -0.1445
 5403SOL    HW127842   2.497   0.998   3.866  0.2389  0.7758  1.6825
 5403SOL    HW227843   2.447   1.128   3.818 -1.3292  0.7768 -0.2524
 5404SOL     OW27844   3.901   1.320   8.240  0.2530  0.6815 -0.2917
 5404SOL    HW127845   3.937   1.380   8.175 -1.3874  0.2868 -1.5699
 5404SOL    HW227846   3.946   1.351   8.319  1.4661  0.7602 -1.0316
 5405SOL     OW27847   2.414   0.272  14.445  0.1433 -0.3404  0.1506
 5405SOL    HW127848   2.338   0.314  14.485  0.1341 -1.5018  1.3289
 5405SOL    HW227849   2.378   0.290  14.358  1.4629  0.3875 -0.2422
 5406SOL     OW27850   0.644   1.159   5.998 -0.1231  0.5274 -0.4779
 5406SOL    HW127851   0.597   1.132   6.077 -1.3995 -0.6961 -1.6773
 5406SOL    HW227852   0.582   1.222   5.960 -1.4914  0.0683  0.9962
 5407SOL     OW27853   3.204   1.207  13.373  0.1155  0.6223  0.1549
 5407SOL    HW127854   3.295   1.237  13.382  1.0577 -1.7596 -1.3623
 5407SOL    HW227855   3.203   1.166  13.459 -0.6084  0.0563 -0.1261
 5408SOL     OW27856   1.645   1.270  12.335 -0.5080 -0.2115  0.0348
 5408SOL    HW127857   1.683   1.338  12.390  0.1726 -0.2483 -0.4000
 5408SOL    HW227858   1.552   1.293  12.344 -0.0847  1.3392  0.3848
 5409SOL     OW27859   4.539   2.219  16.323  0.1912  0.3235 -0.3531
 5409SOL    HW127860   4.512   2.309  16.343  1.2675  0.5799 -0.0424
 5409SOL    HW227861   4.584   2.237  16.240 -1.9271  1.3499 -1.2899
 5410SOL     OW27862   2.114   3.726   3.388 -0.0320 -0.0750  0.1970
 5410SOL    HW127863   2.051   3.783   3.431 -0.9513  0.6307 -2.1060
 5410SOL    HW227864   2.181   3.788   3.357 -0.5845  1.3386  1.8683
 5411SOL     OW27865   1.822   3.368   3.128 -0.5760  0.6830  0.0414
 5411SOL    HW127866   1.862   3.447   3.091 -0.6636  1.0721  0.7679
 5411SOL    HW227867   1.831   3.386   3.221  2.5450  0.3963 -0.2356
 5412SOL     OW27868   1.763   2.002  10.628  0.0904 -0.0146  0.3477
 5412SOL    HW127869   1.787   2.094  10.633  0.2818  0.0136 -1.0478
 5412SOL    HW227870   1.671   2.010  10.655 -0.2691 -0.7452 -0.6493
 5413SOL     OW27871   1.603   4.354   2.501  0.0288 -0.6789 -0.1524
 5413SOL    HW127872   1.630   4.272   2.543 -0.4336  0.6738  2.7495
 5413SOL    HW227873   1.682   4.402   2.527  0.2341 -1.1567  0.1067
 5414SOL     OW27874   3.147   3.337  17.230  0.4507  0.4889 -0.4127
 5414SOL    HW127875   3.213   3.295  17.176 -0.2990  1.8996 -2.4247
 5414SOL    HW227876   3.111   3.268  17.287  0.6595 -0.5051 -1.4937
 5415SOL     OW27877   0.347   3.636   3.782  0.5695  0.3553 -0.2678
 5415SOL    HW127878   0.393   3.553   3.771 -0.3125 -0.2897  0.9523
 5415SOL    HW227879   0.371   3.663   3.870  0.2037  0.1129 -0.0920
 5416SOL     OW27880   2.206   2.282   7.296 -0.1260  0.0252 -0.1474
 5416SOL    HW127881   2.226   2.267   7.204 -1.0760 -0.0187 -0.3435
 5416SOL    HW227882   2.163   2.368   7.296 -1.6309 -0.7254  1.8694
 5417SOL     OW27883   1.157   2.044   6.709  0.2565 -0.1509 -0.3951
 5417SOL    HW127884   1.074   2.000   6.690 -1.0904  2.2180  0.0162
 5417SOL    HW227885   1.196   1.970   6.755  1.5752  0.9733  0.2911
 5418SOL     OW27886   4.035   0.654   4.914 -0.4437  0.5090 -0.4195
 5418SOL    HW127887   4.084   0.726   4.953 -2.0805  0.9265  0.8502
 5418SOL    HW227888   4.075   0.589   4.973 -1.3473 -0.9273 -1.3825
 5419SOL     OW27889   0.506   2.052   5.530 -0.4776 -1.0859  0.0793
 5419SOL    HW127890   0.467   2.108   5.597  1.0480 -0.7935  0.7206
 5419SOL    HW227891   0.521   2.105   5.452 -0.7779 -0.9058  0.1429
 5420SOL     OW27892   4.007   0.192   9.223 -0.1415 -0.4921  0.0259
 5420SOL    HW127893   3.967   0.105   9.218  0.4209 -0.7821  0.5514
 5420SOL    HW227894   3.960   0.245   9.159  0.3514 -1.9124 -1.4959
 5421SOL     OW27895   4.013   4.583   5.928 -0.0875 -0.7195  0.0933
 5421SOL    HW127896   3.964   4.512   5.969 -0.8457 -0.4233 -0.2985
 5421SOL    HW227897   3.970   4.659   5.967  1.1563 -0.4270  0.8822
 5422SOL     OW27898   0.189   0.548   6.966  0.3902  0.5134  0.0277
 5422SOL    HW127899   0.219   0.634   6.997  0.3413  0.3444  0.5309
 5422SOL    HW227900   0.241   0.504   7.033 -2.3160 -0.7746  1.2633
 5423SOL     OW27901   1.220   3.063   7.630  0.1773 -0.5829 -0.6165
 5423SOL    HW127902   1.261   3.008   7.564  1.1826  0.7823 -1.1282
 5423SOL    HW227903   1.237   3.012   7.710 -0.6798  1.2604  0.7410
 5424SOL     OW27904   4.332   4.487   7.842 -0.1955 -0.7879  0.2503
 5424SOL    HW127905   4.326   4.575   7.880 -0.0618  0.0511 -1.6703
 5424SOL    HW227906   4.245   4.454   7.867  0.1892 -3.0937 -1.5180
 5425SOL     OW27907   0.092   4.325   1.530  0.5319 -0.2915 -0.3191
 5425SOL    HW127908   0.087   4.318   1.625 -0.6065 -3.0397 -0.5913
 5425SOL    HW227909   0.092   4.421   1.529 -4.4753 -0.2510  3.7521
 5426SOL     OW27910   4.233   1.939  12.183 -0.2097 -0.0902 -0.2148
 5426SOL    HW127911   4.175   1.967  12.253 -0.8982 -2.1544  0.0166
 5426SOL    HW227912   4.302   1.899  12.236 -0.1454  1.1738  0.6603
 5427SOL     OW27913   3.836   4.332   4.554 -0.7436  0.1071  0.3821
 5427SOL    HW127914   3.911   4.276   4.573  0.1277  1.0526 -0.2786
 5427SOL    HW227915   3.779   4.292   4.489  0.4820 -1.2156  0.1388
 5428SOL     OW27916   3.675   1.963   1.701 -0.0586  0.2550 -0.1465
 5428SOL    HW127917   3.740   2.031   1.686 -1.3103  1.4871 -0.0931
 5428SOL    HW227918   3.628   1.989   1.781  0.6152 -3.0120  1.3075
 5429SOL     OW27919   0.217   4.051   5.247 -0.0986 -0.4092  0.2347
 5429SOL    HW127920   0.279   4.106   5.200 -0.4465  0.3042  0.6245
 5429SOL    HW227921   0.208   4.091   5.333 -2.8707 -1.0711  0.2600
 5430SOL     OW27922   4.219   0.905   9.969 -0.0948  0.0727  0.5739
 5430SOL    HW127923   4.196   0.966  10.039  4.4570  1.7520  0.5836
 5430SOL    HW227924   4.235   0.970   9.901  1.2272  0.1144  0.9208
 5431SOL     OW27925   2.731   2.381  14.571 -0.1052 -0.4550  0.3766
 5431SOL    HW127926   2.762   2.350  14.486 -1.7306 -1.6539  0.2299
 5431SOL    HW227927   2.812   2.366  14.621  0.9369  2.2357 -0.5105
 5432SOL     OW27928   1.968   0.580  11.512 -0.6787 -0.1476  0.6708
 5432SOL    HW127929   2.023   0.518  11.464 -1.9236  0.0527 -1.0231
 5432SOL    HW227930   2.031   0.639  11.553 -2.3173  0.2101  2.6925
 5433SOL     OW27931   1.294   2.638  14.968  0.3203 -0.1235  0.3668
 5433SOL    HW127932   1.222   2.585  15.002  0.0165 -0.0510 -0.1655
 5433SOL    HW227933   1.261   2.722  15.002  0.6499  1.1731 -2.5320
 5434SOL     OW27934   1.341   2.692   7.462  0.2367  0.3590 -0.1298
 5434SOL    HW127935   1.316   2.617   7.407 -0.1122  0.1567  0.3054
 5434SOL    HW227936   1.380   2.651   7.539 -1.1517  0.5757  0.6825
 5435SOL     OW27937   4.368   2.548   9.127  0.8128  0.1068  0.4778
 5435SOL    HW127938   4.401   2.582   9.044 -1.5949  0.3202 -0.3849
 5435SOL    HW227939   4.359   2.454   9.112  1.4237  0.0239  0.6213
 5436SOL     OW27940   2.996   1.336  14.362 -0.2859 -0.0816 -0.3947
 5436SOL    HW127941   2.943   1.385  14.299 -1.5892 -0.1938  0.6318
 5436SOL    HW227942   3.027   1.259  14.313 -1.6994 -1.9558  1.6665
 5437SOL     OW27943   1.465   3.416  17.649 -0.4532  0.1014  0.0292
 5437SOL    HW127944   1.401   3.346  17.659  1.0936 -1.2929  0.1432
 5437SOL    HW227945   1.416   3.483  17.601 -1.4194 -0.3167  0.4349
 5438SOL     OW27946   2.445   1.260   1.028 -0.1395 -0.4822  0.8049
 5438SOL    HW127947   2.385   1.250   1.102 -2.1123 -0.3384 -0.7596
 5438SOL    HW227948   2.384   1.289   0.961 -2.2206 -0.6412  2.6240
 5439SOL     OW27949   3.989   1.880   6.380  0.2680  0.4960 -0.3236
 5439SOL    HW127950   3.947   1.847   6.460  0.5962  1.8405  0.4062
 5439SOL    HW227951   4.077   1.870   6.417 -0.5525  1.1557  1.8472
 5440SOL     OW27952   1.782   3.589   8.662  0.2019 -0.0367 -0.0879
 5440SOL    HW127953   1.856   3.533   8.686  0.2143 -0.2252 -0.5792
 5440SOL    HW227954   1.827   3.669   8.632  0.5963  0.4949  1.8766
 5441SOL     OW27955   0.372   4.486  17.089  0.0765 -0.1266 -0.0062
 5441SOL    HW127956   0.404   4.504  17.001  0.3612  0.1851  0.1607
 5441SOL    HW227957   0.432   4.542  17.140  0.1508  1.7006 -2.0928
 5442SOL     OW27958   1.071   2.342   8.984 -0.1503  0.4041 -0.1317
 5442SOL    HW127959   0.981   2.353   9.015  0.6358  0.5547  2.0464
 5442SOL    HW227960   1.097   2.274   9.045 -2.1700  1.6949  2.1584
 5443SOL     OW27961   0.450   0.477  11.788  0.0838 -0.4579 -0.9467
 5443SOL    HW127962   0.369   0.509  11.748 -0.8232  0.0364  1.2875
 5443SOL    HW227963   0.504   0.556  11.784 -1.6941  0.7900 -0.3851
 5444SOL     OW27964   2.040   1.560   2.769 -0.0482  0.5924  0.2673
 5444SOL    HW127965   2.058   1.649   2.799 -0.3745  0.5645  0.5339
 5444SOL    HW227966   2.025   1.573   2.675  1.0099  2.6599  0.3878
 5445SOL     OW27967   1.325   2.748  11.749  0.4626 -0.0473  0.4269
 5445SOL    HW127968   1.285   2.674  11.796  0.1359 -0.4216 -0.4481
 5445SOL    HW227969   1.276   2.746  11.667  0.3928 -1.5026  0.5008
 5446SOL     OW27970   3.206   3.715   1.091  0.2436 -0.3618  0.4645
 5446SOL    HW127971   3.219   3.796   1.041  0.7987 -0.4703  0.4306
 5446SOL    HW227972   3.183   3.654   1.022 -0.1548 -0.2519  0.4976
 5447SOL     OW27973   1.140   2.131   2.430 -0.4773  0.2203 -0.6095
 5447SOL    HW127974   1.167   2.223   2.423 -1.3691  0.4373 -1.3241
 5447SOL    HW227975   1.225   2.089   2.438  0.1295  1.3580 -1.0343
 5448SOL     OW27976   3.178   3.930   5.487 -0.3083  0.0213  0.1022
 5448SOL    HW127977   3.161   4.001   5.424  0.0435  0.7444  0.8178
 5448SOL    HW227978   3.273   3.925   5.478 -0.4121 -0.2030 -0.8868
 5449SOL     OW27979   3.691   4.194   9.105 -0.3951  0.1189 -0.7110
 5449SOL    HW127980   3.659   4.192   9.015 -0.5052  1.1660 -0.6888
 5449SOL    HW227981   3.728   4.282   9.113  0.4597 -0.5536  2.7882
 5450SOL     OW27982   0.470   1.584   7.928 -0.3657 -0.6727 -0.0073
 5450SOL    HW127983   0.461   1.504   7.980  1.9502 -0.0314  1.3561
 5450SOL    HW227984   0.412   1.637   7.983  0.3737  0.3003 -0.1887
 5451SOL     OW27985   2.084   1.211  13.104  0.3791  0.0057 -0.0049
 5451SOL    HW127986   2.072   1.258  13.187 -0.3015 -0.3147  0.0801
 5451SOL    HW227987   2.179   1.209  13.093  0.2414  1.2539 -1.4887
 5452SOL     OW27988   4.666   0.246   8.154 -0.9740 -0.7820  0.3169
 5452SOL    HW127989   0.002   0.265   8.211 -1.5207  1.2864  0.3673
 5452SOL    HW227990   4.607   0.319   8.171  0.7397  0.3791  1.2919
 5453SOL     OW27991   0.548   0.295   4.420  0.1595 -0.2575  0.5863
 5453SOL    HW127992   0.577   0.378   4.458 -0.5156  0.0767  0.3717
 5453SOL    HW227993   0.522   0.340   4.340 -1.2652 -1.8920  0.1115
 5454SOL     OW27994   1.534   0.387  13.847  0.3210 -0.2942  0.1323
 5454SOL    HW127995   1.572   0.300  13.845 -1.5171 -1.1085  0.6456
 5454SOL    HW227996   1.441   0.368  13.840 -0.3431  2.6803  0.5601
 5455SOL     OW27997   3.638   1.275  17.639  0.2909 -0.0957 -0.6238
 5455SOL    HW127998   3.600   1.362  17.654 -1.8959 -1.0960 -0.3544
 5455SOL    HW227999   3.599   1.263  17.553 -0.9289  0.0127 -0.0896
 5456SOL     OW28000   3.891   0.548   3.489 -0.3582 -0.0514  0.5669
 5456SOL    HW128001   3.850   0.463   3.473  0.2502 -0.4280  0.9892
 5456SOL    HW228002   3.827   0.613   3.457  1.6363  1.3292 -0.6186
 5457SOL     OW28003   1.656   4.273   6.832 -0.2185 -0.1933 -0.1355
 5457SOL    HW128004   1.645   4.179   6.848  0.4898 -0.0295  1.2720
 5457SOL    HW228005   1.574   4.301   6.792 -0.1732 -0.3369 -0.3327
 5458SOL     OW28006   0.501   0.902   6.329  0.0273 -0.7166  0.2082
 5458SOL    HW128007   0.417   0.947   6.334  0.7301  0.7890 -1.8744
 5458SOL    HW228008   0.501   0.881   6.236 -1.7911 -0.7682  0.2360
 5459SOL     OW28009   3.581   2.942   7.193  0.2014 -0.4564 -0.3698
 5459SOL    HW128010   3.545   2.854   7.200 -0.0237 -0.5585 -3.1336
 5459SOL    HW228011   3.634   2.930   7.114  1.9081 -0.3442  0.7583
 5460SOL     OW28012   2.597   1.394   9.433  0.2263 -0.3926  0.5166
 5460SOL    HW128013   2.657   1.322   9.416  0.2985 -0.4488  1.0184
 5460SOL    HW228014   2.644   1.461   9.382  0.6179 -1.2545 -0.2460
 5461SOL     OW28015   3.010   4.231   7.411  0.9405  0.0886  0.1446
 5461SOL    HW128016   2.926   4.263   7.377  0.1102 -0.8832  1.2879
 5461SOL    HW228017   2.976   4.150   7.449 -0.9815  1.5105  1.4451
 5462SOL     OW28018   3.739   3.727   7.364 -0.0150  0.3496  0.5275
 5462SOL    HW128019   3.826   3.715   7.327  0.7710  1.2451  2.0766
 5462SOL    HW228020   3.698   3.791   7.306  0.9170  0.0146 -0.4860
 5463SOL     OW28021   2.673   4.309  10.793  0.0482  0.3284 -0.0472
 5463SOL    HW128022   2.606   4.277  10.853 -0.2307  2.6037  0.8366
 5463SOL    HW228023   2.707   4.376  10.852 -0.8107  0.9280 -0.2358
 5464SOL     OW28024   0.525   0.749   8.466 -0.3475 -0.0643 -0.4812
 5464SOL    HW128025   0.477   0.785   8.391  0.3661  2.2693  0.1580
 5464SOL    HW228026   0.591   0.698   8.418 -0.1465  0.8931 -1.2293
 5465SOL     OW28027   4.691   2.433   5.912 -0.1349 -0.4130 -0.0396
 5465SOL    HW128028   4.612   2.379   5.920 -0.1885  0.0104  2.5296
 5465SOL    HW228029   4.701   2.469   6.001  1.2227  1.0880 -0.8008
 5466SOL     OW28030   3.625   0.403   5.614 -0.5386  0.1332  0.1008
 5466SOL    HW128031   3.609   0.406   5.709  0.1242  3.3531  0.1102
 5466SOL    HW228032   3.538   0.377   5.584 -0.2495 -1.6311  0.8336
 5467SOL     OW28033   0.177   2.258  11.089 -0.0000  0.3263 -0.4424
 5467SOL    HW128034   0.222   2.179  11.118  2.6538  1.3275 -1.7312
 5467SOL    HW228035   0.109   2.224  11.031 -0.6996 -0.7358  1.0205
 5468SOL     OW28036   2.282   0.531   5.421 -0.3831 -0.7801 -0.2213
 5468SOL    HW128037   2.244   0.456   5.466  0.6872 -1.9095 -1.2020
 5468SOL    HW228038   2.262   0.600   5.485  2.4560  0.1879 -0.3513
 5469SOL     OW28039   1.967   2.116  10.096 -0.4370  0.5317  0.1183
 5469SOL    HW128040   2.049   2.077  10.063  0.0348  1.9352 -0.3797
 5469SOL    HW228041   1.911   2.074  10.030  0.0704  0.0053  0.0158
 5470SOL     OW28042   1.788   0.798   7.901 -0.2771  0.0862 -0.3135
 5470SOL    HW128043   1.743   0.861   7.845 -0.7413  1.5122  1.6429
 5470SOL    HW228044   1.831   0.874   7.942 -0.0357 -0.9826  1.4403
 5471SOL     OW28045   3.489   1.281   0.211 -0.3582  0.0744  0.0978
 5471SOL    HW128046   3.457   1.293   0.121 -0.2497  1.1552  0.2050
 5471SOL    HW228047   3.575   1.320   0.225 -0.3562 -0.1243  0.6190
 5472SOL     OW28048   0.604   4.233   8.556  0.4484 -0.2419  0.0311
 5472SOL    HW128049   0.597   4.145   8.593 -0.5695 -1.2772 -2.6507
 5472SOL    HW228050   0.697   4.241   8.535  0.5055 -0.9532  0.0017
 5473SOL     OW28051   0.876   0.108   3.893 -0.4450 -0.3172  0.0044
 5473SOL    HW128052   0.971   0.108   3.880 -0.5566 -0.3223 -0.7670
 5473SOL    HW228053   0.860   0.202   3.897  0.1494 -0.2648  1.3074
 5474SOL     OW28054   1.370   3.213   2.886  0.4979 -0.7764 -0.4754
 5474SOL    HW128055   1.431   3.266   2.835  1.2780 -0.4128  0.8613
 5474SOL    HW228056   1.423   3.200   2.964 -0.3632 -3.0644 -0.2607
 5475SOL     OW28057   0.581   3.446   8.289  0.1120  0.2060  0.0015
 5475SOL    HW128058   0.571   3.524   8.236 -1.5453  0.0190  0.0357
 5475SOL    HW228059   0.676   3.436   8.281 -0.3274 -3.6292 -0.4516
 5476SOL     OW28060   1.375   0.150  10.077  0.0545  0.0073  0.3838
 5476SOL    HW128061   1.432   0.150  10.000  1.7981 -2.9686  1.6867
 5476SOL    HW228062   1.439   0.143  10.148 -1.4719  0.6843  1.8282
 5477SOL     OW28063   1.038   0.634  14.726  0.4658  0.0921 -0.7038
 5477SOL    HW128064   1.041   0.610  14.633  0.7834 -0.3128 -0.5904
 5477SOL    HW228065   1.005   0.556  14.771  1.0469  1.3507  1.9078
 5478SOL     OW28066   2.342   4.356   4.359 -0.2804 -0.1479  0.6737
 5478SOL    HW128067   2.418   4.394   4.404  0.8540  0.7760 -2.0527
 5478SOL    HW228068   2.278   4.428   4.360  0.8504  0.9024 -2.0886
 5479SOL     OW28069   3.293   0.631   6.603 -0.2138 -0.3697  0.1980
 5479SOL    HW128070   3.288   0.656   6.511  0.7257  2.0745  0.8124
 5479SOL    HW228071   3.331   0.710   6.640  0.5298 -0.8173  0.3785
 5480SOL     OW28072   1.702   1.058  13.556  0.1455 -0.0613  0.2157
 5480SOL    HW128073   1.702   1.152  13.573  2.7720 -0.2300  1.1887
 5480SOL    HW228074   1.716   1.020  13.643 -2.0824 -1.6783 -0.1266
 5481SOL     OW28075   3.576   3.965   6.640  0.5534  0.2354  0.2286
 5481SOL    HW128076   3.569   3.985   6.733  1.3575 -0.5588  0.4608
 5481SOL    HW228077   3.656   4.003   6.603  1.0650 -0.7010  0.3699
 5482SOL     OW28078   2.038   4.456  12.351  0.2318 -0.5700 -0.4404
 5482SOL    HW128079   2.007   4.496  12.432  3.0284  0.9346 -0.1021
 5482SOL    HW228080   2.132   4.453  12.368 -0.1097  3.3449  1.9038
 5483SOL     OW28081   4.668   2.137   5.705  0.7732 -0.8179  0.2935
 5483SOL    HW128082   4.592   2.168   5.755  1.7901 -0.3575  1.5343
 5483SOL    HW228083   4.728   2.107   5.772  1.7676 -1.3559 -0.8455
 5484SOL     OW28084   0.505   0.146   4.632  0.3931 -0.2069  0.6111
 5484SOL    HW128085   0.512   0.177   4.542 -0.3763  1.5116  1.1346
 5484SOL    HW228086   0.592   0.109   4.649  0.8615  0.2231 -0.8449
 5485SOL     OW28087   2.091   1.547  11.746  0.3259 -0.0282 -0.5849
 5485SOL    HW128088   2.140   1.547  11.663  0.0408  1.3935 -0.7555
 5485SOL    HW228089   2.104   1.638  11.771  0.3828  0.0253 -0.8085
 5486SOL     OW28090   2.158   3.975  11.782 -0.6884  0.5650  0.1747
 5486SOL    HW128091   2.232   3.959  11.723 -0.6433  1.3700  0.0201
 5486SOL    HW228092   2.193   4.045  11.837  2.1091  1.2716 -2.5066
 5487SOL     OW28093   4.493   3.067   2.743  0.2162 -0.1857  0.0885
 5487SOL    HW128094   4.579   3.092   2.777  1.6455 -0.8495 -3.0383
 5487SOL    HW228095   4.506   2.972   2.748  2.2897  0.1774  1.7589
 5488SOL     OW28096   3.086   0.434   1.115 -0.1126  0.1869 -0.2668
 5488SOL    HW128097   3.165   0.383   1.130 -0.8175 -0.5559  0.8809
 5488SOL    HW228098   3.080   0.439   1.019  1.2972  3.5451 -0.1844
 5489SOL     OW28099   0.783   1.576   7.015 -0.0310  0.2733  0.0843
 5489SOL    HW128100   0.733   1.648   7.052 -0.6925 -0.6167  0.9068
 5489SOL    HW228101   0.822   1.531   7.090 -2.2681  0.0043  1.0785
 5490SOL     OW28102   2.267   1.912  15.424 -0.1320 -0.2166 -0.5316
 5490SOL    HW128103   2.185   1.940  15.464  0.9531  1.7312  0.3118
 5490SOL    HW228104   2.301   1.840  15.478  2.1379 -0.9967 -3.0016
 5491SOL     OW28105   0.116   2.249   1.119  0.3059 -0.0825  0.3163
 5491SOL    HW128106   0.194   2.254   1.065 -0.2738 -0.0173 -0.5046
 5491SOL    HW228107   0.155   2.215   1.200 -0.2030  0.3248  0.7290
 5492SOL     OW28108   4.216   4.494   6.103 -0.2794 -0.9065 -0.2479
 5492SOL    HW128109   4.148   4.492   6.170  0.5766  1.1405  0.6708
 5492SOL    HW228110   4.162   4.542   6.040  0.1477 -1.3356 -0.9433
 5493SOL     OW28111   3.473   1.159  13.501  0.1758  0.4186 -0.1319
 5493SOL    HW128112   3.534   1.169  13.574 -1.5052  1.6480  1.0816
 5493SOL    HW228113   3.527   1.171  13.422 -0.2987  0.7630 -0.4003
 5494SOL     OW28114   3.262   1.749   1.863  0.0007 -0.0128 -0.3468
 5494SOL    HW128115   3.261   1.654   1.853 -3.8863 -0.1251  0.9952
 5494SOL    HW228116   3.219   1.775   1.781 -2.2994 -0.3070  0.7688
 5495SOL     OW28117   1.949   4.287   2.593 -0.0692 -0.1094  0.1171
 5495SOL    HW128118   1.908   4.366   2.558  3.7313  1.2690 -1.1550
 5495SOL    HW228119   2.039   4.289   2.561 -0.4288  0.9500 -0.8328
 5496SOL     OW28120   3.433   1.125  10.426  0.0317 -0.0123  0.2296
 5496SOL    HW128121   3.434   1.032  10.446  1.1261  0.3370  1.8653
 5496SOL    HW228122   3.486   1.124  10.346  3.0080  0.0576  2.1869
 5497SOL     OW28123   4.403   3.348   2.689  0.3639 -0.0693  0.2262
 5497SOL    HW128124   4.313   3.377   2.706 -0.8495 -2.7885 -1.6642
 5497SOL    HW228125   4.389   3.255   2.671  0.6802 -0.1528  0.4159
 5498SOL     OW28126   0.191   3.166  16.745 -0.4913  0.0468  0.3485
 5498SOL    HW128127   0.161   3.256  16.734  0.2756  0.2672  0.0469
 5498SOL    HW228128   0.198   3.139  16.654  1.9976 -1.6560  1.0292
 5499SOL     OW28129   0.526   0.461   4.216  1.1734 -0.0895 -0.6400
 5499SOL    HW128130   0.437   0.478   4.183  1.2842 -0.9631 -1.3675
 5499SOL    HW228131   0.556   0.540   4.262  1.7343 -0.5864 -0.1612
 5500SOL     OW28132   0.975   2.756  16.747  0.2099  0.1753  0.0468
 5500SOL    HW128133   0.944   2.730  16.834  3.1351 -2.2190  0.3584
 5500SOL    HW228134   1.035   2.831  16.750 -1.5389  1.5869 -0.3971
 5501SOL     OW28135   1.045   1.494   9.782  0.4413 -0.4787  0.0618
 5501SOL    HW128136   0.950   1.486   9.772  0.4136 -0.6095  0.3988
 5501SOL    HW228137   1.063   1.449   9.865 -0.0677  0.0787  0.4798
 5502SOL     OW28138   3.500   1.151  13.127  0.2474 -0.2412  0.0947
 5502SOL    HW128139   3.480   1.244  13.134 -2.3523 -0.6205 -2.3958
 5502SOL    HW228140   3.576   1.144  13.185  1.6603  2.3354 -1.4230
 5503SOL     OW28141   3.144   1.156   0.452 -0.0357  0.1379  0.2580
 5503SOL    HW128142   3.109   1.167   0.540 -1.7955 -1.0703 -0.3010
 5503SOL    HW228143   3.230   1.114   0.456  0.8480  1.9109 -0.1037
 5504SOL     OW28144   4.084   0.443  17.082 -0.1372  0.4852  0.2828
 5504SOL    HW128145   4.058   0.432  16.991 -0.1877  2.8430  0.0282
 5504SOL    HW228146   4.158   0.382  17.091  0.1069  1.0474  2.1755
 5505SOL     OW28147   3.827   1.995  13.662  0.1456  0.6255  0.1265
 5505SOL    HW128148   3.814   2.067  13.600  1.0900 -0.6011 -1.5159
 5505SOL    HW228149   3.847   2.043  13.742  1.3403  0.0961  0.1585
 5506SOL     OW28150   0.535   2.113  15.714 -0.1908 -0.2052 -0.0389
 5506SOL    HW128151   0.629   2.108  15.728 -0.3989 -1.0394  1.1064
 5506SOL    HW228152   0.500   2.104  15.802 -1.8407 -2.9871 -0.9549
 5507SOL     OW28153   3.460   0.084  14.033  0.5726  0.1862  0.1559
 5507SOL    HW128154   3.401   0.056  13.964  0.2896  0.9362  0.0920
 5507SOL    HW228155   3.533   0.104  13.975  1.5496 -1.7361  0.7166
 5508SOL     OW28156   4.337   2.650   3.864 -0.0541  0.0183 -0.1218
 5508SOL    HW128157   4.409   2.613   3.916  0.2467 -0.5700 -0.9656
 5508SOL    HW228158   4.368   2.629   3.776 -0.7339  2.1809 -0.8912
 5509SOL     OW28159   3.296   0.575   2.839  0.0485  0.5402 -0.7445
 5509SOL    HW128160   3.351   0.653   2.855  0.6807 -0.1663  0.5826
 5509SOL    HW228161   3.326   0.514   2.906 -0.5543 -0.9792 -1.8614
 5510SOL     OW28162   4.213   4.602  17.646 -0.2659  0.3166 -0.1580
 5510SOL    HW128163   4.278   4.557  17.592  1.0950  0.1521  1.6175
 5510SOL    HW228164   4.195   4.672  17.584 -1.3149 -1.0261 -1.3879
 5511SOL     OW28165   0.834   3.187  13.499  0.1048 -0.6395 -0.3744
 5511SOL    HW128166   0.794   3.101  13.482  1.3320 -1.3359  0.2914
 5511SOL    HW228167   0.797   3.206  13.585  2.1458 -0.1768  0.4052
 5512SOL     OW28168   2.388   3.741  12.761 -0.2905 -0.2958 -0.3950
 5512SOL    HW128169   2.451   3.758  12.691  0.7152 -3.8039 -0.3125
 5512SOL    HW228170   2.454   3.712  12.823  0.8150  2.0523 -0.4685
 5513SOL     OW28171   1.787   2.698   5.119 -0.2044  0.5616  0.1204
 5513SOL    HW128172   1.847   2.771   5.109  0.2080  0.1704 -0.2621
 5513SOL    HW228173   1.786   2.662   5.030 -0.4877 -2.6274  1.4031
 5514SOL     OW28174   0.045   4.585   3.893 -0.0359 -0.0518  0.1795
 5514SOL    HW128175   0.079   4.538   3.969 -2.1181 -3.1803 -0.8383
 5514SOL    HW228176   4.697   4.549   3.885  0.9133 -2.0456 -1.2982
 5515SOL     OW28177   1.767   2.191   0.122  0.5567  0.3151  0.0259
 5515SOL    HW128178   1.813   2.128   0.177  0.2236 -0.7520 -0.9106
 5515SOL    HW228179   1.699   2.205   0.187  0.3103  0.1089 -0.1904
 5516SOL     OW28180   0.789   3.456   3.820 -0.5143 -0.3478  0.2320
 5516SOL    HW128181   0.846   3.443   3.744 -0.9399 -0.7452 -0.0106
 5516SOL    HW228182   0.796   3.551   3.836 -2.2684 -0.2740  0.5053
 5517SOL     OW28183   0.702   3.554   2.123 -0.0426  0.4868 -0.0076
 5517SOL    HW128184   0.686   3.469   2.164 -0.5384  0.7346  0.3128
 5517SOL    HW228185   0.717   3.601   2.205 -1.0286 -0.2352  0.5853
 5518SOL     OW28186   3.044   3.929   9.619  0.7253  0.1154  0.3580
 5518SOL    HW128187   3.107   3.894   9.682  0.8973  1.2197  0.8027
 5518SOL    HW228188   2.960   3.914   9.661  0.1513  3.1115  0.2806
 5519SOL     OW28189   2.350   0.557   4.070  0.5239  0.3048  0.4023
 5519SOL    HW128190   2.261   0.534   4.093 -0.1476  2.4237 -0.0722
 5519SOL    HW228191   2.390   0.485   4.118 -0.7823 -0.8006 -0.1634
 5520SOL     OW28192   0.889   3.573   6.138  0.7061 -0.0346  0.1067
 5520SOL    HW128193   0.947   3.564   6.214 -1.1800  0.4751  1.6240
 5520SOL    HW228194   0.927   3.651   6.099  1.0287 -1.2719 -2.0760
 5521SOL     OW28195   1.232   3.773   3.545 -0.0506  0.2542 -0.4648
 5521SOL    HW128196   1.256   3.702   3.605  0.6822  2.7424  2.1963
 5521SOL    HW228197   1.141   3.751   3.523  0.0651  0.6279 -1.2954
 5522SOL     OW28198   0.782   1.117   0.266  0.1741  0.0911 -0.1992
 5522SOL    HW128199   0.725   1.081   0.198  0.4954 -0.8195  0.0062
 5522SOL    HW228200   0.852   1.154   0.213 -0.4799  3.5074  1.3160
 5523SOL     OW28201   4.653   2.927  11.816 -0.0558  0.4975  0.1047
 5523SOL    HW128202   4.712   2.916  11.742 -1.8494 -0.1309 -1.2261
 5523SOL    HW228203   4.587   2.985  11.779 -0.0229  0.7624  0.4572
 5524SOL     OW28204   0.512   1.564   2.232  0.4501 -0.6725  0.7694
 5524SOL    HW128205   0.531   1.657   2.224 -0.7654 -0.4538  0.4201
 5524SOL    HW228206   0.575   1.556   2.304  2.6087 -2.2771 -1.3012
 5525SOL     OW28207   0.175   1.992   4.211  0.1562  0.2093 -0.3046
 5525SOL    HW128208   0.197   1.942   4.290  0.6066  1.5131  0.3837
 5525SOL    HW228209   0.239   2.062   4.213  1.9666 -1.4515 -0.2390
 5526SOL     OW28210   0.342   1.389   4.401 -0.6795  0.3047 -0.1037
 5526SOL    HW128211   0.297   1.308   4.425 -0.3002  0.0651 -0.2025
 5526SOL    HW228212   0.356   1.378   4.307 -1.3490 -0.8947 -0.0609
 5527SOL     OW28213   3.685   0.394  13.993 -0.1843 -0.2750 -0.2195
 5527SOL    HW128214   3.645   0.352  13.917 -1.4890 -1.4306  1.0785
 5527SOL    HW228215   3.692   0.321  14.056  0.8892 -0.9321 -1.1044
 5528SOL     OW28216   4.006   1.300   2.857  0.0632 -0.1091 -0.0676
 5528SOL    HW128217   3.981   1.362   2.925  2.1014 -0.1533  0.7109
 5528SOL    HW228218   3.974   1.345   2.779 -0.4795 -1.2633 -0.5219
 5529SOL     OW28219   3.696   2.034   2.372 -0.5778  0.0444 -0.4503
 5529SOL    HW128220   3.616   1.981   2.376  0.1295 -1.1253 -1.7579
 5529SOL    HW228221   3.713   2.027   2.278  2.9128  3.7430 -0.0714
 5530SOL     OW28222   3.138   0.390  16.719 -0.4368  0.1143 -0.1301
 5530SOL    HW128223   3.105   0.461  16.774  2.2433  0.7839  0.6163
 5530SOL    HW228224   3.060   0.334  16.714  0.3525 -0.9931 -0.0802
 5531SOL     OW28225   0.785   1.694   2.843 -0.5987 -0.1835 -0.2484
 5531SOL    HW128226   0.798   1.783   2.809 -1.9679 -0.1361 -0.6668
 5531SOL    HW228227   0.705   1.666   2.799 -0.5604  1.8109 -1.6058
 5532SOL     OW28228   3.021   0.541   8.510  0.0958  0.1626 -0.2905
 5532SOL    HW128229   3.000   0.579   8.596  2.1756 -0.7249  0.6215
 5532SOL    HW228230   2.934   0.518   8.478  0.1479 -0.5701  0.0909
 5533SOL     OW28231   4.088   3.635   5.469  0.3535 -0.1071 -0.1314
 5533SOL    HW128232   4.030   3.606   5.399  0.6704  0.4282 -0.6122
 5533SOL    HW228233   4.027   3.654   5.541 -1.0911 -1.7128 -0.9406
 5534SOL     OW28234   4.530   1.057  15.456  0.0211  0.3595  0.0345
 5534SOL    HW128235   4.616   1.021  15.434 -0.3664 -0.5356 -0.0001
 5534SOL    HW228236   4.528   1.048  15.552 -0.2486 -2.9100 -0.2845
 5535SOL     OW28237   2.581   0.510   5.911  0.0080 -0.2580  0.2203
 5535SOL    HW128238   2.511   0.507   5.976  1.3189  3.1357  1.7994
 5535SOL    HW228239   2.603   0.417   5.903  1.9625  0.2904 -0.9840
 5536SOL     OW28240   2.471   1.365   3.126  0.0851  0.0673  0.1827
 5536SOL    HW128241   2.535   1.338   3.192  0.0586 -1.2671 -0.3510
 5536SOL    HW228242   2.500   1.331   3.042  0.0213 -0.6385  0.4421
 5537SOL     OW28243   4.019   3.690   4.066  0.4887 -0.4062 -0.0498
 5537SOL    HW128244   3.958   3.643   4.123  0.2834  1.1855  1.0602
 5537SOL    HW228245   3.997   3.670   3.975 -0.6843 -0.5104  0.2640
 5538SOL     OW28246   3.615   4.159   7.491 -0.1876  0.0934 -0.0221
 5538SOL    HW128247   3.686   4.144   7.554  2.0973  1.7021 -2.2188
 5538SOL    HW228248   3.640   4.245   7.458 -0.4180  0.9924  2.1577
 5539SOL     OW28249   4.469   1.248   2.859  0.4338  0.4723  0.0012
 5539SOL    HW128250   4.388   1.267   2.811  0.9012 -1.9235 -1.7806
 5539SOL    HW228251   4.469   1.318   2.924 -0.9587 -0.0053  0.5208
 5540SOL     OW28252   0.429   1.817   0.211 -0.0712 -0.0031  0.1308
 5540SOL    HW128253   0.482   1.786   0.285 -0.0509 -1.0162 -0.3093
 5540SOL    HW228254   0.382   1.890   0.251 -3.5148 -1.9234 -0.3768
 5541SOL     OW28255   0.045   0.522   0.922  0.1442 -0.1718 -0.0465
 5541SOL    HW128256   0.064   0.613   0.899 -0.8693  0.2820  0.9271
 5541SOL    HW228257   4.707   0.498   0.872  0.4732 -1.2785 -0.0354
 5542SOL     OW28258   3.652   3.289  10.796  0.1446  0.1185 -0.3906
 5542SOL    HW128259   3.747   3.285  10.784 -0.0277 -2.6640 -0.7659
 5542SOL    HW228260   3.626   3.356  10.734 -0.2660 -0.2217 -0.5844
 5543SOL     OW28261   3.233   2.639  12.346  0.3458  0.3130 -0.6319
 5543SOL    HW128262   3.237   2.567  12.409  1.4016 -0.0558 -1.1142
 5543SOL    HW228263   3.266   2.718  12.388 -1.2881  0.1016  1.0463
 5544SOL     OW28264   3.547   2.308  17.302  0.1261 -0.1668  0.2316
 5544SOL    HW128265   3.599   2.331  17.380  3.0556  0.4443 -1.8816
 5544SOL    HW228266   3.521   2.397  17.276 -0.0064 -0.8030 -1.7664
 5545SOL     OW28267   2.864   1.601   8.930  0.2276  0.0394 -0.3201
 5545SOL    HW128268   2.873   1.694   8.907 -0.4371  0.2418  0.2385
 5545SOL    HW228269   2.811   1.564   8.859  0.6725 -3.1899  1.0354
 5546SOL     OW28270   3.956   1.810   9.376 -0.4737 -0.1383  0.0689
 5546SOL    HW128271   3.976   1.730   9.328  1.4071  1.4869 -1.8633
 5546SOL    HW228272   4.031   1.829   9.433  1.4762 -0.2522 -2.4660
 5547SOL     OW28273   1.960   2.233   9.151 -0.2126  0.6204  0.3185
 5547SOL    HW128274   2.041   2.197   9.186  0.4209  1.1312 -0.6123
 5547SOL    HW228275   1.972   2.325   9.174  1.8216 -0.0519  1.8849
 5548SOL     OW28276   1.301   3.330  11.709 -0.1841 -0.8179 -0.0671
 5548SOL    HW128277   1.281   3.241  11.678  2.1605 -1.1788 -0.5617
 5548SOL    HW228278   1.318   3.310  11.801 -1.7600 -0.3045  0.3391
 5549SOL     OW28279   1.706   2.776   5.654 -0.0253 -1.1412  0.0649
 5549SOL    HW128280   1.765   2.847   5.681  0.4721 -1.0575 -1.2577
 5549SOL    HW228281   1.750   2.735   5.580 -0.1678 -1.5492  0.2058
 5550SOL     OW28282   4.122   4.636   9.129  0.3700  0.3384 -0.1423
 5550SOL    HW128283   4.201   4.680   9.162  0.5633 -0.9322  1.1030
 5550SOL    HW228284   4.059   4.670   9.193  0.3337  0.4993 -0.2636
 5551SOL     OW28285   1.684   1.097  11.656 -0.0348 -0.2727 -0.0790
 5551SOL    HW128286   1.595   1.117  11.627 -0.8034  0.1656  2.6518
 5551SOL    HW228287   1.714   1.033  11.591  0.8436 -0.4154  0.4700
 5552SOL     OW28288   1.781   4.172   6.602  0.0053 -0.2428  0.5295
 5552SOL    HW128289   1.764   4.233   6.530 -1.0604 -0.3772  0.6633
 5552SOL    HW228290   1.813   4.237   6.664 -2.3132  0.3533  1.0932
 5553SOL     OW28291   2.492   2.108   6.269 -0.1666 -0.2526 -0.1907
 5553SOL    HW128292   2.429   2.178   6.287 -1.2619 -1.8458  2.1766
 5553SOL    HW228293   2.552   2.114   6.343  0.4467 -0.3839 -0.6818
 5554SOL     OW28294   0.325   3.514   7.762  0.5509  0.5443  0.8478
 5554SOL    HW128295   0.277   3.539   7.684 -1.2405 -2.8887  0.8675
 5554SOL    HW228296   0.379   3.592   7.777  2.2534 -0.4426 -0.1853
 5555SOL     OW28297   0.332   1.780   7.091  0.0394  0.0300 -0.2364
 5555SOL    HW128298   0.360   1.792   7.182  2.3436  1.3982 -1.1156
 5555SOL    HW228299   0.238   1.798   7.099  0.1980  1.9180 -2.5346
 5556SOL     OW28300   3.958   2.333  12.863  0.1204 -0.0854 -0.9191
 5556SOL    HW128301   3.994   2.420  12.848  0.4019  0.1827  1.4386
 5556SOL    HW228302   3.890   2.342  12.929  2.0233  0.9888  0.8607
 5557SOL     OW28303   2.024   1.727   0.960 -0.2170  0.4247 -0.3236
 5557SOL    HW128304   2.037   1.792   1.029  0.2493  1.9071 -1.7976
 5557SOL    HW228305   1.965   1.776   0.903 -0.0662  0.4894 -0.4266
 5558SOL     OW28306   3.627   0.814   3.354 -0.9251  0.1590 -0.1306
 5558SOL    HW128307   3.677   0.881   3.307 -1.4980  0.7176  0.0496
 5558SOL    HW228308   3.548   0.864   3.375 -0.9806  0.2737 -0.5984
 5559SOL     OW28309   1.774   1.803   1.201  0.1703  0.0956  0.2909
 5559SOL    HW128310   1.761   1.825   1.109 -2.5463 -0.1610  0.6147
 5559SOL    HW228311   1.768   1.894   1.230  0.6934 -0.5333  2.3428
 5560SOL     OW28312   3.443   0.928   6.182 -0.2352  0.8533 -0.5077
 5560SOL    HW128313   3.406   1.015   6.197  0.6172  1.5353 -2.3396
 5560SOL    HW228314   3.519   0.953   6.130  1.0100 -0.7987  0.4986
 5561SOL     OW28315   0.730   4.094  16.486  0.7576 -0.2361  0.1466
 5561SOL    HW128316   0.807   4.108  16.542 -1.2329 -0.9074  3.0475
 5561SOL    HW228317   0.656   4.112  16.543 -0.6741  2.9820 -2.7723
 5562SOL     OW28318   2.360   1.989   5.785 -0.3008  0.0291  0.8222
 5562SOL    HW128319   2.395   1.929   5.851  0.7608 -0.9374 -0.6171
 5562SOL    HW228320   2.287   1.938   5.750 -1.4097  0.9767  1.7690
 5563SOL     OW28321   1.722   3.879  13.856 -0.8313  0.0717  0.1220
 5563SOL    HW128322   1.777   3.937  13.804  0.2949 -1.4906 -0.4216
 5563SOL    HW228323   1.778   3.843  13.925  0.1087  0.3732 -0.4786
 5564SOL     OW28324   0.288   3.682   0.084  0.3922 -0.1595  0.2206
 5564SOL    HW128325   0.247   3.597   0.067  0.1434 -0.0833  0.4358
 5564SOL    HW228326   0.363   3.653   0.136  0.8741  1.0189  0.1813
 5565SOL     OW28327   0.158   1.605   2.699  0.0958 -0.0828  0.3590
 5565SOL    HW128328   0.151   1.536   2.766  2.6325 -0.3830  0.2925
 5565SOL    HW228329   0.224   1.660   2.740  0.0932  1.0271 -1.1416
 5566SOL     OW28330   0.704   1.575   1.238  0.3491 -0.6706 -0.5794
 5566SOL    HW128331   0.656   1.585   1.320 -0.6181  1.7354 -1.4471
 5566SOL    HW228332   0.782   1.525   1.261  0.1232 -0.8854 -0.2721
 5567SOL     OW28333   1.024   1.827  17.675 -0.2197 -0.4712 -0.1426
 5567SOL    HW128334   0.934   1.797  17.670 -0.6615  1.1089 -1.4857
 5567SOL    HW228335   1.056   1.768  17.743 -1.9618 -1.5723 -0.2766
 5568SOL     OW28336   0.503   0.414  13.647 -0.1330 -0.7963  0.2962
 5568SOL    HW128337   0.540   0.430  13.560 -0.0989  0.2260  0.4995
 5568SOL    HW228338   0.505   0.505  13.677  1.1168 -1.4194  2.1572
 5569SOL     OW28339   0.681   1.215   8.920  0.0694  0.5810 -0.5732
 5569SOL    HW128340   0.730   1.297   8.914  0.5291  0.3869  0.5839
 5569SOL    HW228341   0.743   1.161   8.872  0.4113  1.0392 -0.6503
 5570SOL     OW28342   0.595   2.246   5.178 -0.0721  0.3728 -0.1568
 5570SOL    HW128343   0.666   2.255   5.115 -0.5712  3.7068 -0.2705
 5570SOL    HW228344   0.631   2.179   5.237  1.9145  1.3277 -0.2657
 5571SOL     OW28345   2.110   3.553   8.439 -0.2619  0.2609 -0.3807
 5571SOL    HW128346   2.195   3.559   8.483 -1.1921 -2.1505  1.7407
 5571SOL    HW228347   2.080   3.469   8.472  1.0375 -0.5370 -1.2638
 5572SOL     OW28348   1.270   1.861  10.133  0.2807 -0.1558 -0.0674
 5572SOL    HW128349   1.179   1.876  10.108 -0.1355 -1.4018  0.6909
 5572SOL    HW228350   1.313   1.874  10.049 -1.8504 -0.0018 -1.1201
 5573SOL     OW28351   3.128   3.064  15.073 -0.0415  0.0437  0.0969
 5573SOL    HW128352   3.083   3.039  15.153  1.1523  1.9868  1.3779
 5573SOL    HW228353   3.213   3.100  15.099  0.9888 -0.5315 -2.4130
 5574SOL     OW28354   0.579   4.568  16.225 -0.4165 -0.2350 -0.9130
 5574SOL    HW128355   0.667   4.529  16.226 -0.9279 -1.3110  1.9689
 5574SOL    HW228356   0.553   4.551  16.135 -0.4206  0.5723 -1.0608
 5575SOL     OW28357   1.984   1.234   8.915  0.5678  0.0037  0.0748
 5575SOL    HW128358   1.892   1.255   8.925  0.9580  2.7330 -1.7740
 5575SOL    HW228359   2.022   1.320   8.897 -0.6654  1.1558  3.0308
 5576SOL     OW28360   3.639   0.290   9.869  0.1249 -0.9167  0.1797
 5576SOL    HW128361   3.623   0.287   9.775 -1.2616 -2.3179  0.4635
 5576SOL    HW228362   3.555   0.302   9.914 -0.3758  0.7295 -1.1804
 5577SOL     OW28363   4.141   0.374   4.119  0.0871  0.0394  0.0585
 5577SOL    HW128364   4.114   0.466   4.115 -0.9793 -0.3914 -2.2983
 5577SOL    HW228365   4.171   0.359   4.030  0.1494 -2.5771  0.5251
 5578SOL     OW28366   3.505   0.462  14.950  0.5209  0.2156 -0.1776
 5578SOL    HW128367   3.528   0.369  14.959  1.2129  0.4007 -0.0111
 5578SOL    HW228368   3.509   0.498  15.039  2.2203 -1.9868  0.6628
 5579SOL     OW28369   0.173   4.639  13.978  0.5038  0.0366 -0.4135
 5579SOL    HW128370   0.157   4.607  13.889  0.1761 -2.2723  0.4785
 5579SOL    HW228371   0.231   4.707  13.945 -0.3156  0.4684 -0.9782
 5580SOL     OW28372   2.394   1.094  15.540  0.1725 -0.0951  0.3580
 5580SOL    HW128373   2.319   1.042  15.511  0.4243 -0.2558 -0.0061
 5580SOL    HW228374   2.427   1.125  15.455 -0.3701 -1.2547 -0.2811
 5581SOL     OW28375   2.432   1.123   7.246 -0.3917  0.3667 -0.6175
 5581SOL    HW128376   2.500   1.055   7.250 -0.7143  0.1388  1.0348
 5581SOL    HW228377   2.468   1.173   7.319 -1.0212 -0.2765  0.1353
 5582SOL     OW28378   0.421   1.960  12.577  0.0749  0.4908 -0.3223
 5582SOL    HW128379   0.464   2.023  12.519  0.0134 -0.3241 -1.2608
 5582SOL    HW228380   0.495   1.907  12.609  0.1453  0.8449  0.0914
 5583SOL     OW28381   0.741   3.335  15.322 -0.4288  0.5740 -0.2829
 5583SOL    HW128382   0.686   3.396  15.273 -1.2564  1.5452  1.8675
 5583SOL    HW228383   0.695   3.317  15.403  1.1888  1.5512  0.8557
 5584SOL     OW28384   4.641   4.276   4.522  0.7151  0.0049 -0.4483
 5584SOL    HW128385   4.629   4.271   4.616  0.7075  0.5553 -0.4186
 5584SOL    HW228386   4.615   4.186   4.505 -0.2107  0.1849  0.0166
 5585SOL     OW28387   2.311   2.512   3.128 -0.4540 -0.4174  0.3080
 5585SOL    HW128388   2.293   2.560   3.047  0.2444 -0.0733  0.3605
 5585SOL    HW228389   2.405   2.507   3.142 -0.3755  3.0474  1.1607
 5586SOL     OW28390   1.898   2.287   8.288  0.2912  0.8328  0.7341
 5586SOL    HW128391   1.950   2.327   8.358  0.3426  4.1189 -1.2066
 5586SOL    HW228392   1.810   2.297   8.324  0.0763  2.1413 -0.1536
 5587SOL     OW28393   3.894   4.564   7.860  0.4761 -0.6088 -0.2354
 5587SOL    HW128394   3.853   4.483   7.831  0.1023 -0.1659 -0.9541
 5587SOL    HW228395   3.823   4.619   7.828 -1.5909 -2.4081  1.2859
 5588SOL     OW28396   1.652   1.362   1.096 -0.1871 -0.1063 -0.7074
 5588SOL    HW128397   1.701   1.365   1.014  0.7427  1.3316 -0.1158
 5588SOL    HW228398   1.679   1.446   1.134 -1.3931 -0.0891  0.1469
 5589SOL     OW28399   0.749   1.814   7.158 -0.1960  0.2131  0.1036
 5589SOL    HW128400   0.816   1.842   7.096  0.0004 -2.3563 -0.8432
 5589SOL    HW228401   0.785   1.848   7.240  0.8270 -2.5388  0.8054
 5590SOL     OW28402   1.586   0.356   8.846  0.0457  0.2969  0.5710
 5590SOL    HW128403   1.554   0.324   8.762  3.0717  2.0849 -1.2629
 5590SOL    HW228404   1.618   0.445   8.831  0.2939  0.0767 -0.2095
 5591SOL     OW28405   2.236   1.786   5.128  0.8815  0.1064 -0.3892
 5591SOL    HW128406   2.314   1.831   5.162  0.3250  1.4051 -0.8373
 5591SOL    HW228407   2.263   1.769   5.037 -0.3657 -0.0826 -0.7175
 5592SOL     OW28408   1.240   4.629   2.921 -0.0988  0.0052 -0.4258
 5592SOL    HW128409   1.299   4.637   2.995 -3.0325 -0.0408  1.9383
 5592SOL    HW228410   1.285   4.677   2.852  0.6001 -1.7257 -1.1782
 5593SOL     OW28411   3.171   0.383   0.544 -0.0637  0.1716 -0.6491
 5593SOL    HW128412   3.203   0.468   0.575 -0.4840 -0.6585  2.0719
 5593SOL    HW228413   3.105   0.351   0.606 -0.0567 -0.9265 -1.2189
 5594SOL     OW28414   3.906   3.503   2.418 -0.0072 -0.3885 -0.1673
 5594SOL    HW128415   3.821   3.485   2.378 -0.8162 -0.6101  1.6437
 5594SOL    HW228416   3.961   3.492   2.341 -0.2848 -1.8577 -0.1609
 5595SOL     OW28417   4.444   1.638   9.546  0.3879  0.1929  0.2952
 5595SOL    HW128418   4.421   1.661   9.456  1.9942 -0.3060 -0.2289
 5595SOL    HW228419   4.406   1.550   9.541 -2.9714  1.6025  0.9987
 5596SOL     OW28420   2.334   2.187  10.267 -0.2256 -0.1182 -0.5247
 5596SOL    HW128421   2.377   2.144  10.341  0.0288  0.4305 -0.3455
 5596SOL    HW228422   2.251   2.141  10.273  1.3427 -2.8780  0.0343
 5597SOL     OW28423   0.129   4.315   4.375  0.0143 -0.3813 -0.4517
 5597SOL    HW128424   0.044   4.289   4.412 -0.1562 -0.2387 -0.7371
 5597SOL    HW228425   0.158   4.230   4.342 -1.4238 -1.7478  1.7247
 5598SOL     OW28426   3.056   0.264  13.807  0.4551 -0.0324 -0.0263
 5598SOL    HW128427   3.014   0.295  13.888  0.7407  0.1381  0.0593
 5598SOL    HW228428   2.989   0.298  13.747  1.3984 -0.8091 -1.5096
 5599SOL     OW28429   1.679   0.073   7.782 -0.3583  0.4416 -0.2670
 5599SOL    HW128430   1.698   0.167   7.786  3.4947 -0.5334  3.2468
 5599SOL    HW228431   1.617   0.088   7.853  2.3921  1.4403  1.9117
 5600SOL     OW28432   1.209   0.015   1.989  0.7094 -0.3322 -0.3734
 5600SOL    HW128433   1.169   0.054   2.067  0.1097  1.8576 -1.7728
 5600SOL    HW228434   1.269   4.695   2.033  1.0258  0.6244  0.5054
 5601SOL     OW28435   4.561   1.792   9.317  0.2985 -0.2179  0.2097
 5601SOL    HW128436   4.565   1.734   9.242 -2.6861 -0.8565  0.5484
 5601SOL    HW228437   4.526   1.871   9.275 -0.0799 -0.1316  0.6883
 5602SOL     OW28438   3.056   4.001   7.547 -0.5382 -0.5771  1.0999
 5602SOL    HW128439   3.138   4.047   7.562 -0.0532 -0.3885 -2.1265
 5602SOL    HW228440   3.080   3.925   7.493  0.8522  1.3221 -0.9435
 5603SOL     OW28441   0.629   2.057   0.250  0.2688 -0.2819 -0.2854
 5603SOL    HW128442   0.612   1.968   0.279 -1.0797 -0.8584 -2.8706
 5603SOL    HW228443   0.589   2.101   0.325  1.2652 -0.7217  0.4946
 5604SOL     OW28444   1.256   2.392   0.815  0.2256  0.3171 -0.1045
 5604SOL    HW128445   1.226   2.305   0.841 -0.7526  0.6296 -0.1627
 5604SOL    HW228446   1.257   2.445   0.894  0.9213 -0.7454  0.5963
 5605SOL     OW28447   1.581   3.925   7.570 -0.4558  0.1405  0.0535
 5605SOL    HW128448   1.545   3.969   7.647 -0.8136 -2.1801  1.1955
 5605SOL    HW228449   1.642   3.867   7.613 -0.4312  1.8823  2.3444
 5606SOL     OW28450   4.480   1.149   7.116 -0.7202 -0.2143  0.4839
 5606SOL    HW128451   4.529   1.142   7.034 -0.7644  0.2217  0.4204
 5606SOL    HW228452   4.391   1.140   7.082 -0.6893 -0.1964  0.3979
 5607SOL     OW28453   1.810   3.338   4.270 -0.2771  0.1651  0.0135
 5607SOL    HW128454   1.772   3.322   4.357  2.0912 -1.8044  0.7047
 5607SOL    HW228455   1.741   3.389   4.228 -2.2162 -0.2062  2.7202
 5608SOL     OW28456   4.602   1.721  17.175  0.4289  0.1768  0.2998
 5608SOL    HW128457   4.637   1.692  17.260 -1.4815  1.3546  1.4811
 5608SOL    HW228458   4.670   1.778  17.138  0.7347  0.7935  1.7795
 5609SOL     OW28459   3.029   3.126  17.365  0.0690 -0.2679 -0.1636
 5609SOL    HW128460   3.099   3.079  17.411 -0.4045  2.6958  3.6222
 5609SOL    HW228461   2.954   3.113  17.423  0.0664  2.1168  0.3831
 5610SOL     OW28462   2.839   0.481  15.990  0.4205  0.9744 -0.2520
 5610SOL    HW128463   2.844   0.410  15.926 -0.3669 -0.0594  0.8370
 5610SOL    HW228464   2.865   0.433  16.069 -0.0176 -0.9088 -1.2625
 5611SOL     OW28465   2.706   3.796   7.582  0.0252 -0.0309 -0.5204
 5611SOL    HW128466   2.688   3.827   7.493 -0.7152 -0.9403 -0.6961
 5611SOL    HW228467   2.714   3.701   7.570  0.1830  0.0262 -0.8706
 5612SOL     OW28468   3.951   0.458   0.185 -0.5336 -0.3449 -0.4430
 5612SOL    HW128469   3.969   0.488   0.096  0.6260  0.8292  0.1839
 5612SOL    HW228470   4.038   0.476   0.220 -0.6362 -1.7092  0.4975
 5613SOL     OW28471   3.939   2.061   3.944  0.9160 -0.0746  0.0267
 5613SOL    HW128472   3.903   2.149   3.943  0.9603 -0.0461  1.0030
 5613SOL    HW228473   4.031   2.076   3.922  0.9746  0.6799  0.8003
 5614SOL     OW28474   3.200   0.855   6.953 -0.0534  0.0130  0.7412
 5614SOL    HW128475   3.159   0.816   7.030 -0.8293 -1.3600 -0.3599
 5614SOL    HW228476   3.279   0.896   6.988  0.3171 -0.5483  0.5652
 5615SOL     OW28477   3.963   4.591   4.928 -0.3485  0.0034 -0.0966
 5615SOL    HW128478   3.898   4.546   4.874 -1.6651  1.6000  0.1752
 5615SOL    HW228479   4.043   4.576   4.877 -0.8998 -1.8197 -0.4171
 5616SOL     OW28480   1.344   1.264   4.933  0.7094 -0.5446  0.2613
 5616SOL    HW128481   1.294   1.234   5.009 -0.4859  0.8233  0.0115
 5616SOL    HW228482   1.280   1.316   4.885  0.0576  0.2208  1.9345
 5617SOL     OW28483   1.115   3.774   3.927 -0.3291 -0.4035  0.1964
 5617SOL    HW128484   1.089   3.723   4.004 -1.5134  1.0974  0.8034
 5617SOL    HW228485   1.208   3.753   3.931 -1.3109 -4.1685  4.5426
 5618SOL     OW28486   2.610   4.550   8.503 -0.0194  0.5733 -0.2448
 5618SOL    HW128487   2.705   4.553   8.489  0.2568  2.3274  1.9727
 5618SOL    HW228488   2.596   4.598   8.585 -1.0635  0.2635 -0.2485
 5619SOL     OW28489   1.908   2.854   0.256 -0.2203 -0.3877 -0.0393
 5619SOL    HW128490   1.910   2.931   0.199  1.9703  0.4005  1.0628
 5619SOL    HW228491   1.837   2.807   0.213  0.5228  0.0286 -1.7622
 5620SOL     OW28492   4.288   4.442   8.636  0.2994 -0.1317 -0.4454
 5620SOL    HW128493   4.308   4.534   8.651  0.6411 -0.1240 -0.9732
 5620SOL    HW228494   4.237   4.437   8.555  2.6641  0.5718 -1.9567
 5621SOL     OW28495   0.525   4.726   8.164 -0.3329 -0.1420 -0.0263
 5621SOL    HW128496   0.463   0.037   8.112  1.7227  2.6368  0.2107
 5621SOL    HW228497   0.465   4.691   8.230 -1.1849  0.0567 -0.7050
 5622SOL     OW28498   3.480   2.002   8.927  0.1910 -0.4619  0.3176
 5622SOL    HW128499   3.497   2.040   9.014 -0.8512 -0.4191  0.5003
 5622SOL    HW228500   3.419   1.929   8.938  0.1803 -0.5556 -0.3724
 5623SOL     OW28501   3.495   0.184  16.314 -0.0412  0.2114 -0.3298
 5623SOL    HW128502   3.445   0.120  16.264  1.9922 -0.3325 -1.7056
 5623SOL    HW228503   3.585   0.153  16.299 -0.1223  0.9974 -2.4725
 5624SOL     OW28504   1.093   1.862   1.393  0.3423 -0.0388 -0.2255
 5624SOL    HW128505   1.107   1.769   1.411  3.2173  0.4462  0.0147
 5624SOL    HW228506   1.017   1.880   1.448  0.8899 -0.2533  0.5982
 5625SOL     OW28507   0.259   3.657   0.634  0.2285 -0.1268  0.6525
 5625SOL    HW128508   0.337   3.713   0.634  1.2611 -1.5488  0.0213
 5625SOL    HW228509   0.197   3.722   0.600 -0.2276 -1.0942 -0.3871
 5626SOL     OW28510   1.614   2.486   9.408  0.1779  0.0076 -0.1116
 5626SOL    HW128511   1.682   2.422   9.430  0.0621 -0.3227 -0.7136
 5626SOL    HW228512   1.534   2.439   9.386 -0.8538  2.2339 -1.1444
 5627SOL     OW28513   2.759   4.363   3.923 -0.5941 -0.3237 -0.0089
 5627SOL    HW128514   2.813   4.292   3.957  1.4591  1.0487 -0.3817
 5627SOL    HW228515   2.747   4.412   4.004  0.4031  0.3782 -0.2767
 5628SOL     OW28516   0.570   0.357   2.050  0.7591  0.3717 -0.3725
 5628SOL    HW128517   0.492   0.412   2.042  0.8290  0.3318 -1.3563
 5628SOL    HW228518   0.604   0.377   1.963  1.2048 -0.5040 -0.4004
 5629SOL     OW28519   2.832   0.543   4.288 -0.0147 -0.4287  0.6881
 5629SOL    HW128520   2.794   0.555   4.375 -0.4029 -0.0004  0.4595
 5629SOL    HW228521   2.777   0.601   4.235  1.2455 -1.7582 -2.0871
 5630SOL     OW28522   1.069   2.720   4.597  0.6085 -0.4726 -0.1562
 5630SOL    HW128523   1.129   2.691   4.665 -1.2126 -0.5808  1.3785
 5630SOL    HW228524   1.064   2.649   4.532 -5.0446 -0.0187 -0.2468
 5631SOL     OW28525   3.784   1.046   4.007  0.2856 -0.1816 -0.1269
 5631SOL    HW128526   3.747   1.001   4.082 -1.8650  0.0378 -1.0516
 5631SOL    HW228527   3.706   1.034   3.953  0.4823 -0.7342 -0.2910
 5632SOL     OW28528   1.548   2.714   0.301  0.4424 -0.5665 -0.0462
 5632SOL    HW128529   1.591   2.738   0.219  0.7818  3.1590  1.2483
 5632SOL    HW228530   1.499   2.794   0.322  0.8714 -0.1298 -0.7194
 5633SOL     OW28531   3.360   1.069  14.098 -0.4881  0.2430  0.2806
 5633SOL    HW128532   3.329   0.978  14.100 -0.1899  0.2108  3.0332
 5633SOL    HW228533   3.447   1.059  14.059 -1.0541 -2.5246 -0.2988
 5634SOL     OW28534   2.278   0.347   2.806 -0.1204 -0.3466  0.0955
 5634SOL    HW128535   2.249   0.407   2.875  1.0557  2.9199 -2.2681
 5634SOL    HW228536   2.373   0.358   2.810  0.0009 -0.4424 -2.4649
 5635SOL     OW28537   0.968   1.648   5.723  0.3890  1.0100 -0.1324
 5635SOL    HW128538   0.931   1.687   5.643 -0.6387  3.0084  1.3267
 5635SOL    HW228539   1.062   1.656   5.703  0.2033  0.0868 -1.4124
 5636SOL     OW28540   1.449   3.888   5.047  0.0432  0.2045 -0.1753
 5636SOL    HW128541   1.390   3.958   5.020 -1.3919 -1.2403 -0.8307
 5636SOL    HW228542   1.401   3.812   5.014  1.0046  0.0925 -1.2933
 5637SOL     OW28543   3.415   1.154   8.041  0.4199 -0.0895 -0.1605
 5637SOL    HW128544   3.402   1.130   7.950  2.0199  2.8980 -1.1640
 5637SOL    HW228545   3.510   1.153   8.032  0.7899 -0.2600  3.7503
 5638SOL     OW28546   2.241   4.451  11.325  0.0604 -0.1727 -0.4894
 5638SOL    HW128547   2.260   4.419  11.413  0.3703  2.1886  0.3151
 5638SOL    HW228548   2.225   4.543  11.348 -0.7762 -0.3658 -0.3191
 5639SOL     OW28549   1.700   1.507   8.488  0.2437 -0.2942  0.2663
 5639SOL    HW128550   1.607   1.524   8.475 -0.1884 -2.3822  0.5712
 5639SOL    HW228551   1.686   1.433   8.548 -1.2717 -0.3561 -0.1629
 5640SOL     OW28552   1.537   2.832   8.659  0.3265  0.6330  0.0723
 5640SOL    HW128553   1.531   2.873   8.746 -0.4950 -1.3066  0.9350
 5640SOL    HW228554   1.611   2.776   8.684 -0.3706 -1.5482 -2.8351
 5641SOL     OW28555   1.262   1.207  10.183  0.0701 -0.3820 -0.5320
 5641SOL    HW128556   1.293   1.130  10.136 -0.7756 -0.9753 -0.1243
 5641SOL    HW228557   1.306   1.191  10.267 -1.2870 -1.7576 -0.0873
 5642SOL     OW28558   0.477   2.364  12.162  0.4278 -0.4232 -0.0516
 5642SOL    HW128559   0.564   2.355  12.202 -0.3032  0.3913  1.7169
 5642SOL    HW228560   0.472   2.444  12.110 -1.5213 -1.0794 -0.8636
 5643SOL     OW28561   0.413   4.604   6.364 -0.2541  0.1206  0.4259
 5643SOL    HW128562   0.487   4.639   6.315  1.3789 -1.6894  1.5747
 5643SOL    HW228563   0.422   4.666   6.437  0.5679 -0.8980  1.1968
 5644SOL     OW28564   4.393   2.518   9.709 -0.4627 -0.2436  0.2233
 5644SOL    HW128565   4.350   2.599   9.736 -0.6876  0.0608 -1.0276
 5644SOL    HW228566   4.480   2.521   9.748 -0.1027  2.2996 -0.7494
 5645SOL     OW28567   1.590   2.476   0.415 -0.4717 -0.2349 -0.7517
 5645SOL    HW128568   1.521   2.470   0.481 -0.2596  1.2357 -0.4009
 5645SOL    HW228569   1.573   2.564   0.380  0.9745 -0.7151 -2.6373
 5646SOL     OW28570   2.557   1.597   3.483  0.6874  0.2050  0.1531
 5646SOL    HW128571   2.544   1.661   3.553  1.3817 -1.0166  1.3951
 5646SOL    HW228572   2.466   1.569   3.470  0.3675  1.7508 -0.8837
 5647SOL     OW28573   1.211   2.934   6.894 -0.0876  0.6048  0.6222
 5647SOL    HW128574   1.174   3.019   6.871  0.0824  0.1384 -1.3627
 5647SOL    HW228575   1.305   2.945   6.900  0.4598 -2.6408 -1.8116
 5648SOL     OW28576   4.166   4.457   7.417 -0.8392 -0.2138  0.4308
 5648SOL    HW128577   4.148   4.513   7.493  0.4660  2.5386 -1.2951
 5648SOL    HW228578   4.087   4.458   7.362  0.2526 -0.1279 -1.1330
 5649SOL     OW28579   2.935   2.206   6.848  0.7224 -0.4386  0.4091
 5649SOL    HW128580   3.010   2.167   6.803  0.0047 -0.4427 -0.7891
 5649SOL    HW228581   2.897   2.133   6.897  0.8042 -0.6767  0.1213
 5650SOL     OW28582   4.151   3.422   4.513  0.3559  0.2607 -0.7786
 5650SOL    HW128583   4.066   3.395   4.479  0.4791 -1.2524  0.0937
 5650SOL    HW228584   4.196   3.442   4.430 -0.0566 -2.3863 -1.6390
 5651SOL     OW28585   2.003   2.524  11.095 -0.7175 -0.8766  0.6415
 5651SOL    HW128586   2.044   2.458  11.039  0.7045 -0.6147  1.3805
 5651SOL    HW228587   2.054   2.501  11.172  0.4177 -0.3741  0.0385
 5652SOL     OW28588   3.138   4.406   5.972 -0.2254  0.1417  0.0656
 5652SOL    HW128589   3.128   4.373   5.883 -1.5179  1.3019 -0.2234
 5652SOL    HW228590   3.167   4.495   5.949 -0.1928  0.4221  1.1828
 5653SOL     OW28591   4.541   2.596   9.344  0.2690 -0.2371  0.2421
 5653SOL    HW128592   4.502   2.513   9.372  0.4570 -1.4960 -3.1291
 5653SOL    HW228593   4.482   2.606   9.269 -2.3855  0.6375  2.4503
 5654SOL     OW28594   0.946   0.560  17.209  0.1873  0.1008  0.0458
 5654SOL    HW128595   1.018   0.621  17.224  2.0933 -1.7729 -1.4832
 5654SOL    HW228596   0.886   0.611  17.155 -2.0134 -1.4816  1.0294
 5655SOL     OW28597   4.526   1.316   9.652 -0.1942  0.0026  0.2406
 5655SOL    HW128598   4.573   1.392   9.686  0.0685 -0.2294  0.3963
 5655SOL    HW228599   4.595   1.278   9.597  0.0143  0.5744  0.1123
 5656SOL     OW28600   3.839   1.124   3.230 -0.1020  0.4129 -0.6524
 5656SOL    HW128601   3.814   1.047   3.180  0.9640 -1.4294  1.6557
 5656SOL    HW228602   3.756   1.166   3.252  1.1175  1.2568  2.3017
 5657SOL     OW28603   1.446   2.615   2.459 -0.0543 -0.0027  0.0570
 5657SOL    HW128604   1.478   2.597   2.548  1.0279  1.5000 -0.0287
 5657SOL    HW228605   1.460   2.710   2.458  0.8149 -0.1797 -2.7598
 5658SOL     OW28606   0.514   0.518   4.607 -0.2682  0.2424 -0.3497
 5658SOL    HW128607   0.533   0.470   4.688 -2.4175 -0.1356 -0.0596
 5658SOL    HW228608   0.514   0.606   4.645  1.8662  0.4097 -0.7334
 5659SOL     OW28609   0.053   2.554   6.896  0.0082  0.4936 -0.2794
 5659SOL    HW128610   0.008   2.628   6.854 -1.5775  0.1459  0.8263
 5659SOL    HW228611   0.139   2.564   6.855 -0.5161  3.4390 -0.6405
 5660SOL     OW28612   0.574   1.514   3.665 -0.4892  0.4296  0.3710
 5660SOL    HW128613   0.491   1.562   3.669 -0.4582  0.7671 -2.7288
 5660SOL    HW228614   0.595   1.500   3.573 -0.5053  0.2175  0.4003
 5661SOL     OW28615   4.545   1.474   7.036  0.1529 -0.0380  0.2223
 5661SOL    HW128616   4.606   1.508   7.102 -0.5234 -1.4076  1.5350
 5661SOL    HW228617   4.461   1.503   7.070  0.6654  0.2836  1.2252
 5662SOL     OW28618   4.350   3.249   6.833  0.2900 -0.4655 -0.2224
 5662SOL    HW128619   4.409   3.300   6.889  0.4545 -2.2103  1.1777
 5662SOL    HW228620   4.313   3.319   6.780 -0.3855 -2.4650 -2.4014
 5663SOL     OW28621   4.195   4.667   7.154  0.5830  0.1429  0.2822
 5663SOL    HW128622   4.245   4.638   7.077  0.6803 -0.7627  0.6943
 5663SOL    HW228623   4.167   0.014   7.124  1.2067 -0.9552 -3.5363
 5664SOL     OW28624   4.243   2.089   8.914 -0.2763 -0.2479 -0.4137
 5664SOL    HW128625   4.152   2.062   8.925 -0.6019  1.6519  1.6993
 5664SOL    HW228626   4.290   2.011   8.944 -0.6369  0.0748  1.0123
 5665SOL     OW28627   2.812   4.470   2.500  0.1416  0.1055 -0.1077
 5665SOL    HW128628   2.833   4.438   2.412 -1.3729  1.2691 -0.8940
 5665SOL    HW228629   2.748   4.399   2.514  0.8790 -0.5669 -0.1525
 5666SOL     OW28630   0.988   1.675   7.447  0.2225  0.9793 -0.1037
 5666SOL    HW128631   0.988   1.695   7.354  3.5058  0.9482 -0.1171
 5666SOL    HW228632   0.961   1.584   7.433 -2.3883  2.1950 -2.7622
 5667SOL     OW28633   1.870   0.920  17.166 -0.1085 -0.0405 -0.6320
 5667SOL    HW128634   1.820   0.964  17.097  1.6324  0.9525 -1.2497
 5667SOL    HW228635   1.867   0.832  17.129  1.2751  0.6371 -2.3802
 5668SOL     OW28636   0.242   3.096   8.872  0.1495 -0.7951  0.3127
 5668SOL    HW128637   0.259   3.047   8.791 -0.7861 -1.1943  0.3572
 5668SOL    HW228638   0.319   3.080   8.926 -0.4332  0.1792  1.4216
 5669SOL     OW28639   4.505   0.863  16.745 -0.5423  0.0698 -0.1491
 5669SOL    HW128640   4.547   0.928  16.690  0.2561  1.4188  2.0526
 5669SOL    HW228641   4.516   0.781  16.697 -1.1140 -1.2311  1.9355
 5670SOL     OW28642   1.057   3.357   4.970  0.3691 -0.4590  0.9953
 5670SOL    HW128643   0.964   3.370   4.956  0.7412 -0.1137 -1.0973
 5670SOL    HW228644   1.086   3.448   4.972 -1.0537  0.0142 -0.3841
 5671SOL     OW28645   1.620   2.674   4.301 -0.2601  0.5245  0.5113
 5671SOL    HW128646   1.540   2.647   4.345 -0.0076 -0.8363  0.1162
 5671SOL    HW228647   1.593   2.762   4.273 -4.5117 -1.2904 -1.0300
 5672SOL     OW28648   4.509   3.713  12.233 -0.2244  0.0927  0.5490
 5672SOL    HW128649   4.517   3.783  12.168  0.0776 -0.4756 -0.0237
 5672SOL    HW228650   4.580   3.652  12.214 -0.7718 -0.7084  1.0803
 5673SOL     OW28651   4.488   3.842   4.908 -0.1413 -0.3371 -0.4288
 5673SOL    HW128652   4.510   3.822   4.999  1.3489 -1.9207 -1.1338
 5673SOL    HW228653   4.539   3.920   4.887  0.9674 -0.5838  1.3443
 5674SOL     OW28654   3.378   2.255   2.623 -0.3166  0.0890  0.1697
 5674SOL    HW128655   3.425   2.267   2.706 -0.4926  0.1999  0.2531
 5674SOL    HW228656   3.329   2.177   2.646  2.5024 -1.2051  1.7885
 5675SOL     OW28657   1.027   0.112   6.671 -0.0331  0.1661 -0.1581
 5675SOL    HW128658   1.059   0.052   6.739 -0.5901  0.7975  0.6500
 5675SOL    HW228659   0.939   0.074   6.666  0.0732 -0.1035  0.0228
 5676SOL     OW28660   3.658   2.379   8.542 -0.4513 -0.0152 -0.4178
 5676SOL    HW128661   3.588   2.324   8.577  0.6245 -1.4725 -0.5710
 5676SOL    HW228662   3.709   2.299   8.526  0.5949  0.3701  1.0604
 5677SOL     OW28663   0.389   3.491   7.406 -0.0271 -0.4390 -0.3195
 5677SOL    HW128664   0.352   3.423   7.350  0.9929 -3.7576  3.0187
 5677SOL    HW228665   0.481   3.467   7.421 -1.2266 -3.7744  1.8019
 5678SOL     OW28666   0.209   4.250   1.301  0.2633 -0.0111  0.0193
 5678SOL    HW128667   0.189   4.252   1.394 -0.5821 -0.0795 -0.1639
 5678SOL    HW228668   0.217   4.343   1.282  0.5934  0.0899  0.6501
 5679SOL     OW28669   0.888   0.558   8.821 -0.1225  0.4643 -0.3292
 5679SOL    HW128670   0.896   0.485   8.881 -1.7227  2.5920  2.4711
 5679SOL    HW228671   0.802   0.596   8.836  0.5564  1.5737  0.8298
 5680SOL     OW28672   1.773   4.609   2.800 -0.2269  0.1424 -0.3572
 5680SOL    HW128673   1.860   4.647   2.790 -0.4570  0.4707 -1.0776
 5680SOL    HW228674   1.798   4.517   2.789  0.4912  0.3649 -0.6246
 5681SOL     OW28675   1.481   2.111   8.990 -0.1949  0.0879  0.2335
 5681SOL    HW128676   1.474   2.164   8.911 -0.8210 -1.1550 -0.5467
 5681SOL    HW228677   1.528   2.031   8.964  2.3750  1.7466 -0.2331
 5682SOL     OW28678   2.323   0.627  13.318 -0.4558  0.0276  0.0642
 5682SOL    HW128679   2.404   0.619  13.268 -0.3032 -1.4497  0.5332
 5682SOL    HW228680   2.260   0.664  13.257  2.1131  2.0349 -1.3399
 5683SOL     OW28681   4.613   4.621   4.256 -0.1561 -0.2610  0.0783
 5683SOL    HW128682   4.696   4.652   4.292 -0.0211  0.5342 -0.9168
 5683SOL    HW228683   4.636   4.548   4.199 -2.5532 -0.0450 -1.1972
 5684SOL     OW28684   2.753   4.491  15.134 -0.1126  0.0917 -0.4781
 5684SOL    HW128685   2.748   4.455  15.046 -1.1751 -1.5251  0.2498
 5684SOL    HW228686   2.662   4.477  15.160  0.4582 -0.9600  0.9692
 5685SOL     OW28687   1.557   1.279   0.339  0.0480 -0.9295  0.0014
 5685SOL    HW128688   1.506   1.249   0.265  0.1510 -0.7960 -0.1239
 5685SOL    HW228689   1.611   1.205   0.368  2.8016  0.9343 -0.2820
 5686SOL     OW28690   4.690   4.147   5.705 -0.0839 -0.5371 -0.3744
 5686SOL    HW128691   4.719   4.068   5.750 -0.8584 -0.6852 -0.1330
 5686SOL    HW228692   0.020   4.213   5.707 -1.0244  0.3167  3.1032
 5687SOL     OW28693   1.488   1.705   5.287 -0.1854  0.1281  0.2515
 5687SOL    HW128694   1.428   1.635   5.313  0.8309 -1.1711 -0.8888
 5687SOL    HW228695   1.547   1.641   5.246  1.2603  1.1576  0.7131
 5688SOL     OW28696   2.389   1.201  13.604  0.0350 -0.5264  0.0473
 5688SOL    HW128697   2.484   1.213  13.606 -0.1248  1.3274 -3.9779
 5688SOL    HW228698   2.384   1.182  13.511 -3.4172 -0.6592  0.2735
 5689SOL     OW28699   2.338   4.439  12.477  0.1987 -0.6577 -0.0032
 5689SOL    HW128700   2.337   4.528  12.513  0.7159 -0.7798  0.3074
 5689SOL    HW228701   2.265   4.405  12.529  0.0626 -0.8195 -0.2983
 5690SOL     OW28702   2.131   0.123   4.644  0.3519  0.0713  0.1292
 5690SOL    HW128703   2.058   0.157   4.592  1.4333  2.3824  0.1573
 5690SOL    HW228704   2.104   0.130   4.736  2.7050 -2.0987  0.9761
 5691SOL     OW28705   3.578   1.140   7.523  0.5651  0.2411  0.3381
 5691SOL    HW128706   3.627   1.174   7.598  2.9779  0.2959 -1.2507
 5691SOL    HW228707   3.606   1.204   7.457 -3.4100  0.2028 -1.3502
 5692SOL     OW28708   4.529   2.289   8.387 -0.4263 -0.4879  0.0563
 5692SOL    HW128709   4.497   2.376   8.361 -2.0531 -0.4081  2.4393
 5692SOL    HW228710   4.492   2.285   8.475 -0.3464  2.3817  0.2182
 5693SOL     OW28711   3.423   2.779   1.648 -0.0074  0.5788  0.4677
 5693SOL    HW128712   3.477   2.706   1.617 -2.0256 -2.0718  3.3068
 5693SOL    HW228713   3.491   2.844   1.627  0.5690 -0.0672  0.3206
 5694SOL     OW28714   4.664   3.366   8.146  0.3305 -0.0263  0.5782
 5694SOL    HW128715   4.728   3.431   8.117  1.2443 -1.0262  0.3596
 5694SOL    HW228716   4.583   3.408   8.117  0.9772 -0.1213 -1.3807
 5695SOL     OW28717   4.353   0.706  11.182  0.0088 -0.1822  0.0222
 5695SOL    HW128718   4.299   0.628  11.167 -1.1611  0.2915  1.8784
 5695SOL    HW228719   4.294   0.773  11.147  2.9212  2.2368 -0.3414
 5696SOL     OW28720   0.813   1.413  10.980  0.1239  0.0515 -1.1752
 5696SOL    HW128721   0.761   1.451  10.909 -0.3294  0.5903 -0.5597
 5696SOL    HW228722   0.824   1.488  11.039  1.2305 -1.2361  0.2340
 5697SOL     OW28723   4.523   1.279  10.050 -0.5316 -0.1427 -0.3715
 5697SOL    HW128724   4.502   1.248  10.138 -1.0619 -1.2575 -0.8991
 5697SOL    HW228725   4.511   1.208   9.988  0.1773 -1.0268  0.5092
 5698SOL     OW28726   3.217   2.776   7.344  0.1231  0.4461  0.5437
 5698SOL    HW128727   3.222   2.787   7.439 -0.8120  0.9683  0.5296
 5698SOL    HW228728   3.168   2.852   7.315  1.2670  1.1259  0.3923
 5699SOL     OW28729   1.388   4.312  10.336 -0.6498  0.0400  0.1825
 5699SOL    HW128730   1.314   4.266  10.297  0.3984 -2.6579  1.4172
 5699SOL    HW228731   1.364   4.308  10.429 -0.4932 -0.1187  0.2148
 5700SOL     OW28732   3.560   2.886   3.629  0.6562 -0.5715 -0.0877
 5700SOL    HW128733   3.652   2.904   3.607  1.4940 -0.5371  3.4539
 5700SOL    HW228734   3.535   2.885   3.537 -1.3195  0.1283  0.4487
 5701SOL     OW28735   0.363   2.594   8.179 -0.7952  0.2029  0.7491
 5701SOL    HW128736   0.384   2.664   8.117  0.4580 -0.0777  0.8488
 5701SOL    HW228737   0.296   2.549   8.128 -1.6431  0.1119  1.9492
 5702SOL     OW28738   4.068   2.202  13.105  0.0694 -0.0453 -0.1554
 5702SOL    HW128739   4.056   2.285  13.058  1.2426  0.5897  0.6935
 5702SOL    HW228740   4.063   2.149  13.026 -1.5139 -0.3203  0.1274
 5703SOL     OW28741   0.754   0.430   2.673 -0.5645 -0.1258  0.4242
 5703SOL    HW128742   0.790   0.388   2.594  0.9977 -1.6155  1.9318
 5703SOL    HW228743   0.730   0.347   2.715  1.5830 -1.3586 -0.7437
 5704SOL     OW28744   2.005   2.901   5.130 -0.2295  0.2435 -0.9731
 5704SOL    HW128745   1.925   2.929   5.176 -0.8888 -1.5896 -0.9788
 5704SOL    HW228746   2.006   2.962   5.057  1.1346  0.3122 -0.8901
 5705SOL     OW28747   3.789   1.558  17.472 -0.3052  0.2025 -0.5990
 5705SOL    HW128748   3.860   1.558  17.536 -0.6917  0.0533 -0.1637
 5705SOL    HW228749   3.721   1.504  17.514 -0.0502  0.4449  0.1169
 5706SOL     OW28750   3.278   0.068   9.263  0.3437 -0.2804  0.5302
 5706SOL    HW128751   3.273   4.713   9.279 -0.5544  0.1329  2.7761
 5706SOL    HW228752   3.186   0.091   9.258  0.4100 -0.7428 -2.7041
 5707SOL     OW28753   2.897   1.272   5.170 -0.2124 -0.2619 -1.0049
 5707SOL    HW128754   2.834   1.211   5.210 -0.0696 -2.0492 -3.5181
 5707SOL    HW228755   2.961   1.204   5.148  0.7583  0.6739 -1.0498
 5708SOL     OW28756   2.415   2.962   2.523 -0.0906  0.0646 -0.3590
 5708SOL    HW128757   2.419   3.053   2.494 -0.8387  0.8127  1.9170
 5708SOL    HW228758   2.506   2.935   2.513  0.0198 -0.0435  1.0273
 5709SOL     OW28759   4.574   3.136  16.184 -0.6351  0.2929 -0.5287
 5709SOL    HW128760   4.559   3.195  16.258 -0.5875 -0.7970  0.3519
 5709SOL    HW228761   4.539   3.054  16.219  0.1099  0.8539  1.5338
 5710SOL     OW28762   4.265   1.604   3.088  0.1447  1.2876  0.2742
 5710SOL    HW128763   4.241   1.525   3.136  2.0853 -0.7008 -2.0296
 5710SOL    HW228764   4.184   1.653   3.108 -1.0277 -0.0924 -1.1284
 5711SOL     OW28765   1.399   3.926   6.765  0.1241 -0.5058 -0.3023
 5711SOL    HW128766   1.438   3.966   6.843 -2.8505 -0.3815  1.1288
 5711SOL    HW228767   1.343   3.860   6.806  0.6899 -1.0249 -0.3571
 5712SOL     OW28768   4.018   4.446  12.509  0.0602  0.3677 -0.0620
 5712SOL    HW128769   4.057   4.513  12.453  1.5830  0.1356  0.7119
 5712SOL    HW228770   3.933   4.480  12.538  1.1342  2.3851  0.7079
 5713SOL     OW28771   0.185   2.305  16.038  0.0686 -0.3163  0.3217
 5713SOL    HW128772   0.260   2.250  16.019  1.1299  1.6759 -1.1877
 5713SOL    HW228773   0.220   2.359  16.109  0.2910  0.0731 -0.0909
 5714SOL     OW28774   4.159   2.084  14.309  0.0888 -0.1532  0.3772
 5714SOL    HW128775   4.164   2.143  14.385  3.1377  1.3416 -1.0219
 5714SOL    HW228776   4.164   1.999  14.354  0.5595 -0.4650 -0.2757
 5715SOL     OW28777   4.496   1.482   3.004  0.3599  0.4796 -0.4722
 5715SOL    HW128778   4.410   1.519   3.022  0.0196 -0.7651  0.4741
 5715SOL    HW228779   4.534   1.550   2.947  2.3603  0.1409  0.4469
 5716SOL     OW28780   2.513   0.889  16.210  0.7283 -0.8605 -0.4095
 5716SOL    HW128781   2.501   0.984  16.204  0.5538 -0.9371 -1.2900
 5716SOL    HW228782   2.528   0.876  16.117 -2.6247 -0.4128 -1.0250
 5717SOL     OW28783   1.904   3.607  11.746 -0.7608 -0.0318 -0.2145
 5717SOL    HW128784   1.938   3.569  11.665  0.7071 -1.3542  1.0128
 5717SOL    HW228785   1.946   3.692  11.763 -0.2083 -0.0680 -1.4001
 5718SOL     OW28786   0.300   1.180   2.234  0.6262  0.5551  1.1278
 5718SOL    HW128787   0.219   1.227   2.212  1.7946  1.9979 -0.1406
 5718SOL    HW228788   0.323   1.208   2.322 -0.9835  1.6152  1.2161
 5719SOL     OW28789   0.091   3.586  11.897 -0.4264  0.4235 -0.3676
 5719SOL    HW128790   0.092   3.501  11.852  0.2446  0.1252  0.2088
 5719SOL    HW228791   0.009   3.617  11.859  0.3896  2.6380 -0.2692
 5720SOL     OW28792   1.917   2.432   2.256 -0.3325  0.2830 -0.6335
 5720SOL    HW128793   1.834   2.458   2.295  1.3274 -0.2879  3.2400
 5720SOL    HW228794   1.959   2.515   2.232 -0.3431  0.3503 -0.4208
 5721SOL     OW28795   2.210   4.327   8.793 -0.0271  0.0199 -0.5530
 5721SOL    HW128796   2.250   4.371   8.718  1.9579  2.6099  2.0689
 5721SOL    HW228797   2.220   4.399   8.855  3.3624  1.4219 -2.7329
 5722SOL     OW28798   4.015   3.355   7.896  0.6100  0.2931  0.2161
 5722SOL    HW128799   3.955   3.305   7.840  1.4953 -0.6281  0.0927
 5722SOL    HW228800   3.955   3.416   7.939  0.5608 -0.6418  1.4404
 5723SOL     OW28801   4.359   3.052   3.113  0.1336 -0.2761  0.0478
 5723SOL    HW128802   4.447   3.016   3.105  0.1544 -0.3017  0.4108
 5723SOL    HW228803   4.320   3.060   3.026 -2.2697 -1.6703  0.9737
 5724SOL     OW28804   2.833   0.039   7.491  0.4058  0.0449  0.2341
 5724SOL    HW128805   2.888   0.076   7.560  1.6224 -2.3022  0.5336
 5724SOL    HW228806   2.894   4.718   7.448 -0.9222  0.5084 -2.2676
 5725SOL     OW28807   0.993   4.103   4.090  0.2468  0.4087 -0.4385
 5725SOL    HW128808   0.989   4.197   4.075 -0.3610  0.3010 -0.9328
 5725SOL    HW228809   0.946   4.063   4.016  0.0230  1.1593 -0.6955
 5726SOL     OW28810   0.359   2.545   6.490  0.3483  0.1470  0.1961
 5726SOL    HW128811   0.447   2.538   6.454  1.4109  2.2534  2.3846
 5726SOL    HW228812   0.365   2.627   6.539 -1.0746  0.7865 -0.6769
 5727SOL     OW28813   1.962   0.093   6.952 -0.1906 -0.6167 -0.1846
 5727SOL    HW128814   1.924   0.099   7.039  1.0367  1.2136  0.2242
 5727SOL    HW228815   1.881   0.069   6.907 -1.5924 -1.1727  2.6905
 5728SOL     OW28816   2.747   3.594  16.945 -0.1165 -0.0567  0.1803
 5728SOL    HW128817   2.839   3.618  16.934 -0.6832  2.0003 -0.1054
 5728SOL    HW228818   2.710   3.666  16.894 -1.8153 -0.6203  0.6337
 5729SOL     OW28819   3.727   2.090  15.046  0.0687  0.0341 -0.4062
 5729SOL    HW128820   3.650   2.133  15.084  1.4887  1.0686  1.3067
 5729SOL    HW228821   3.690   2.006  15.019 -1.1722  0.5486 -0.3500
 5730SOL     OW28822   1.091   1.043   6.849  0.1467  0.0217  0.3436
 5730SOL    HW128823   1.005   1.077   6.875  1.2091  2.1812  1.0135
 5730SOL    HW228824   1.082   1.049   6.754  2.1680 -2.3533  0.0263
 5731SOL     OW28825   2.020   2.137   9.786  0.4423  0.0582 -0.5879
 5731SOL    HW128826   2.087   2.091   9.837  0.1917 -0.1787 -0.4682
 5731SOL    HW228827   1.939   2.119   9.833  0.3707  2.7284  0.3249
 5732SOL     OW28828   1.759   0.732   6.081 -0.2785 -0.5591  0.1636
 5732SOL    HW128829   1.744   0.815   6.037 -0.0424 -0.0514  1.0574
 5732SOL    HW228830   1.696   0.674   6.038  0.3176 -0.6880 -0.5444
 5733SOL     OW28831   2.057   2.002   4.655  0.1387 -0.0892  0.3341
 5733SOL    HW128832   2.090   1.929   4.706 -1.2398 -1.1894 -0.3341
 5733SOL    HW228833   1.966   1.975   4.641  0.4654 -0.6578 -0.7342
 5734SOL     OW28834   0.119   4.737   2.512 -0.3833 -0.5389  0.3790
 5734SOL    HW128835   0.189   0.039   2.562 -0.6647 -0.6540  0.8686
 5734SOL    HW228836   0.118   4.647   2.544 -0.0341 -0.7721 -0.2725
 5735SOL     OW28837   0.722   1.898  11.194  0.0052 -0.0511 -0.4088
 5735SOL    HW128838   0.769   1.842  11.132 -1.1150 -1.4182 -0.0290
 5735SOL    HW228839   0.720   1.835  11.265 -0.6703  0.8299  0.3527
 5736SOL     OW28840   3.539   1.044  12.239 -0.2853 -0.0040 -0.6336
 5736SOL    HW128841   3.603   1.104  12.200 -0.4214  0.5316 -0.0296
 5736SOL    HW228842   3.506   1.105  12.305 -0.0301  2.4165 -2.7547
 5737SOL     OW28843   3.407   2.713   0.800  0.2010  0.1436  0.3738
 5737SOL    HW128844   3.336   2.660   0.763  1.0316 -0.6956 -0.0385
 5737SOL    HW228845   3.466   2.717   0.725 -1.6435 -0.1368 -1.0955
 5738SOL     OW28846   2.020   1.223   7.031  0.0135  0.2460 -0.0805
 5738SOL    HW128847   2.101   1.177   7.051 -0.3134 -0.1678  0.2746
 5738SOL    HW228848   1.956   1.158   7.001  1.2646 -1.0775  0.1105
 5739SOL     OW28849   1.793   2.310   1.439  0.0149  0.0789 -0.0023
 5739SOL    HW128850   1.759   2.376   1.500  1.8689  0.9482  0.1061
 5739SOL    HW228851   1.888   2.326   1.431  0.2546 -1.3557  0.0436
 5740SOL     OW28852   1.474   2.740  13.661  0.5114 -0.4416  0.5987
 5740SOL    HW128853   1.383   2.713  13.654  0.4419  0.1193 -0.7703
 5740SOL    HW228854   1.490   2.722  13.753 -0.9279 -0.6622  0.7981
 5741SOL     OW28855   0.602   0.127  17.187  0.0520  0.6913  0.0957
 5741SOL    HW128856   0.556   0.188  17.244  0.8318  0.4808  0.9465
 5741SOL    HW228857   0.682   0.174  17.164  0.7590 -0.5758 -0.0154
 5742SOL     OW28858   3.400   1.226   9.416  0.2478  0.0575 -0.2022
 5742SOL    HW128859   3.419   1.300   9.474 -1.4790 -0.8407  1.5083
 5742SOL    HW228860   3.320   1.197   9.459  0.3252  0.7680  0.4299
 5743SOL     OW28861   2.524   4.081   9.226 -0.5091  0.2509  0.0747
 5743SOL    HW128862   2.481   4.054   9.145  0.3578 -0.0807 -0.2749
 5743SOL    HW228863   2.578   4.150   9.187  0.4254 -0.0647  0.7929
 5744SOL     OW28864   4.111   4.568   7.656 -0.2222  0.1834 -0.4621
 5744SOL    HW128865   4.050   4.553   7.728 -1.4631 -2.2383 -2.0216
 5744SOL    HW228866   4.134   4.658   7.679  1.7631 -0.3539 -0.3396
 5745SOL     OW28867   2.330   3.232   4.125  0.2602 -1.1005 -0.0821
 5745SOL    HW128868   2.257   3.256   4.182  0.6839 -0.0621  0.0183
 5745SOL    HW228869   2.389   3.183   4.184  1.3031  1.4887  1.0366
 5746SOL     OW28870   3.857   0.151   2.356  0.2789  0.5505 -0.7668
 5746SOL    HW128871   3.878   0.244   2.357  0.5212  0.4742  1.1710
 5746SOL    HW228872   3.948   0.120   2.349  0.5095  0.5872  1.9520
 5747SOL     OW28873   0.409   1.648  15.187  0.1235  0.1164  0.1070
 5747SOL    HW128874   0.487   1.701  15.206  1.2646 -1.4269 -0.3147
 5747SOL    HW228875   0.357   1.712  15.138  0.9072  1.7207  1.3680
 5748SOL     OW28876   4.486   4.333   9.715  0.2494  0.0161  0.1190
 5748SOL    HW128877   4.406   4.335   9.662  0.2367 -4.5005 -0.0371
 5748SOL    HW228878   4.463   4.399   9.780 -1.7513  0.3586 -0.9540
 5749SOL     OW28879   0.282   3.221   3.973  0.2198 -0.3643  0.0195
 5749SOL    HW128880   0.317   3.181   3.894 -2.1976 -0.1405 -1.1426
 5749SOL    HW228881   0.318   3.165   4.042  0.4575  1.4650  1.3908
 5750SOL     OW28882   3.443   4.353  17.694  0.6240 -0.0857 -0.4922
 5750SOL    HW128883   3.491   4.280  17.732  2.0164  0.4968 -1.1184
 5750SOL    HW228884   3.519   4.398  17.656  0.0270  0.1442 -1.4230
 5751SOL     OW28885   0.210   1.162   9.961 -0.2216  0.5746  0.1305
 5751SOL    HW128886   0.149   1.089   9.953  0.0705  0.6721 -3.0742
 5751SOL    HW228887   0.153   1.236   9.938  1.5941  1.6865 -0.8313
 5752SOL     OW28888   0.967   2.432   1.534  0.8022  0.4807 -0.2234
 5752SOL    HW128889   0.882   2.388   1.540  0.5360  0.8029 -1.5802
 5752SOL    HW228890   0.962   2.507   1.592  3.1132  0.5742 -0.1545
 5753SOL     OW28891   1.122   1.430   5.858  0.1882 -0.7163  0.8211
 5753SOL    HW128892   1.193   1.489   5.833 -0.3167  0.5224  2.3226
 5753SOL    HW228893   1.057   1.497   5.876 -0.4263 -0.4356 -2.5484
 5754SOL     OW28894   2.633   3.454   2.057  0.3361 -0.3166  0.0939
 5754SOL    HW128895   2.676   3.475   1.974 -0.5749 -0.5615 -0.4409
 5754SOL    HW228896   2.545   3.475   2.025 -0.7794 -2.3853  1.7957
 5755SOL     OW28897   3.777   2.040   1.052  0.2161  0.3524  0.1047
 5755SOL    HW128898   3.807   2.043   1.143 -2.4818 -1.5883  1.0518
 5755SOL    HW228899   3.726   1.959   1.056 -0.4085  0.6972 -0.9784
 5756SOL     OW28900   4.566   0.119   9.611 -0.2183  0.2258  0.0257
 5756SOL    HW128901   4.490   0.108   9.667  0.0887  2.7333  0.9303
 5756SOL    HW228902   4.584   0.213   9.616  2.5213 -0.4789  3.3408
 5757SOL     OW28903   3.521   4.456   4.209  0.1228  0.2702 -0.1192
 5757SOL    HW128904   3.545   4.547   4.228  1.5022  0.0663 -0.8352
 5757SOL    HW228905   3.452   4.459   4.144  0.3094 -0.8879 -0.3730
 5758SOL     OW28906   2.835   4.067  13.672  0.0462  0.0582 -0.0732
 5758SOL    HW128907   2.853   4.040  13.763  0.8993 -1.0499 -0.5699
 5758SOL    HW228908   2.895   4.004  13.633 -0.7973 -0.1243 -1.0527
 5759SOL     OW28909   0.659   4.359   4.293  0.3114 -0.4677  0.9658
 5759SOL    HW128910   0.691   4.446   4.268  0.8358 -0.3164  2.1731
 5759SOL    HW228911   0.628   4.331   4.207 -0.0970 -1.0990  1.3247
 5760SOL     OW28912   1.405   1.323  10.799  0.0451  0.0494  0.0651
 5760SOL    HW128913   1.315   1.295  10.780  0.2969 -0.7698  0.0470
 5760SOL    HW228914   1.394   1.355  10.889 -0.8664 -0.8360  0.2731
 5761SOL     OW28915   4.032   0.402   2.003  0.2737 -0.8839  0.1158
 5761SOL    HW128916   4.066   0.329   2.054 -0.3886  0.2899  2.2277
 5761SOL    HW228917   4.080   0.401   1.920  1.0467 -0.2576  0.5586
 5762SOL     OW28918   2.706   1.243   5.959  0.2000  0.1364 -0.2147
 5762SOL    HW128919   2.626   1.210   5.918  2.5093 -2.7496 -2.3654
 5762SOL    HW228920   2.742   1.282   5.880  0.7202 -1.0765 -0.5795
 5763SOL     OW28921   4.044   1.586   7.105  0.5093  0.2704 -0.0695
 5763SOL    HW128922   3.955   1.554   7.115 -0.0271  2.7664  3.2400
 5763SOL    HW228923   4.025   1.646   7.033 -0.4118  1.3067  1.0298
 5764SOL     OW28924   0.094   1.848  14.394 -0.4772 -0.3556 -0.1566
 5764SOL    HW128925   4.739   1.841  14.410 -0.3935 -1.7613 -0.2441
 5764SOL    HW228926   0.106   1.827  14.302  1.6255  0.6299 -0.0907
 5765SOL     OW28927   2.154   1.482   1.076  0.3358 -0.2055 -0.4152
 5765SOL    HW128928   2.202   1.470   0.994  0.0700  0.3752 -0.6566
 5765SOL    HW228929   2.082   1.536   1.042  0.7976  0.2137 -0.7266
 5766SOL     OW28930   3.184   0.349   4.767 -0.4402 -0.2203 -1.2611
 5766SOL    HW128931   3.245   0.382   4.834 -1.8106 -3.6544  1.7091
 5766SOL    HW228932   3.241   0.344   4.690  1.1296 -0.4983 -0.0855
 5767SOL     OW28933   3.623   2.631   8.500 -0.2978  0.0443 -0.4673
 5767SOL    HW128934   3.710   2.668   8.481  0.3333 -1.1154  0.1839
 5767SOL    HW228935   3.636   2.538   8.516 -0.0268  0.1892  0.1430
 5768SOL     OW28936   0.045   3.487   0.714 -0.1472 -0.4191  0.1936
 5768SOL    HW128937   0.099   3.501   0.637  0.2331  2.3347  0.9671
 5768SOL    HW228938   4.735   3.568   0.703 -2.6425 -1.8326  0.9710
 5769SOL     OW28939   1.058   2.131   2.684 -0.6288  0.0654  0.3362
 5769SOL    HW128940   1.136   2.083   2.712 -1.1208 -0.1127  1.3907
 5769SOL    HW228941   1.073   2.123   2.589 -1.9449  0.6253  0.0825
 5770SOL     OW28942   2.501   3.383  12.781 -0.1838 -0.0704 -0.3423
 5770SOL    HW128943   2.438   3.400  12.711 -0.2279 -0.5479 -0.4153
 5770SOL    HW228944   2.524   3.472  12.808 -0.5237 -0.1845  0.3187
 5771SOL     OW28945   0.714   1.657   4.613 -0.2563  0.5692 -0.6648
 5771SOL    HW128946   0.726   1.661   4.708  1.3765  1.1027 -0.8876
 5771SOL    HW228947   0.634   1.608   4.598  0.2630 -0.1665 -1.0300
 5772SOL     OW28948   0.793   2.877   0.015  0.3347 -0.0915 -0.0543
 5772SOL    HW128949   0.759   2.958  17.732 -0.6308 -0.5420 -0.1544
 5772SOL    HW228950   0.733   2.893   0.089  1.0702 -2.6439  1.0601
 5773SOL     OW28951   3.547   4.706   0.923  0.3838  0.0195  0.5499
 5773SOL    HW128952   3.618   4.653   0.887 -0.3888 -1.6233  1.4853
 5773SOL    HW228953   3.484   4.707   0.850 -0.6388  1.1233  1.4470
 5774SOL     OW28954   1.130   4.600   7.639 -0.2750 -1.0420 -0.2567
 5774SOL    HW128955   1.060   4.607   7.574 -0.8881 -0.7996  0.4430
 5774SOL    HW228956   1.107   4.661   7.709  0.4673 -0.0983 -0.8313
 5775SOL     OW28957   3.734   4.375  10.218  0.4979 -0.1640 -0.9681
 5775SOL    HW128958   3.814   4.394  10.169  0.6628  1.7538  0.0267
 5775SOL    HW228959   3.738   4.452  10.275 -1.9202 -0.2913 -0.6286
 5776SOL     OW28960   1.920   3.128   4.978  0.2106 -0.1569 -0.7261
 5776SOL    HW128961   1.879   3.148   4.893  1.3681  1.0677 -0.9910
 5776SOL    HW228962   1.841   3.114   5.030  2.3632 -2.6769  1.8097
 5777SOL     OW28963   3.686   4.556  16.299  0.3474 -0.4836  0.6040
 5777SOL    HW128964   3.614   4.597  16.347  1.3141 -1.5702  2.9912
 5777SOL    HW228965   3.645   4.540  16.214 -0.2212 -0.9525  0.9675
 5778SOL     OW28966   3.515   3.690   4.810  0.0546 -0.0792 -0.4995
 5778SOL    HW128967   3.571   3.679   4.887 -0.0679  2.2263 -0.0735
 5778SOL    HW228968   3.526   3.615   4.751 -0.0351 -0.1757 -0.3929
 5779SOL     OW28969   0.121   4.350   5.740  0.1230 -0.7463  0.1835
 5779SOL    HW128970   0.095   4.394   5.821 -1.8594 -1.9021  0.1897
 5779SOL    HW228971   0.097   4.403   5.664 -0.2366 -3.0091 -1.3015
 5780SOL     OW28972   0.094   3.372   2.869 -0.0296 -0.5770 -0.0048
 5780SOL    HW128973   0.028   3.308   2.895  0.4624 -0.5278  1.3707
 5780SOL    HW228974   0.086   3.436   2.940 -0.7948 -0.6278 -0.0437
 5781SOL     OW28975   3.312   0.555  11.873  0.2751  0.1674  0.0935
 5781SOL    HW128976   3.284   0.465  11.857 -4.1726  1.5320  0.1955
 5781SOL    HW228977   3.357   0.545  11.956 -0.7533 -0.8092  0.5333
 5782SOL     OW28978   4.075   1.876   8.649 -0.1313 -0.0933 -0.2637
 5782SOL    HW128979   4.094   1.863   8.741 -0.6242  1.8858  0.1242
 5782SOL    HW228980   4.031   1.794   8.628  1.5774 -1.3828  1.2266
 5783SOL     OW28981   2.171   2.842   3.814  0.0149  0.0567 -0.4494
 5783SOL    HW128982   2.104   2.907   3.836 -0.8458 -0.9407 -0.0798
 5783SOL    HW228983   2.128   2.761   3.786 -1.0269  0.2747  0.5296
 5784SOL     OW28984   3.599   4.506   2.725  0.3182 -0.2390  0.3405
 5784SOL    HW128985   3.622   4.597   2.746 -0.6061  0.7178 -2.8890
 5784SOL    HW228986   3.504   4.511   2.715  0.3952 -2.4738 -1.3906
 5785SOL     OW28987   1.555   1.315   7.080 -0.0726 -0.1473 -0.3962
 5785SOL    HW128988   1.474   1.271   7.104  0.0911 -0.6406 -0.7477
 5785SOL    HW228989   1.608   1.291   7.157 -0.3522 -2.6900 -0.9819
 5786SOL     OW28990   0.723   4.104  12.760 -0.0166 -0.2788  0.2225
 5786SOL    HW128991   0.747   4.035  12.822  0.5202  1.5836  2.1240
 5786SOL    HW228992   0.630   4.120  12.779  0.3959  0.0610  1.9854
 5787SOL     OW28993   1.156   4.735   5.373 -0.4749 -0.0753  0.3206
 5787SOL    HW128994   1.194   0.060   5.433 -1.2431  0.7181 -0.0481
 5787SOL    HW228995   1.204   4.657   5.404 -0.3795  0.5772  1.8219
 5788SOL     OW28996   2.906   1.801   4.126  1.0595 -0.1002 -0.0555
 5788SOL    HW128997   2.960   1.860   4.074  1.8779 -2.7611 -2.2228
 5788SOL    HW228998   2.884   1.847   4.207  0.8965  0.3967 -0.3826
 5789SOL     OW28999   3.677   1.541   8.923 -0.4740  0.3262  0.1681
 5789SOL    HW129000   3.595   1.510   8.887  0.2364 -0.1870 -1.0072
 5789SOL    HW229001   3.696   1.462   8.974  0.5782  1.1589  1.0857
 5790SOL     OW29002   0.439   1.187   7.481  0.1760  0.4569 -0.0627
 5790SOL    HW129003   0.357   1.236   7.478  0.0478  0.2301 -0.2635
 5790SOL    HW229004   0.498   1.262   7.489  0.6989 -0.3071  3.3237
 5791SOL     OW29005   3.484   1.389  15.153  0.3279 -0.0527 -0.1994
 5791SOL    HW129006   3.506   1.298  15.173 -1.3418 -0.4507 -0.1654
 5791SOL    HW229007   3.446   1.368  15.067  2.5631 -0.1717 -1.1563
 5792SOL     OW29008   4.524   3.111   2.455  0.3492  0.5291  0.6190
 5792SOL    HW129009   4.537   3.130   2.548  0.5649 -0.6992  0.8363
 5792SOL    HW229010   4.443   3.155   2.431  0.4005  0.1574 -0.2162
 5793SOL     OW29011   4.404   2.636   4.457 -0.1530 -0.1120  0.0546
 5793SOL    HW129012   4.479   2.577   4.452  1.7208  2.2942 -0.2922
 5793SOL    HW229013   4.366   2.622   4.370  0.4732 -0.5735 -0.1404
 5794SOL     OW29014   0.142   2.313   4.752  0.0085 -0.1121  0.1465
 5794SOL    HW129015   0.174   2.313   4.662  0.2510  0.1877  0.2308
 5794SOL    HW229016   0.050   2.316   4.724  0.3127  0.2570 -0.8135
 5795SOL     OW29017   4.192   2.946   6.400 -0.3952  0.3271 -0.3116
 5795SOL    HW129018   4.241   2.947   6.483 -2.2275 -2.4300  0.8071
 5795SOL    HW229019   4.122   3.004   6.431 -0.4131  0.3489 -0.3946
 5796SOL     OW29020   3.656   0.774   8.773 -0.6632 -0.0417  0.2647
 5796SOL    HW129021   3.640   0.680   8.781 -1.6733  0.0732 -0.4340
 5796SOL    HW229022   3.569   0.800   8.745  0.0159  0.4475 -1.4173
 5797SOL     OW29023   4.357   3.165   1.692  0.1744 -0.1895 -0.1752
 5797SOL    HW129024   4.446   3.173   1.656 -0.2322  0.0316 -1.1162
 5797SOL    HW229025   4.377   3.092   1.751 -1.4434 -1.6288 -1.4176
 5798SOL     OW29026   2.690   1.478   7.715  0.1974 -0.3635  0.1979
 5798SOL    HW129027   2.635   1.402   7.734 -1.4509 -0.1722 -3.7718
 5798SOL    HW229028   2.634   1.555   7.727 -2.8619 -2.7474  1.1430
 5799SOL     OW29029   4.414   4.193   5.745 -0.3390 -0.3361 -0.2905
 5799SOL    HW129030   4.401   4.107   5.784 -0.4959  0.6834  1.9194
 5799SOL    HW229031   4.508   4.198   5.727 -0.1497 -3.2886 -0.0961
 5800SOL     OW29032   3.802   3.391   2.863 -0.9280 -0.3641 -0.7846
 5800SOL    HW129033   3.812   3.348   2.948  0.0585  0.4909 -0.4620
 5800SOL    HW229034   3.731   3.452   2.884 -0.9353 -0.6720  0.0931
 5801SOL     OW29035   3.020   2.898   1.315  0.6510  0.0691 -0.7007
 5801SOL    HW129036   3.105   2.901   1.360  0.1785  0.3032  0.1701
 5801SOL    HW229037   3.020   2.984   1.274 -0.8043 -0.1236 -1.0972
 5802SOL     OW29038   2.953   4.666   4.263  0.5608  0.9880 -0.3383
 5802SOL    HW129039   2.971   0.019   4.250  1.0881  0.6226 -2.3268
 5802SOL    HW229040   2.933   4.669   4.356 -1.3012 -0.3318 -0.6853
 5803SOL     OW29041   1.111   2.751   7.550 -0.2620 -0.3848 -0.3325
 5803SOL    HW129042   1.196   2.738   7.508 -1.0151 -0.7072 -1.7356
 5803SOL    HW229043   1.055   2.703   7.489  1.7057 -2.0900 -0.7956
 5804SOL     OW29044   2.952   2.137   8.918  0.0799 -0.4600 -0.1550
 5804SOL    HW129045   3.045   2.158   8.930  0.2501 -1.5252  0.3365
 5804SOL    HW229046   2.910   2.223   8.923  0.3458 -0.3832  0.7041
 5805SOL     OW29047   3.934   4.605   4.506  0.1829 -0.1350  0.4732
 5805SOL    HW129048   3.897   4.664   4.572  1.6222  2.1202 -0.7240
 5805SOL    HW229049   3.884   4.525   4.519 -0.1985  0.1752  0.9084
 5806SOL     OW29050   3.151   4.712   3.857  0.2537 -0.3984  0.4170
 5806SOL    HW129051   3.061   0.001   3.837  0.5836  0.5830  0.3351
 5806SOL    HW229052   3.174   4.689   3.767  0.3384 -0.6230  0.4980
 5807SOL     OW29053   4.349   0.063   2.240 -0.0164  0.0180 -0.7986
 5807SOL    HW129054   4.342   0.158   2.244 -0.5867  0.0018 -1.3453
 5807SOL    HW229055   4.287   0.059   2.312  2.2922  1.2180  1.2424
 5808SOL     OW29056   3.955   2.344   3.945  0.2908  0.2154 -0.0476
 5808SOL    HW129057   4.043   2.309   3.956 -0.0164  0.3326  2.9256
 5808SOL    HW229058   3.978   2.427   3.904  0.5055  0.3733  0.3925
 5809SOL     OW29059   4.180   3.672   6.757  0.0314 -0.5248 -0.1205
 5809SOL    HW129060   4.182   3.581   6.727  1.7093 -0.2568 -0.8346
 5809SOL    HW229061   4.094   3.678   6.799  0.7552 -0.7336  1.3935
 5810SOL     OW29062   4.563   2.072   5.472  0.2950  0.2445  0.0135
 5810SOL    HW129063   4.504   2.137   5.433  0.0917  0.3568  0.5130
 5810SOL    HW229064   4.586   2.118   5.553  0.9156  0.1487 -0.1070
 5811SOL     OW29065   2.665   2.716  15.304 -0.3590 -0.0689 -0.6757
 5811SOL    HW129066   2.734   2.775  15.273 -0.1658  1.1761  2.0890
 5811SOL    HW229067   2.709   2.672  15.377 -0.5217  0.8064 -0.0593
 5812SOL     OW29068   2.974   3.081   5.345 -0.1165  0.2292  0.0937
 5812SOL    HW129069   2.941   3.115   5.429 -2.3828 -2.5568  0.3221
 5812SOL    HW229070   2.909   3.113   5.283  1.4510  1.6978 -0.8216
 5813SOL     OW29071   2.568   0.195   5.639 -0.7233  0.4618 -0.4555
 5813SOL    HW129072   2.487   0.241   5.664 -2.6901 -0.7307 -4.6247
 5813SOL    HW229073   2.559   0.108   5.678  0.4779 -0.1582 -1.5489
 5814SOL     OW29074   4.138   1.015   6.176 -0.3287 -0.0261 -0.2030
 5814SOL    HW129075   4.225   1.048   6.200 -0.8953  1.1565  0.2334
 5814SOL    HW229076   4.130   1.090   6.117 -0.8587  0.8756  1.0210
 5815SOL     OW29077   3.028   1.308   2.938  0.5571 -0.2935  0.0273
 5815SOL    HW129078   3.114   1.321   2.899  1.1366 -1.2690  0.9888
 5815SOL    HW229079   3.024   1.385   2.996  1.2193 -1.0596  1.1096
 5816SOL     OW29080   3.377   0.253   9.991  0.3191  0.1872 -0.1988
 5816SOL    HW129081   3.284   0.271   9.980  0.5493  0.7953 -1.1300
 5816SOL    HW229082   3.378   0.170   9.944 -0.3231 -0.5067  1.0208
 5817SOL     OW29083   3.989   0.996   4.416  0.4345 -0.3981 -0.1495
 5817SOL    HW129084   4.028   1.029   4.335  1.7367 -0.4283  0.4707
 5817SOL    HW229085   3.986   1.075   4.469 -2.1108 -0.8456  0.3798
 5818SOL     OW29086   4.074   2.822   4.245 -0.1307 -0.6179 -0.4197
 5818SOL    HW129087   4.064   2.886   4.316 -0.5101 -2.3430  1.0829
 5818SOL    HW229088   4.025   2.746   4.276 -1.0456 -0.0879 -0.5454
 5819SOL     OW29089   4.217   2.696   9.570  0.6602  0.0883 -0.0167
 5819SOL    HW129090   4.259   2.611   9.564 -0.8056 -0.6325 -0.0288
 5819SOL    HW229091   4.159   2.700   9.494 -1.1327 -0.1968  1.3538
 5820SOL     OW29092   4.001   0.391   8.348 -0.2880 -0.0153  0.2097
 5820SOL    HW129093   4.052   0.468   8.323 -1.5439  0.9163  0.4980
 5820SOL    HW229094   4.058   0.344   8.408  0.7874  0.3028 -0.5595
 5821SOL     OW29095   3.086   4.312   5.709 -0.3338 -0.3657 -0.4342
 5821SOL    HW129096   3.141   4.235   5.694  2.8577  2.1564 -1.5838
 5821SOL    HW229097   3.056   4.321   5.618 -2.8825  0.4836  0.4916
 5822SOL     OW29098   3.499   0.075   8.810 -0.6259 -0.0461  0.1614
 5822SOL    HW129099   3.524   4.736   8.761  1.4475  0.9176 -0.3166
 5822SOL    HW229100   3.450   0.044   8.886  0.1631 -2.4984 -0.3328
 5823SOL     OW29101   2.773   0.760  10.380  0.1864 -0.4395  0.0248
 5823SOL    HW129102   2.723   0.679  10.384  0.5083 -0.5240  1.9542
 5823SOL    HW229103   2.844   0.740  10.440  0.3852 -0.0467 -0.0759
 5824SOL     OW29104   4.536   0.546   2.327 -0.5533  0.1120 -0.2061
 5824SOL    HW129105   4.485   0.627   2.318  1.7592  1.5653 -0.3575
 5824SOL    HW229106   4.621   0.582   2.352  0.9407 -1.9636 -2.3382
 5825SOL     OW29107   2.153   2.502  17.716  0.2268 -0.4444  0.5394
 5825SOL    HW129108   2.103   2.515  17.636  1.0056  1.7612  0.4231
 5825SOL    HW229109   2.144   2.585   0.006  1.0070 -0.2336  0.3058
 5826SOL     OW29110   1.020   0.180   8.755  0.1615  0.0577 -0.0827
 5826SOL    HW129111   1.090   0.236   8.788  0.7725 -0.8158  0.0805
 5826SOL    HW229112   1.034   0.177   8.661 -1.5348  0.1707 -0.3496
 5827SOL     OW29113   1.376   0.549   7.582  0.1483  0.2817 -0.6930
 5827SOL    HW129114   1.419   0.594   7.509 -0.9695  1.4175 -0.6524
 5827SOL    HW229115   1.296   0.524   7.536 -0.9622  0.1269  1.3563
 5828SOL     OW29116   1.224   3.454   8.527 -0.1106  0.6485 -0.1459
 5828SOL    HW129117   1.188   3.388   8.469  0.7661  0.4814 -0.5020
 5828SOL    HW229118   1.319   3.440   8.523  0.0056  1.3482  0.1321
 5829SOL     OW29119   4.492   0.687  14.617  0.6320  0.8530 -0.0270
 5829SOL    HW129120   4.493   0.777  14.586 -0.6404  0.9998  0.3379
 5829SOL    HW229121   4.569   0.662  14.566 -0.3606 -2.1650 -0.0635
 5830SOL     OW29122   4.359   0.993  17.179 -0.1131  0.2023 -0.4345
 5830SOL    HW129123   4.428   0.978  17.114  0.0534 -0.0172 -0.2104
 5830SOL    HW229124   4.299   1.047  17.128  0.0904  1.0982  0.2770
 5831SOL     OW29125   4.269   0.264   6.343  0.7082  0.5133  0.0718
 5831SOL    HW129126   4.313   0.348   6.357 -1.6232  2.3117 -3.4705
 5831SOL    HW229127   4.262   0.248   6.249  0.4073  0.6730  0.0688
 5832SOL     OW29128   0.344   3.335   2.734  0.2800  0.1527 -0.6113
 5832SOL    HW129129   0.259   3.360   2.771  0.6735  1.8556 -0.8625
 5832SOL    HW229130   0.374   3.262   2.788 -1.4145 -0.7492 -0.8815
 5833SOL     OW29131   4.055   1.550   0.786  0.1231 -0.4598 -0.2733
 5833SOL    HW129132   4.030   1.628   0.835  0.9133 -0.2075 -0.2705
 5833SOL    HW229133   3.978   1.495   0.800 -0.4803  1.0401  2.3546
 5834SOL     OW29134   0.198   2.190   8.203 -0.4627  0.0547 -0.2752
 5834SOL    HW129135   0.249   2.182   8.123 -0.6896 -0.6394 -0.3449
 5834SOL    HW229136   0.151   2.273   8.190 -0.1122  0.2069 -0.5793
 5835SOL     OW29137   0.716   2.667   6.095  0.4249 -0.0333  0.2918
 5835SOL    HW129138   0.696   2.713   6.014 -0.6417 -0.2041  0.4526
 5835SOL    HW229139   0.720   2.578   6.060 -1.5537 -0.5772  1.3974
 5836SOL     OW29140   1.255   1.544  17.648 -0.0277  0.1322  0.1320
 5836SOL    HW129141   1.310   1.622  17.643 -0.4017  0.1536 -3.1117
 5836SOL    HW229142   1.218   1.548  17.737  0.7563  2.3540  0.3673
 5837SOL     OW29143   0.109   0.111  17.459 -0.1953 -0.0208 -0.0175
 5837SOL    HW129144   0.184   0.068  17.418 -1.3313  0.6257 -2.7682
 5837SOL    HW229145   0.066   0.132  17.377 -0.6546 -1.0851 -0.0435
 5838SOL     OW29146   2.131   2.737  15.020  0.6317 -0.5595  0.7110
 5838SOL    HW129147   2.081   2.814  15.047  0.8183 -0.2128  0.0689
 5838SOL    HW229148   2.071   2.672  15.056 -0.8440  0.4543  0.1029
 5839SOL     OW29149   2.408   4.172   5.226 -0.2033 -0.0251 -0.6365
 5839SOL    HW129150   2.487   4.168   5.280  0.4887 -0.4954 -1.6770
 5839SOL    HW229151   2.373   4.083   5.228  0.1691 -0.1632 -0.3870
 5840SOL     OW29152   1.491   3.796   6.085 -0.1185  0.2259  0.4835
 5840SOL    HW129153   1.494   3.842   6.169 -3.3390 -0.5216  1.0169
 5840SOL    HW229154   1.497   3.876   6.033 -2.9503 -0.6640 -1.2283
 5841SOL     OW29155   4.096   0.147   2.091  0.3141 -0.7641 -0.4489
 5841SOL    HW129156   4.055   0.115   2.011 -0.5045 -0.0325 -0.3286
 5841SOL    HW229157   4.169   0.087   2.105  1.5892  0.6673 -0.8534
 5842SOL     OW29158   1.476   1.621   3.242 -0.1216 -0.0618 -0.6639
 5842SOL    HW129159   1.405   1.561   3.264  0.9005 -0.7665  0.6615
 5842SOL    HW229160   1.508   1.583   3.160  1.8378  0.0879  0.0270
 5843SOL     OW29161   0.297   4.289  15.142  0.0231 -0.0790  0.0814
 5843SOL    HW129162   0.380   4.301  15.096 -1.5635  0.6762 -2.6001
 5843SOL    HW229163   0.295   4.195  15.159  0.5781 -0.3470 -1.3428
 5844SOL     OW29164   3.422   4.671   3.285 -0.0205  0.1040  0.0383
 5844SOL    HW129165   3.476   4.613   3.232 -3.2177 -2.1603 -0.7682
 5844SOL    HW229166   3.341   4.646   3.240  0.5804 -0.5540 -0.6669
 5845SOL     OW29167   1.811   2.561  12.204 -0.5246  0.3193 -0.7089
 5845SOL    HW129168   1.860   2.555  12.286  0.0871  0.5846 -1.0583
 5845SOL    HW229169   1.770   2.647  12.199  2.2686  1.6613 -0.8986
 5846SOL     OW29170   0.504   2.856   2.541 -0.1597  0.0353 -0.1427
 5846SOL    HW129171   0.531   2.945   2.517 -1.0043  0.0571 -0.9933
 5846SOL    HW229172   0.566   2.832   2.610 -1.8951 -0.7744  1.1311
 5847SOL     OW29173   0.370   2.904   4.660  0.4131 -0.5149 -0.0495
 5847SOL    HW129174   0.295   2.938   4.709  1.5875  0.0736  1.3587
 5847SOL    HW229175   0.406   2.838   4.719  0.8728 -1.3343 -1.2388
 5848SOL     OW29176   2.154   2.904   6.872  0.2631 -0.1996 -0.1663
 5848SOL    HW129177   2.155   2.934   6.781 -0.5748  1.2151  0.2987
 5848SOL    HW229178   2.103   2.824   6.862 -1.1286  0.5889  0.6523
 5849SOL     OW29179   0.724   4.494  11.206  0.3602  0.0202  0.3042
 5849SOL    HW129180   0.681   4.580  11.211 -2.2776 -1.4168  2.1900
 5849SOL    HW229181   0.803   4.519  11.158 -0.7204  0.9300 -1.0012
 5850SOL     OW29182   4.213   0.989  16.714  0.3314 -0.4390 -0.3983
 5850SOL    HW129183   4.302   0.965  16.739  0.0489  0.8853  1.9133
 5850SOL    HW229184   4.166   0.908  16.736 -0.9720  0.0379 -1.4195
 5851SOL     OW29185   1.446   3.789   2.200  0.6843 -0.6709 -0.2335
 5851SOL    HW129186   1.395   3.753   2.272  2.3653 -1.2530  0.6532
 5851SOL    HW229187   1.396   3.747   2.129 -1.2501  0.6138  0.3604
 5852SOL     OW29188   2.569   1.909   0.154  0.7059 -0.2494 -0.2166
 5852SOL    HW129189   2.577   1.849   0.079  2.4092 -0.3617  0.0612
 5852SOL    HW229190   2.500   1.962   0.113  1.1203 -0.5756 -1.3481
 5853SOL     OW29191   1.817   2.423   3.073  0.3946 -0.4090  0.2547
 5853SOL    HW129192   1.807   2.329   3.086  0.2551 -0.6074 -1.2318
 5853SOL    HW229193   1.787   2.449   3.159 -0.7116  0.7080 -0.4666
 5854SOL     OW29194   3.142   0.841   2.379  0.3671  0.1510 -0.1544
 5854SOL    HW129195   3.207   0.900   2.341  1.2610 -1.3418 -0.9292
 5854SOL    HW229196   3.185   0.821   2.461 -1.3077 -0.0329  0.6834
 5855SOL     OW29197   2.102   2.944   4.580  0.0287 -0.0245  0.1932
 5855SOL    HW129198   2.016   2.977   4.557 -0.5604 -1.0502  0.9417
 5855SOL    HW229199   2.107   2.870   4.519 -0.9649  0.3963 -0.3959
 5856SOL     OW29200   2.973   1.053   6.971 -0.4506 -0.5189 -0.2973
 5856SOL    HW129201   2.930   1.016   6.893 -0.5712 -0.5746 -0.2041
 5856SOL    HW229202   3.035   0.983   6.989  0.3187 -0.4224 -2.5386
 5857SOL     OW29203   1.048   3.150   3.128  1.2992 -0.0828 -0.4358
 5857SOL    HW129204   0.976   3.086   3.125  0.5503  0.7834 -0.9966
 5857SOL    HW229205   1.099   3.111   3.199 -1.5752  0.0039  1.6637
 5858SOL     OW29206   1.074   0.723   5.900 -0.4696 -0.1730  0.2484
 5858SOL    HW129207   1.098   0.704   5.809 -3.5025  1.7183 -0.9328
 5858SOL    HW229208   1.087   0.817   5.896 -0.4662 -0.2077 -0.4994
 5859SOL     OW29209   2.540   2.449   7.073  0.1453  0.1562 -0.2845
 5859SOL    HW129210   2.613   2.489   7.120 -0.8434  0.4988  0.9729
 5859SOL    HW229211   2.526   2.369   7.123 -1.4126 -0.3568 -1.5598
 5860SOL     OW29212   4.329   1.415   8.889  0.0196 -0.1815  0.1546
 5860SOL    HW129213   4.399   1.388   8.948 -0.3990 -1.0474  0.2517
 5860SOL    HW229214   4.321   1.342   8.827 -0.7470  0.4943 -0.5471
 5861SOL     OW29215   0.899   1.993   3.675 -0.0161 -0.4239 -0.3739
 5861SOL    HW129216   0.959   1.926   3.641  0.3262  1.2602 -3.1452
 5861SOL    HW229217   0.888   2.047   3.597 -1.4110  0.3290  0.3606
 5862SOL     OW29218   0.895   0.227   7.511 -0.3001 -0.4577  0.2744
 5862SOL    HW129219   0.807   0.232   7.549  0.0185  0.2574  0.9295
 5862SOL    HW229220   0.898   0.278   7.429 -0.6463 -1.1561 -0.1704
 5863SOL     OW29221   1.947   3.026   1.222  0.8503  0.1588 -0.6313
 5863SOL    HW129222   1.884   2.956   1.237 -1.0042  2.0385  0.4288
 5863SOL    HW229223   2.032   2.983   1.231 -0.4496 -2.1889  0.1684
 5864SOL     OW29224   1.327   0.056   5.111 -0.0650  0.0085 -0.2949
 5864SOL    HW129225   1.331   4.715   5.058  0.7436 -0.1135 -0.0499
 5864SOL    HW229226   1.235   0.074   5.092  0.0698  0.0943 -0.8884
 5865SOL     OW29227   2.443   3.973   3.857 -0.0682 -0.4044 -0.0189
 5865SOL    HW129228   2.469   3.890   3.817 -0.5957  0.5664 -2.4194
 5865SOL    HW229229   2.524   4.023   3.847  1.5664 -2.9057  0.8046
 5866SOL     OW29230   0.473   3.244   1.057 -0.6162 -0.6970 -0.1942
 5866SOL    HW129231   0.387   3.285   1.065 -0.6601 -1.0866  1.2455
 5866SOL    HW229232   0.462   3.174   1.121 -2.5134 -0.5356 -0.3599
 5867SOL     OW29233   4.394   4.416   3.663  0.1097  0.0600 -0.1414
 5867SOL    HW129234   4.344   4.442   3.586  0.6694  0.3384 -0.4134
 5867SOL    HW229235   4.410   4.323   3.649 -2.8735 -0.3059 -1.2314
 5868SOL     OW29236   0.154   0.686   9.566 -0.0417  0.4889 -0.2953
 5868SOL    HW129237   0.164   0.701   9.472 -1.4072 -0.5490 -0.6000
 5868SOL    HW229238   0.211   0.755   9.601 -1.9711  1.3264  1.1696
 5869SOL     OW29239   4.524   0.290   6.789 -0.2223 -0.1354  0.1633
 5869SOL    HW129240   4.539   0.385   6.781  3.6024 -0.9476 -2.2904
 5869SOL    HW229241   4.578   0.274   6.866 -0.9464  0.5254  0.8111
 5870SOL     OW29242   0.095   2.941   7.682  0.3922  0.5310  0.2372
 5870SOL    HW129243   0.016   2.887   7.670  0.6485  0.3879 -0.8309
 5870SOL    HW229244   0.063   3.031   7.681 -0.9360  0.0839  1.4798
 5871SOL     OW29245   3.207   0.735  17.010 -0.3554 -0.2078 -0.2677
 5871SOL    HW129246   3.287   0.688  16.987 -0.4973 -0.7835  0.4218
 5871SOL    HW229247   3.133   0.687  16.973  0.4249 -0.6252 -1.2753
 5872SOL     OW29248   2.605   3.750  16.744  0.2527 -0.5414  0.1930
 5872SOL    HW129249   2.522   3.768  16.788  0.5111 -0.7345  0.7753
 5872SOL    HW229250   2.628   3.835  16.707 -2.7223  1.0423  2.0009
 5873SOL     OW29251   4.215   1.696   2.233  0.2280 -0.3325  0.1768
 5873SOL    HW129252   4.227   1.773   2.289 -0.8911 -0.9435  1.2777
 5873SOL    HW229253   4.304   1.677   2.206 -0.2029  0.7322 -1.9696
 5874SOL     OW29254   4.246   0.466   8.108 -0.3112 -0.0964 -0.9459
 5874SOL    HW129255   4.326   0.457   8.055  0.8787 -0.8201  0.9822
 5874SOL    HW229256   4.236   0.373   8.131 -2.4919  0.5915  0.7686
 5875SOL     OW29257   2.386   2.476   4.203  0.2342  0.1119 -0.6355
 5875SOL    HW129258   2.425   2.553   4.245 -0.7376  0.8487 -1.0953
 5875SOL    HW229259   2.295   2.502   4.211  0.4547  0.6356  0.1825
 5876SOL     OW29260   3.821   4.649   5.715  0.3884  0.2888  0.1440
 5876SOL    HW129261   3.813   4.665   5.809 -0.7171 -1.2651  0.3050
 5876SOL    HW229262   3.736   4.682   5.684  0.9411  0.3179 -1.3375
 5877SOL     OW29263   1.699   2.036   2.893  0.3004  0.0460  0.0537
 5877SOL    HW129264   1.766   1.976   2.861  0.3870  0.2557 -0.1522
 5877SOL    HW229265   1.756   2.095   2.942  1.1254 -1.4448  0.8742
 5878SOL     OW29266   2.325   4.431   7.732  0.3292  0.6757  0.0809
 5878SOL    HW129267   2.242   4.469   7.758 -0.7785 -0.4173 -1.8362
 5878SOL    HW229268   2.370   4.501   7.684 -0.4183  1.9309  1.2328
 5879SOL     OW29269   2.834   0.657   3.914 -0.0907  0.2401  0.4082
 5879SOL    HW129270   2.829   0.609   3.831 -0.6739  1.5681 -0.3170
 5879SOL    HW229271   2.832   0.583   3.975  2.2220 -0.8119 -0.7960
 5880SOL     OW29272   3.125   0.037   7.241  0.3335  0.6248  0.3062
 5880SOL    HW129273   3.134   4.728   7.158  3.9915  0.7738  0.5928
 5880SOL    HW229274   3.096   4.717   7.310 -0.2995 -1.3973 -1.6674
 5881SOL     OW29275   1.777   2.562  16.314 -0.9766  0.0872  0.2042
 5881SOL    HW129276   1.782   2.651  16.279  1.1180 -0.3395 -0.5713
 5881SOL    HW229277   1.708   2.522  16.261  1.8218 -3.4405 -0.7604
 5882SOL     OW29278   1.898   4.050   1.411 -0.6759  0.0767  0.3860
 5882SOL    HW129279   1.978   4.033   1.361 -1.5727 -0.8610 -0.7476
 5882SOL    HW229280   1.833   4.046   1.340 -0.4115  1.8949  0.0495
 5883SOL     OW29281   0.965   4.108   8.629 -0.0663 -0.0616 -0.1055
 5883SOL    HW129282   0.900   4.041   8.651 -0.3995  0.5975  0.9577
 5883SOL    HW229283   0.953   4.178   8.694  1.8844  1.2619 -1.1716
 5884SOL     OW29284   0.284   0.398   5.507  0.6627 -0.1488  0.1646
 5884SOL    HW129285   0.326   0.417   5.591  0.3404 -1.1811  0.5625
 5884SOL    HW229286   0.297   0.476   5.454  2.0352 -0.2434  0.3401
 5885SOL     OW29287   0.859   0.280   2.445 -0.6198 -0.0662 -0.3843
 5885SOL    HW129288   0.948   0.313   2.429 -0.4208 -0.4356 -0.0399
 5885SOL    HW229289   0.836   0.263   2.353  0.5253  0.8811 -0.8500
 5886SOL     OW29290   4.410   3.810   3.868  0.5237 -0.0663  0.1144
 5886SOL    HW129291   4.350   3.801   3.794 -0.2465  2.8268  0.4057
 5886SOL    HW229292   4.486   3.841   3.819  0.2741  0.5579  0.1240
 5887SOL     OW29293   3.174   2.052   6.734 -0.5596 -0.4058  0.0226
 5887SOL    HW129294   3.209   1.991   6.799  1.1234 -0.6935 -1.1774
 5887SOL    HW229295   3.169   2.008   6.649 -2.4530  2.0960 -1.1861
 5888SOL     OW29296   2.234   2.658  10.097 -0.0912  0.3027 -0.1092
 5888SOL    HW129297   2.290   2.627  10.026  0.2110  1.0884 -0.2197
 5888SOL    HW229298   2.285   2.739  10.097 -2.2234  1.6524  0.9455
 5889SOL     OW29299   1.284   0.766   2.723 -0.0860  0.1851 -0.6820
 5889SOL    HW129300   1.259   0.734   2.636  1.2032  1.1779 -1.4147
 5889SOL    HW229301   1.353   0.830   2.707 -0.7592  0.4428 -2.6047
 5890SOL     OW29302   2.293   2.832   7.890 -0.1755  0.1214 -0.1708
 5890SOL    HW129303   2.287   2.814   7.796  0.9720 -0.8123 -0.0754
 5890SOL    HW229304   2.373   2.884   7.894  1.4902 -2.2789 -1.7074
 5891SOL     OW29305   4.168   4.081   3.944 -0.3951  0.2393 -0.1306
 5891SOL    HW129306   4.165   4.172   3.914  3.9828  0.6431  0.6712
 5891SOL    HW229307   4.111   4.038   3.881  0.6697 -0.1043 -0.8566
 5892SOL     OW29308   1.073   0.509  15.639 -0.5116 -0.3453  0.3425
 5892SOL    HW129309   1.102   0.471  15.556 -0.1886  2.9721 -1.0561
 5892SOL    HW229310   1.087   0.439  15.703 -0.7263 -1.6982 -1.0727
 5893SOL     OW29311   1.149   3.158   4.632 -0.3789 -0.3329 -0.2524
 5893SOL    HW129312   1.221   3.111   4.674 -0.0407  0.8000  0.4242
 5893SOL    HW229313   1.121   3.100   4.560 -1.1461  0.6904 -0.7753
 5894SOL     OW29314   3.904   3.062   5.004  0.1151 -0.1081 -0.0378
 5894SOL    HW129315   3.849   3.129   5.045 -0.9282 -1.6064  0.9885
 5894SOL    HW229316   3.979   3.069   5.063 -0.3648  0.4999  0.4977
 5895SOL     OW29317   2.555   3.708   7.068 -0.2679  0.6469 -0.4140
 5895SOL    HW129318   2.466   3.718   7.035 -0.4427 -4.1818 -1.3948
 5895SOL    HW229319   2.602   3.787   7.041  0.2575  0.9959  1.4994
 5896SOL     OW29320   2.996   4.341   5.403 -0.1903 -0.3336  0.0536
 5896SOL    HW129321   3.006   4.398   5.326 -0.2325 -0.9213 -0.3822
 5896SOL    HW229322   2.921   4.378   5.450 -0.1904  0.1447 -0.3185
 5897SOL     OW29323   0.847   3.545   8.210 -0.0299 -0.4106  0.6619
 5897SOL    HW129324   0.892   3.470   8.172  0.5684  1.0485 -1.5440
 5897SOL    HW229325   0.915   3.588   8.262 -1.8383  0.4061  2.3426
 5898SOL     OW29326   3.252   1.323   5.262  0.2287  0.8133 -0.4172
 5898SOL    HW129327   3.254   1.273   5.343  0.6134 -0.4959 -1.2299
 5898SOL    HW229328   3.208   1.403   5.292  0.0117  0.3336  0.5463
 5899SOL     OW29329   1.192   0.720   0.575 -0.3377  0.3724 -0.8083
 5899SOL    HW129330   1.249   0.761   0.510 -1.1385 -0.1035 -1.8022
 5899SOL    HW229331   1.238   0.742   0.656  2.9334  0.8807 -2.7629
 5900SOL     OW29332   4.545   2.794   2.807  0.0682  0.1827  0.1661
 5900SOL    HW129333   4.485   2.722   2.828 -1.4505  1.0640 -1.2188
 5900SOL    HW229334   4.579   2.768   2.722  1.2144  0.1683  0.6200
 5901SOL     OW29335   0.310   4.244   7.456 -0.0390 -0.0866  0.0240
 5901SOL    HW129336   0.361   4.164   7.469 -2.1917 -1.3602  0.6518
 5901SOL    HW229337   0.366   4.302   7.506  2.1358 -0.1485 -2.2964
 5902SOL     OW29338   3.101   4.109   5.327 -0.0316 -0.4514 -0.3212
 5902SOL    HW129339   3.066   4.186   5.371  1.6825  1.0885 -1.5967
 5902SOL    HW229340   3.065   4.117   5.239  0.8012 -0.1290 -0.6363
 5903SOL     OW29341   2.464   1.317   8.259  0.5721 -0.4896  0.1888
 5903SOL    HW129342   2.480   1.295   8.350  1.7772 -0.1260  0.0641
 5903SOL    HW229343   2.423   1.242   8.215  0.3588  1.4503 -2.9780
 5904SOL     OW29344   4.064   1.997  10.332  0.5588 -0.1987 -0.4185
 5904SOL    HW129345   3.983   1.969  10.290 -2.3119  1.1181  4.2409
 5904SOL    HW229346   4.031   2.056  10.399  1.1347  0.4435 -0.7014
 5905SOL     OW29347   2.276   0.707  16.049 -0.4930  0.2724 -0.3265
 5905SOL    HW129348   2.221   0.766  16.100 -0.6298 -1.1105  1.1363
 5905SOL    HW229349   2.344   0.767  16.017 -0.0534 -0.5316 -0.8944
 5906SOL     OW29350   2.639   3.827   9.358 -0.5188  0.3479 -0.1217
 5906SOL    HW129351   2.565   3.888   9.348 -1.6436 -0.5234  2.7006
 5906SOL    HW229352   2.673   3.828   9.268 -2.6521  0.2792 -0.9344
 5907SOL     OW29353   2.355   3.569   7.428  0.1109 -0.5253  0.3510
 5907SOL    HW129354   2.324   3.648   7.385 -0.1043 -0.3000  0.9165
 5907SOL    HW229355   2.291   3.566   7.499 -1.3928 -0.8310 -1.0217
 5908SOL     OW29356   4.615   1.018   2.248  0.1727 -0.6184 -1.1091
 5908SOL    HW129357   4.691   1.032   2.305 -0.2412  2.6438 -1.3466
 5908SOL    HW229358   4.651   0.943   2.201  3.4218 -0.1017  0.5168
 5909SOL     OW29359   4.130   3.268   8.255 -0.2796  0.1615  0.5940
 5909SOL    HW129360   4.207   3.282   8.309  0.0007  0.2825  0.1630
 5909SOL    HW229361   4.171   3.206   8.195  2.6081  2.7575 -0.1231
 5910SOL     OW29362   3.386   4.229  13.233  0.0471  0.1462 -0.3579
 5910SOL    HW129363   3.414   4.311  13.192  0.0831 -0.0821 -0.7822
 5910SOL    HW229364   3.473   4.202  13.261 -0.0841 -0.4646 -0.5469
 5911SOL     OW29365   2.970   2.327  13.967 -0.2712 -0.0666 -0.6941
 5911SOL    HW129366   2.880   2.356  13.986  0.0318  0.2437  0.2883
 5911SOL    HW229367   3.009   2.411  13.945 -1.4745  0.4614 -0.8505
 5912SOL     OW29368   1.074   0.795  10.719 -0.6159 -0.0449 -0.6728
 5912SOL    HW129369   1.033   0.842  10.792 -2.6674 -0.9686 -1.2287
 5912SOL    HW229370   1.111   0.870  10.673 -0.3699  0.5699  0.5336
 5913SOL     OW29371   2.783   0.826   5.287  0.5865 -0.2799 -0.0030
 5913SOL    HW129372   2.792   0.822   5.382  0.2874 -0.0264  0.0343
 5913SOL    HW229373   2.787   0.731   5.271 -0.3219 -0.0704 -1.5154
 5914SOL     OW29374   0.286   1.908   6.751 -0.5736 -0.1855 -0.0578
 5914SOL    HW129375   0.267   1.982   6.809  0.4594  0.6957 -0.8540
 5914SOL    HW229376   0.342   1.851   6.804 -1.2213 -1.5591 -0.8266
 5915SOL     OW29377   4.074   2.770   9.328  0.4452 -0.7095  0.3182
 5915SOL    HW129378   4.102   2.847   9.279 -1.4635 -1.1623 -1.4870
 5915SOL    HW229379   3.992   2.762   9.279 -1.7357  1.3647  3.6328
 5916SOL     OW29380   2.421   2.567   9.922 -0.0336 -0.3747 -0.1312
 5916SOL    HW129381   2.485   2.549   9.991 -0.8538 -2.4864  0.0713
 5916SOL    HW229382   2.479   2.592   9.850  0.9677  1.3355  1.2821
 5917SOL     OW29383   1.534   2.096   2.663  0.2911 -0.3948 -0.8059
 5917SOL    HW129384   1.579   2.065   2.742  0.4045 -1.1445 -1.1596
 5917SOL    HW229385   1.599   2.139   2.608  0.0020 -0.3308 -1.0937
 5918SOL     OW29386   3.525   1.228   5.362 -0.1303 -0.0111  0.2597
 5918SOL    HW129387   3.537   1.181   5.279  0.9317  1.0357 -0.1797
 5918SOL    HW229388   3.474   1.162   5.409 -0.2661  2.8095  4.0298
 5919SOL     OW29389   4.085   0.878  17.197  0.0948 -0.2340 -0.5712
 5919SOL    HW129390   4.048   0.896  17.110 -0.8293  0.4131 -0.0539
 5919SOL    HW229391   4.133   0.960  17.207 -3.1386  1.6481 -0.3651
 5920SOL     OW29392   0.250   3.932   2.652 -0.3650  0.0475  0.0254
 5920SOL    HW129393   0.199   3.851   2.660 -1.2621  0.3246 -2.8533
 5920SOL    HW229394   0.179   3.995   2.639  0.5198  1.2717  1.2917
 5921SOL     OW29395   1.926   3.108  14.867  0.3651  0.2370 -0.3232
 5921SOL    HW129396   1.889   3.177  14.923 -1.0776  0.7284 -1.8888
 5921SOL    HW229397   2.001   3.083  14.920 -1.3696 -2.9683  0.6271
 5922SOL     OW29398   1.167   1.872   7.490  0.3476 -0.4036 -0.4021
 5922SOL    HW129399   1.155   1.920   7.408  0.2343 -1.7875 -1.1998
 5922SOL    HW229400   1.101   1.805   7.473  0.1949 -0.1620 -0.7519
 5923SOL     OW29401   0.566   2.014  11.572  0.2407  0.4220  0.6992
 5923SOL    HW129402   0.522   2.032  11.655 -1.1145 -1.2780  0.3599
 5923SOL    HW229403   0.515   2.068  11.512  1.2783 -0.2473 -0.8058
 5924SOL     OW29404   3.135   2.563   6.563  0.0655  0.2490  0.4061
 5924SOL    HW129405   3.106   2.489   6.615  1.1728 -0.5604 -0.1416
 5924SOL    HW229406   3.230   2.553   6.566  0.2362  2.0052  0.8655
 5925SOL     OW29407   3.670   2.951   0.314  0.6685 -0.7274 -0.3185
 5925SOL    HW129408   3.719   3.014   0.367  0.8884 -1.3315  0.2000
 5925SOL    HW229409   3.613   3.016   0.272  1.9721  0.9391  0.4725
 5926SOL     OW29410   0.091   2.061   1.692 -0.2204 -0.3406 -0.2100
 5926SOL    HW129411   0.014   2.069   1.635 -0.7848 -0.9293  0.4812
 5926SOL    HW229412   0.068   2.012   1.771  0.1711  2.2505  1.4757
 5927SOL     OW29413   1.595   4.713  12.882 -0.3542 -0.6451 -0.3157
 5927SOL    HW129414   1.571   4.624  12.908  2.6002 -1.9202 -1.9330
 5927SOL    HW229415   1.506   4.736  12.854  0.1224  3.4488  1.4811
 5928SOL     OW29416   2.710   4.562   1.883 -0.3856  0.1185 -0.3309
 5928SOL    HW129417   2.651   4.504   1.932 -2.9371  1.7425 -1.4521
 5928SOL    HW229418   2.751   4.605   1.958 -0.0372 -2.2233  0.8315
 5929SOL     OW29419   3.612   2.229  15.492  0.0334 -0.3316 -0.3589
 5929SOL    HW129420   3.675   2.233  15.420 -1.3263  2.2755 -1.4142
 5929SOL    HW229421   3.564   2.154  15.455 -0.7325 -1.5415  3.1157
 5930SOL     OW29422   4.412   0.601   3.616 -0.2799  0.1708 -0.0764
 5930SOL    HW129423   4.402   0.535   3.685  0.2975 -0.2084 -0.3564
 5930SOL    HW229424   4.483   0.658   3.644  0.8345 -2.3284  2.1786
 5931SOL     OW29425   4.659   1.525   1.403  0.0491  1.0126 -0.2970
 5931SOL    HW129426   4.731   1.463   1.409 -0.1724  0.5832 -2.2836
 5931SOL    HW229427   4.586   1.472   1.373  0.0121  0.6300  0.4778
 5932SOL     OW29428   3.470   2.670   7.188  0.0315 -0.2200  0.0738
 5932SOL    HW129429   3.394   2.662   7.247  0.4402  0.0760  0.6413
 5932SOL    HW229430   3.430   2.639   7.107 -1.7714 -2.9804  1.9912
 5933SOL     OW29431   3.628   0.073   1.462 -0.6129  0.0745 -0.0773
 5933SOL    HW129432   3.661   0.010   1.399 -0.1110 -0.2413  0.4993
 5933SOL    HW229433   3.589   0.010   1.523  1.6179 -1.6921 -0.4466
 5934SOL     OW29434   0.085   2.659   5.445  0.1844 -0.3933  0.0253
 5934SOL    HW129435   0.075   2.609   5.526  0.0187 -0.9962 -0.3656
 5934SOL    HW229436   0.098   2.586   5.384  2.7409  0.3126 -0.2830
 5935SOL     OW29437   2.498   2.610   2.536  0.3293 -0.6358 -0.4808
 5935SOL    HW129438   2.588   2.639   2.554 -0.1057 -0.0164  0.6530
 5935SOL    HW229439   2.490   2.644   2.447 -3.1084 -1.2462 -0.3992
 5936SOL     OW29440   3.903   2.443   8.965 -0.0138 -0.0770  0.0649
 5936SOL    HW129441   3.854   2.422   9.044 -0.2997  0.6602  0.0840
 5936SOL    HW229442   3.963   2.513   8.992 -0.0115  0.0599 -0.2978
 5937SOL     OW29443   3.546   4.436   1.878 -0.0457  0.1732  0.0421
 5937SOL    HW129444   3.631   4.394   1.891  0.3309  0.3407 -1.7773
 5937SOL    HW229445   3.551   4.520   1.923 -2.3707  0.7274 -0.7001
 5938SOL     OW29446   0.230   1.306  10.266  0.1071  0.3421  0.0429
 5938SOL    HW129447   0.265   1.224  10.231 -1.7558 -0.6636  0.5409
 5938SOL    HW229448   0.220   1.368  10.194 -1.5290  0.3614  0.3018
 5939SOL     OW29449   1.982   2.053   9.511 -0.1437 -0.5134  0.3629
 5939SOL    HW129450   2.061   2.080   9.464 -0.4369  2.6272  1.6756
 5939SOL    HW229451   2.005   2.080   9.600  1.5111  2.5589 -0.9950
 5940SOL     OW29452   1.723   4.665  16.374  0.3974 -0.3522 -0.0283
 5940SOL    HW129453   1.807   4.710  16.369 -1.0406  2.3470  0.1796
 5940SOL    HW229454   1.730   4.635  16.465 -0.0395 -0.2148  0.0543
 5941SOL     OW29455   3.787   3.256  12.974 -0.0266 -0.3194 -0.3139
 5941SOL    HW129456   3.851   3.215  13.033  0.2321  1.3558  0.5731
 5941SOL    HW229457   3.738   3.178  12.950 -0.5622  0.0580 -0.4544
 5942SOL     OW29458   0.151   4.672  17.167 -0.4780 -0.4081 -0.3694
 5942SOL    HW129459   0.173   0.006  17.109 -0.8468  0.4364  0.5630
 5942SOL    HW229460   0.230   4.619  17.156 -2.3346 -2.8309 -1.7668
 5943SOL     OW29461   0.556   0.645   7.916 -0.1190 -0.2178  0.5305
 5943SOL    HW129462   0.635   0.691   7.943  0.7571 -0.4362 -1.7193
 5943SOL    HW229463   0.592   0.564   7.880 -1.8372 -0.3070 -0.9627
 5944SOL     OW29464   3.744   1.753   9.171 -0.1172 -0.1133  0.0438
 5944SOL    HW129465   3.669   1.714   9.126  1.4054 -1.2573 -1.4989
 5944SOL    HW229466   3.818   1.741   9.111 -0.5678  1.0436 -0.7202
 5945SOL     OW29467   4.609   2.532   9.865 -0.4888  0.0124  0.3295
 5945SOL    HW129468   4.647   2.560   9.948  1.8134 -1.1723 -0.3039
 5945SOL    HW229469   4.682   2.568   9.814 -0.0904  0.1449  0.9946
 5946SOL     OW29470   0.187   4.319  12.483 -0.2914  0.2707 -0.4231
 5946SOL    HW129471   0.132   4.256  12.436 -0.9686  0.8508 -0.4168
 5946SOL    HW229472   0.258   4.329  12.419 -0.6965  1.3699 -0.6982
 5947SOL     OW29473   1.696   1.157   3.602 -0.3988  0.2072  0.4359
 5947SOL    HW129474   1.770   1.192   3.653  0.1390 -0.6014  0.2020
 5947SOL    HW229475   1.724   1.194   3.518 -0.3714 -0.4223  0.1685
 5948SOL     OW29476   4.692   3.162   5.728  0.6769  0.6121  0.0880
 5948SOL    HW129477   4.691   3.258   5.739 -0.7007  0.8764 -2.2929
 5948SOL    HW229478   0.008   3.137   5.802 -0.6248  2.1720  1.6367
 5949SOL     OW29479   2.291   3.194  14.889  0.2150  0.2242  0.2617
 5949SOL    HW129480   2.214   3.192  14.946 -0.0407 -0.3902 -0.0991
 5949SOL    HW229481   2.317   3.101  14.891 -0.2593  0.1311  1.6886
 5950SOL     OW29482   3.642   1.493   4.347  0.2401  0.5481  0.5567
 5950SOL    HW129483   3.726   1.449   4.340  0.2057  0.3703  1.2857
 5950SOL    HW229484   3.646   1.549   4.270  0.0969  0.7371  0.6862
 5951SOL     OW29485   1.788   3.761   2.772 -0.0781 -0.7889  0.7171
 5951SOL    HW129486   1.866   3.740   2.823  0.4716 -1.3816 -0.3746
 5951SOL    HW229487   1.760   3.833   2.830  0.7590  0.2133 -0.1368
 5952SOL     OW29488   2.068   4.687   2.027  0.2718 -0.2267  0.3422
 5952SOL    HW129489   1.981   4.710   1.995  0.8810  2.2339  0.4792
 5952SOL    HW229490   2.119   0.025   2.002  0.7371 -0.9357 -0.8982
 5953SOL     OW29491   3.564   0.193  14.951  0.1816  0.1534 -0.0603
 5953SOL    HW129492   3.492   0.158  14.899  0.4526 -2.6221  1.4231
 5953SOL    HW229493   3.619   0.122  14.919 -0.8939 -0.5015 -0.4411
 5954SOL     OW29494   0.968   3.201   5.910  0.3991  0.3504  0.1622
 5954SOL    HW129495   0.940   3.151   5.987 -2.3645  1.4946 -0.0935
 5954SOL    HW229496   0.911   3.277   5.923 -1.8661 -1.2512 -0.4614
 5955SOL     OW29497   3.918   1.819   5.562  0.0809  0.0426 -0.7535
 5955SOL    HW129498   3.824   1.811   5.580  0.0251  1.6103 -0.3112
 5955SOL    HW229499   3.952   1.821   5.651 -0.4365  0.5338 -0.5624
 5956SOL     OW29500   1.111   2.077   7.308 -0.2231 -0.0818 -0.1193
 5956SOL    HW129501   1.110   2.099   7.215  0.0944  2.7994  0.5435
 5956SOL    HW229502   1.059   2.149   7.344 -2.2107 -1.1802 -0.7965
 5957SOL     OW29503   1.545   1.679   8.164 -0.0510  0.3992  0.4769
 5957SOL    HW129504   1.566   1.764   8.125 -0.0305 -0.5825 -1.6517
 5957SOL    HW229505   1.635   1.646   8.162 -0.0070  0.5887 -0.5214
 5958SOL     OW29506   1.354   3.035  12.213  0.8885 -0.5073 -0.1113
 5958SOL    HW129507   1.403   3.002  12.137  1.4915 -0.7975  0.4007
 5958SOL    HW229508   1.423   3.060  12.275  0.5843  1.0760 -0.4142
 5959SOL     OW29509   4.393   1.908  16.731 -0.4792 -0.1202 -0.0691
 5959SOL    HW129510   4.363   1.924  16.642  0.3915 -1.6135 -0.6265
 5959SOL    HW229511   4.309   1.896  16.775  0.3300 -0.9269  1.2636
 5960SOL     OW29512   1.143   4.112   2.754  0.2933 -0.3851  0.2859
 5960SOL    HW129513   1.190   4.030   2.740  1.4934  0.2891  0.2983
 5960SOL    HW229514   1.135   4.119   2.849 -0.9876 -1.5959  0.2712
 5961SOL     OW29515   1.436   1.449  11.234  0.1079 -0.1142  0.5766
 5961SOL    HW129516   1.500   1.436  11.304  0.4050 -1.6632  0.0243
 5961SOL    HW229517   1.481   1.494  11.163  1.0497 -2.8384 -0.5624
 5962SOL     OW29518   1.442   0.560   4.363 -0.5676 -0.3869  0.0137
 5962SOL    HW129519   1.471   0.548   4.272 -0.5399  0.2595 -0.0573
 5962SOL    HW229520   1.365   0.503   4.359 -2.2271  1.9157 -0.5728
 5963SOL     OW29521   1.627   3.272   2.944  0.0444 -0.1216 -0.0373
 5963SOL    HW129522   1.690   3.280   3.015 -0.1949 -0.0346  0.1673
 5963SOL    HW229523   1.644   3.348   2.889 -1.0026  1.3138  1.6156
 5964SOL     OW29524   0.056   0.652   4.634  0.0705 -0.1326 -0.1025
 5964SOL    HW129525   4.722   0.678   4.578  0.8606 -0.3015 -1.2053
 5964SOL    HW229526   0.062   0.563   4.598  0.2439 -0.9046  1.8623
 5965SOL     OW29527   3.409   0.444   0.828  0.1109  1.0198 -0.8025
 5965SOL    HW129528   3.396   0.526   0.876 -0.1078 -0.0414  0.9384
 5965SOL    HW229529   3.318   0.419   0.810  0.5306 -1.3316  0.4464
 5966SOL     OW29530   0.018   1.398   9.891  0.2006 -0.6652  0.0428
 5966SOL    HW129531   0.020   1.492   9.908  0.8504 -0.6346 -0.2204
 5966SOL    HW229532   4.682   1.368   9.941 -1.7160  1.6239 -1.4601
 5967SOL     OW29533   4.458   0.515   9.418 -0.3051  0.1750  0.7831
 5967SOL    HW129534   4.477   0.602   9.453 -0.6252 -0.3502  2.2469
 5967SOL    HW229535   4.407   0.480   9.491 -1.9651  0.5515 -0.1995
 5968SOL     OW29536   2.178   1.012   7.324 -0.3645  0.9856  0.5148
 5968SOL    HW129537   2.271   1.020   7.303 -0.1508 -1.9900  0.4068
 5968SOL    HW229538   2.155   1.097   7.362 -1.0593 -0.0473  2.4102
 5969SOL     OW29539   3.891   1.924   3.121 -0.6437 -0.3935 -0.4153
 5969SOL    HW129540   3.848   2.002   3.085 -0.3739 -0.4074 -0.7664
 5969SOL    HW229541   3.822   1.858   3.115 -0.8901 -0.1639 -0.0975
 5970SOL     OW29542   1.813   1.724   6.673 -0.2970 -0.4460  0.3977
 5970SOL    HW129543   1.798   1.675   6.754 -0.1863  2.7625  2.3912
 5970SOL    HW229544   1.759   1.669   6.616 -0.1870  0.2453 -0.3805
 5971SOL     OW29545   4.501   0.696   8.758 -0.3140  0.2526  1.2593
 5971SOL    HW129546   4.422   0.689   8.811  0.9927  2.6991  3.5831
 5971SOL    HW229547   4.543   0.612   8.777 -2.3307 -0.4638  2.5758
 5972SOL     OW29548   2.717   4.088   9.691  0.1018  0.6698  0.4957
 5972SOL    HW129549   2.721   4.092   9.787  0.3639 -1.1872  0.5518
 5972SOL    HW229550   2.780   4.158   9.673  1.3367 -0.7903 -0.8694
 5973SOL     OW29551   3.898   3.000  12.766  0.2372 -0.1055  0.1772
 5973SOL    HW129552   3.878   3.059  12.693 -1.3980 -0.6160  0.2057
 5973SOL    HW229553   3.812   2.979  12.802 -0.1319 -1.7739 -1.6652
 5974SOL     OW29554   3.018   4.687  10.811  0.1677  1.0289  0.1467
 5974SOL    HW129555   2.936   4.660  10.770 -0.0174 -0.3181  1.3806
 5974SOL    HW229556   3.086   4.685  10.743 -0.1343 -0.3136 -0.1278
 5975SOL     OW29557   4.153   0.067   2.444  0.9644 -0.2747 -0.7481
 5975SOL    HW129558   4.227   0.087   2.502  0.3697  0.1285 -0.1343
 5975SOL    HW229559   4.143   4.714   2.467 -1.1288  0.2967  0.6943
 5976SOL     OW29560   3.942   3.439   1.605 -0.5509  0.3123  0.3338
 5976SOL    HW129561   4.032   3.468   1.586 -0.4504 -1.4630 -1.8994
 5976SOL    HW229562   3.972   3.358   1.646 -1.6561 -0.8129 -1.1403
 5977SOL     OW29563   4.366   0.017   5.432  0.1052 -0.3076  0.0195
 5977SOL    HW129564   4.297   0.047   5.372 -1.5244 -0.8268  1.6402
 5977SOL    HW229565   4.444   0.017   5.377  0.2977  0.1776  0.2858
 5978SOL     OW29566   3.326   1.067   9.806  0.2095 -0.0699  0.3439
 5978SOL    HW129567   3.354   1.114   9.885  1.5972 -0.4796  0.0946
 5978SOL    HW229568   3.231   1.072   9.823  0.1726 -0.4130  0.2269
 5979SOL     OW29569   4.554   1.022   1.175  0.0320 -0.0697 -0.3749
 5979SOL    HW129570   4.467   1.039   1.212 -0.2737 -0.4582 -0.9239
 5979SOL    HW229571   4.565   0.930   1.201 -0.6482  0.2168  0.9523
 5980SOL     OW29572   1.411   3.936  15.866 -0.0448 -0.2132  0.1440
 5980SOL    HW129573   1.434   3.950  15.958 -0.2694  2.5955 -0.2174
 5980SOL    HW229574   1.452   4.007  15.817  1.3010  0.2615  1.9642
 5981SOL     OW29575   4.081   0.691   4.084 -0.2318  0.1600  0.2728
 5981SOL    HW129576   3.993   0.670   4.116  0.9781 -0.5708  3.1335
 5981SOL    HW229577   4.117   0.731   4.163 -0.7574  0.6586  0.2598
 5982SOL     OW29578   4.223   2.753  15.974 -0.1371  0.0486 -0.3703
 5982SOL    HW129579   4.257   2.696  15.904  1.3663  0.8819 -0.3332
 5982SOL    HW229580   4.130   2.760  15.953 -0.1216  0.9629 -0.1318
 5983SOL     OW29581   0.068   4.507  15.821 -0.6666 -0.0031  0.2598
 5983SOL    HW129582   0.026   4.589  15.848  0.1420  0.0975  1.2580
 5983SOL    HW229583   4.734   4.446  15.823  1.0216 -2.0153  0.7915
 5984SOL     OW29584   0.224   1.864   3.154  0.3796 -0.0265 -0.6883
 5984SOL    HW129585   0.154   1.918   3.118 -0.0644  0.8488  1.4464
 5984SOL    HW229586   0.212   1.777   3.116 -0.5539 -0.2044  0.0144
 5985SOL     OW29587   2.034   1.041   3.510  0.1531 -0.1845 -0.0600
 5985SOL    HW129588   1.995   1.103   3.571  0.3988  1.1679 -1.2583
 5985SOL    HW229589   1.984   1.048   3.429 -3.3475 -2.3776  1.9327
 5986SOL     OW29590   0.975   4.127  16.627  0.6200  0.0070 -0.4006
 5986SOL    HW129591   0.923   4.178  16.689  1.3210 -0.0798  0.2580
 5986SOL    HW229592   1.064   4.160  16.639  0.0930  0.8669  1.2638
 5987SOL     OW29593   0.971   1.819  13.473 -0.3486  0.0810 -0.4303
 5987SOL    HW129594   1.016   1.752  13.421 -0.8490 -0.6544  0.0762
 5987SOL    HW229595   1.053   1.860  13.500 -1.6764  1.6507  1.2318
 5988SOL     OW29596   2.797   0.930   7.481  0.0990  0.1051  0.1865
 5988SOL    HW129597   2.880   0.906   7.522  1.6706  2.4129 -1.6446
 5988SOL    HW229598   2.830   0.983   7.408 -1.0088 -0.5242 -0.7679
 5989SOL     OW29599   0.148   0.450   3.682 -0.0023  0.0668 -0.3111
 5989SOL    HW129600   0.135   0.500   3.762  2.4302 -3.0744  2.0659
 5989SOL    HW229601   0.071   0.472   3.629 -0.6787 -1.4285  0.0548
 5990SOL     OW29602   2.384   0.625   1.314  0.1338 -0.3177 -0.1204
 5990SOL    HW129603   2.452   0.594   1.374  0.2309  0.5955  0.2532
 5990SOL    HW229604   2.376   0.711   1.356 -2.1142 -1.3904  1.6514
 5991SOL     OW29605   3.440   3.491   0.794 -0.6494 -0.5017  0.3681
 5991SOL    HW129606   3.486   3.546   0.856 -1.1926  0.1139  0.2277
 5991SOL    HW229607   3.349   3.504   0.821 -0.7631  2.0989 -1.2740
 5992SOL     OW29608   0.243   3.241  11.546  0.1079 -0.3807  0.1340
 5992SOL    HW129609   0.287   3.160  11.519 -2.7344 -1.3626 -1.5016
 5992SOL    HW229610   0.158   3.220  11.508  1.0023 -2.7173 -0.5803
 5993SOL     OW29611   0.174   1.753   2.468  0.2243  0.5042 -0.0750
 5993SOL    HW129612   0.246   1.790   2.520  0.9269  1.3614 -1.6602
 5993SOL    HW229613   0.141   1.692   2.535 -0.9841  0.9167 -0.3172
 5994SOL     OW29614   0.443   3.564   5.556  0.0118 -0.1313  0.3288
 5994SOL    HW129615   0.362   3.614   5.559 -0.0359 -0.1497 -0.6720
 5994SOL    HW229616   0.502   3.636   5.537  0.2922 -0.3626  0.3176
 5995SOL     OW29617   4.608   0.461   1.873  0.3959 -0.2709 -0.3486
 5995SOL    HW129618   4.564   0.436   1.954  2.0339  1.6162  1.1425
 5995SOL    HW229619   4.586   0.395   1.807 -0.0891 -0.4828  0.0298
 5996SOL     OW29620   0.668   4.363  17.090 -0.0465 -0.0613 -0.2929
 5996SOL    HW129621   0.658   4.398  17.001  2.4115  0.4163 -0.3908
 5996SOL    HW229622   0.627   4.432  17.142  0.0565  0.3851 -0.8026
 5997SOL     OW29623   3.272   0.802   2.609  0.2906  0.5004  0.3333
 5997SOL    HW129624   3.353   0.752   2.597 -0.3591  0.7475 -5.0295
 5997SOL    HW229625   3.299   0.875   2.664 -2.2383  0.5970  1.4523
 5998SOL     OW29626   3.988   4.425   8.811  0.2259  0.6138  0.4801
 5998SOL    HW129627   4.034   4.453   8.732 -0.6721  1.5907  0.2977
 5998SOL    HW229628   3.994   4.330   8.804 -0.1352  0.6089  0.2112
 5999SOL     OW29629   4.510   0.072   1.513  0.6987  0.3109 -0.1741
 5999SOL    HW129630   4.540   0.075   1.422 -2.3174  1.4170 -1.1190
 5999SOL    HW229631   4.416   0.072   1.495  0.7718  1.4356 -0.5862
 6000SOL     OW29632   2.178   2.643   6.455  0.6629  0.2272 -0.2235
 6000SOL    HW129633   2.237   2.673   6.385  1.0172 -0.9261 -0.4063
 6000SOL    HW229634   2.235   2.633   6.531 -0.3394  0.8483  0.6159
 6001SOL     OW29635   4.151   2.398   8.124  0.0725 -0.6095 -0.4388
 6001SOL    HW129636   4.146   2.312   8.167  2.3301 -0.6688 -0.2952
 6001SOL    HW229637   4.143   2.366   8.034  0.0015 -0.0201 -0.6365
 6002SOL     OW29638   2.002   0.007   2.764 -0.1851  0.1416 -1.0609
 6002SOL    HW129639   1.961   0.090   2.740  2.4488  1.3886 -1.2121
 6002SOL    HW229640   2.090   0.027   2.733  0.0131 -1.4355 -1.5025
 6003SOL     OW29641   1.842   2.883   4.783 -0.5183  0.2592  0.2199
 6003SOL    HW129642   1.913   2.819   4.792  0.1471  1.0483  0.5860
 6003SOL    HW229643   1.793   2.838   4.714 -1.7149  2.7463 -0.5554
 6004SOL     OW29644   0.663   3.220   6.118  0.4293 -0.7873  0.1807
 6004SOL    HW129645   0.702   3.289   6.064 -0.4413 -1.5676 -1.4529
 6004SOL    HW229646   0.618   3.262   6.191 -1.4288  0.6120 -1.7577
 6005SOL     OW29647   0.595   3.423   6.518  0.1589 -0.6287 -0.2034
 6005SOL    HW129648   0.631   3.484   6.583 -0.1374  0.4316 -1.0327
 6005SOL    HW229649   0.620   3.473   6.441 -2.5408 -1.0929 -1.3740
 6006SOL     OW29650   0.997   4.142  17.439  0.4692  0.0394  0.9086
 6006SOL    HW129651   0.955   4.165  17.356  2.0465 -0.3500  0.0056
 6006SOL    HW229652   1.067   4.206  17.427 -1.6762  2.5673  1.8665
 6007SOL     OW29653   3.297   1.199   2.516 -0.5180 -0.2158  0.5059
 6007SOL    HW129654   3.240   1.156   2.581  1.0765 -0.6493  1.6053
 6007SOL    HW229655   3.321   1.278   2.565  0.6968  0.0922 -0.5884
 6008SOL     OW29656   2.931   0.605  11.827  0.3142  0.1785  0.0756
 6008SOL    HW129657   2.936   0.619  11.732  0.3360 -1.7536 -0.2029
 6008SOL    HW229658   3.008   0.659  11.847 -1.1983  2.4030 -0.2023
 6009SOL     OW29659   3.749   3.331  11.167  0.2988  0.0930 -0.0871
 6009SOL    HW129660   3.842   3.323  11.190 -0.4060  0.1629  2.8674
 6009SOL    HW229661   3.732   3.237  11.169  1.5097 -0.1877 -2.9749
 6010SOL     OW29662   4.032   0.376   5.208 -0.2379 -0.3568  0.1918
 6010SOL    HW129663   3.995   0.463   5.225  0.7071  0.2665 -0.9315
 6010SOL    HW229664   4.009   0.363   5.116  0.7491 -0.1324 -0.0914
 6011SOL     OW29665   0.999   1.245   5.373 -0.3295  0.5081 -0.3320
 6011SOL    HW129666   0.966   1.312   5.433  0.3477  1.3042 -0.8502
 6011SOL    HW229667   1.047   1.304   5.315  0.2126 -0.3607 -0.7687
 6012SOL     OW29668   0.435   2.087   6.602  0.1362 -0.4867  0.3579
 6012SOL    HW129669   0.433   1.997   6.635 -0.9274 -0.2075  1.0457
 6012SOL    HW229670   0.355   2.114   6.647  0.1578 -1.6611  1.0980
 6013SOL     OW29671   2.680   1.031  12.407 -0.7017 -0.0584  0.5712
 6013SOL    HW129672   2.605   1.051  12.352 -0.5889 -0.3195  0.3196
 6013SOL    HW229673   2.674   1.095  12.478 -0.8851  0.4970  0.0537
 6014SOL     OW29674   0.748   1.684  16.676  0.3087 -0.6366 -0.0917
 6014SOL    HW129675   0.676   1.713  16.733 -0.4098 -1.7612 -0.4310
 6014SOL    HW229676   0.821   1.731  16.716  0.6156 -1.2954  0.1212
 6015SOL     OW29677   0.217   4.734   5.847 -0.0661  0.4686  0.6147
 6015SOL    HW129678   0.246   4.707   5.934  3.0601 -0.1630 -0.5916
 6015SOL    HW229679   0.295   4.721   5.792 -1.6491 -0.2230 -1.4566
 6016SOL     OW29680   1.717   0.148   1.528  0.8115 -0.0888  0.0598
 6016SOL    HW129681   1.722   0.229   1.477  0.4451 -0.5715 -0.7487
 6016SOL    HW229682   1.796   0.097   1.510  0.0188 -1.3072  0.0018
 6017SOL     OW29683   0.894   2.272   4.699  0.3474 -0.1673  0.3485
 6017SOL    HW129684   0.892   2.200   4.636  0.1475  0.2515 -0.1160
 6017SOL    HW229685   0.983   2.269   4.734  0.4996 -0.5954 -0.0813
 6018SOL     OW29686   3.388   1.501   7.209 -0.1339 -0.7644  0.1962
 6018SOL    HW129687   3.411   1.556   7.284 -0.8286  1.1219 -0.9590
 6018SOL    HW229688   3.295   1.523   7.199  0.3477  0.6365 -1.2455
 6019SOL     OW29689   0.851   4.604   8.157  0.2531 -1.0994 -0.6889
 6019SOL    HW129690   0.842   4.636   8.067 -2.0292  0.9056  0.2459
 6019SOL    HW229691   0.913   4.663   8.200 -0.6524 -0.4206 -0.3086
 6020SOL     OW29692   2.657   2.681   2.172 -0.2813  0.2611  0.3750
 6020SOL    HW129693   2.697   2.607   2.217  0.5790 -0.4863 -1.5982
 6020SOL    HW229694   2.666   2.644   2.084 -0.6115 -0.5393  0.6790
 6021SOL     OW29695   2.442   4.144  14.018 -0.4036  0.7879 -0.2796
 6021SOL    HW129696   2.426   4.230  13.980  0.9216  0.4536 -1.6040
 6021SOL    HW229697   2.381   4.091  13.966  0.7094 -1.3028  0.5237
 6022SOL     OW29698   3.238   3.776   6.238  0.7671 -0.1518  0.2434
 6022SOL    HW129699   3.181   3.850   6.213  1.9403  0.4905 -0.5195
 6022SOL    HW229700   3.301   3.807   6.302  0.5477 -1.0229  0.8687
 6023SOL     OW29701   1.354   2.044   1.320  0.5021  0.4260 -0.0568
 6023SOL    HW129702   1.396   2.003   1.395  1.0661  0.8655 -0.1288
 6023SOL    HW229703   1.288   1.983   1.290  2.0744 -2.6571  2.8029
 6024SOL     OW29704   3.287   0.281   1.125 -0.1529  0.5263 -0.2466
 6024SOL    HW129705   3.289   0.210   1.061  2.0525 -0.3308  0.7765
 6024SOL    HW229706   3.328   0.237   1.199 -0.7349 -0.3062 -0.4295
 6025SOL     OW29707   0.048   4.598   7.568  0.0892 -0.3323 -0.3813
 6025SOL    HW129708   0.010   4.631   7.487  0.2083 -0.6591 -0.5677
 6025SOL    HW229709   4.723   4.530   7.587  0.8923 -0.7397  0.8736
 6026SOL     OW29710   1.504   2.462  17.453  0.3950 -0.5455 -0.5559
 6026SOL    HW129711   1.431   2.400  17.461  0.2711  0.0746  3.1650
 6026SOL    HW229712   1.561   2.422  17.388 -1.0237 -1.8239 -1.0241
 6027SOL     OW29713   3.410   1.583   4.783  0.6434  0.8193  1.0320
 6027SOL    HW129714   3.494   1.629   4.791 -0.1254  2.3859  0.0847
 6027SOL    HW229715   3.381   1.632   4.706 -1.0772  0.6492  1.5758
 6028SOL     OW29716   0.900   4.713   2.736  0.1417 -0.3389  0.1614
 6028SOL    HW129717   0.871   4.680   2.651  0.6078  2.8494 -1.2230
 6028SOL    HW229718   0.995   4.725   2.727 -0.1630 -0.1815 -2.5646
 6029SOL     OW29719   3.220   4.290   4.995  0.3056  0.2885 -0.1095
 6029SOL    HW129720   3.282   4.341   4.943  0.7821 -1.5024 -1.2941
 6029SOL    HW229721   3.170   4.366   5.026 -2.7563 -1.5345 -0.6175
 6030SOL     OW29722   3.504   1.519   3.147  0.5656  0.1827 -0.2042
 6030SOL    HW129723   3.508   1.614   3.142  1.3658  0.0834 -1.3333
 6030SOL    HW229724   3.442   1.503   3.077  0.2997 -0.4910  0.1808
 6031SOL     OW29725   4.169   0.731   4.620 -0.1047 -0.1686  0.0330
 6031SOL    HW129726   4.100   0.732   4.687 -0.6283 -0.9410 -0.4886
 6031SOL    HW229727   4.218   0.809   4.647 -2.5872  1.1635  0.7243
 6032SOL     OW29728   2.372   0.781   4.980 -0.1930  0.2636  0.3456
 6032SOL    HW129729   2.468   0.778   4.979 -0.1853  0.3283  1.2820
 6032SOL    HW229730   2.349   0.714   4.916  1.7239 -0.1942  0.1208
 6033SOL     OW29731   2.693   0.658  13.321  0.0780 -0.5994 -1.1026
 6033SOL    HW129732   2.663   0.749  13.322  1.9572 -0.0081  1.0919
 6033SOL    HW229733   2.728   0.656  13.232  1.1328  1.1533 -0.7353
 6034SOL     OW29734   2.030   0.163  11.239  0.3872  0.2056 -0.5472
 6034SOL    HW129735   2.066   0.149  11.152  0.4019  0.1899 -0.5386
 6034SOL    HW229736   1.938   0.137  11.229 -0.1408  1.1302  1.8634
 6035SOL     OW29737   1.732   0.404   6.546 -0.2099  0.0222 -0.3714
 6035SOL    HW129738   1.786   0.371   6.617 -0.8084  0.4343  0.2821
 6035SOL    HW229739   1.736   0.336   6.479 -1.1425 -1.0972  0.7099
 6036SOL     OW29740   0.116   3.719   4.732  0.7255  0.2644  0.3942
 6036SOL    HW129741   0.125   3.812   4.711 -1.2122  1.2679  3.9865
 6036SOL    HW229742   0.138   3.668   4.654  2.4733  1.4950  0.0843
 6037SOL     OW29743   4.052   4.169   7.359  0.0638  0.6416 -0.1591
 6037SOL    HW129744   4.094   4.214   7.286 -1.4106  0.7112 -0.9681
 6037SOL    HW229745   3.970   4.147   7.315 -0.0860  0.7655  0.0581
 6038SOL     OW29746   1.970   2.295  15.219 -0.0721 -0.2409  0.4402
 6038SOL    HW129747   1.925   2.265  15.298  0.0455  0.5056  0.7931
 6038SOL    HW229748   2.047   2.240  15.228  1.0443  1.1055 -0.8573
 6039SOL     OW29749   4.500   1.249  12.461 -0.0323 -0.2721 -0.3636
 6039SOL    HW129750   4.455   1.205  12.533 -0.9104  0.0897 -0.6866
 6039SOL    HW229751   4.591   1.255  12.489 -0.0997 -1.8312  0.1979
 6040SOL     OW29752   3.293   4.229   9.408  0.0815  0.1095 -0.2566
 6040SOL    HW129753   3.339   4.175   9.472 -1.8090  0.5976  1.5300
 6040SOL    HW229754   3.317   4.318   9.432 -3.8983  1.4671 -1.3452
 6041SOL     OW29755   3.587   1.931   6.559 -0.2126 -0.0736 -0.2189
 6041SOL    HW129756   3.556   2.015   6.592 -2.2072 -1.1499  0.5962
 6041SOL    HW229757   3.675   1.923   6.597 -0.0867  1.2819 -0.2129
 6042SOL     OW29758   0.404   4.370   8.742 -0.0479  0.0931 -0.0931
 6042SOL    HW129759   0.334   4.305   8.738  0.0060 -0.1516  2.7977
 6042SOL    HW229760   0.464   4.333   8.677 -0.0910  1.4268 -0.8905
 6043SOL     OW29761   2.549   3.054   4.772  0.6631 -0.0241 -0.2763
 6043SOL    HW129762   2.617   3.118   4.753  2.1397 -1.6149 -0.2718
 6043SOL    HW229763   2.497   3.092   4.843 -0.3474 -1.5736 -0.1838
 6044SOL     OW29764   3.174   2.049   8.402 -0.1494  0.2168  0.3587
 6044SOL    HW129765   3.124   2.059   8.483  0.5437  2.5137  0.5046
 6044SOL    HW229766   3.235   1.980   8.429 -1.0849 -0.9125 -0.3796
 6045SOL     OW29767   3.214   4.437  13.416  0.6554  0.4520 -0.1845
 6045SOL    HW129768   3.231   4.464  13.506 -0.1827 -4.5358  1.4764
 6045SOL    HW229769   3.284   4.477  13.364  1.2408 -0.0432  0.2227
 6046SOL     OW29770   4.671   2.281   6.976  0.1107  0.1428  0.4386
 6046SOL    HW129771   4.728   2.260   7.049  0.1688  1.3238  0.7353
 6046SOL    HW229772   4.654   2.375   6.986  0.0901 -0.0209  1.8787
 6047SOL     OW29773   1.712   4.665  11.809 -0.1832 -0.3463  0.3612
 6047SOL    HW129774   1.625   4.637  11.839 -0.8026  1.3009  0.0616
 6047SOL    HW229775   1.730   4.720  11.885 -1.3546  3.1668 -1.9393
 6048SOL     OW29776   0.985   0.075  15.727 -0.0898 -0.0227 -0.0172
 6048SOL    HW129777   0.978   0.079  15.632 -0.3220 -1.0381 -0.0444
 6048SOL    HW229778   1.031   0.158  15.738  1.9899 -1.2152  0.4442
 6049SOL     OW29779   3.325   2.774   4.841  0.3485 -0.4012 -0.8724
 6049SOL    HW129780   3.362   2.838   4.780 -2.0008  0.3707 -1.4496
 6049SOL    HW229781   3.267   2.823   4.899  1.6389 -0.3035  0.3541
 6050SOL     OW29782   2.420   4.603   6.274  0.1252  0.2246  0.4055
 6050SOL    HW129783   2.435   4.684   6.225  0.6298  1.2923  2.3399
 6050SOL    HW229784   2.359   4.627   6.343  0.3716 -0.4514  0.8547
 6051SOL     OW29785   4.123   4.572   1.730  0.0378  0.9768  0.6410
 6051SOL    HW129786   4.179   4.647   1.750 -1.3117  1.5706  2.2011
 6051SOL    HW229787   4.179   4.497   1.751  0.3560  0.9251 -0.4198
 6052SOL     OW29788   1.598   4.165   4.087  0.2152  0.8333 -0.6797
 6052SOL    HW129789   1.677   4.114   4.107 -0.4122  1.1875  2.6331
 6052SOL    HW229790   1.533   4.094   4.084  1.7046 -0.4933 -2.1242
 6053SOL     OW29791   0.516   4.209   9.886  0.5385  0.5487 -0.0229
 6053SOL    HW129792   0.433   4.193   9.841  0.6563  0.2190 -0.1256
 6053SOL    HW229793   0.501   4.164   9.969 -2.1829 -1.6843 -1.7092
 6054SOL     OW29794   2.874   2.976  17.715 -0.0693  0.8756 -0.2452
 6054SOL    HW129795   2.874   2.961  17.621 -0.9575  1.6648 -0.3610
 6054SOL    HW229796   2.887   3.070  17.724  0.2962  1.1718 -3.8298
 6055SOL     OW29797   4.612   1.864   4.919 -0.0170 -0.0459 -0.3503
 6055SOL    HW129798   4.607   1.814   4.838 -0.6059 -0.6440  0.0485
 6055SOL    HW229799   4.675   1.929   4.889 -1.0501  0.1071 -2.1570
 6056SOL     OW29800   2.970   1.853  11.760  0.2361 -0.6871  0.2129
 6056SOL    HW129801   3.065   1.842  11.773  0.6497 -0.0153 -2.1499
 6056SOL    HW229802   2.963   1.945  11.736 -1.1786 -0.3787  1.9132
 6057SOL     OW29803   0.482   2.382   4.582 -0.1827  0.5080 -0.2643
 6057SOL    HW129804   0.555   2.370   4.521 -2.1980 -1.0882 -2.3434
 6057SOL    HW229805   0.462   2.467   4.543  0.6662  0.8031 -0.0759
 6058SOL     OW29806   3.733   2.464  16.454  0.2035  0.0148 -0.3261
 6058SOL    HW129807   3.777   2.549  16.459  2.8374 -1.4638  1.3223
 6058SOL    HW229808   3.800   2.406  16.490  0.0351  0.0062 -0.0311
 6059SOL     OW29809   2.612   0.975  13.971  0.2835 -0.2819  0.0286
 6059SOL    HW129810   2.682   0.925  13.928 -1.2253 -1.8817 -0.5454
 6059SOL    HW229811   2.548   0.905  13.978 -1.5076  1.4552  1.1512
 6060SOL     OW29812   2.458   3.278  13.205 -0.1171  0.4447  0.5731
 6060SOL    HW129813   2.401   3.347  13.239 -1.9485 -1.3077  1.1075
 6060SOL    HW229814   2.536   3.329  13.184  0.9346 -2.1498 -1.8132
 6061SOL     OW29815   2.649   4.138   3.806  0.0906 -0.4812 -0.2151
 6061SOL    HW129816   2.647   4.171   3.716  0.1221  1.5284  0.5304
 6061SOL    HW229817   2.677   4.219   3.849 -1.8530 -0.2002  0.4893
 6062SOL     OW29818   0.589   0.164   9.052 -0.4564  0.0826 -0.0628
 6062SOL    HW129819   0.671   0.207   9.028 -1.2658 -0.4354 -3.6811
 6062SOL    HW229820   0.534   0.204   8.985  0.5254  1.1883 -0.2232
 6063SOL     OW29821   2.023   1.091   3.219 -0.1102  0.6232 -0.6108
 6063SOL    HW129822   2.117   1.108   3.225 -0.3279  3.4366 -5.0608
 6063SOL    HW229823   1.998   1.090   3.126 -1.2676  0.0555 -0.2953
 6064SOL     OW29824   2.928   1.270  14.064 -0.0844  0.5579 -0.3184
 6064SOL    HW129825   2.921   1.293  13.971  0.4632  0.6158 -0.3436
 6064SOL    HW229826   2.898   1.349  14.108 -0.7122 -0.3588  0.8791
 6065SOL     OW29827   0.493   0.206   3.871 -0.2265  0.0533  0.1615
 6065SOL    HW129828   0.467   0.130   3.923 -0.4137 -0.2654 -0.3996
 6065SOL    HW229829   0.452   0.185   3.787 -0.4246 -2.2281  0.8265
 6066SOL     OW29830   0.415   4.670  12.721 -0.2051 -0.3090  0.5315
 6066SOL    HW129831   0.492   4.644  12.671 -2.0648  0.3707 -2.6825
 6066SOL    HW229832   0.360   4.592  12.722  0.1026 -0.5311 -0.1037
 6067SOL     OW29833   1.368   2.310   1.382  0.0854 -0.1977 -0.2580
 6067SOL    HW129834   1.373   2.222   1.345  1.9701 -0.8648  1.6378
 6067SOL    HW229835   1.373   2.295   1.477 -1.1356 -0.6751 -0.2600
 6068SOL     OW29836   4.371   0.699   3.115 -0.0670 -0.2187  0.4224
 6068SOL    HW129837   4.415   0.699   3.200  2.3055 -0.9426 -0.8437
 6068SOL    HW229838   4.419   0.773   3.077  1.0027 -2.1443 -1.9310
 6069SOL     OW29839   4.489   2.075  15.995 -0.3524  0.1201  0.2620
 6069SOL    HW129840   4.537   2.011  16.047 -0.3528 -0.1082 -0.0171
 6069SOL    HW229841   4.540   2.153  16.019 -0.7966  0.1607  1.0723
 6070SOL     OW29842   0.222   1.528  13.517  0.1333 -0.6803 -0.3699
 6070SOL    HW129843   0.251   1.456  13.573  2.2157  0.3513 -0.1075
 6070SOL    HW229844   0.133   1.498  13.501 -0.3037  1.2894 -1.6010
 6071SOL     OW29845   4.259   1.950   8.017 -0.6675 -0.0625  0.0883
 6071SOL    HW129846   4.288   1.916   8.102  2.6441  0.1750 -0.9286
 6071SOL    HW229847   4.188   1.894   7.983  0.6595 -1.6029 -0.1689
 6072SOL     OW29848   2.294   1.873   2.014 -0.5910  0.3784  0.0019
 6072SOL    HW129849   2.212   1.830   1.988 -0.4167  0.4353 -0.6356
 6072SOL    HW229850   2.272   1.965   2.027  1.2300  0.6711  0.9484
 6073SOL     OW29851   4.622   0.408   5.283  0.0238  0.1737 -0.1062
 6073SOL    HW129852   4.597   0.338   5.343 -0.3060  0.1880 -0.2299
 6073SOL    HW229853   4.547   0.414   5.224 -0.6701  1.0145  0.8559
 6074SOL     OW29854   4.146   1.497   1.114  0.1864 -0.3678 -0.4572
 6074SOL    HW129855   4.186   1.468   1.032  0.9580 -0.5320 -0.0259
 6074SOL    HW229856   4.060   1.479   1.077 -0.8075 -0.9800  2.1626
 6075SOL     OW29857   0.646   4.525   8.795 -0.4233 -0.6572 -0.1141
 6075SOL    HW129858   0.600   4.573   8.863  3.2656 -0.7491  2.4332
 6075SOL    HW229859   0.579   4.479   8.745 -1.4028 -0.0166  0.6079
 6076SOL     OW29860   4.537   1.942   2.133 -0.3116  0.3422  0.8424
 6076SOL    HW129861   4.488   1.995   2.196 -1.6418  0.3614 -0.2131
 6076SOL    HW229862   4.579   1.885   2.197  0.5474 -2.4860 -2.2251
 6077SOL     OW29863   2.693   3.941   8.898  0.2066 -0.1261  0.5275
 6077SOL    HW129864   2.643   3.862   8.880 -1.8737  1.5389 -1.0080
 6077SOL    HW229865   2.626   4.007   8.917  0.4385 -0.1440  1.4355
 6078SOL     OW29866   0.492   0.884  15.359  0.2163 -0.3382 -0.3068
 6078SOL    HW129867   0.519   0.888  15.267  1.0458  0.3212 -0.0332
 6078SOL    HW229868   0.570   0.910  15.409 -0.9541  3.8354 -0.6393
 6079SOL     OW29869   0.378   2.274  11.822 -0.2939  0.1585  0.1196
 6079SOL    HW129870   0.405   2.182  11.826 -2.0793 -0.3977 -0.1388
 6079SOL    HW229871   0.448   2.309  11.768  0.8107 -0.3401  1.2292
 6080SOL     OW29872   3.903   0.059   8.717  0.0072 -0.3341  0.0422
 6080SOL    HW129873   3.828   0.013   8.753  0.6250 -1.5524 -0.2385
 6080SOL    HW229874   3.956   0.051   8.796 -1.0081  2.8321  1.0648
 6081SOL     OW29875   4.605   0.009   5.078  0.3367  0.0863 -0.5394
 6081SOL    HW129876   4.611   4.658   5.109  0.8646  1.1727  2.4758
 6081SOL    HW229877   4.680   0.007   5.018  0.5104 -0.9468 -0.2974
 6082SOL     OW29878   2.871   0.540   3.183  0.7891 -0.4261 -0.0895
 6082SOL    HW129879   2.882   0.528   3.277 -0.6195 -2.1712 -0.1494
 6082SOL    HW229880   2.961   0.520   3.157  0.8189 -1.5343  0.9009
 6083SOL     OW29881   4.584   3.388  11.963 -0.0677 -0.1896  0.1492
 6083SOL    HW129882   4.570   3.308  12.015  0.4479  0.0860  0.7071
 6083SOL    HW229883   4.653   3.425  12.017 -0.8079 -0.1878  1.1170
 6084SOL     OW29884   1.916   2.097   8.830  0.6364  0.6697 -0.1557
 6084SOL    HW129885   1.920   2.050   8.747  0.8702 -0.6089  0.5673
 6084SOL    HW229886   2.003   2.136   8.840  0.5659  0.0218  2.9451
 6085SOL     OW29887   0.481   0.295   6.960 -0.8014  0.2705  0.2258
 6085SOL    HW129888   0.533   0.357   6.909 -0.0748  1.6883  2.6807
 6085SOL    HW229889   0.506   0.216   6.912 -3.2653 -0.4149  0.0376
 6086SOL     OW29890   2.272   1.352  11.836  0.2047 -0.1636  0.1783
 6086SOL    HW129891   2.202   1.412  11.811 -1.4008 -1.7162  0.9576
 6086SOL    HW229892   2.354   1.400  11.821  1.2933 -2.5087 -1.3796
 6087SOL     OW29893   3.258   0.721   6.353 -0.3289  0.5518 -0.5196
 6087SOL    HW129894   3.165   0.743   6.348 -0.1420  1.2594 -0.8944
 6087SOL    HW229895   3.299   0.805   6.373  3.4920 -1.1958 -1.0579
 6088SOL     OW29896   1.600   1.680  12.082  0.2488  0.0077 -0.6813
 6088SOL    HW129897   1.598   1.587  12.101 -2.5002  0.5784  1.8219
 6088SOL    HW229898   1.508   1.702  12.093 -0.3966 -2.6391 -0.9212
 6089SOL     OW29899   2.810   2.269  14.303  0.1079 -0.1005 -0.3283
 6089SOL    HW129900   2.739   2.322  14.267  0.9539  1.7612  0.7326
 6089SOL    HW229901   2.889   2.320  14.287  0.0309 -0.3203 -1.3959
 6090SOL     OW29902   1.810   0.258   3.150  0.3250  0.7959  0.4212
 6090SOL    HW129903   1.752   0.335   3.149 -2.9062 -1.6211  0.5564
 6090SOL    HW229904   1.761   0.199   3.208 -1.1889  0.0888 -1.5940
 6091SOL     OW29905   0.863   3.685   4.581  0.3451  0.4628  0.0463
 6091SOL    HW129906   0.798   3.755   4.581 -1.1720 -0.9574 -2.1055
 6091SOL    HW229907   0.824   3.613   4.630 -0.7726  1.7533  1.0376
 6092SOL     OW29908   3.840   4.678   9.206  0.2726 -0.1498  0.3844
 6092SOL    HW129909   3.876   4.594   9.178 -0.7875  0.0191 -1.4656
 6092SOL    HW229910   3.762   4.646   9.251 -0.2277  1.7573  0.8371
 6093SOL     OW29911   2.008   0.329  13.262  0.2561  0.0191 -0.1283
 6093SOL    HW129912   1.974   0.391  13.198 -1.3164  1.2415  1.9152
 6093SOL    HW229913   2.098   0.361  13.277  0.9824 -0.4823 -3.5192
 6094SOL     OW29914   4.481   3.648   7.344 -0.2830  0.3591 -0.2955
 6094SOL    HW129915   4.524   3.590   7.281  1.0911  0.0059  0.9815
 6094SOL    HW229916   4.439   3.703   7.278 -0.4938  0.6172  0.0588
 6095SOL     OW29917   3.811   3.378   1.366  0.6998 -0.4412  0.0682
 6095SOL    HW129918   3.838   3.415   1.450  0.1370  0.4682 -0.1614
 6095SOL    HW229919   3.843   3.287   1.366  0.0143 -0.6851 -0.5402
 6096SOL     OW29920   1.746   2.618   1.184 -0.2669  0.4049  0.3870
 6096SOL    HW129921   1.737   2.703   1.228 -0.4382  0.3956  0.3688
 6096SOL    HW229922   1.839   2.599   1.194 -0.4011  0.1617  1.1708
 6097SOL     OW29923   1.998   2.108  14.979 -0.2802  0.4354 -0.3568
 6097SOL    HW129924   1.987   2.030  14.924 -1.0863  0.5051 -0.3027
 6097SOL    HW229925   1.965   2.070  15.060  2.1151  2.4436  1.5340
 6098SOL     OW29926   0.569   2.941   3.011 -0.0243  0.5170  0.3995
 6098SOL    HW129927   0.549   2.983   3.095  0.4961  0.4066  0.5775
 6098SOL    HW229928   0.518   2.999   2.955  1.5958  1.8148  0.2675
 6099SOL     OW29929   2.618   3.834   7.328  0.3062 -0.3981 -0.3980
 6099SOL    HW129930   2.526   3.825   7.306  0.6607 -2.9154 -0.8554
 6099SOL    HW229931   2.648   3.892   7.258  1.6337 -0.4005  0.1659
 6100SOL     OW29932   4.288   2.612   6.176 -0.1347 -0.3901  0.3067
 6100SOL    HW129933   4.203   2.626   6.217  1.4106  1.3700  2.8916
 6100SOL    HW229934   4.276   2.646   6.087 -2.0613 -0.6143  0.4651
 6101SOL     OW29935   0.230   4.481   2.471  0.2645  0.3668  0.3220
 6101SOL    HW129936   0.269   4.428   2.541  1.8103  1.1157  0.0304
 6101SOL    HW229937   0.308   4.518   2.431 -0.0893  0.7488 -0.0134
 6102SOL     OW29938   2.168   0.106  13.116 -0.3278  0.1262  0.1106
 6102SOL    HW129939   2.209   0.052  13.183 -0.6158  1.8607  1.6708
 6102SOL    HW229940   2.159   0.195  13.148 -1.4161  0.4210 -1.0066
 6103SOL     OW29941   0.488   3.730   7.802 -0.1195  0.0988 -0.0216
 6103SOL    HW129942   0.534   3.744   7.720  0.5597  2.0837  0.6950
 6103SOL    HW229943   0.514   3.806   7.856  0.7884 -0.0439 -0.2572
 6104SOL     OW29944   0.425   0.666   1.303  0.1434  0.0211 -0.1143
 6104SOL    HW129945   0.462   0.725   1.237  1.1650  0.0961  0.5239
 6104SOL    HW229946   0.380   0.603   1.247 -0.1681  0.2010 -0.0668
 6105SOL     OW29947   3.368   0.975   2.799  0.1972 -0.1743  0.0769
 6105SOL    HW129948   3.402   0.953   2.886  0.2147 -3.0324 -0.6461
 6105SOL    HW229949   3.414   1.058   2.799 -0.4328  0.1669 -1.3446
 6106SOL     OW29950   1.476   3.743   7.165  0.5659 -0.0110  0.0919
 6106SOL    HW129951   1.426   3.797   7.225  0.3870  0.8994 -0.8744
 6106SOL    HW229952   1.442   3.656   7.189  3.0395 -1.4046 -1.3939
 6107SOL     OW29953   0.302   0.618   3.831 -0.3217  0.4804 -0.0577
 6107SOL    HW129954   0.240   0.610   3.903 -0.5958 -0.0449 -0.3499
 6107SOL    HW229955   0.360   0.543   3.842  0.7805  1.7792  3.0839
 6108SOL     OW29956   0.127   4.506   1.948  0.3554  0.3114 -0.6730
 6108SOL    HW129957   0.083   4.584   1.915  0.6939  0.8916  0.2242
 6108SOL    HW229958   0.109   4.521   2.041  0.2734  1.3636 -0.8585
 6109SOL     OW29959   2.233   0.461   3.770  0.4421  0.5380 -0.2471
 6109SOL    HW129960   2.154   0.509   3.742 -0.4195 -0.4610  0.4609
 6109SOL    HW229961   2.253   0.515   3.846  1.4496  0.6747 -0.6196
 6110SOL     OW29962   1.489   0.984   5.531  0.4414  0.1435  0.7779
 6110SOL    HW129963   1.557   1.017   5.472 -0.5216  0.5828 -0.0847
 6110SOL    HW229964   1.533   0.904   5.561  0.3911  0.3437  1.3746
 6111SOL     OW29965   3.707   0.865  10.434 -0.2801  0.2982  0.7295
 6111SOL    HW129966   3.723   0.770  10.440 -1.8964  0.0736  1.6273
 6111SOL    HW229967   3.618   0.855  10.400  0.1215  4.2999 -1.4393
 6112SOL     OW29968   4.337   3.908  11.735  0.4613  0.4965  0.8854
 6112SOL    HW129969   4.368   3.883  11.648 -0.4214  2.6617 -0.0601
 6112SOL    HW229970   4.412   3.957  11.769  0.2770  1.7047 -0.4262
 6113SOL     OW29971   1.294   2.547   7.706 -0.1294 -0.3343 -0.6015
 6113SOL    HW129972   1.372   2.499   7.732 -0.4141 -1.2917 -1.4799
 6113SOL    HW229973   1.254   2.542   7.793 -1.6703 -0.2826 -1.3005
 6114SOL     OW29974   1.639   3.399   4.880 -0.1760  0.6909 -0.1059
 6114SOL    HW129975   1.601   3.328   4.931  0.3710  0.0805 -0.5484
 6114SOL    HW229976   1.659   3.465   4.946 -0.9239 -0.3270  1.1339
 6115SOL     OW29977   0.975   4.691   1.846  0.5535 -0.1034 -0.0767
 6115SOL    HW129978   1.056   4.692   1.897  0.0113  1.5420  0.7533
 6115SOL    HW229979   0.939   4.604   1.864  0.8289  0.4362  3.0783
 6116SOL     OW29980   1.473   3.538   4.599 -0.1519 -0.4568 -0.1628
 6116SOL    HW129981   1.395   3.565   4.550 -0.3623 -1.0825 -0.1682
 6116SOL    HW229982   1.463   3.445   4.618  0.4192 -1.1468 -3.2396
 6117SOL     OW29983   0.770   3.938  11.537 -0.1525  0.0150  0.6013
 6117SOL    HW129984   0.706   3.867  11.540  2.4550 -2.3385 -0.1677
 6117SOL    HW229985   0.839   3.896  11.589  1.6663  3.4552  0.9611
 6118SOL     OW29986   0.777   0.441   4.446 -0.6228 -0.5378 -0.3970
 6118SOL    HW129987   0.805   0.419   4.535  0.8430  1.5514 -0.3342
 6118SOL    HW229988   0.773   0.535   4.465 -1.6891 -0.7678  0.5029
 6119SOL     OW29989   0.937   3.419   1.518 -0.3336  0.3658 -0.5176
 6119SOL    HW129990   1.009   3.472   1.552 -0.8218 -0.9839  2.6148
 6119SOL    HW229991   0.978   3.337   1.493  1.5173  0.7280  1.2822
 6120SOL     OW29992   4.156   0.648   8.303  0.0356  0.4071 -0.2380
 6120SOL    HW129993   4.201   0.592   8.240 -1.2631  0.3876 -1.1514
 6120SOL    HW229994   4.122   0.713   8.242 -1.0153  0.3887  0.3170
 6121SOL     OW29995   0.451   3.479  11.243  0.5780  0.6472  0.5344
 6121SOL    HW129996   0.373   3.431  11.216  0.9338 -1.6075  3.5816
 6121SOL    HW229997   0.435   3.482  11.337  1.9632 -3.7730  0.9277
 6122SOL     OW29998   3.483   3.610   8.194 -0.5196  0.2861  0.3047
 6122SOL    HW129999   3.539   3.681   8.163  0.5889  0.7060  3.2465
 6122SOL    HW230000   3.516   3.575   8.277  2.5119  0.2915 -0.8919
 6123SOL     OW30001   2.682   2.936   2.231  0.1543 -0.1739 -0.2475
 6123SOL    HW130002   2.646   2.847   2.229 -0.2226 -0.0599  1.0893
 6123SOL    HW230003   2.692   2.955   2.138 -0.3452  0.9217 -0.0805
 6124SOL     OW30004   1.414   4.397   6.827 -0.1073  0.4932 -0.1427
 6124SOL    HW130005   1.330   4.363   6.859  1.5193 -1.2106  2.2998
 6124SOL    HW230006   1.448   4.424   6.912 -1.1050 -3.6602  1.5214
 6125SOL     OW30007   3.233   3.043  14.588  0.5374 -0.4605  0.5334
 6125SOL    HW130008   3.289   3.071  14.516 -0.1844  1.2797  0.6599
 6125SOL    HW230009   3.262   3.098  14.661  2.5537  0.7080 -1.1701
 6126SOL     OW30010   3.242   0.118   5.736 -0.2191  0.4925  0.7011
 6126SOL    HW130011   3.196   0.182   5.789 -0.8912  0.4485  0.1697
 6126SOL    HW230012   3.315   0.176   5.715  0.5489 -0.6092  0.2915
 6127SOL     OW30013   2.902   2.773  11.307  0.5898 -0.1826  0.4903
 6127SOL    HW130014   2.994   2.761  11.282  0.2303  0.0184 -0.9072
 6127SOL    HW230015   2.921   2.815  11.391  2.2583 -0.8588  0.4453
 6128SOL     OW30016   2.143   3.759   2.806 -0.0078 -0.3028 -0.0630
 6128SOL    HW130017   2.236   3.775   2.825 -0.1601  0.6184 -0.0944
 6128SOL    HW230018   2.118   3.835   2.755 -1.8284 -0.7980  0.0714
 6129SOL     OW30019   3.058   0.807   3.956 -0.6605  0.3145  0.2932
 6129SOL    HW130020   3.023   0.894   3.936 -2.7867 -1.2000 -2.4620
 6129SOL    HW230021   2.986   0.750   3.929  0.7496 -1.1941 -0.2405
 6130SOL     OW30022   4.535   4.515  12.037  0.2104 -0.4627 -0.4497
 6130SOL    HW130023   4.519   4.504  12.131 -1.5488  1.1323 -0.5667
 6130SOL    HW230024   4.581   4.434  12.016 -0.8825 -0.9544 -0.9434
 6131SOL     OW30025   1.311   3.874   5.658 -0.4258  0.8275 -0.2051
 6131SOL    HW130026   1.384   3.892   5.718  1.3921  0.5734 -2.3122
 6131SOL    HW230027   1.310   3.959   5.614 -0.5855  0.4451 -0.9391
 6132SOL     OW30028   3.981   1.552   3.877 -0.3144  0.2776 -0.1383
 6132SOL    HW130029   3.914   1.485   3.890  0.9663 -1.2817 -1.3781
 6132SOL    HW230030   4.048   1.505   3.826  0.3651  0.9481  0.1315
 6133SOL     OW30031   1.340   1.104   7.672 -0.7460  0.5384  0.5986
 6133SOL    HW130032   1.298   1.088   7.756 -0.5873 -1.8923  0.2108
 6133SOL    HW230033   1.363   1.194   7.695  1.6035 -0.0789  0.6195
 6134SOL     OW30034   3.623   4.043   3.349 -0.3472  0.1556 -0.2803
 6134SOL    HW130035   3.572   3.974   3.307  0.0900 -2.1769  3.0746
 6134SOL    HW230036   3.551   4.090   3.392  1.4317  1.2326  1.5242
 6135SOL     OW30037   0.511   4.672  15.607  0.0090 -0.1966  0.1114
 6135SOL    HW130038   0.432   4.646  15.653  0.1158  0.9386  0.9538
 6135SOL    HW230039   0.560   4.718  15.675  0.0525  0.7129 -0.5324
 6136SOL     OW30040   2.000   2.176  17.680  0.0184  0.8494  0.0730
 6136SOL    HW130041   1.952   2.152  17.601 -1.3977 -0.7318  1.3848
 6136SOL    HW230042   1.928   2.193  17.742 -0.4487 -0.3866 -0.1214
 6137SOL     OW30043   0.095   2.903   5.341 -0.1833  0.6052 -0.4738
 6137SOL    HW130044   0.190   2.903   5.335 -0.1035  1.3623  0.8699
 6137SOL    HW230045   0.094   2.816   5.381 -0.1402  0.5094 -0.6798
 6138SOL     OW30046   2.184   2.179   8.779 -0.4265  0.6468 -0.0798
 6138SOL    HW130047   2.259   2.222   8.821  0.0470  0.0505 -0.3095
 6138SOL    HW230048   2.200   2.188   8.685 -0.3866 -2.6100 -0.3778
 6139SOL     OW30049   3.535   1.417  16.618  0.2617  0.0278 -0.6554
 6139SOL    HW130050   3.444   1.446  16.628  0.1182 -0.5676 -0.2339
 6139SOL    HW230051   3.580   1.446  16.698  2.2596 -2.3340 -0.9237
 6140SOL     OW30052   2.823   1.843   7.694 -0.2703  0.3108 -0.3793
 6140SOL    HW130053   2.903   1.813   7.650  0.6047 -0.8653  1.9889
 6140SOL    HW230054   2.809   1.784   7.768  2.4957  0.0888 -0.0230
 6141SOL     OW30055   2.649   2.276   2.427 -0.1039 -0.8118  0.1440
 6141SOL    HW130056   2.612   2.261   2.340 -1.9298  0.6521  0.6622
 6141SOL    HW230057   2.605   2.213   2.484  1.0088 -0.2155  1.6858
 6142SOL     OW30058   2.472   1.999   6.878 -0.4677 -0.1886 -0.1719
 6142SOL    HW130059   2.396   2.057   6.871  0.3303  0.6626 -1.8822
 6142SOL    HW230060   2.507   2.023   6.963 -1.1107  1.9498 -0.5170
 6143SOL     OW30061   0.735   0.992   1.141  0.2047 -0.7124  0.1872
 6143SOL    HW130062   0.757   1.084   1.127  0.9835 -0.9985 -0.4778
 6143SOL    HW230063   0.644   1.008   1.166  0.5463  0.4092  0.6706
 6144SOL     OW30064   2.430   1.595  14.418 -0.3101 -0.4697 -0.4970
 6144SOL    HW130065   2.373   1.665  14.449  0.0917 -0.0663 -0.6693
 6144SOL    HW230066   2.381   1.515  14.436  0.0816 -0.3718  0.9650
 6145SOL     OW30067   3.621   0.841  12.500 -0.1512 -0.1966 -0.9109
 6145SOL    HW130068   3.708   0.827  12.462  0.2786  0.9739 -0.3563
 6145SOL    HW230069   3.629   0.930  12.534  1.5729 -1.0451  0.9235
 6146SOL     OW30070   2.681   0.511   7.989 -0.1595 -0.3646  0.0823
 6146SOL    HW130071   2.607   0.465   7.948 -0.6875  0.3455  0.2384
 6146SOL    HW230072   2.743   0.449   8.028 -0.8175  1.3093  3.7214
 6147SOL     OW30073   3.642   3.018  12.926 -0.2703 -0.1471  0.4965
 6147SOL    HW130074   3.587   3.027  13.004  0.3367  1.1091  0.7722
 6147SOL    HW230075   3.570   3.021  12.863 -1.0694 -0.9693  1.3783
 6148SOL     OW30076   1.953   1.882   9.118  0.5824  0.6116  0.0375
 6148SOL    HW130077   1.858   1.871   9.125  0.6284  0.2086  0.0136
 6148SOL    HW230078   1.962   1.968   9.077 -1.1153 -0.1224 -1.8996
 6149SOL     OW30079   3.709   4.729   7.742 -0.1325 -0.0012  0.4022
 6149SOL    HW130080   3.628   0.033   7.770 -0.6497 -1.4215  1.1420
 6149SOL    HW230081   3.739   0.039   7.666 -0.0089  0.5864  0.8344
 6150SOL     OW30082   4.349   4.005  13.778  0.4212  0.8778  0.0532
 6150SOL    HW130083   4.273   4.060  13.757 -0.9734 -0.7804  0.8063
 6150SOL    HW230084   4.397   4.078  13.817  0.4576  0.1677  1.3408
 6151SOL     OW30085   2.689   4.032  12.976 -0.1990  0.6003  0.5736
 6151SOL    HW130086   2.599   4.007  12.954 -0.4364  0.6594  1.4730
 6151SOL    HW230087   2.701   4.127  12.974  2.2723  0.3312  2.4939
 6152SOL     OW30088   3.641   2.916   4.875 -0.5915  0.2400 -0.6566
 6152SOL    HW130089   3.712   2.977   4.896  0.4016 -0.8753 -0.7444
 6152SOL    HW230090   3.587   2.923   4.954  0.3338 -2.3337  0.2068
 6153SOL     OW30091   4.262   2.266   0.436 -0.0529  0.0551  0.1521
 6153SOL    HW130092   4.252   2.237   0.345 -1.1602  1.7460 -0.2596
 6153SOL    HW230093   4.270   2.361   0.430  2.1939 -0.0534  1.2803
 6154SOL     OW30094   2.379   0.262   8.118  0.3584  0.2107  0.0121
 6154SOL    HW130095   2.447   0.199   8.096  0.0261  0.1018 -0.7012
 6154SOL    HW230096   2.329   0.268   8.037 -0.1883  3.8141  0.6097
 6155SOL     OW30097   0.304   3.065   1.899 -0.4630 -0.1401 -0.0764
 6155SOL    HW130098   0.377   3.126   1.893 -0.6590  0.0784 -0.2198
 6155SOL    HW230099   0.363   2.991   1.916 -0.8888 -0.0078  2.0105
 6156SOL     OW30100   4.023   4.507   0.793  0.0928 -0.0309  0.0568
 6156SOL    HW130101   4.075   4.551   0.726 -1.0043  1.1918 -0.0067
 6156SOL    HW230102   4.069   4.424   0.787  1.5211  0.7205  0.6256
 6157SOL     OW30103   4.222   4.460   8.203 -0.0489 -0.2978  0.0129
 6157SOL    HW130104   4.289   4.392   8.199  0.9358  0.7384 -1.1176
 6157SOL    HW230105   4.257   4.516   8.273  0.5551 -1.8997  0.9834
 6158SOL     OW30106   3.122   3.409   7.259  0.0025  0.6312  0.4707
 6158SOL    HW130107   3.071   3.338   7.299 -1.8734  0.5920 -2.0227
 6158SOL    HW230108   3.065   3.464   7.206  1.5900  2.2926  0.4906
 6159SOL     OW30109   0.525   2.463   7.878 -0.0480  0.5757 -0.3230
 6159SOL    HW130110   0.541   2.546   7.923 -0.3401  1.6016 -2.0962
 6159SOL    HW230111   0.601   2.408   7.897  0.2591  1.2872  0.5403
 6160SOL     OW30112   4.027   2.602   8.256  0.4721 -0.0947  0.2776
 6160SOL    HW130113   4.059   2.524   8.211  3.0967  0.9663  0.3181
 6160SOL    HW230114   4.100   2.655   8.286 -0.8965 -0.1293  3.6963
 6161SOL     OW30115   4.073   2.240   4.743  0.0316 -0.2172  0.3700
 6161SOL    HW130116   4.001   2.271   4.688  0.5938  2.7656  1.2831
 6161SOL    HW230117   4.126   2.194   4.678 -0.9424 -1.5729  0.5384
 6162SOL     OW30118   1.182   2.292   8.754 -0.3558 -0.3347  0.0662
 6162SOL    HW130119   1.141   2.293   8.840  1.6237 -0.0136  1.0035
 6162SOL    HW230120   1.275   2.293   8.773 -0.2064  1.6077 -0.7850
 6163SOL     OW30121   0.478   3.315   1.385  0.4087 -0.2832 -0.5767
 6163SOL    HW130122   0.505   3.390   1.332  0.6499 -0.5169 -0.7838
 6163SOL    HW230123   0.440   3.368   1.456  0.8800  0.4598 -0.8865
 6164SOL     OW30124   2.669   4.502   7.965  0.2625  0.1658 -0.3017
 6164SOL    HW130125   2.674   4.585   8.013  0.0519  0.7177 -1.2559
 6164SOL    HW230126   2.576   4.481   7.973  0.9201 -2.4871  0.3729
 6165SOL     OW30127   2.109   2.521   4.215 -0.3185 -0.1503 -0.6828
 6165SOL    HW130128   2.054   2.527   4.137  1.0944 -2.6669 -1.8751
 6165SOL    HW230129   2.095   2.611   4.246 -1.1746 -1.6017  3.0688
 6166SOL     OW30130   2.809   3.844   3.536 -0.8903  0.0366  0.6686
 6166SOL    HW130131   2.860   3.897   3.475  0.9690  0.7737  2.8797
 6166SOL    HW230132   2.844   3.860   3.623  0.2214  1.9961 -0.1588
 6167SOL     OW30133   3.087   2.688  16.647 -0.1806  0.4697  0.0752
 6167SOL    HW130134   3.059   2.709  16.558 -1.3108  1.8988  0.7646
 6167SOL    HW230135   3.042   2.757  16.696  0.0169  0.0895  0.7913
 6168SOL     OW30136   0.502   2.621   4.917 -0.0168 -0.0033 -0.1969
 6168SOL    HW130137   0.424   2.676   4.926  0.3591  0.5120 -0.0838
 6168SOL    HW230138   0.458   2.537   4.932  1.2397 -0.7680 -0.8734
 6169SOL     OW30139   0.765   4.046   3.381 -0.4625 -0.4964 -0.1584
 6169SOL    HW130140   0.757   4.141   3.393  0.2728 -0.6364  1.4798
 6169SOL    HW230141   0.856   4.044   3.351 -0.2051  0.1188  0.5668
 6170SOL     OW30142   0.487   2.626  12.062  0.0592  0.0669 -0.0129
 6170SOL    HW130143   0.484   2.643  12.156  2.3094  2.2357 -0.3249
 6170SOL    HW230144   0.425   2.696  12.042  0.5962  0.4554 -0.3315
 6171SOL     OW30145   0.455   0.372   7.204  0.0347 -0.1325  0.3536
 6171SOL    HW130146   0.471   0.460   7.173  3.2660  0.4951  3.7928
 6171SOL    HW230147   0.456   0.327   7.120  1.9606  2.3332 -0.9296
 6172SOL     OW30148   2.661   2.309   8.044 -0.2502  0.2023  0.3047
 6172SOL    HW130149   2.571   2.309   8.075 -0.1083 -1.1075  0.7503
 6172SOL    HW230150   2.698   2.238   8.098  0.2209  1.3913  1.5619
 6173SOL     OW30151   3.383   3.805   0.710 -0.0318 -0.3909 -0.9514
 6173SOL    HW130152   3.444   3.810   0.637 -0.3615 -2.1655 -1.3507
 6173SOL    HW230153   3.437   3.795   0.788 -1.1503  3.0558  0.2726
 6174SOL     OW30154   4.112   0.679   8.767  0.0946  0.1610 -0.3261
 6174SOL    HW130155   4.045   0.744   8.784 -2.2188 -1.9362 -1.3596
 6174SOL    HW230156   4.180   0.702   8.830  0.8211 -2.8005 -0.0280
 6175SOL     OW30157   3.157   4.460  16.230 -0.9563 -0.2846 -0.0225
 6175SOL    HW130158   3.162   4.486  16.321 -1.0575  2.5211 -0.8293
 6175SOL    HW230159   3.083   4.400  16.232 -1.9271  0.8446 -1.8253
 6176SOL     OW30160   1.865   4.240   0.317 -0.2415  0.4781 -0.1726
 6176SOL    HW130161   1.835   4.234   0.408  0.4417 -1.0826 -0.0428
 6176SOL    HW230162   1.946   4.188   0.321 -1.3044 -1.1354  0.8738
 6177SOL     OW30163   2.139   0.186   8.261 -0.1754 -0.1155  0.6873
 6177SOL    HW130164   2.087   0.146   8.191  2.1034 -1.3384 -0.3002
 6177SOL    HW230165   2.225   0.171   8.222 -0.1598 -0.3966  0.8307
 6178SOL     OW30166   2.160   2.422   9.478  0.1675  0.0511  0.1129
 6178SOL    HW130167   2.223   2.479   9.436  0.9240  0.6695  2.0884
 6178SOL    HW230168   2.100   2.412   9.403 -0.1790  1.7058  0.1625
 6179SOL     OW30169   0.911   0.433  14.860 -0.7292  0.3480 -0.2968
 6179SOL    HW130170   0.953   0.347  14.856 -0.0889  0.7043 -1.1390
 6179SOL    HW230171   0.853   0.412  14.933  0.0940 -2.7455 -0.5229
 6180SOL     OW30172   4.707   4.712   1.858  0.8409 -0.2026  0.2442
 6180SOL    HW130173   4.658   0.004   1.934  2.4761  2.0229  0.3576
 6180SOL    HW230174   4.652   4.653   1.807  0.0637  2.2673 -1.7689
 6181SOL     OW30175   2.860   3.800   4.345  0.2385 -0.0992  0.1689
 6181SOL    HW130176   2.919   3.730   4.372  1.2174  0.5620 -0.2686
 6181SOL    HW230177   2.926   3.858   4.308 -0.5034  1.6639  1.5622
 6182SOL     OW30178   3.625   3.444  11.751 -0.2082 -0.4700 -0.3394
 6182SOL    HW130179   3.699   3.450  11.811  0.1203  2.0962 -0.9937
 6182SOL    HW230180   3.579   3.519  11.790 -0.5355 -0.0471 -1.5315
 6183SOL     OW30181   2.409   4.145   8.729 -0.0505 -0.2431 -0.0117
 6183SOL    HW130182   2.384   4.238   8.724 -0.8752 -0.4940 -0.5523
 6183SOL    HW230183   2.412   4.112   8.640 -1.6396 -0.9969  0.2150
 6184SOL     OW30184   1.345   1.622   4.765 -0.4109 -0.1614  0.1756
 6184SOL    HW130185   1.327   1.533   4.738  3.3412 -0.9245  0.1804
 6184SOL    HW230186   1.440   1.617   4.768 -0.5084 -0.5417  2.4890
 6185SOL     OW30187   3.142   0.099  10.065  0.4013  0.3055  0.4232
 6185SOL    HW130188   3.059   0.055  10.049  1.2371 -0.3336 -2.1895
 6185SOL    HW230189   3.108   0.185  10.044  0.9790  0.1228 -1.2453
 6186SOL     OW30190   3.994   2.353   5.130 -0.0175 -0.0542  0.0915
 6186SOL    HW130191   4.054   2.417   5.091 -1.1841  0.2757 -1.1791
 6186SOL    HW230192   4.028   2.275   5.087 -1.1275  0.2930 -1.4461
 6187SOL     OW30193   3.463   3.310  11.310  1.0063 -0.1430 -0.3990
 6187SOL    HW130194   3.399   3.368  11.351  1.2430 -0.7181  0.7803
 6187SOL    HW230195   3.490   3.369  11.239 -0.7990  2.3628  0.9655
 6188SOL     OW30196   0.570   1.974   6.968 -0.4675  0.2018 -0.3273
 6188SOL    HW130197   0.496   1.917   6.947 -0.8156  0.0922  1.2057
 6188SOL    HW230198   0.607   1.940   7.050 -0.7238  0.6829 -0.0149
 6189SOL     OW30199   0.750   4.047  14.637  0.3720 -0.4639 -0.1671
 6189SOL    HW130200   0.841   4.070  14.654  0.3964 -1.4786  1.0364
 6189SOL    HW230201   0.750   3.954  14.660  1.2124 -0.1074  1.2667
 6190SOL     OW30202   1.684   4.347  12.789 -0.4608 -0.2064  0.6058
 6190SOL    HW130203   1.629   4.331  12.713 -0.0475 -0.7425  0.4132
 6190SOL    HW230204   1.622   4.384  12.852 -1.1841 -0.8153  0.2521
 6191SOL     OW30205   4.113   2.008   6.070 -0.4172  0.3704 -0.5999
 6191SOL    HW130206   4.134   1.945   6.138  1.6197  1.1427 -0.4989
 6191SOL    HW230207   4.151   2.083   6.115 -0.1996 -0.0286 -0.1266
 6192SOL     OW30208   1.761   0.164   8.930 -0.2487  0.3244  0.3389
 6192SOL    HW130209   1.689   0.186   8.989 -1.0653 -4.0373  1.0326
 6192SOL    HW230210   1.734   0.198   8.845  0.2424  0.2592  0.1608
 6193SOL     OW30211   2.301   0.985   4.406  0.5354 -0.1892 -1.1126
 6193SOL    HW130212   2.396   0.990   4.410  0.4739 -0.4808  0.7470
 6193SOL    HW230213   2.292   0.923   4.333 -1.2334 -0.6370 -0.5295
 6194SOL     OW30214   0.394   1.030  14.711 -0.4908 -0.3180 -0.4129
 6194SOL    HW130215   0.352   1.097  14.658 -1.2240 -0.2349  0.2706
 6194SOL    HW230216   0.342   0.951  14.692 -1.5326 -0.0537  1.3102
 6195SOL     OW30217   2.075   1.299   9.747 -0.3043 -0.6286  0.3099
 6195SOL    HW130218   2.091   1.322   9.839 -3.9946 -2.7885  1.4886
 6195SOL    HW230219   1.980   1.294   9.758 -0.2803 -1.3495  0.2155
 6196SOL     OW30220   0.738   2.540   8.410 -0.1909 -0.5658 -0.4664
 6196SOL    HW130221   0.816   2.489   8.433  0.4112 -0.0302 -1.3423
 6196SOL    HW230222   0.774   2.618   8.369  1.9039 -1.8785 -1.1682
 6197SOL     OW30223   2.252   3.793   7.061  0.2966  0.1065 -0.3746
 6197SOL    HW130224   2.234   3.699   7.057 -2.7244  0.7774 -2.2237
 6197SOL    HW230225   2.253   3.821   7.152 -1.4719  0.2548 -0.4032
 6198SOL     OW30226   1.665   1.428   4.541 -0.2550 -0.6316 -0.6184
 6198SOL    HW130227   1.653   1.385   4.456  1.2573  0.6639 -1.4863
 6198SOL    HW230228   1.761   1.435   4.543 -0.3454  0.1027  0.9555
 6199SOL     OW30229   2.025   0.357   5.233 -0.2457  0.1533  0.3521
 6199SOL    HW130230   2.044   0.446   5.204 -0.0381  1.1198  3.3794
 6199SOL    HW230231   1.998   0.321   5.149  1.7684  1.7219 -0.9503
 6200SOL     OW30232   0.732   3.054   4.369  0.3641 -0.4459 -0.4022
 6200SOL    HW130233   0.679   3.046   4.448 -1.7453  0.6449 -1.7258
 6200SOL    HW230234   0.726   2.969   4.326  1.6073 -1.5895  1.6877
 6201SOL     OW30235   3.555   3.350  14.034  0.8740 -0.6925 -0.0204
 6201SOL    HW130236   3.468   3.390  14.037  1.3170  0.3061 -0.7569
 6201SOL    HW230237   3.596   3.429  14.000  0.0367 -0.2371  0.0155
 6202SOL     OW30238   1.314   3.961   9.374  0.2631  0.1922  0.4146
 6202SOL    HW130239   1.362   3.948   9.456  0.6023 -0.6305  0.0815
 6202SOL    HW230240   1.330   4.052   9.349  0.0762  0.6070  1.8066
 6203SOL     OW30241   3.076   4.268   3.238  0.4469 -0.5216  0.3479
 6203SOL    HW130242   3.049   4.190   3.190 -0.0132  0.3731 -0.8441
 6203SOL    HW230243   2.994   4.315   3.226 -0.4679 -2.4555 -0.9547
 6204SOL     OW30244   1.307   3.802   1.596  0.1313 -0.4189 -0.3417
 6204SOL    HW130245   1.268   3.820   1.510  1.5650  2.7496 -0.3311
 6204SOL    HW230246   1.400   3.788   1.578  1.2814  1.0969  4.5486
 6205SOL     OW30247   2.416   1.706   3.874 -0.3201  0.0573 -1.1118
 6205SOL    HW130248   2.440   1.732   3.786  0.3603  0.3950 -0.8216
 6205SOL    HW230249   2.500   1.685   3.915 -1.8953 -0.2441  2.0169
 6206SOL     OW30250   2.496   3.874   5.582 -0.0814 -0.9769 -0.1054
 6206SOL    HW130251   2.535   3.801   5.534  0.9343 -0.8316  0.4893
 6206SOL    HW230252   2.416   3.841   5.622  0.0989 -1.5949 -0.2581
 6207SOL     OW30253   1.721   3.780  17.291 -0.2309 -0.4732 -0.0477
 6207SOL    HW130254   1.798   3.738  17.330 -2.0669 -2.6784  1.1962
 6207SOL    HW230255   1.698   3.731  17.212 -0.3154 -1.9920  0.9332
 6208SOL     OW30256   0.185   2.321   3.364  0.7392  0.0739 -0.2016
 6208SOL    HW130257   0.277   2.343   3.351  0.8372 -0.3297 -0.1799
 6208SOL    HW230258   0.157   2.312   3.273  0.3610 -1.7788  0.0844
 6209SOL     OW30259   2.021   4.081   2.270 -0.1297 -0.1030  0.0215
 6209SOL    HW130260   1.960   4.151   2.247  0.1209 -0.3133 -1.2904
 6209SOL    HW230261   2.099   4.130   2.244 -0.9094  1.1639  0.0697
 6210SOL     OW30262   1.898   1.348   8.636  0.1785  0.4002 -0.0688
 6210SOL    HW130263   1.891   1.408   8.709  0.5425 -0.9234  1.0528
 6210SOL    HW230264   1.881   1.402   8.558 -0.8264 -1.0190 -0.8451
 6211SOL     OW30265   2.253   1.917   7.653 -0.3823  0.4162 -0.7369
 6211SOL    HW130266   2.278   1.949   7.566  1.9818  0.7009  0.0579
 6211SOL    HW230267   2.291   1.988   7.704  0.9611  0.1973 -1.4506
 6212SOL     OW30268   2.791   1.912   3.341 -0.4766 -0.5978  0.3084
 6212SOL    HW130269   2.780   1.919   3.436  1.2072  0.8078  0.3917
 6212SOL    HW230270   2.841   1.992   3.328 -2.2671  0.3910 -0.5734
 6213SOL     OW30271   4.645   1.091   3.748  0.0243 -0.0615  0.2032
 6213SOL    HW130272   4.638   1.063   3.656  0.1741 -0.9690  0.4727
 6213SOL    HW230273   4.573   1.040   3.785 -0.2850  0.4762  0.3519
 6214SOL     OW30274   0.693   1.181   4.247  0.1887  0.4141 -0.1325
 6214SOL    HW130275   0.627   1.195   4.180 -0.5724 -0.0204  0.5240
 6214SOL    HW230276   0.727   1.270   4.261  1.7579 -0.4164  1.3595
 6215SOL     OW30277   1.707   3.869   4.980 -0.4759 -0.7361 -0.0577
 6215SOL    HW130278   1.709   3.964   4.991 -2.4359 -0.7113  0.1122
 6215SOL    HW230279   1.613   3.865   4.998 -0.3675  1.5346  0.9682
 6216SOL     OW30280   1.004   0.672  14.013 -0.6248 -0.4072  0.0921
 6216SOL    HW130281   1.036   0.649  14.100  0.8149 -0.2167 -0.3826
 6216SOL    HW230282   1.064   0.616  13.965  0.7042  0.6112  0.5569
 6217SOL     OW30283   4.155   1.971   7.070 -0.1797 -0.0936 -0.0309
 6217SOL    HW130284   4.235   1.929   7.104  0.9596 -0.3393 -3.0662
 6217SOL    HW230285   4.187   1.963   6.980  0.1167 -1.2262  0.1696
 6218SOL     OW30286   3.742   3.373   1.898 -0.4314 -0.4790  0.0130
 6218SOL    HW130287   3.817   3.426   1.926 -0.1334 -1.8072  1.7649
 6218SOL    HW230288   3.673   3.435   1.876 -0.1861  0.6397  2.3243
 6219SOL     OW30289   3.905   1.871   8.406 -0.0194  0.4799  0.0664
 6219SOL    HW130290   3.944   1.919   8.479 -2.2818  2.2216  0.0955
 6219SOL    HW230291   3.945   1.786   8.427 -1.4016  0.3957  2.2959
 6220SOL     OW30292   0.484   0.693   4.358  0.0041  0.0471  0.0356
 6220SOL    HW130293   0.516   0.776   4.321 -1.0919 -0.5257 -2.2286
 6220SOL    HW230294   0.524   0.699   4.444  0.1178  0.8004 -0.0729
 6221SOL     OW30295   2.461   1.742   1.804 -0.0514 -0.2689  0.2615
 6221SOL    HW130296   2.373   1.716   1.829  0.5211  0.2673  2.8615
 6221SOL    HW230297   2.459   1.832   1.836 -0.3962 -0.4088  0.6278
 6222SOL     OW30298   2.843   1.730   2.082 -0.0716 -0.0789 -0.3903
 6222SOL    HW130299   2.898   1.673   2.029  1.1140  0.4582  0.2760
 6222SOL    HW230300   2.907   1.744   2.151  0.0762  1.0979 -0.7714
 6223SOL     OW30301   1.052   1.199   3.920  0.0698 -0.6905 -0.2133
 6223SOL    HW130302   1.078   1.145   3.994 -0.6160  0.2885  0.7397
 6223SOL    HW230303   1.073   1.288   3.946  0.4131 -0.1218 -2.3953
 6224SOL     OW30304   1.754   2.461   4.179 -0.0876 -0.0755 -0.3198
 6224SOL    HW130305   1.715   2.541   4.213  2.1169  0.2267  1.5208
 6224SOL    HW230306   1.781   2.413   4.258 -1.1394 -2.6487 -1.5074
 6225SOL     OW30307   2.781   4.190   4.876  0.4346  0.0881 -0.1746
 6225SOL    HW130308   2.725   4.125   4.920  2.7989 -1.8436 -0.0377
 6225SOL    HW230309   2.831   4.133   4.818  1.6503 -0.3422  1.3115
 6226SOL     OW30310   1.546   2.750   9.478 -0.8435  1.0599 -0.6353
 6226SOL    HW130311   1.556   2.659   9.449  2.1038  0.7299  1.4953
 6226SOL    HW230312   1.536   2.744   9.573  1.9871  3.0202 -0.2400
 6227SOL     OW30313   2.098   0.651   7.796 -0.4222 -0.5325 -0.2771
 6227SOL    HW130314   2.111   0.625   7.705 -2.9541  0.6913 -0.9983
 6227SOL    HW230315   2.003   0.635   7.798 -0.4338 -0.5203 -0.7991
 6228SOL     OW30316   1.435   3.359  13.266 -0.2592 -0.0404  0.1047
 6228SOL    HW130317   1.447   3.423  13.196 -0.2282 -0.4928 -0.3092
 6228SOL    HW230318   1.492   3.400  13.331  2.5805 -1.7715 -1.2912
 6229SOL     OW30319   0.407   4.694   8.551  0.4401 -0.6833 -0.0498
 6229SOL    HW130320   0.363   4.669   8.469 -0.7075 -1.0760  0.6842
 6229SOL    HW230321   0.497   4.679   8.523 -0.0308 -0.0878 -1.9002
 6230SOL     OW30322   3.388   4.180  10.114  0.1825  0.0461  0.4775
 6230SOL    HW130323   3.442   4.187  10.193 -2.8988  0.1027  2.5702
 6230SOL    HW230324   3.445   4.124  10.061  0.2354 -1.3501  2.0262
 6231SOL     OW30325   0.423   1.542  10.266 -0.4109 -0.5765 -0.0630
 6231SOL    HW130326   0.334   1.569  10.242 -0.9389 -0.7117  1.7384
 6231SOL    HW230327   0.445   1.498  10.184  0.2800 -0.9707  0.3279
 6232SOL     OW30328   2.365   0.329  12.911  0.1212  0.2442 -0.4760
 6232SOL    HW130329   2.279   0.295  12.884  0.2884  0.2390 -0.9970
 6232SOL    HW230330   2.372   0.316  13.006 -0.0602 -0.6680 -0.5959
 6233SOL     OW30331   3.489   3.364   5.113  0.0268 -0.3937 -0.0209
 6233SOL    HW130332   3.434   3.412   5.052  0.0323  0.9846  1.0427
 6233SOL    HW230333   3.427   3.348   5.184  1.9082 -0.5267  1.6052
 6234SOL     OW30334   0.293   1.838   9.851  0.0054 -0.8376 -0.3220
 6234SOL    HW130335   0.368   1.781   9.869  1.1448  0.6883 -0.2276
 6234SOL    HW230336   0.315   1.856   9.760  0.2712  2.5796  0.3996
 6235SOL     OW30337   2.802   1.941   5.147  0.5336  0.1588 -0.5223
 6235SOL    HW130338   2.725   1.992   5.174  0.5471 -0.1501  0.0891
 6235SOL    HW230339   2.854   2.005   5.099  0.3962  0.4694 -0.2569
 6236SOL     OW30340   3.954   2.594   3.250  0.3821 -0.2078  0.0611
 6236SOL    HW130341   3.869   2.640   3.249  0.2910 -0.3344  1.8334
 6236SOL    HW230342   4.007   2.670   3.274  1.6007 -1.5930  1.7212
 6237SOL     OW30343   1.501   4.046  16.095 -0.9358 -0.0590 -0.8702
 6237SOL    HW130344   1.527   4.056  16.186  2.1976  0.5112 -1.8342
 6237SOL    HW230345   1.589   4.066  16.063 -1.5414 -0.2394 -2.6207
 6238SOL     OW30346   0.250   0.477   7.609  0.0310 -0.2197 -0.9964
 6238SOL    HW130347   0.244   0.499   7.702  1.2589 -0.4281 -0.8746
 6238SOL    HW230348   0.293   0.392   7.614 -1.7639 -1.0829  0.0057
 6239SOL     OW30349   2.294   3.250   8.130 -0.4444 -0.3156  1.0413
 6239SOL    HW130350   2.244   3.169   8.138 -1.3224  0.0807 -0.3861
 6239SOL    HW230351   2.384   3.222   8.119  0.0772  2.7224 -2.4501
 6240SOL     OW30352   1.823   2.781  17.635 -0.2974 -0.5348 -0.4811
 6240SOL    HW130353   1.896   2.724  17.611  1.5954  1.2385  1.0601
 6240SOL    HW230354   1.785   2.804  17.551 -0.9673 -0.5926 -0.1941
 6241SOL     OW30355   4.327   0.394   9.626  0.1438 -0.2097  0.5713
 6241SOL    HW130356   4.263   0.332   9.594  0.4678 -0.6957  0.8686
 6241SOL    HW230357   4.286   0.431   9.704 -0.5981 -0.0762  0.1120
 6242SOL     OW30358   0.624   0.627   8.931  0.2335  0.0942 -0.0741
 6242SOL    HW130359   0.552   0.671   8.976  0.9787  1.0139  0.2342
 6242SOL    HW230360   0.587   0.545   8.898  0.8838 -0.5312  0.7500
 6243SOL     OW30361   0.108   2.272   4.484  0.3003 -0.2673 -0.3299
 6243SOL    HW130362   0.168   2.255   4.412  1.3469  1.6904  0.0958
 6243SOL    HW230363   0.077   2.184   4.504 -1.0439  0.2691 -0.0470
 6244SOL     OW30364   0.316   3.859   9.175 -0.1770 -0.6770 -0.1097
 6244SOL    HW130365   0.364   3.777   9.162  2.1311  0.5018  0.8537
 6244SOL    HW230366   0.388   3.916   9.202  0.8408 -2.0577  0.1394
 6245SOL     OW30367   4.485   4.247   9.103  0.2963 -0.6050 -0.8469
 6245SOL    HW130368   4.445   4.278   9.184 -1.4459  0.2186 -2.0282
 6245SOL    HW230369   4.452   4.313   9.042  2.0575  1.1423  0.0895
 6246SOL     OW30370   1.312   2.880   4.059  0.6025  0.1064 -0.3616
 6246SOL    HW130371   1.365   2.888   3.980  1.0333 -1.8890 -0.2800
 6246SOL    HW230372   1.373   2.917   4.123 -0.9840  0.9508  0.6737
 6247SOL     OW30373   0.335   4.619  16.370 -0.0854 -0.0394 -0.3666
 6247SOL    HW130374   0.325   4.565  16.448 -1.5224  0.4682 -0.1998
 6247SOL    HW230375   0.419   4.596  16.330  0.1964 -0.9900  0.7770
 6248SOL     OW30376   2.911   2.219   0.160  0.0075 -0.8770 -0.5113
 6248SOL    HW130377   2.960   2.293   0.124 -2.0138  0.5626 -0.3023
 6248SOL    HW230378   2.837   2.215   0.099 -1.1834 -0.3922  0.8869
 6249SOL     OW30379   3.330   2.285  12.690  0.4573 -0.0565  0.3038
 6249SOL    HW130380   3.257   2.304  12.749 -1.0873  0.2566 -1.7027
 6249SOL    HW230381   3.399   2.338  12.730  0.4289 -0.9631  1.5421
 6250SOL     OW30382   0.530   0.609   3.459 -0.3201  0.0383  0.5233
 6250SOL    HW130383   0.574   0.569   3.384  2.0794  0.0738  1.8882
 6250SOL    HW230384   0.607   0.646   3.503  0.1291 -1.1583  0.7331
 6251SOL     OW30385   4.052   3.877   9.653  0.3325 -0.1165 -0.3896
 6251SOL    HW130386   4.043   3.783   9.635 -0.5006 -0.0807 -0.1459
 6251SOL    HW230387   4.119   3.860   9.719 -1.0179  1.3654  1.3567
 6252SOL     OW30388   4.600   3.686   5.763  0.0250  0.3051  0.3868
 6252SOL    HW130389   4.551   3.621   5.712 -1.0991 -0.9863  3.1209
 6252SOL    HW230390   4.638   3.627   5.828 -0.4048  0.3718  0.7043
 6253SOL     OW30391   2.254   3.420  14.149  0.3971 -0.0096 -0.2353
 6253SOL    HW130392   2.275   3.446  14.059 -2.0665 -0.0896 -0.8181
 6253SOL    HW230393   2.273   3.326  14.149  0.1993 -0.0487 -0.5876
 6254SOL     OW30394   3.926   1.758   6.933  0.4979 -0.4831 -0.2259
 6254SOL    HW130395   3.898   1.833   6.985 -1.5869 -1.5813  0.2494
 6254SOL    HW230396   3.841   1.731   6.897 -0.5034 -1.0895  2.6635
 6255SOL     OW30397   3.205   2.694   3.082  0.2102 -0.5382  0.2870
 6255SOL    HW130398   3.248   2.686   2.996  0.3085 -0.5989  0.3410
 6255SOL    HW230399   3.117   2.726   3.067  1.2796  2.3191  0.1694
 6256SOL     OW30400   3.618   4.597   9.333 -0.2139 -0.0903 -0.4717
 6256SOL    HW130401   3.623   4.542   9.411  0.4475 -1.0106 -1.1509
 6256SOL    HW230402   3.575   4.549   9.262 -1.9742 -1.7280  1.6822
 6257SOL     OW30403   4.345   0.629   1.333 -0.0710  1.0688 -0.1570
 6257SOL    HW130404   4.411   0.559   1.324  1.8987  3.2574 -2.9266
 6257SOL    HW230405   4.356   0.680   1.253  1.2097  1.7378  0.4478
 6258SOL     OW30406   3.654   0.157  12.915  0.3742  0.6151 -0.5010
 6258SOL    HW130407   3.687   0.138  12.827  3.3751 -0.6052  0.8802
 6258SOL    HW230408   3.734   0.187  12.960  1.9973 -1.2556 -2.1724
 6259SOL     OW30409   0.357   4.320  13.377 -0.6818  0.2373 -0.5076
 6259SOL    HW130410   0.442   4.315  13.333 -0.2675 -1.4393  0.4705
 6259SOL    HW230411   0.326   4.235  13.345 -0.9857  0.1200  0.1094
 6260SOL     OW30412   0.094   0.803   9.296 -0.0125 -0.0557 -0.1115
 6260SOL    HW130413   0.059   0.744   9.229 -1.6869 -0.1778  0.8782
 6260SOL    HW230414   0.098   0.890   9.256  0.3223  0.7873  1.7785
 6261SOL     OW30415   2.618   3.828   3.194 -0.4464 -0.0906  0.0335
 6261SOL    HW130416   2.616   3.817   3.099 -0.0419 -2.1459  0.2636
 6261SOL    HW230417   2.648   3.919   3.196 -2.2640  0.4553  2.6069
 6262SOL     OW30418   0.968   2.046   6.245 -0.0148  0.2588 -0.4516
 6262SOL    HW130419   0.970   2.119   6.306  3.0487 -0.2484  0.0563
 6262SOL    HW230420   0.998   1.974   6.301  0.3003 -0.1210 -1.1021
 6263SOL     OW30421   3.919   2.298   7.952 -0.3346  0.5046  0.7761
 6263SOL    HW130422   3.906   2.362   8.022  0.6501  0.0062  1.4120
 6263SOL    HW230423   3.874   2.223   7.991 -0.4237 -1.8278 -3.8691
 6264SOL     OW30424   2.416   1.649   7.352  0.8064  0.0491 -0.0068
 6264SOL    HW130425   2.321   1.654   7.342  1.0464  2.7590 -0.8073
 6264SOL    HW230426   2.409   1.587   7.424  1.7622 -1.5666 -1.2999
 6265SOL     OW30427   0.651   1.164   2.548  0.2352 -0.0394 -1.1739
 6265SOL    HW130428   0.742   1.193   2.547  0.6070 -1.1148  3.0668
 6265SOL    HW230429   0.659   1.080   2.502  0.4738 -1.6490  1.8565
 6266SOL     OW30430   3.324   3.303   7.616  0.7127 -0.2694 -0.7010
 6266SOL    HW130431   3.315   3.261   7.702  2.2838  0.9171  0.0565
 6266SOL    HW230432   3.293   3.246   7.546  2.6792 -0.2253 -1.6085
 6267SOL     OW30433   2.624   4.281   2.126 -0.3479 -0.0775 -0.2334
 6267SOL    HW130434   2.623   4.265   2.032  0.2359 -1.4838  0.0119
 6267SOL    HW230435   2.587   4.369   2.122  0.1715  0.2659  2.4183
 6268SOL     OW30436   0.887   3.641   3.138  0.1546 -0.3949  0.5558
 6268SOL    HW130437   0.934   3.695   3.075 -1.6625  2.5540  1.7185
 6268SOL    HW230438   0.800   3.666   3.105  0.0160  0.7253  1.7797
 6269SOL     OW30439   3.210   0.041   6.472 -0.0026 -0.4038  0.1464
 6269SOL    HW130440   3.144   4.717   6.445 -0.3177  0.5787 -1.3761
 6269SOL    HW230441   3.201   0.053   6.567 -2.7836 -1.1593 -0.0256
 6270SOL     OW30442   0.914   4.537   0.922  0.3052  0.2951 -0.9072
 6270SOL    HW130443   0.885   4.474   0.855 -2.1741 -0.1409  0.5885
 6270SOL    HW230444   1.005   4.506   0.919  0.9533  2.0091  1.3579
 6271SOL     OW30445   3.858   3.433  11.895 -0.5816 -0.1122  0.3310
 6271SOL    HW130446   3.933   3.391  11.937  0.4626  1.9671  0.5763
 6271SOL    HW230447   3.880   3.523  11.920  1.3537 -0.0621 -1.5900
 6272SOL     OW30448   4.564   2.010   3.833 -0.3932 -0.3576  0.2465
 6272SOL    HW130449   4.638   1.950   3.843 -1.7355 -1.8111  1.4996
 6272SOL    HW230450   4.557   2.001   3.738  0.3743  1.4011  0.0162
 6273SOL     OW30451   2.145   0.016   9.949 -0.5150  0.0708  0.1940
 6273SOL    HW130452   2.063   4.730   9.991 -0.8651  2.4463  0.9514
 6273SOL    HW230453   2.119   0.099   9.908 -0.5842 -0.6046 -1.1086
 6274SOL     OW30454   0.199   1.927   5.744 -0.6786 -0.0536  0.2779
 6274SOL    HW130455   0.121   1.874   5.762  0.2345 -1.1327  1.0220
 6274SOL    HW230456   0.246   1.897   5.666  0.2398 -1.8400  1.5447
 6275SOL     OW30457   0.943   4.703   4.228 -0.2319 -0.2414 -0.2351
 6275SOL    HW130458   0.942   0.056   4.204  0.6337 -0.8456 -2.6307
 6275SOL    HW230459   0.995   4.656   4.162 -0.3269 -0.7075  0.0234
 6276SOL     OW30460   1.330   1.375   3.338 -0.4170  0.1652 -0.5148
 6276SOL    HW130461   1.270   1.443   3.367  1.1811  0.6201  1.7069
 6276SOL    HW230462   1.297   1.291   3.370  0.6070 -0.0616 -0.0597
 6277SOL     OW30463   2.028   2.260   4.009 -0.7533 -0.4459  0.1093
 6277SOL    HW130464   2.001   2.236   4.098 -3.4524 -0.4989 -0.6951
 6277SOL    HW230465   2.123   2.255   4.006 -0.6894  1.0687 -0.3184
 6278SOL     OW30466   3.175   1.937   3.750 -0.1649  0.5338 -0.6434
 6278SOL    HW130467   3.265   1.913   3.773 -0.7533 -0.1753  0.9354
 6278SOL    HW230468   3.168   2.020   3.798  0.3859 -1.6489  3.2594
 6279SOL     OW30469   4.111   2.419   4.158  0.3832  0.0593  0.0728
 6279SOL    HW130470   4.070   2.333   4.173  1.2060 -0.4919 -0.8007
 6279SOL    HW230471   4.033   2.473   4.147  0.7287  0.7434  1.0716
 6280SOL     OW30472   3.650   4.708   7.417  0.2662 -0.4723  0.5873
 6280SOL    HW130473   3.582   0.003   7.475  0.4072  1.2908 -0.2899
 6280SOL    HW230474   3.602   4.642   7.367 -0.1348 -0.5395  1.0536
 6281SOL     OW30475   1.837   3.580   6.547  0.6207 -0.1357 -0.1533
 6281SOL    HW130476   1.808   3.649   6.607 -0.1130 -0.6140  0.0417
 6281SOL    HW230477   1.928   3.602   6.527  0.5849  0.8769  0.7828
 6282SOL     OW30478   0.913   4.018  12.953 -0.0657 -0.0616  0.1470
 6282SOL    HW130479   0.962   4.082  12.901  0.2593 -1.5199 -1.3588
 6282SOL    HW230480   0.954   4.020  13.039  1.1427 -3.7559 -0.3215
 6283SOL     OW30481   0.821   3.699   7.149  0.6100 -0.3988 -0.1076
 6283SOL    HW130482   0.757   3.766   7.173  1.2331  0.0632  0.2674
 6283SOL    HW230483   0.766   3.622   7.133  2.9912 -1.8984 -1.0089
 6284SOL     OW30484   3.043   4.410   3.673 -0.3004 -0.0483 -0.2542
 6284SOL    HW130485   3.040   4.332   3.618  0.9149  1.9531 -3.1315
 6284SOL    HW230486   2.948   4.422   3.685 -0.3449  1.0987 -1.8206
 6285SOL     OW30487   0.428   1.736  17.687 -0.1534  0.3256  0.2877
 6285SOL    HW130488   0.443   1.828  17.708 -2.5189  0.6731  0.3927
 6285SOL    HW230489   0.476   1.695   0.004  0.7902  0.8660 -0.0393
 6286SOL     OW30490   1.411   0.195   4.636 -0.0869 -0.0680  0.3777
 6286SOL    HW130491   1.486   0.249   4.613 -1.2020  1.4816  0.3833
 6286SOL    HW230492   1.368   0.253   4.699 -1.4013 -0.9602  0.3039
 6287SOL     OW30493   1.217   1.911   8.625 -0.5060  0.0298 -0.0738
 6287SOL    HW130494   1.257   1.829   8.651  0.1631  0.9348  1.7393
 6287SOL    HW230495   1.225   1.950   8.712  0.9358 -1.9249  0.6683
 6288SOL     OW30496   0.595   0.452  17.144  0.6046  0.2889 -0.0995
 6288SOL    HW130497   0.555   0.413  17.222  1.0690  0.8109  0.4013
 6288SOL    HW230498   0.537   0.416  17.076 -1.4046  2.5901  0.4189
 6289SOL     OW30499   2.931   2.432   8.075  0.3681 -0.2408 -0.0061
 6289SOL    HW130500   2.883   2.467   7.999  1.7086  3.6617  0.9698
 6289SOL    HW230501   2.884   2.349   8.082 -2.2429  1.2980  0.9821
 6290SOL     OW30502   3.826   3.531  10.966 -0.6985 -0.2906  0.6262
 6290SOL    HW130503   3.884   3.487  10.905 -1.8424  1.5786 -1.8271
 6290SOL    HW230504   3.824   3.472  11.041  3.3756  0.8528  1.5891
 6291SOL     OW30505   1.166   0.406   2.174 -0.3381  0.1710  0.3927
 6291SOL    HW130506   1.114   0.398   2.094  0.0908 -0.9810  0.2342
 6291SOL    HW230507   1.234   0.340   2.160  1.2689  2.0104 -0.5509
 6292SOL     OW30508   4.590   2.480   2.983  0.1859 -0.0498 -0.0194
 6292SOL    HW130509   4.560   2.570   2.983 -2.0460 -0.8034  3.2384
 6292SOL    HW230510   4.511   2.431   2.960 -0.0403  0.0399  0.5705
 6293SOL     OW30511   1.726   3.221   6.291  0.1584 -0.1072  0.2069
 6293SOL    HW130512   1.708   3.315   6.286  0.3432 -0.1563 -1.3567
 6293SOL    HW230513   1.722   3.202   6.198  1.7573 -0.2916  0.1771
 6294SOL     OW30514   2.842   4.057   6.347 -0.1565 -1.0122 -0.0261
 6294SOL    HW130515   2.778   4.002   6.393  0.9521 -1.3028  1.1752
 6294SOL    HW230516   2.790   4.105   6.284 -0.5927 -1.4567 -0.0063
 6295SOL     OW30517   0.493   2.702  15.010 -0.4873  0.0733  0.3122
 6295SOL    HW130518   0.519   2.785  14.971 -2.6942 -0.1445 -1.6500
 6295SOL    HW230519   0.575   2.670  15.049 -0.2536 -0.7419 -0.8576
 6296SOL     OW30520   2.354   0.415  13.664 -0.3476  0.1843 -0.0376
 6296SOL    HW130521   2.410   0.488  13.691 -0.7079  0.2639  0.4883
 6296SOL    HW230522   2.401   0.366  13.597 -0.2464  0.6357 -0.2976
 6297SOL     OW30523   4.394   2.256   7.658  0.2990  0.0753  0.2639
 6297SOL    HW130524   4.313   2.207   7.672 -1.3508  2.5605 -0.5676
 6297SOL    HW230525   4.381   2.322   7.726 -1.0058  1.8166 -1.6822
 6298SOL     OW30526   4.467   2.987   8.974  0.0884 -0.1595 -0.3431
 6298SOL    HW130527   4.562   2.982   8.988 -0.0244  1.4432  1.0679
 6298SOL    HW230528   4.455   2.892   8.964  2.0858 -0.4244 -0.3566
 6299SOL     OW30529   4.724   3.415   5.476 -0.1924 -0.8405  0.5371
 6299SOL    HW130530   4.714   3.338   5.420  1.1800 -0.2812 -0.4691
 6299SOL    HW230531   0.017   3.469   5.404 -0.9497 -2.2282 -0.8451
 6300SOL     OW30532   1.477   2.514   8.217  0.3539  0.2337 -0.1716
 6300SOL    HW130533   1.415   2.522   8.289 -0.3946 -0.6620 -0.7227
 6300SOL    HW230534   1.551   2.562   8.256  0.0774  1.4451 -1.1017
 6301SOL     OW30535   0.820   2.316   9.097  0.4322 -0.0652  0.0260
 6301SOL    HW130536   0.758   2.244   9.090 -1.5904  1.6306  0.3731
 6301SOL    HW230537   0.831   2.315   9.192 -1.3207  0.3390  0.2377
 6302SOL     OW30538   2.638   3.562   2.388  0.0091  0.0850  0.0691
 6302SOL    HW130539   2.652   3.479   2.342  1.0919  1.0233 -1.2891
 6302SOL    HW230540   2.545   3.561   2.369 -0.4446 -0.0682  2.3399
 6303SOL     OW30541   0.433   2.748  17.600  0.2177  0.4302 -0.2270
 6303SOL    HW130542   0.475   2.831  17.581  0.0604  0.4166 -0.6231
 6303SOL    HW230543   0.373   2.754  17.526  2.5049 -1.0061 -2.1925
 6304SOL     OW30544   0.570   3.831   4.248 -0.2851 -0.7600 -0.3971
 6304SOL    HW130545   0.578   3.917   4.289  1.6609 -1.1140 -0.0534
 6304SOL    HW230546   0.657   3.811   4.216 -0.1380 -2.7021  1.1912
 6305SOL     OW30547   0.816   3.416   5.925 -0.0148  0.2156  0.2157
 6305SOL    HW130548   0.779   3.469   5.854  1.2461 -0.0974 -0.6745
 6305SOL    HW230549   0.831   3.484   5.990 -1.4225 -1.6617  2.5130
 6306SOL     OW30550   1.935   3.556   3.801  0.5824 -0.3187 -0.4290
 6306SOL    HW130551   2.004   3.517   3.855  2.7216  0.6080 -2.4493
 6306SOL    HW230552   1.863   3.528   3.857  0.7873  1.3888  0.6885
 6307SOL     OW30553   2.148   1.246   3.783  0.2947 -0.0441  0.1983
 6307SOL    HW130554   2.209   1.172   3.790 -0.4305 -0.3631  3.1759
 6307SOL    HW230555   2.209   1.287   3.722 -0.9789  0.8604 -0.4584
 6308SOL     OW30556   3.595   0.266   5.895  0.7024 -0.1639  0.9189
 6308SOL    HW130557   3.513   0.266   5.943 -0.5686  0.2124 -1.2480
 6308SOL    HW230558   3.634   0.352   5.912 -0.6446  0.8221 -0.9318
 6309SOL     OW30559   0.283   0.678   4.893  0.1252  0.4090  0.2360
 6309SOL    HW130560   0.269   0.702   4.801 -0.1180 -0.3669  0.0709
 6309SOL    HW230561   0.262   0.585   4.893 -2.4608  0.9721 -0.9559
 6310SOL     OW30562   0.167   4.322   8.572 -0.1199  0.5068  0.1192
 6310SOL    HW130563   0.206   4.304   8.486  0.9552  0.1926  0.6767
 6310SOL    HW230564   0.169   4.414   8.600 -0.3704  0.1851  1.2115
 6311SOL     OW30565   2.783   3.438   3.074 -0.6746  0.6254  0.1851
 6311SOL    HW130566   2.793   3.474   2.986 -1.4703  0.5308  0.0544
 6311SOL    HW230567   2.783   3.343   3.058 -3.2768  0.8013 -0.8000
 6312SOL     OW30568   2.724   2.917   1.932 -0.3210 -0.5458 -0.2790
 6312SOL    HW130569   2.639   2.947   1.900 -1.1561  0.4327  2.8944
 6312SOL    HW230570   2.708   2.823   1.938 -2.0180 -0.1065  1.9486
 6313SOL     OW30571   0.392   4.439   2.211  0.0484 -0.0181 -0.1222
 6313SOL    HW130572   0.465   4.378   2.198  0.0476  0.1993 -1.1403
 6313SOL    HW230573   0.438   4.521   2.227 -1.2257  0.6005  0.3567
 6314SOL     OW30574   2.254   3.620   7.865  0.6151  0.1576 -0.2166
 6314SOL    HW130575   2.236   3.582   7.780  0.6709  1.9334 -1.0330
 6314SOL    HW230576   2.226   3.552   7.926 -2.5747  3.3361  1.8769
 6315SOL     OW30577   2.347   2.231  11.128  0.4664  0.1529  0.5487
 6315SOL    HW130578   2.437   2.213  11.155  0.3532 -0.8571  0.2643
 6315SOL    HW230579   2.315   2.142  11.112  1.8785 -0.0185 -1.3002
 6316SOL     OW30580   3.613   2.398   7.282 -0.1747 -1.1140 -0.4037
 6316SOL    HW130581   3.601   2.491   7.266  2.2108 -1.1336 -2.2235
 6316SOL    HW230582   3.533   2.377   7.330  0.3476 -1.3347  0.3725
 6317SOL     OW30583   2.431   0.380  11.254  0.6565 -0.8452  0.5824
 6317SOL    HW130584   2.393   0.431  11.325 -1.2820 -0.1928 -0.9148
 6317SOL    HW230585   2.414   0.441  11.183 -3.2881 -1.0794  1.3486
 6318SOL     OW30586   4.217   0.071   1.528 -0.2989  0.1061  0.5947
 6318SOL    HW130587   4.153   0.028   1.472 -0.3735 -1.4480  1.8690
 6318SOL    HW230588   4.209   0.164   1.506  1.2899 -0.2137 -1.3471
 6319SOL     OW30589   2.211   1.849   2.783  0.2199  0.4785  0.3699
 6319SOL    HW130590   2.205   1.935   2.741  1.6756 -0.1862 -1.2198
 6319SOL    HW230591   2.223   1.883   2.871  1.4580  2.3191 -0.5061
 6320SOL     OW30592   3.099   3.603   3.752 -0.0715 -0.5671  0.6665
 6320SOL    HW130593   3.088   3.676   3.814 -1.0703 -1.7073  1.8503
 6320SOL    HW230594   3.114   3.531   3.814 -2.6803 -1.5653  0.1502
 6321SOL     OW30595   0.002   4.206  10.877 -0.5820  0.5701 -0.0747
 6321SOL    HW130596   0.078   4.233  10.826 -0.3273 -0.1486 -0.0755
 6321SOL    HW230597   4.725   4.275  10.941  2.2474  1.2998 -0.1706
 6322SOL     OW30598   2.385   3.964   2.883 -0.5442  0.0720  0.0884
 6322SOL    HW130599   2.395   3.898   2.952  2.7379 -0.0679 -0.5160
 6322SOL    HW230600   2.401   4.034   2.946  2.8189 -1.8790  1.3977
 6323SOL     OW30601   2.559   1.193  10.161 -0.7111 -0.5461  0.1547
 6323SOL    HW130602   2.578   1.265  10.220 -1.3051  0.6710 -1.1599
 6323SOL    HW230603   2.627   1.130  10.187  2.7199  1.4621 -3.8988
 6324SOL     OW30604   1.476   3.467   2.810  0.5253 -0.0827  0.0168
 6324SOL    HW130605   1.458   3.506   2.895 -1.8865 -0.3888 -0.3575
 6324SOL    HW230606   1.388   3.470   2.773  0.6453 -0.7974 -0.3122
 6325SOL     OW30607   4.280   1.949  15.903 -0.0560 -0.4969  0.1368
 6325SOL    HW130608   4.360   1.995  15.924 -2.1663  2.4577  1.6742
 6325SOL    HW230609   4.314   1.878  15.848  1.0012 -1.9197  2.5976
 6326SOL     OW30610   1.038   1.650   6.941 -0.1721  0.0421 -0.3444
 6326SOL    HW130611   0.953   1.629   6.980 -0.0898 -0.6318 -0.5200
 6326SOL    HW230612   1.048   1.576   6.882  1.8893 -2.7122  3.3975
 6327SOL     OW30613   0.473   1.834  11.126 -0.1317  0.4594  0.1236
 6327SOL    HW130614   0.451   1.809  11.216 -2.3048  0.1135 -0.4919
 6327SOL    HW230615   0.565   1.849  11.145  0.0927  2.8640 -2.9193
 6328SOL     OW30616   2.604   4.264  16.873 -0.6951  0.3806 -0.1039
 6328SOL    HW130617   2.572   4.193  16.929 -0.0716 -0.9231 -1.3776
 6328SOL    HW230618   2.630   4.334  16.933 -1.5112  1.4554 -1.0145
 6329SOL     OW30619   0.695   1.890  12.699  0.3552 -0.0222 -0.1662
 6329SOL    HW130620   0.769   1.847  12.656 -1.4775  0.5361 -3.8643
 6329SOL    HW230621   0.738   1.935  12.772 -1.8583  3.0009 -0.7227
 6330SOL     OW30622   0.124   0.436   7.380  0.0625 -0.6483  0.0899
 6330SOL    HW130623   0.135   0.443   7.475 -1.1091  0.6162  0.1296
 6330SOL    HW230624   0.178   0.358   7.369 -0.6222 -1.1772  0.5243
 6331SOL     OW30625   4.488   1.821   2.615  0.4422  0.0391 -0.0849
 6331SOL    HW130626   4.467   1.743   2.666 -0.6522 -0.8062 -1.8364
 6331SOL    HW230627   4.528   1.873   2.685  0.9449 -1.7692  0.9604
 6332SOL     OW30628   0.346   0.989   1.596  0.5481 -0.0358  0.1232
 6332SOL    HW130629   0.385   1.066   1.555  0.0249  1.0393  1.6327
 6332SOL    HW230630   0.269   1.024   1.642  0.0763  0.5050 -1.0663
 6333SOL     OW30631   3.357   1.811   1.506 -0.1982  0.5614  0.5113
 6333SOL    HW130632   3.430   1.759   1.471 -1.1969  0.9269 -2.1380
 6333SOL    HW230633   3.290   1.756   1.546  0.6264 -0.6005  0.3011
 6334SOL     OW30634   2.423   3.466   5.085 -0.2469 -0.2339 -0.6200
 6334SOL    HW130635   2.367   3.389   5.072  2.4084 -1.6836 -3.3481
 6334SOL    HW230636   2.424   3.509   4.999 -1.9054  0.9308 -0.0471
 6335SOL     OW30637   3.839   2.153  10.815 -0.0794 -0.4590 -0.5733
 6335SOL    HW130638   3.882   2.105  10.886  1.1070  0.4653 -0.6660
 6335SOL    HW230639   3.814   2.084  10.754  0.4033 -0.1606 -1.1161
 6336SOL     OW30640   4.358   4.719   8.632  0.3847  0.0398 -0.2284
 6336SOL    HW130641   4.439   0.030   8.639  1.2896 -1.5245  0.5421
 6336SOL    HW230642   4.304   0.036   8.689  0.1469  0.8732 -1.2828
 6337SOL     OW30643   3.369   4.718   0.730 -0.3003  0.0272 -0.1799
 6337SOL    HW130644   3.306   4.674   0.673 -1.7685  1.1315  0.5868
 6337SOL    HW230645   3.378   0.057   0.676 -0.6155 -1.2948 -2.1568
 6338SOL     OW30646   3.748   4.739  13.812  0.8930 -0.1913 -0.2460
 6338SOL    HW130647   3.805   4.687  13.869  0.8968 -1.5317 -1.4753
 6338SOL    HW230648   3.793   0.005  13.727  1.5496  0.6599  0.1460
 6339SOL     OW30649   0.820   1.251   1.099 -0.7809 -0.3591 -0.2190
 6339SOL    HW130650   0.861   1.305   1.166 -0.7158 -0.6599 -0.0171
 6339SOL    HW230651   0.883   1.276   1.032 -0.5153  2.2123  1.0239
 6340SOL     OW30652   0.983   2.992   2.231  0.2480  0.8194 -0.1663
 6340SOL    HW130653   1.053   3.042   2.275 -2.4948  1.2550  3.7524
 6340SOL    HW230654   0.950   2.923   2.288 -1.7421  2.9450  1.2444
 6341SOL     OW30655   2.883   0.473   3.706 -0.1185 -0.4644  0.3083
 6341SOL    HW130656   2.945   0.471   3.778 -1.3023 -0.9544  1.3222
 6341SOL    HW230657   2.825   0.398   3.721 -0.1087 -0.5602 -0.1232
 6342SOL     OW30658   1.945   2.745   6.825  0.6070 -0.1012 -0.8433
 6342SOL    HW130659   1.874   2.809   6.822 -0.1967 -0.9444  0.1451
 6342SOL    HW230660   1.964   2.755   6.732  2.5417 -0.6130 -0.5180
 6343SOL     OW30661   1.638   3.237   3.961  0.0615  0.4481  0.3017
 6343SOL    HW130662   1.681   3.155   3.986 -0.7936  0.4653  1.7998
 6343SOL    HW230663   1.597   3.255   4.046  0.6079 -0.8164  0.8368
 6344SOL     OW30664   0.802   1.226  15.999 -0.2079  0.3342  0.1659
 6344SOL    HW130665   0.709   1.213  15.984  0.0260 -1.0087 -0.1274
 6344SOL    HW230666   0.812   1.268  16.084 -1.2357  0.3963  0.2570
 6345SOL     OW30667   1.494   1.569  10.981  0.3764  0.7401 -0.5745
 6345SOL    HW130668   1.524   1.607  10.898 -2.1969 -1.1793 -2.3738
 6345SOL    HW230669   1.482   1.655  11.023  1.0862  0.6818 -0.2653
 6346SOL     OW30670   3.394   3.944   9.291  0.3756 -0.5321  1.2147
 6346SOL    HW130671   3.442   3.880   9.343 -0.6022 -1.4962  0.9113
 6346SOL    HW230672   3.306   3.908   9.292  0.1895 -0.0891  0.9199
 6347SOL     OW30673   2.180   3.264  15.601 -0.5039 -0.2589  0.5105
 6347SOL    HW130674   2.087   3.277  15.620 -0.8588 -1.2767 -0.5441
 6347SOL    HW230675   2.225   3.280  15.684  1.5740 -2.3760 -0.2175
 6348SOL     OW30676   0.277   1.882  11.926  0.2926  0.0160 -0.2881
 6348SOL    HW130677   0.234   1.898  11.843 -1.4903 -1.8859  0.2586
 6348SOL    HW230678   0.217   1.816  11.962  0.4165  1.0264  1.7608
 6349SOL     OW30679   1.427   0.252   6.228 -0.4315 -0.5227 -0.4156
 6349SOL    HW130680   1.458   0.165   6.255  0.2714  0.4147  1.8041
 6349SOL    HW230681   1.338   0.232   6.199 -0.6636  0.4978 -0.4126
 6350SOL     OW30682   1.504   4.206   3.690  0.2201 -0.0877  0.7083
 6350SOL    HW130683   1.542   4.262   3.623  1.7492  0.7992  2.3298
 6350SOL    HW230684   1.582   4.164   3.728 -0.5335 -1.3650  0.8404
 6351SOL     OW30685   4.330   4.726   7.957  0.6010  0.1778  0.2392
 6351SOL    HW130686   4.292   0.028   8.034 -1.3001 -1.7900  0.3754
 6351SOL    HW230687   4.369   0.065   7.918 -0.3491  0.5231 -0.0220
 6352SOL     OW30688   3.340   2.982   6.021 -0.0376 -0.2685  0.0440
 6352SOL    HW130689   3.434   2.999   6.020 -0.2337  0.8519  1.0705
 6352SOL    HW230690   3.340   2.904   5.965  3.5169  1.2077 -1.9747
 6353SOL     OW30691   3.029   3.925   8.067 -0.0924 -0.0654 -0.6567
 6353SOL    HW130692   3.117   3.901   8.096 -0.2237  0.1199 -0.0936
 6353SOL    HW230693   3.043   3.915   7.973 -0.8127  2.1340 -0.9888
 6354SOL     OW30694   2.378   0.828  13.965  0.0300 -0.0720 -0.2323
 6354SOL    HW130695   2.309   0.764  13.985 -0.4048  0.2362 -0.7468
 6354SOL    HW230696   2.326   0.896  13.921  1.6933  0.2787 -1.6502
 6355SOL     OW30697   4.494   4.103   8.038  0.0679 -0.0133  0.3122
 6355SOL    HW130698   4.498   4.017   7.995  1.5337  0.4286 -0.4455
 6355SOL    HW230699   4.430   4.086   8.107  0.5873 -2.2584  0.2237
 6356SOL     OW30700   3.463   3.506   0.521  0.1708 -0.6224  0.8471
 6356SOL    HW130701   3.536   3.563   0.500  0.8500 -1.1955  1.6532
 6356SOL    HW230702   3.467   3.488   0.615 -0.4657 -2.1612  0.5904
 6357SOL     OW30703   4.630   1.949   2.879  0.8895 -0.3783 -0.1677
 6357SOL    HW130704   4.635   1.854   2.890 -0.0031 -0.5463 -1.2302
 6357SOL    HW230705   4.546   1.966   2.922  0.2311 -0.6736 -1.3386
 6358SOL     OW30706   2.474   3.286  11.779 -0.0620 -0.8790 -0.0022
 6358SOL    HW130707   2.508   3.375  11.780  2.4043 -1.8099 -0.2237
 6358SOL    HW230708   2.544   3.238  11.824  1.2697 -0.2067 -1.3408
 6359SOL     OW30709   3.688   1.723   7.580 -0.2124  0.1132  0.0351
 6359SOL    HW130710   3.668   1.751   7.669 -3.4029  0.0028 -0.6245
 6359SOL    HW230711   3.730   1.800   7.541  1.6694 -0.8745  0.1027
 6360SOL     OW30712   3.541   0.945   5.833 -0.1095 -0.6456  0.3649
 6360SOL    HW130713   3.591   0.940   5.915 -0.6067  1.0250  0.7600
 6360SOL    HW230714   3.517   1.037   5.826  1.2110 -0.3372 -0.1430
 6361SOL     OW30715   0.042   4.714   8.203  0.0854  0.8670  0.4890
 6361SOL    HW130716   4.737   4.660   8.138 -0.0554  0.7389  0.6905
 6361SOL    HW230717   4.730   0.055   8.190 -0.9975 -0.1361 -1.3273
 6362SOL     OW30718   4.590   1.679   9.064  0.2177 -0.0547 -0.0411
 6362SOL    HW130719   4.632   1.744   9.006 -0.1144  1.0479  0.9550
 6362SOL    HW230720   4.526   1.639   9.005  1.0416  0.1820 -1.0924
 6363SOL     OW30721   2.802   0.617  17.026 -0.4580 -0.0463 -0.5166
 6363SOL    HW130722   2.717   0.659  17.009 -0.3138 -0.3830 -2.0128
 6363SOL    HW230723   2.788   0.572  17.110  0.4805  0.6109 -0.0079
 6364SOL     OW30724   2.882   1.963   0.382 -0.2169  0.2975 -0.1728
 6364SOL    HW130725   2.798   2.008   0.382 -0.2951  0.1462 -2.2443
 6364SOL    HW230726   2.900   1.973   0.288 -1.3619 -1.3539 -0.5733
 6365SOL     OW30727   4.593   1.044   6.740  0.7350 -0.0455 -0.2937
 6365SOL    HW130728   4.507   1.053   6.781 -0.3836 -0.5363 -2.5391
 6365SOL    HW230729   4.644   1.110   6.787  1.0634  0.3967 -1.2799
 6366SOL     OW30730   2.058   1.212  15.582  0.1925  0.1043 -0.3556
 6366SOL    HW130731   2.131   1.169  15.537  0.7576  0.8312 -0.1376
 6366SOL    HW230732   2.010   1.136  15.616 -1.4335  2.3230  2.2413
 6367SOL     OW30733   1.977   0.165   7.791 -0.3256  0.0632 -0.1666
 6367SOL    HW130734   1.911   0.203   7.733 -1.4014 -1.4710  0.0572
 6367SOL    HW230735   1.928   0.138   7.870 -1.5612  2.4798 -0.1091
 6368SOL     OW30736   3.984   2.274   0.204 -0.0594  0.6293  0.1023
 6368SOL    HW130737   4.048   2.204   0.198 -1.1172 -0.2358 -1.1997
 6368SOL    HW230738   3.991   2.336   0.131 -0.7030 -1.5087 -1.7536
 6369SOL     OW30739   0.791   1.716   5.518  0.0011  0.0093  0.0395
 6369SOL    HW130740   0.737   1.766   5.579  2.4179 -2.3618  4.1049
 6369SOL    HW230741   0.827   1.790   5.468 -0.4714  0.6364  0.6268
 6370SOL     OW30742   3.753   4.440   0.717 -0.2265 -1.0613 -0.1507
 6370SOL    HW130743   3.733   4.480   0.801 -1.4537 -0.9732 -0.4858
 6370SOL    HW230744   3.845   4.465   0.727 -0.6277  0.5904 -0.6522
 6371SOL     OW30745   1.843   4.046   8.261  0.4159  0.1957 -0.5954
 6371SOL    HW130746   1.919   4.053   8.203 -0.0150  1.1661 -1.0563
 6371SOL    HW230747   1.874   4.023   8.349 -2.8738 -1.1140  0.2178
 6372SOL     OW30748   4.206   0.472   0.285  0.0796 -0.1615 -0.5293
 6372SOL    HW130749   4.287   0.426   0.263  0.3969 -0.0308  0.3720
 6372SOL    HW230750   4.237   0.555   0.250  0.2825  0.5994  1.4163
 6373SOL     OW30751   3.547   0.189   8.105 -0.2258 -0.0496 -0.5012
 6373SOL    HW130752   3.502   0.264   8.145  2.8015  1.7058 -0.4088
 6373SOL    HW230753   3.638   0.191   8.134 -0.5824 -1.7148  0.7235
 6374SOL     OW30754   3.388   1.040   4.026 -0.0999  0.6089 -0.4284
 6374SOL    HW130755   3.314   0.999   4.069  0.8400 -1.4805 -0.7760
 6374SOL    HW230756   3.447   1.038   4.102 -0.8646 -2.0921  0.0771
 6375SOL     OW30757   4.030   4.528  10.411  0.0428 -0.1954  0.0998
 6375SOL    HW130758   3.982   4.595  10.460 -0.7204 -0.2745 -0.5342
 6375SOL    HW230759   4.029   4.456  10.473 -2.1468 -0.6626 -0.4548
 6376SOL     OW30760   4.326   0.923  16.449  0.4547  0.0361  0.0599
 6376SOL    HW130761   4.369   0.839  16.469  1.0853  0.3161 -0.1024
 6376SOL    HW230762   4.285   0.944  16.533  1.0272 -1.1173  0.6322
 6377SOL     OW30763   2.587   0.359   4.716 -0.8709  0.0171 -0.3455
 6377SOL    HW130764   2.644   0.294   4.673 -1.6298 -1.5421  1.0366
 6377SOL    HW230765   2.570   0.319   4.801  1.9653  2.7259  1.4879
 6378SOL     OW30766   4.290   1.742  13.593  0.0778 -0.2616 -0.5887
 6378SOL    HW130767   4.324   1.754  13.683  0.1883 -1.3248 -0.4947
 6378SOL    HW230768   4.255   1.830  13.578  0.1705 -0.0745  0.2720
 6379SOL     OW30769   2.981   3.934   1.996  0.0606  0.5990  0.2069
 6379SOL    HW130770   2.985   4.014   1.944  0.5399  1.3156  1.3609
 6379SOL    HW230771   3.034   3.876   1.942  0.0546 -0.3650  1.2305
 6380SOL     OW30772   2.321   4.508   4.828 -0.0493 -0.0157  0.5068
 6380SOL    HW130773   2.371   4.565   4.770  0.7417 -2.2659 -1.0063
 6380SOL    HW230774   2.259   4.564   4.875 -0.9127  1.5861 -2.5107
 6381SOL     OW30775   0.266   2.817   9.274  0.0003  0.3409 -0.4085
 6381SOL    HW130776   0.198   2.777   9.220 -1.4468 -0.4264  1.9558
 6381SOL    HW230777   0.326   2.849   9.207  0.2498 -1.4172 -1.0221
 6382SOL     OW30778   1.413   2.234  11.994  0.0081 -0.1870 -0.1888
 6382SOL    HW130779   1.466   2.189  12.061 -1.5098 -2.2645 -0.3700
 6382SOL    HW230780   1.472   2.265  11.926 -0.9518 -1.8523 -1.7851
 6383SOL     OW30781   0.844   4.312   8.772  0.0124  0.2008 -0.0366
 6383SOL    HW130782   0.775   4.327   8.838 -1.5676 -0.5085 -1.5261
 6383SOL    HW230783   0.853   4.399   8.732 -1.3747  0.4154  0.1001
 6384SOL     OW30784   4.146   3.458  17.072 -0.2335 -0.7668  0.1284
 6384SOL    HW130785   4.142   3.509  17.154  1.3678 -1.1381  0.4380
 6384SOL    HW230786   4.100   3.383  17.110  0.9325 -2.0038 -0.8941
 6385SOL     OW30787   1.275   3.055  13.624 -0.1196 -0.3781 -0.3321
 6385SOL    HW130788   1.263   2.961  13.635 -0.1451 -0.1636  1.5374
 6385SOL    HW230789   1.221   3.069  13.547  0.8260  1.5680 -0.6604
 6386SOL     OW30790   1.961   1.168  10.379  0.5469 -0.2108  0.1612
 6386SOL    HW130791   1.901   1.164  10.304  1.0845 -1.1638 -0.2221
 6386SOL    HW230792   1.924   1.243  10.425 -4.2441 -1.8205 -1.0226
 6387SOL     OW30793   3.854   4.362   3.455 -0.3921  0.3277 -0.7303
 6387SOL    HW130794   3.867   4.456   3.462 -2.1529  0.3819  1.5583
 6387SOL    HW230795   3.797   4.346   3.380  0.2008 -0.7146 -0.9638
 6388SOL     OW30796   3.891   3.225  15.149  0.2730  0.2931 -0.2048
 6388SOL    HW130797   3.940   3.194  15.226  0.8815  2.5556  0.3145
 6388SOL    HW230798   3.966   3.226  15.089  0.0044  1.5638 -0.5044
 6389SOL     OW30799   0.253   0.507   9.066  0.2026 -0.2220 -0.4472
 6389SOL    HW130800   0.289   0.569   9.129 -1.6159  1.5135 -1.1049
 6389SOL    HW230801   0.193   0.459   9.123 -0.2382  0.1482 -0.6003
 6390SOL     OW30802   3.126   3.837   0.799  0.5445  0.2283  0.5963
 6390SOL    HW130803   3.220   3.852   0.788  0.1943  0.9487 -1.4628
 6390SOL    HW230804   3.120   3.747   0.768 -0.3320  0.3158  0.5002
 6391SOL     OW30805   1.162   3.541   5.878  0.1114 -0.4828 -0.5844
 6391SOL    HW130806   1.239   3.576   5.923  0.6898  0.2753 -2.1533
 6391SOL    HW230807   1.107   3.531   5.956 -0.0401 -0.6523 -0.7138
 6392SOL     OW30808   0.621   1.793   0.414 -0.3514 -0.2805 -0.4613
 6392SOL    HW130809   0.715   1.802   0.402 -0.3470 -1.0936 -1.0395
 6392SOL    HW230810   0.608   1.765   0.505 -2.0797 -1.2650 -1.0006
 6393SOL     OW30811   1.697   0.618   6.387 -0.1532 -0.0774 -0.0620
 6393SOL    HW130812   1.672   0.559   6.317 -2.7615  1.4442 -0.4283
 6393SOL    HW230813   1.686   0.560   6.462 -0.1955 -0.5791 -0.4647
 6394SOL     OW30814   2.671   3.498  17.344 -0.0311 -0.8642  0.0447
 6394SOL    HW130815   2.630   3.448  17.274  0.0259  0.0565 -0.6449
 6394SOL    HW230816   2.706   3.428  17.400 -1.8826 -1.5451  0.3463
 6395SOL     OW30817   2.217   2.730   3.268  0.4732 -0.3393 -0.3039
 6395SOL    HW130818   2.249   2.701   3.353  0.2064  3.0082  0.9187
 6395SOL    HW230819   2.237   2.647   3.225  1.4192 -0.2990  0.0653
 6396SOL     OW30820   2.823   4.286   2.292 -0.2262  0.2234 -0.1762
 6396SOL    HW130821   2.823   4.191   2.294  0.0046  0.2232 -0.2137
 6396SOL    HW230822   2.756   4.298   2.224  0.9817 -1.4627 -1.6591
 6397SOL     OW30823   4.443   1.584   6.012 -0.1117  0.3290 -0.0781
 6397SOL    HW130824   4.416   1.609   5.924 -2.7172  2.1375  1.2490
 6397SOL    HW230825   4.460   1.491   5.994  1.1478  0.6512 -0.5743
 6398SOL     OW30826   2.389   3.573   2.694  0.0975  0.3640  0.0301
 6398SOL    HW130827   2.441   3.650   2.672  0.7112 -0.3156 -0.8963
 6398SOL    HW230828   2.373   3.546   2.603 -2.9599  0.9450  0.3689
 6399SOL     OW30829   1.253   1.520   6.130 -0.3338 -0.2307 -0.1947
 6399SOL    HW130830   1.208   1.604   6.123  0.9450  0.3997 -1.0159
 6399SOL    HW230831   1.232   1.504   6.221  0.8437 -0.4948  0.0322
 6400SOL     OW30832   4.613   4.522   3.467  0.1493 -0.3854  0.0260
 6400SOL    HW130833   4.670   4.474   3.406 -1.1235  1.3483 -2.5169
 6400SOL    HW230834   4.586   4.459   3.535  0.7668 -0.3216  0.3264
 6401SOL     OW30835   4.423   0.009  17.239 -0.5263 -0.4644  0.1286
 6401SOL    HW130836   4.502   0.060  17.220 -0.1678 -0.2841  2.0815
 6401SOL    HW230837   4.441   4.680  17.174  0.0633  1.2982 -1.5366
 6402SOL     OW30838   4.427   3.376   2.972 -0.0629  0.4074  0.3418
 6402SOL    HW130839   4.442   3.464   3.006  5.1488 -0.3096 -0.1839
 6402SOL    HW230840   4.410   3.384   2.878 -2.4550  1.6529  0.8942
 6403SOL     OW30841   0.509   2.099   8.546  0.0057 -0.5789 -0.3074
 6403SOL    HW130842   0.513   2.062   8.458 -0.2152 -0.4178 -0.3830
 6403SOL    HW230843   0.472   2.182   8.520 -0.3134 -0.3061  1.0062
 6404SOL     OW30844   3.926   0.014   8.438  0.5686  0.3670  0.1902
 6404SOL    HW130845   3.932   0.023   8.534 -1.7111 -1.1625  0.4601
 6404SOL    HW230846   3.842   4.709   8.428  0.5034  0.4970  0.1634
 6405SOL     OW30847   2.904   1.314   8.812  0.2236 -0.2978 -0.5950
 6405SOL    HW130848   2.971   1.287   8.874 -0.8193  0.2416  0.7650
 6405SOL    HW230849   2.953   1.375   8.756  0.6483 -1.3988 -1.4189
 6406SOL     OW30850   0.309   1.232   5.238 -0.5176  0.4776 -0.2574
 6406SOL    HW130851   0.395   1.220   5.279 -1.1840 -0.3127  0.9079
 6406SOL    HW230852   0.339   1.249   5.148 -0.4711 -1.0764 -0.5479
 6407SOL     OW30853   0.002   1.768   6.173  0.5826  0.1342  0.4259
 6407SOL    HW130854   0.088   1.728   6.161  0.3688 -0.9390  2.4687
 6407SOL    HW230855   0.016   1.792   6.265  1.5337 -1.0340  0.5932
 6408SOL     OW30856   0.225   2.811   6.991  0.4541  0.5982 -0.1246
 6408SOL    HW130857   0.318   2.796   6.972  0.0784 -1.4897 -0.2516
 6408SOL    HW230858   0.192   2.844   6.908  2.0659  1.0874 -0.5784
 6409SOL     OW30859   1.847   2.589   0.424 -0.5195 -0.2780  0.4958
 6409SOL    HW130860   1.844   2.635   0.341  0.7766 -0.2783  0.4580
 6409SOL    HW230861   1.779   2.521   0.419 -0.7438 -0.0287  0.2115
 6410SOL     OW30862   2.827   3.434   9.002 -0.3252  0.3411 -0.2037
 6410SOL    HW130863   2.860   3.463   8.917  0.0234  1.8820  0.4710
 6410SOL    HW230864   2.880   3.355   9.017  0.0032  1.0101  2.0390
 6411SOL     OW30865   2.658   2.796   7.132  0.1992  0.1837 -0.1443
 6411SOL    HW130866   2.648   2.873   7.189  2.5316 -0.1375  0.6636
 6411SOL    HW230867   2.566   2.800   7.103  0.2921 -0.1023 -0.4813
 6412SOL     OW30868   3.905   2.069   6.700 -0.1450 -0.3860 -0.6140
 6412SOL    HW130869   3.848   2.134   6.659  0.3122  0.8321  0.6931
 6412SOL    HW230870   3.945   2.122   6.769 -1.7263 -0.6018  0.4810
 6413SOL     OW30871   4.475   1.805   6.144 -0.0331 -0.1345 -0.0478
 6413SOL    HW130872   4.566   1.778   6.155 -0.4022  0.0178  3.3783
 6413SOL    HW230873   4.444   1.721   6.108  0.3763 -0.6724  0.8535
 6414SOL     OW30874   1.128   1.274  10.867  0.2770 -0.0458 -0.4595
 6414SOL    HW130875   1.170   1.236  10.944 -0.3767  2.3324  1.0762
 6414SOL    HW230876   1.091   1.354  10.905 -0.8654 -0.3298 -0.9940
 6415SOL     OW30877   4.081   3.930   9.378  0.0213 -0.5085  0.2745
 6415SOL    HW130878   4.120   4.018   9.371 -1.0897 -0.0253  0.1050
 6415SOL    HW230879   4.069   3.924   9.473  0.1393 -0.6772  0.2792
 6416SOL     OW30880   0.797   4.480   1.397 -0.2835  0.4889  0.3222
 6416SOL    HW130881   0.791   4.536   1.320  0.0040  0.9653  0.6405
 6416SOL    HW230882   0.741   4.527   1.460 -1.2016  0.3393 -0.3872
 6417SOL     OW30883   1.847   2.091  17.469 -0.1762  0.5146  0.1488
 6417SOL    HW130884   1.756   2.090  17.498 -0.6525 -1.1091 -1.3768
 6417SOL    HW230885   1.855   1.997  17.452  1.1093  0.7578 -0.6393
 6418SOL     OW30886   1.427   2.868  12.000 -0.0008 -0.1443  0.3126
 6418SOL    HW130887   1.438   2.833  11.912  0.7875  1.4508 -0.2235
 6418SOL    HW230888   1.341   2.834  12.026  0.6404 -0.8066  1.6022
 6419SOL     OW30889   2.352   0.250   5.840 -0.5405  0.6597 -0.0849
 6419SOL    HW130890   2.412   0.263   5.913  0.2022 -0.0767 -0.5657
 6419SOL    HW230891   2.266   0.246   5.883 -0.2116  1.7321  0.6749
 6420SOL     OW30892   4.227   2.068   4.591 -0.5574 -0.3308  0.4548
 6420SOL    HW130893   4.305   2.096   4.640 -0.1705 -0.6683  0.0264
 6420SOL    HW230894   4.249   2.089   4.501  2.1212 -0.0500  1.1886
 6421SOL     OW30895   4.493   3.278   8.992  0.0370 -0.1444  0.2264
 6421SOL    HW130896   4.470   3.193   8.955  0.4201 -0.3221  0.3852
 6421SOL    HW230897   4.408   3.321   8.998  0.1540  0.2654 -1.1137
 6422SOL     OW30898   0.391   3.315   5.103  0.2510  0.0547 -0.4356
 6422SOL    HW130899   0.450   3.357   5.166 -1.3645  0.4698  0.8001
 6422SOL    HW230900   0.441   3.315   5.021  0.7251  3.0816 -0.1743
 6423SOL     OW30901   0.822   3.134   1.797 -0.3724  0.1801 -0.3415
 6423SOL    HW130902   0.912   3.155   1.825 -0.5201 -2.2259  1.9380
 6423SOL    HW230903   0.788   3.084   1.871 -0.0866 -1.0858 -1.0605
 6424SOL     OW30904   0.667   1.930   5.153 -0.3926 -0.0196 -0.4290
 6424SOL    HW130905   0.722   1.977   5.216 -1.4502 -0.7658  1.0429
 6424SOL    HW230906   0.735   1.888   5.101 -0.8358  1.3511 -2.1143
 6425SOL     OW30907   2.427   1.738   2.223  0.4504 -0.1005 -0.4729
 6425SOL    HW130908   2.361   1.680   2.262  1.0498 -0.4652 -0.0076
 6425SOL    HW230909   2.368   1.798   2.177  0.5570 -1.0525 -1.8522
 6426SOL     OW30910   3.750   1.045  13.702 -0.1550  0.3724  0.2572
 6426SOL    HW130911   3.783   1.122  13.654 -0.6219 -1.1889 -2.5560
 6426SOL    HW230912   3.831   1.016  13.743  0.0819 -2.0363 -1.9446
 6427SOL     OW30913   0.843   1.400   2.027  0.3385 -0.1588 -0.2484
 6427SOL    HW130914   0.872   1.441   2.108  1.0133  0.6131 -0.8675
 6427SOL    HW230915   0.875   1.310   2.040  0.0106 -0.3666 -0.8678
 6428SOL     OW30916   0.401   4.347   2.652  0.5898 -0.0207  0.2548
 6428SOL    HW130917   0.443   4.288   2.590  0.0259  0.2711 -0.3911
 6428SOL    HW230918   0.417   4.286   2.725  1.4812  1.4472  1.2990
 6429SOL     OW30919   0.243   0.116   4.978  0.2139  0.2157  0.6811
 6429SOL    HW130920   0.207   0.039   5.024  1.1128  1.0438  2.7779
 6429SOL    HW230921   0.173   0.123   4.913  0.7331  0.6538  0.1731
 6430SOL     OW30922   3.517   4.628   2.082 -0.6080  0.2774 -0.2550
 6430SOL    HW130923   3.586   4.690   2.104 -0.1056 -0.5480  0.4747
 6430SOL    HW230924   3.441   4.681   2.057 -0.5880  0.2257 -0.4306
 6431SOL     OW30925   4.686   2.427   3.412 -0.0960  0.1116 -0.4238
 6431SOL    HW130926   0.035   2.393   3.398 -0.0320 -0.1377  0.5914
 6431SOL    HW230927   4.693   2.515   3.375  1.0841  0.8893  1.6363
 6432SOL     OW30928   4.277   0.548  16.781 -0.6092 -0.2049  0.3758
 6432SOL    HW130929   4.346   0.572  16.842  0.3750 -3.1674  0.4039
 6432SOL    HW230930   4.327   0.501  16.714  0.5889 -0.1293  1.2290
 6433SOL     OW30931   3.623   4.089   2.992  0.4693 -0.4622 -0.3833
 6433SOL    HW130932   3.685   4.019   3.011 -0.4327 -0.8990  0.9875
 6433SOL    HW230933   3.576   4.032   2.931  0.1476  0.0625 -0.6231
 6434SOL     OW30934   2.109   2.378   1.355  0.5628 -0.3098 -0.1542
 6434SOL    HW130935   2.168   2.442   1.313  1.7359 -2.6228 -2.0006
 6434SOL    HW230936   2.119   2.303   1.297  0.9423 -1.0716  0.9096
 6435SOL     OW30937   1.260   2.802   0.975  0.0405 -0.1199  0.3654
 6435SOL    HW130938   1.353   2.814   0.955  1.0400 -2.7762  3.4327
 6435SOL    HW230939   1.262   2.706   0.980 -1.1306 -0.1163  0.6863
 6436SOL     OW30940   1.137   0.831   3.493  0.4668 -0.5256  0.3059
 6436SOL    HW130941   1.205   0.834   3.561  0.5960 -0.5709  0.1773
 6436SOL    HW230942   1.120   0.925   3.486  4.5639  0.1372 -0.6440
 6437SOL     OW30943   2.081   4.230   4.444 -0.3724 -0.1278 -0.0561
 6437SOL    HW130944   2.088   4.242   4.539 -0.1560 -1.7073  0.1276
 6437SOL    HW230945   2.159   4.277   4.414 -0.0131 -0.7729 -0.1185
 6438SOL     OW30946   0.677   2.664  17.628 -0.4586 -0.3803  0.0476
 6438SOL    HW130947   0.716   2.733  17.683 -0.7978  0.1009 -0.3131
 6438SOL    HW230948   0.586   2.692  17.619 -0.2083  0.3143 -0.3367
 6439SOL     OW30949   3.996   2.962   5.678  0.1127  0.5125  0.0009
 6439SOL    HW130950   3.970   3.027   5.612 -2.4025 -1.4629 -0.9633
 6439SOL    HW230951   3.917   2.918   5.711  1.2968 -1.6367 -0.0486
 6440SOL     OW30952   2.504   2.909   2.812  0.4275 -0.2203  0.3888
 6440SOL    HW130953   2.454   2.885   2.735  1.0389  0.2793 -0.1639
 6440SOL    HW230954   2.456   2.983   2.849 -1.6052 -1.2090 -0.3008
 6441SOL     OW30955   0.592   0.064  16.374  0.9220 -0.5278 -0.1934
 6441SOL    HW130956   0.594   4.717  16.333  2.9814  0.2441 -1.7250
 6441SOL    HW230957   0.547   0.043  16.456 -0.6862  2.0405 -0.4004
 6442SOL     OW30958   0.292   1.682   8.126 -0.5583 -0.0743 -0.5039
 6442SOL    HW130959   0.377   1.707   8.161 -0.6260 -0.5747  0.0290
 6442SOL    HW230960   0.253   1.641   8.204 -1.4456 -0.8405 -1.3520
 6443SOL     OW30961   1.733   2.271  13.907  0.7849  0.8380  0.4339
 6443SOL    HW130962   1.784   2.314  13.976 -1.3882  3.0034  0.7191
 6443SOL    HW230963   1.648   2.267  13.953  0.4456  0.9940 -0.1797
 6444SOL     OW30964   4.319   0.341   7.358  0.4420 -0.0012  0.4300
 6444SOL    HW130965   4.236   0.298   7.377 -0.8662  2.3002 -0.1334
 6444SOL    HW230966   4.376   0.266   7.343 -2.1621 -1.2558 -2.8459
 6445SOL     OW30967   3.194   1.892   3.465 -0.7484 -0.2281  0.0712
 6445SOL    HW130968   3.197   1.874   3.559  1.8475  0.7942  0.1949
 6445SOL    HW230969   3.145   1.975   3.467  2.0971  1.4525  0.8239
 6446SOL     OW30970   0.886   0.809   1.280  0.4871  0.1758  0.1993
 6446SOL    HW130971   0.808   0.784   1.330  0.4644  2.2389  1.1763
 6446SOL    HW230972   0.842   0.870   1.221 -1.4072 -0.6324  0.7779
 6447SOL     OW30973   4.663   4.664   5.689 -0.2926  0.1536 -0.6264
 6447SOL    HW130974   0.004   4.630   5.650  1.4392  1.7731  1.5978
 6447SOL    HW230975   4.693   4.704   5.770 -1.4771 -0.7056  0.2302
 6448SOL     OW30976   0.795   4.572   9.343 -1.1866 -0.2091  0.4482
 6448SOL    HW130977   0.702   4.570   9.318 -0.9773 -2.7395 -0.0832
 6448SOL    HW230978   0.801   4.605   9.433 -0.9323  0.1040  0.3146
 6449SOL     OW30979   2.163   1.959   1.381  0.6527  0.6899 -1.1490
 6449SOL    HW130980   2.171   1.927   1.471 -2.5447 -1.0956 -1.4935
 6449SOL    HW230981   2.200   2.047   1.387 -2.6845  2.1436 -2.2928
 6450SOL     OW30982   0.215   2.704   5.941  0.6404 -0.0301 -0.3737
 6450SOL    HW130983   0.277   2.717   5.870 -2.0427  2.6875 -2.1851
 6450SOL    HW230984   0.137   2.697   5.887  0.5887  3.5435 -0.7490
 6451SOL     OW30985   3.856   3.538   6.413  0.8538 -0.2151 -0.2736
 6451SOL    HW130986   3.888   3.619   6.453 -1.0608  0.2123  0.4263
 6451SOL    HW230987   3.914   3.535   6.337 -0.1831  1.0630 -1.1084
 6452SOL     OW30988   1.596   0.558  11.975  0.2826  0.0299 -0.1366
 6452SOL    HW130989   1.643   0.560  11.892  1.7546 -2.4809  0.6417
 6452SOL    HW230990   1.505   0.555  11.946 -0.5828 -3.5501  2.8945
 6453SOL     OW30991   4.629   2.883   2.368 -0.5459 -0.0280 -0.1429
 6453SOL    HW130992   4.582   2.962   2.393  2.0383  2.3628 -2.9154
 6453SOL    HW230993   4.584   2.864   2.285  3.6155 -1.1136 -2.1638
 6454SOL     OW30994   3.520   3.142   9.418  0.2070  0.3071  0.4846
 6454SOL    HW130995   3.497   3.056   9.383 -0.0724  0.2658  0.7630
 6454SOL    HW230996   3.570   3.178   9.346 -2.6760 -0.6467 -1.9897
 6455SOL     OW30997   3.221   3.940   3.241  0.6442 -0.5389 -0.2778
 6455SOL    HW130998   3.261   3.980   3.163 -0.0362  0.5998 -0.0453
 6455SOL    HW230999   3.204   3.854   3.204  2.8115 -2.0876  2.3376
 6456SOL     OW31000   0.976   1.412   3.257  0.0149  0.7640  0.3235
 6456SOL    HW131001   0.961   1.359   3.178 -1.2524 -0.0431  1.1152
 6456SOL    HW231002   0.916   1.481   3.230 -1.2558 -0.4139  0.1147
 6457SOL     OW31003   0.070   0.139   2.278 -0.4128  0.1815  0.3613
 6457SOL    HW131004   0.097   0.093   2.357 -4.6485  0.6730  2.0509
 6457SOL    HW231005   0.135   0.209   2.282 -0.2647  0.0570  0.1961
 6458SOL     OW31006   1.861   3.687  13.682 -0.3689  0.5273 -0.3329
 6458SOL    HW131007   1.830   3.597  13.668  0.3011  0.4121 -1.1282
 6458SOL    HW231008   1.805   3.716  13.754  0.3883 -0.1996  0.5471
 6459SOL     OW31009   0.349   3.932   7.531 -0.1192  0.3710 -0.2351
 6459SOL    HW131010   0.363   3.926   7.626  0.5504 -0.1624 -0.3662
 6459SOL    HW231011   0.313   3.845   7.514  0.0388  0.1762  0.4170
 6460SOL     OW31012   1.400   2.256   5.744 -0.3301 -0.3595 -0.0092
 6460SOL    HW131013   1.425   2.334   5.792 -1.3724  0.4543 -0.7892
 6460SOL    HW231014   1.486   2.216   5.730 -0.6232 -0.3485 -1.8329
 6461SOL     OW31015   3.397   2.633   9.319 -0.4933 -0.4330 -0.0417
 6461SOL    HW131016   3.477   2.587   9.292 -1.1229 -0.7708 -1.3395
 6461SOL    HW231017   3.378   2.592   9.403  1.1815  2.2285  1.6659
 6462SOL     OW31018   1.957   1.970  15.470  0.6984 -0.1325  0.5276
 6462SOL    HW131019   1.908   1.890  15.452 -1.5232  1.5495 -0.9516
 6462SOL    HW231020   1.900   2.032  15.423  1.7322  0.4742  0.0843
 6463SOL     OW31021   4.593   0.661   8.480  0.0524 -0.6480  0.1832
 6463SOL    HW131022   4.688   0.653   8.474 -0.1088 -0.7814 -2.4883
 6463SOL    HW231023   4.578   0.659   8.574 -0.5636  1.2232  0.1360
 6464SOL     OW31024   0.381   1.274   4.987  0.3027 -0.3686 -0.0443
 6464SOL    HW131025   0.409   1.218   4.915 -0.1536 -2.9532  1.7821
 6464SOL    HW231026   0.399   1.358   4.946  0.2449 -0.4909 -0.3164
 6465SOL     OW31027   0.010   1.646  15.848  0.2659  0.1036  0.3170
 6465SOL    HW131028   0.069   1.591  15.900  0.3199  0.5013  0.6737
 6465SOL    HW231029   0.041   1.732  15.877 -0.6194  0.7395 -0.6256
 6466SOL     OW31030   2.581   2.462  12.633  0.0384 -0.3514  0.0414
 6466SOL    HW131031   2.670   2.428  12.648  0.0873 -1.7598 -3.5273
 6466SOL    HW231032   2.559   2.416  12.552  1.0949 -0.7636 -0.0101
 6467SOL     OW31033   1.487   3.580  14.185 -0.4198 -0.3404 -0.3008
 6467SOL    HW131034   1.570   3.624  14.204 -0.3868 -0.3536 -0.4141
 6467SOL    HW231035   1.480   3.521  14.260 -1.4951 -0.2044 -0.2839
 6468SOL     OW31036   2.705   2.275   3.080 -0.3833 -0.5041  0.1954
 6468SOL    HW131037   2.666   2.265   2.993  0.6574  0.0916 -0.3405
 6468SOL    HW231038   2.644   2.235   3.142  1.7516 -1.4435  1.7308
 6469SOL     OW31039   0.047   1.894   1.932 -0.5771  0.4737 -0.4588
 6469SOL    HW131040   4.713   1.887   1.993 -0.2681  0.3096 -0.1102
 6469SOL    HW231041   0.109   1.934   1.992 -0.1942 -1.1595  0.2403
 6470SOL     OW31042   3.526   0.669   2.585  0.7761  0.0542 -0.5775
 6470SOL    HW131043   3.500   0.578   2.599  2.7117 -0.4042  0.0359
 6470SOL    HW231044   3.603   0.683   2.640  0.0233 -1.0745  0.7423
 6471SOL     OW31045   1.589   4.111  16.373 -0.0378 -0.1559 -0.2987
 6471SOL    HW131046   1.608   4.201  16.400 -0.5590  0.1691 -1.0219
 6471SOL    HW231047   1.566   4.068  16.455 -2.4028  4.0350  1.2194
 6472SOL     OW31048   2.062   4.482   8.124 -0.4580  0.2809  0.5465
 6472SOL    HW131049   2.031   4.480   8.215 -1.7014 -2.3773  0.0521
 6472SOL    HW231050   2.032   4.400   8.086  1.4905 -1.6638  3.1409
 6473SOL     OW31051   0.040   1.189   3.955  0.6413 -0.1939  0.3320
 6473SOL    HW131052   0.118   1.136   3.971 -0.9260 -2.9653 -1.0802
 6473SOL    HW231053   4.739   1.135   3.886  1.2890 -0.1818 -0.0624
 6474SOL     OW31054   4.566   3.891   6.575 -0.2523 -0.2628  0.0520
 6474SOL    HW131055   4.609   3.864   6.656 -0.9985 -0.9337  0.2219
 6474SOL    HW231056   4.551   3.984   6.593  0.5321 -0.0137 -0.5818
 6475SOL     OW31057   0.694   4.612   8.391 -0.4633  0.5265 -0.1032
 6475SOL    HW131058   0.715   4.617   8.297 -2.2439 -2.9703 -0.6487
 6475SOL    HW231059   0.704   4.519   8.407 -3.5342  0.2879  0.3828
 6476SOL     OW31060   0.000   2.141  11.670  0.1711 -0.3342  0.1410
 6476SOL    HW131061   4.668   2.132  11.732  1.5121 -0.3258  1.6934
 6476SOL    HW231062   0.050   2.060  11.674 -0.4125 -0.7685 -1.4807
 6477SOL     OW31063   1.892   3.450   8.890  0.8452 -0.1335  0.3211
 6477SOL    HW131064   1.797   3.449   8.876  1.3464 -1.0342 -3.0347
 6477SOL    HW231065   1.910   3.522   8.950  1.9238 -0.2628  0.1470
 6478SOL     OW31066   2.160   0.827  11.538  0.2263  0.5045  0.3941
 6478SOL    HW131067   2.246   0.815  11.576  0.2442  1.9924  0.8445
 6478SOL    HW231068   2.175   0.865  11.451 -0.5902 -0.4635 -0.1711
 6479SOL     OW31069   2.928   0.661  17.389 -0.2799  0.1071  0.2054
 6479SOL    HW131070   2.927   0.722  17.464  0.4401  0.4408 -0.0618
 6479SOL    HW231071   3.016   0.659  17.354  0.2367 -0.4292  1.5408
 6480SOL     OW31072   3.118   4.274   4.095  0.0065 -0.7191 -0.3582
 6480SOL    HW131073   3.037   4.305   4.136  0.6353 -0.2044  0.4987
 6480SOL    HW231074   3.157   4.354   4.058 -1.5182  1.5359  2.9436
 6481SOL     OW31075   0.920   3.237   5.400 -0.1689  0.3388  0.0619
 6481SOL    HW131076   0.913   3.275   5.487 -0.3258  0.8678 -0.1841
 6481SOL    HW231077   1.004   3.272   5.369  0.3347 -1.6283 -0.8347
 6482SOL     OW31078   1.917   2.757   5.980 -0.1009 -0.4047 -0.1487
 6482SOL    HW131079   1.987   2.704   5.941  0.4271 -0.4465  0.8750
 6482SOL    HW231080   1.965   2.840   5.985 -2.3901  1.0053 -1.7041
 6483SOL     OW31081   0.645   1.263  15.154 -0.0018  0.8080 -0.4239
 6483SOL    HW131082   0.581   1.204  15.113  1.6154 -1.4382  0.2505
 6483SOL    HW231083   0.621   1.349  15.121 -0.7852  0.2624 -1.2705
 6484SOL     OW31084   2.027   1.732   4.440  0.2726 -0.2286 -0.3249
 6484SOL    HW131085   2.060   1.685   4.517 -1.2531 -0.6124  0.1047
 6484SOL    HW231086   1.935   1.750   4.457  0.4292 -0.6662  0.9827
 6485SOL     OW31087   3.402   0.960   1.651  0.1618 -0.3203  0.3531
 6485SOL    HW131088   3.442   0.909   1.722  0.3990  0.8452  1.0553
 6485SOL    HW231089   3.385   0.888   1.590 -0.1488  0.4845 -0.5155
 6486SOL     OW31090   3.332   1.009  14.432 -0.1286 -0.1394  0.0785
 6486SOL    HW131091   3.266   0.948  14.399 -1.6517  0.1346  2.5843
 6486SOL    HW231092   3.371   0.987  14.517  0.2110 -0.7160 -0.2220
 6487SOL     OW31093   4.673   1.613   6.471  0.0012 -0.3300  0.2149
 6487SOL    HW131094   4.738   1.675   6.504  1.0255 -1.6019  0.5798
 6487SOL    HW231095   4.671   1.549   6.542  0.9195 -1.6351 -0.9450
 6488SOL     OW31096   0.311   0.121  12.884 -0.1652  0.0325 -0.6079
 6488SOL    HW131097   0.228   0.084  12.913 -0.1512 -0.5754 -1.3520
 6488SOL    HW231098   0.353   0.053  12.832  0.5067 -0.3220  0.3900
 6489SOL     OW31099   1.357   4.721   9.241  0.1535 -0.1388  0.2808
 6489SOL    HW131100   1.313   4.636   9.240 -1.3893  0.5913  2.8316
 6489SOL    HW231101   1.310   0.038   9.179 -0.3889 -0.8886  0.0113
 6490SOL     OW31102   4.138   2.944   8.968 -0.0880 -0.1869  0.5245
 6490SOL    HW131103   4.182   2.991   9.039 -1.5819  1.6382  0.2186
 6490SOL    HW231104   4.088   3.014   8.927 -0.0522 -0.8078 -0.5823
 6491SOL     OW31105   1.380   3.630   8.765  0.3096 -0.1625  0.2674
 6491SOL    HW131106   1.404   3.711   8.719  1.2661  0.1221  1.2634
 6491SOL    HW231107   1.378   3.564   8.696 -1.1389  0.7228 -0.5511
 6492SOL     OW31108   1.616   3.992   6.933  0.0791 -0.4445  0.6029
 6492SOL    HW131109   1.615   4.011   7.027  1.6158  0.5258  0.4260
 6492SOL    HW231110   1.618   3.896   6.934  0.1432 -0.4359  1.6117
 6493SOL     OW31111   3.422   3.803   8.900 -0.0043  0.2546 -0.1972
 6493SOL    HW131112   3.351   3.787   8.962  1.8349 -1.6239  1.4159
 6493SOL    HW231113   3.374   3.843   8.828 -0.0763 -0.3113 -0.4584
 6494SOL     OW31114   1.082   0.921   3.796 -0.0650 -0.2425 -0.4783
 6494SOL    HW131115   1.062   1.012   3.773  1.9768  1.1003  3.2300
 6494SOL    HW231116   1.056   0.914   3.888 -3.2008 -0.4980 -1.3776
 6495SOL     OW31117   2.990   1.884   5.829  0.1646  0.2938 -0.0439
 6495SOL    HW131118   2.911   1.918   5.788  0.2469  0.4467 -0.0769
 6495SOL    HW231119   2.989   1.950   5.898  0.9918  1.3247 -1.0019
 6496SOL     OW31120   0.317   3.253   2.204 -0.4482 -0.1463  0.4512
 6496SOL    HW131121   0.370   3.293   2.273  0.5653 -1.1339  0.2462
 6496SOL    HW231122   0.275   3.333   2.170 -1.3633 -1.0577 -0.5606
 6497SOL     OW31123   3.356   2.736  16.574  0.2876  0.4300  0.4649
 6497SOL    HW131124   3.261   2.722  16.569  0.5218 -0.2619 -2.2992
 6497SOL    HW231125   3.389   2.682  16.502 -1.1071 -0.7514  0.7179
 6498SOL     OW31126   1.834   1.883  11.766 -0.5361 -0.1954 -0.2147
 6498SOL    HW131127   1.796   1.925  11.843  1.4437 -1.7689  1.6021
 6498SOL    HW231128   1.758   1.896  11.708 -0.0180  1.9014 -0.4277
 6499SOL     OW31129   4.229   0.423   1.783  0.3282  0.1071 -0.0297
 6499SOL    HW131130   4.285   0.461   1.715 -0.1723  0.1520 -0.4096
 6499SOL    HW231131   4.274   0.340   1.794  2.5827  1.0957 -1.8667
 6500SOL     OW31132   4.460   3.451   4.891 -0.0644  0.0703  0.1577
 6500SOL    HW131133   4.434   3.454   4.798 -1.1477 -4.5204  0.3095
 6500SOL    HW231134   4.528   3.517   4.885  1.8982 -1.8407  1.4027
 6501SOL     OW31135   0.803   2.912   6.539 -0.3912  0.0019 -0.0788
 6501SOL    HW131136   0.893   2.909   6.570  0.4022  2.3632 -2.1386
 6501SOL    HW231137   0.801   2.866   6.455  0.6881 -1.1559  0.5374
 6502SOL     OW31138   1.382   2.334   9.334  0.1685 -0.0536 -0.1930
 6502SOL    HW131139   1.362   2.242   9.321 -0.0983  0.0949 -0.8442
 6502SOL    HW231140   1.292   2.367   9.328  0.2497  0.5487  1.7252
 6503SOL     OW31141   0.043   2.067   8.527 -0.0645  0.3148 -0.0002
 6503SOL    HW131142   4.687   2.060   8.531  0.0014 -0.7100 -0.2154
 6503SOL    HW231143   0.052   2.157   8.558  0.5529 -0.3526  1.7337
 6504SOL     OW31144   4.709   1.803   0.647 -0.6076 -0.7172 -0.5334
 6504SOL    HW131145   0.000   1.889   0.618 -1.3648 -0.2635  0.0260
 6504SOL    HW231146   0.017   1.806   0.730  2.2862  1.3822 -2.2500
 6505SOL     OW31147   4.667   3.350   7.327  0.7530  0.6327 -0.3063
 6505SOL    HW131148   4.582   3.307   7.320  0.1189  1.6256  1.3356
 6505SOL    HW231149   4.712   3.304   7.256  0.1877  1.4278 -1.1722
 6506SOL     OW31150   1.714   1.083   5.403  0.7793 -0.3128 -0.1831
 6506SOL    HW131151   1.769   1.134   5.344  1.2012  1.2931  1.6018
 6506SOL    HW231152   1.770   1.055   5.475  0.5685  1.0726  0.5085
 6507SOL     OW31153   3.842   2.234   4.547 -0.3810  0.3327 -0.5111
 6507SOL    HW131154   3.914   2.288   4.513  1.6161 -1.6583  0.5406
 6507SOL    HW231155   3.783   2.303   4.576  0.2386  1.5900 -2.2188
 6508SOL     OW31156   3.227   0.119  10.315  0.3810  0.2475 -0.1365
 6508SOL    HW131157   3.284   0.042  10.313 -1.4471 -1.0716 -1.3861
 6508SOL    HW231158   3.204   0.114  10.222 -0.0375  1.9844 -0.1356
 6509SOL     OW31159   3.163   3.680   8.406 -0.2962  0.4223 -0.5216
 6509SOL    HW131160   3.188   3.729   8.485 -1.9464  0.7830 -0.2188
 6509SOL    HW231161   3.164   3.595   8.449  1.2699  0.3054 -0.7757
 6510SOL     OW31162   3.930   0.116   5.565  0.3395 -0.0955 -0.0334
 6510SOL    HW131163   3.963   0.071   5.487  2.7229  1.0532  0.3162
 6510SOL    HW231164   3.895   0.040   5.612  2.6174 -0.4670  1.0260
 6511SOL     OW31165   0.142   1.818  16.660  0.1317 -0.4582  0.7572
 6511SOL    HW131166   0.185   1.874  16.724 -1.9300  1.6564  0.3306
 6511SOL    HW231167   0.071   1.785  16.715 -1.4090 -2.0508 -2.2026
 6512SOL     OW31168   2.568   2.382   6.801 -0.0285 -0.4575  0.4310
 6512SOL    HW131169   2.654   2.398   6.762  1.7257 -1.3758  3.9432
 6512SOL    HW231170   2.586   2.391   6.895 -2.4882 -1.9249  1.0306
 6513SOL     OW31171   1.964   0.284   4.500 -0.3285  0.7675 -0.5570
 6513SOL    HW131172   2.034   0.279   4.435 -1.1690  0.9602 -1.4769
 6513SOL    HW231173   1.940   0.376   4.510 -1.4537  0.4295 -0.1243
 6514SOL     OW31174   0.201   2.477   2.466  0.3766 -1.0451  0.3760
 6514SOL    HW131175   0.254   2.548   2.503 -2.7220  2.1523 -1.3455
 6514SOL    HW231176   0.262   2.405   2.449  2.7499  1.0343  0.1105
 6515SOL     OW31177   3.896   4.121   2.041 -0.4805 -0.0466  0.2630
 6515SOL    HW131178   3.874   4.201   1.994  2.7189  0.9466  0.4687
 6515SOL    HW231179   3.814   4.111   2.089  0.4746  0.5814  2.0272
 6516SOL     OW31180   3.925   3.113   5.470 -0.2811  0.5761  0.1050
 6516SOL    HW131181   3.957   3.187   5.419  0.0400 -0.8054 -1.7137
 6516SOL    HW231182   3.971   3.042   5.424  0.8679  1.3859  0.0026
 6517SOL     OW31183   4.728   0.259  10.871 -0.1381  0.2089  0.4178
 6517SOL    HW131184   4.633   0.268  10.871 -0.3743 -2.4761  1.2069
 6517SOL    HW231185   0.007   0.268  10.965  3.1881  0.3625 -0.2421
 6518SOL     OW31186   0.006   2.562   6.152 -0.3610 -0.2667  0.3351
 6518SOL    HW131187   4.711   2.552   6.240  0.7642  3.0900  1.1760
 6518SOL    HW231188   0.063   2.639   6.157 -1.0585  0.2239  0.6171
 6519SOL     OW31189   1.086   3.174   1.495  0.0139 -0.1154 -0.3552
 6519SOL    HW131190   1.130   3.160   1.579  0.4913  1.3008 -0.3684
 6519SOL    HW231191   1.152   3.169   1.426  0.4491  1.7859 -0.0979
 6520SOL     OW31192   0.849   3.330   6.926 -0.3588 -0.6308 -0.1100
 6520SOL    HW131193   0.937   3.332   6.890 -1.3841  1.3110 -2.5127
 6520SOL    HW231194   0.809   3.381   6.856  0.5526  0.6445  0.2960
 6521SOL     OW31195   4.095   3.201   9.637 -0.2171 -0.2437 -0.0692
 6521SOL    HW131196   4.142   3.129   9.680  1.9581  0.8174 -0.6812
 6521SOL    HW231197   4.165   3.264   9.619 -1.0733  0.3387 -1.3179
 6522SOL     OW31198   2.987   2.217   3.151 -0.0244 -0.1739 -0.5109
 6522SOL    HW131199   3.063   2.275   3.159  0.2244 -0.7513  1.2276
 6522SOL    HW231200   2.930   2.258   3.086  1.4683  0.6432 -1.2976
 6523SOL     OW31201   3.859   0.610  14.130  0.4634 -0.4228 -0.1627
 6523SOL    HW131202   3.783   0.566  14.092  0.0966 -0.7808  1.0026
 6523SOL    HW231203   3.886   0.542  14.191  1.0999 -0.7394 -0.8027
 6524SOL     OW31204   2.677   0.517   7.561 -0.7048 -0.3372 -0.5084
 6524SOL    HW131205   2.772   0.521   7.556 -0.6658  0.8087  0.9999
 6524SOL    HW231206   2.669   0.482   7.650 -3.4134  1.6648  0.0400
 6525SOL     OW31207   3.018   4.023  11.344 -0.1005 -0.3409  0.2212
 6525SOL    HW131208   3.010   4.011  11.249 -2.1861 -3.0977  0.7508
 6525SOL    HW231209   2.949   3.965  11.375  0.5447 -0.7978  0.7949
 6526SOL     OW31210   0.607   2.461  17.318  0.0249  0.5947 -0.1073
 6526SOL    HW131211   0.625   2.465  17.224  1.0109  4.0955  0.2216
 6526SOL    HW231212   0.520   2.422  17.309  1.0429 -2.5010  3.4314
 6527SOL     OW31213   1.766   2.251   9.470 -0.3437  0.4137  0.6249
 6527SOL    HW131214   1.728   2.208   9.393 -1.2546 -1.0361  1.8765
 6527SOL    HW231215   1.856   2.218   9.472 -0.9226 -1.2421 -0.4796
 6528SOL     OW31216   1.826   0.161  12.952 -0.6971  0.0102 -0.0565
 6528SOL    HW131217   1.743   0.115  12.938 -1.1784  0.3072  1.8494
 6528SOL    HW231218   1.822   0.170  13.047 -0.5737  0.6159 -0.1070
 6529SOL     OW31219   1.965   0.812   8.442 -0.7563 -0.1205 -0.4616
 6529SOL    HW131220   1.925   0.782   8.361  0.0146 -0.7516 -0.6146
 6529SOL    HW231221   2.015   0.892   8.426  0.5164 -0.7232  0.5050
 6530SOL     OW31222   0.530   2.405   8.326 -0.2667  0.0610  0.0207
 6530SOL    HW131223   0.501   2.469   8.261  0.2670 -1.5538 -1.8147
 6530SOL    HW231224   0.609   2.443   8.363  1.5896 -2.7606 -1.0371
 6531SOL     OW31225   2.220   4.430   5.682  0.1456  0.3432 -0.1814
 6531SOL    HW131226   2.237   4.496   5.615 -0.9080 -0.9073 -1.7033
 6531SOL    HW231227   2.306   4.387   5.675 -0.9768 -1.6934 -1.4557
 6532SOL     OW31228   0.682   0.642   2.159 -0.5799  0.0987  0.3246
 6532SOL    HW131229   0.610   0.680   2.109 -0.0385  0.9006  0.1522
 6532SOL    HW231230   0.710   0.575   2.097 -0.1077  2.1442 -1.6662
 6533SOL     OW31231   2.719   3.695   5.846 -0.0619 -0.2055  0.2381
 6533SOL    HW131232   2.722   3.631   5.775 -2.6263 -0.0789  0.0171
 6533SOL    HW231233   2.806   3.682   5.883  0.9799 -1.1162 -2.5211
 6534SOL     OW31234   1.209   3.379  15.394 -0.1559 -0.5379 -0.1012
 6534SOL    HW131235   1.296   3.346  15.416 -0.7104 -1.7761  0.1882
 6534SOL    HW231236   1.184   3.416  15.479 -2.0945  0.4639 -1.1031
 6535SOL     OW31237   0.032   1.495   4.641  0.5122 -0.0676  0.0976
 6535SOL    HW131238   4.729   1.413   4.615  2.1125 -1.2689  1.3335
 6535SOL    HW231239   0.023   1.493   4.736 -0.9026 -0.7590 -0.0591
 6536SOL     OW31240   2.694   1.986   4.626  0.2742 -0.2435  0.0844
 6536SOL    HW131241   2.635   1.912   4.609  0.4820 -0.3854 -0.0227
 6536SOL    HW231242   2.635   2.061   4.629  0.0202 -0.4090 -0.6036
 6537SOL     OW31243   4.520   3.153  17.325  0.4011 -0.4331 -0.4861
 6537SOL    HW131244   4.564   3.073  17.297 -0.5762 -0.6549 -1.3586
 6537SOL    HW231245   4.437   3.151  17.278 -1.9069 -2.6479  3.6820
 6538SOL     OW31246   2.708   1.259   9.775 -0.0341  0.2500  0.4581
 6538SOL    HW131247   2.708   1.300   9.688 -3.2128 -1.0495 -0.1821
 6538SOL    HW231248   2.624   1.288   9.811  0.7214  0.1750  2.2602
 6539SOL     OW31249   0.380   1.249   2.477 -0.1320  0.2399  0.9317
 6539SOL    HW131250   0.470   1.280   2.485  0.4666 -1.6030  1.1754
 6539SOL    HW231251   0.356   1.214   2.563 -1.8503  1.1298  0.8380
 6540SOL     OW31252   3.875   2.649   7.541  0.5211 -0.3685 -0.1862
 6540SOL    HW131253   3.797   2.665   7.488  0.2038 -2.1351 -0.2336
 6540SOL    HW231254   3.933   2.587   7.498  0.2856  0.4773 -1.7320
 6541SOL     OW31255   2.915   1.463   2.242 -0.1943 -0.0334  0.2271
 6541SOL    HW131256   2.830   1.430   2.271 -1.7051  0.7803 -3.2801
 6541SOL    HW231257   2.894   1.478   2.150 -0.4060  2.1007  0.6259
 6542SOL     OW31258   2.499   1.654   4.937 -0.4246 -0.2170 -0.9275
 6542SOL    HW131259   2.513   1.652   5.032 -0.0703  0.2124 -0.9731
 6542SOL    HW231260   2.452   1.736   4.924 -0.8472 -0.2701  0.2657
 6543SOL     OW31261   4.167   3.691  16.892 -0.0526 -0.2798 -0.3228
 6543SOL    HW131262   4.241   3.710  16.949 -0.8063 -2.6405  1.4445
 6543SOL    HW231263   4.135   3.608  16.926  3.6135 -1.0309  1.2515
 6544SOL     OW31264   4.216   0.733   7.280 -0.3523  0.2992  0.1423
 6544SOL    HW131265   4.299   0.692   7.303 -0.1224  0.8503  0.3106
 6544SOL    HW231266   4.244   0.767   7.195 -1.1525  0.5454 -0.0251
 6545SOL     OW31267   1.845   3.438   2.813 -0.2440 -0.4546  0.5339
 6545SOL    HW131268   1.922   3.488   2.841 -2.6384  2.8486  1.1852
 6545SOL    HW231269   1.794   3.517   2.796 -1.4098 -1.3937 -0.3526
 6546SOL     OW31270   2.198   3.883   8.758 -0.1432  0.4702  0.0441
 6546SOL    HW131271   2.207   3.978   8.770 -1.5987  0.7525 -1.1304
 6546SOL    HW231272   2.107   3.860   8.741  0.1707 -0.4849 -0.3096
 6547SOL     OW31273   0.750   0.551  10.587 -0.0088 -0.0503 -0.2362
 6547SOL    HW131274   0.793   0.624  10.543 -0.9755  0.8580  0.3129
 6547SOL    HW231275   0.821   0.513  10.638 -0.3316  1.0221  1.0290
 6548SOL     OW31276   4.243   3.821  15.788 -0.3491  0.5599 -0.4741
 6548SOL    HW131277   4.244   3.734  15.828  1.7555  1.0675  0.5490
 6548SOL    HW231278   4.186   3.810  15.712 -2.5764  0.0206  1.2559
 6549SOL     OW31279   2.024   1.388   7.990 -0.6273  0.7534 -0.2480
 6549SOL    HW131280   2.054   1.477   8.010 -0.2228  0.7188 -0.6982
 6549SOL    HW231281   2.095   1.367   7.929 -0.6568  0.0846 -0.0500
 6550SOL     OW31282   1.358   1.109   6.848  0.0913 -0.3277 -0.1016
 6550SOL    HW131283   1.316   1.162   6.781  0.8219  1.4985  0.9014
 6550SOL    HW231284   1.276   1.065   6.871  0.4903  0.2618  2.3878
 6551SOL     OW31285   2.385   1.162  13.096  0.0674  0.0408  0.0913
 6551SOL    HW131286   2.363   1.073  13.123  1.5192 -0.2521  0.2967
 6551SOL    HW231287   2.381   1.154  13.001  0.9597 -1.1617  0.1452
 6552SOL     OW31288   1.940   1.552   4.134 -0.3732  0.0444 -0.2423
 6552SOL    HW131289   2.011   1.540   4.071  0.4474 -3.9345  1.4564
 6552SOL    HW231290   1.982   1.512   4.210 -1.7592  1.9468  1.5117
 6553SOL     OW31291   4.725   2.733  15.117  0.3961 -0.1722  0.3941
 6553SOL    HW131292   0.071   2.692  15.106  0.9956  1.2478 -0.3288
 6553SOL    HW231293   0.006   2.779  15.199  1.8184 -1.1525  0.5864
 6554SOL     OW31294   1.170   4.484   7.043  0.3580 -0.8031  0.5218
 6554SOL    HW131295   1.170   4.394   7.010  2.6388 -1.7606  3.1705
 6554SOL    HW231296   1.106   4.475   7.113  0.1446 -2.6517  0.0817
 6555SOL     OW31297   3.046   3.673   0.240  0.8635  0.1434  0.3322
 6555SOL    HW131298   3.093   3.712   0.313  1.4175  2.0208 -1.0463
 6555SOL    HW231299   3.064   3.579   0.242 -0.3904 -0.1099 -0.3057
 6556SOL     OW31300   0.419   0.435   8.092 -0.2190  0.3750 -0.1796
 6556SOL    HW131301   0.441   0.502   8.026 -0.4779  0.1834 -0.4614
 6556SOL    HW231302   0.365   0.482   8.156 -0.0881  0.5220 -0.1762
 6557SOL     OW31303   0.599   3.375  17.687 -0.0768 -0.0020 -0.1310
 6557SOL    HW131304   0.512   3.399  17.654 -1.7632 -2.6855  2.3646
 6557SOL    HW231305   0.652   3.454  17.682 -0.8500  0.3849 -2.3726
 6558SOL     OW31306   3.514   0.755   4.600  0.0740  0.0559 -0.4390
 6558SOL    HW131307   3.527   0.839   4.556 -4.3691  0.9348 -0.0384
 6558SOL    HW231308   3.561   0.783   4.679 -0.0058 -1.0416 -0.0032
 6559SOL     OW31309   3.164   2.908   5.020 -0.5224 -0.2104  0.2841
 6559SOL    HW131310   3.107   2.984   5.006 -0.5387 -0.4683 -1.0673
 6559SOL    HW231311   3.213   2.942   5.094 -1.8615  1.3105  0.4741
 6560SOL     OW31312   4.531   2.564   4.048 -0.2997 -0.2334  0.0661
 6560SOL    HW131313   4.609   2.583   4.099 -0.1859 -0.4416 -0.0286
 6560SOL    HW231314   4.460   2.571   4.112 -1.3846 -2.3766 -0.8898
 6561SOL     OW31315   3.399   1.301   1.797  0.4880 -0.2203 -0.3262
 6561SOL    HW131316   3.310   1.268   1.807  0.3108  1.1041  2.6068
 6561SOL    HW231317   3.377   1.390   1.768  0.3321  0.1465  0.9205
 6562SOL     OW31318   1.670   4.293   2.892  0.6714  0.7265 -0.1482
 6562SOL    HW131319   1.719   4.221   2.932 -0.8683  0.1492  0.7038
 6562SOL    HW231320   1.743   4.349   2.866  2.4850 -1.8917 -0.7139
 6563SOL     OW31321   4.349   3.167   0.282 -0.3533  0.0671  0.6273
 6563SOL    HW131322   4.431   3.214   0.298 -0.0579  0.2670 -1.4474
 6563SOL    HW231323   4.383   3.080   0.262  0.1174  0.1040  1.2968
 6564SOL     OW31324   1.719   1.428  12.565 -0.7611 -0.2462 -0.3971
 6564SOL    HW131325   1.812   1.448  12.579 -0.7464  0.7955 -2.0019
 6564SOL    HW231326   1.703   1.360  12.631 -0.5778  0.2307  0.1454
 6565SOL     OW31327   4.158   4.261   9.183  0.1150  0.0382 -0.1272
 6565SOL    HW131328   4.237   4.304   9.217  1.4775 -2.5469  0.0436
 6565SOL    HW231329   4.098   4.278   9.256  1.7159 -2.8416  1.8562
 6566SOL     OW31330   0.741   0.777   5.095  0.1097  0.5441 -0.1541
 6566SOL    HW131331   0.652   0.774   5.061  0.3427  2.4539 -0.9373
 6566SOL    HW231332   0.732   0.860   5.143  0.3221 -1.1793  2.8267
 6567SOL     OW31333   3.762   2.760   3.157  0.2002 -0.4334  0.1754
 6567SOL    HW131334   3.679   2.774   3.112 -0.0082  0.2194  0.7475
 6567SOL    HW231335   3.780   2.850   3.186 -0.3984  0.0087 -0.8441
 6568SOL     OW31336   0.678   3.362   9.733  0.5948  0.2810 -0.6599
 6568SOL    HW131337   0.597   3.380   9.686  0.3774 -0.2480 -0.4812
 6568SOL    HW231338   0.645   3.330   9.816  0.5420 -0.1883 -0.8576
 6569SOL     OW31339   2.688   4.713   5.217  0.6195 -0.1636 -0.3111
 6569SOL    HW131340   2.775   4.713   5.177 -0.1811 -0.0866 -2.0076
 6569SOL    HW231341   2.697   0.046   5.279  1.5784  0.1645 -0.8379
 6570SOL     OW31342   2.625   1.578  14.212  0.4211  0.5248  0.3382
 6570SOL    HW131343   2.577   1.533  14.143  2.4335  1.7669 -1.8955
 6570SOL    HW231344   2.565   1.565  14.286 -0.4071 -1.2239 -0.6417
 6571SOL     OW31345   2.743   3.045   5.972 -0.5337  0.1279  0.6769
 6571SOL    HW131346   2.668   3.005   6.016  0.7018 -1.2233  1.5323
 6571SOL    HW231347   2.731   3.010   5.884  0.9006  2.6761 -0.5442
 6572SOL     OW31348   3.654   4.351   7.174 -0.7883 -0.1033  0.8056
 6572SOL    HW131349   3.571   4.397   7.160 -1.5575 -1.6370  0.4148
 6572SOL    HW231350   3.670   4.378   7.264 -1.0043  0.0687  0.7928
 6573SOL     OW31351   0.944   0.184  11.631  0.2113  0.7743 -0.9598
 6573SOL    HW131352   0.923   0.126  11.558 -2.0054  1.3106 -0.7665
 6573SOL    HW231353   0.856   0.205  11.662  0.5036  0.2678  0.2141
 6574SOL     OW31354   1.231   0.330   8.841  0.2899 -0.0318  0.5184
 6574SOL    HW131355   1.308   0.338   8.785 -0.9465 -1.4370 -1.3500
 6574SOL    HW231356   1.243   0.407   8.897 -1.1486  1.5482 -1.3576
 6575SOL     OW31357   3.441   0.044  17.218  0.1814  0.3130 -0.1668
 6575SOL    HW131358   3.398   0.120  17.257  2.2665  2.6105 -2.2754
 6575SOL    HW231359   3.414   4.708  17.271  0.4923  0.0005 -0.4504
 6576SOL     OW31360   4.104   1.969   2.397 -0.2180  0.6768  0.6006
 6576SOL    HW131361   4.078   1.976   2.305  0.1475  0.8350  0.5099
 6576SOL    HW231362   4.018   1.965   2.440  0.9522  2.2085  3.0812
 6577SOL     OW31363   1.902   2.927  11.254  0.0069  0.3286 -0.0733
 6577SOL    HW131364   1.951   2.854  11.292 -1.1974  0.5705  1.9577
 6577SOL    HW231365   1.945   2.930  11.168  1.2662  0.0283  0.5386
 6578SOL     OW31366   1.002   3.325   8.120 -0.4121 -0.9611 -0.1982
 6578SOL    HW131367   1.064   3.287   8.058 -1.2458 -1.0409 -0.9947
 6578SOL    HW231368   0.936   3.256   8.129 -2.2352  0.5821 -1.6540
 6579SOL     OW31369   3.301   3.829   8.234  0.8777  0.0915  0.1474
 6579SOL    HW131370   3.235   3.787   8.289  0.3089 -1.5727 -1.7980
 6579SOL    HW231371   3.357   3.753   8.217  1.1416 -0.1899  2.2910
 6580SOL     OW31372   0.038   1.243   8.262 -0.6867  0.1482  0.1257
 6580SOL    HW131373   0.098   1.192   8.207 -1.5185 -0.7619  0.0591
 6580SOL    HW231374   0.009   1.174   8.322  1.2735  0.1724  1.1272
 6581SOL     OW31375   3.364   1.662  10.752 -1.0676  0.1516 -0.0914
 6581SOL    HW131376   3.368   1.591  10.816 -1.9767  0.5250  0.3754
 6581SOL    HW231377   3.369   1.735  10.814 -0.7409 -0.6107  0.7613
 6582SOL     OW31378   1.743   2.367   5.144  0.8601 -1.0124 -0.0412
 6582SOL    HW131379   1.669   2.364   5.084  1.4302 -0.4947 -0.7784
 6582SOL    HW231380   1.712   2.426   5.213  1.6092  0.8944 -1.3066
 6583SOL     OW31381   0.611   3.786   5.595 -0.4083  0.4609 -0.6053
 6583SOL    HW131382   0.591   3.877   5.571 -0.3569  1.0826  1.7119
 6583SOL    HW231383   0.701   3.790   5.562  0.0017  0.7603  0.5684
 6584SOL     OW31384   3.400   2.709   5.975  0.3156  0.5244  0.0585
 6584SOL    HW131385   3.464   2.695   5.905  2.5877  0.8066  2.0750
 6584SOL    HW231386   3.420   2.640   6.038 -1.9354 -1.4193 -1.3989
 6585SOL     OW31387   2.526   2.946  10.715  0.0371 -0.0347  0.4578
 6585SOL    HW131388   2.561   3.019  10.664  1.2742 -0.2709  0.9783
 6585SOL    HW231389   2.502   2.982  10.800  0.0086  1.7518 -0.3160
 6586SOL     OW31390   0.303   2.590   1.964 -0.0710  0.1403 -0.6489
 6586SOL    HW131391   0.370   2.522   1.954 -1.0399 -0.6119 -2.0606
 6586SOL    HW231392   0.253   2.568   2.043 -1.4226  2.3007 -0.8939
 6587SOL     OW31393   1.084   2.251   1.275 -0.0471  0.0718  0.6192
 6587SOL    HW131394   1.076   2.177   1.215 -1.1242 -0.2484  1.1502
 6587SOL    HW231395   1.169   2.285   1.248  0.0846  1.4766  2.7735
 6588SOL     OW31396   1.933   4.409   5.437  0.4505  0.0775  0.4283
 6588SOL    HW131397   1.898   4.381   5.521  0.0288 -0.5553  0.0437
 6588SOL    HW231398   1.863   4.468   5.410 -1.1043 -0.8424  2.4747
 6589SOL     OW31399   0.504   4.086  14.810  0.0562  0.7185  0.1514
 6589SOL    HW131400   0.562   4.153  14.774 -1.8671  0.9092 -2.5843
 6589SOL    HW231401   0.437   4.146  14.842  0.6591  1.3920  0.1700
 6590SOL     OW31402   0.755   3.919   8.672 -0.3468  0.1817 -0.5401
 6590SOL    HW131403   0.796   3.833   8.683 -0.1195  0.4875  1.0364
 6590SOL    HW231404   0.685   3.897   8.611 -1.0945  1.8740 -0.3037
 6591SOL     OW31405   1.079   1.559  16.658  0.7211 -0.7032 -0.4909
 6591SOL    HW131406   1.072   1.465  16.648 -0.5923 -0.4728 -1.7686
 6591SOL    HW231407   1.035   1.594  16.580 -0.3679 -2.4228 -0.6489
 6592SOL     OW31408   0.239   2.999   6.538 -0.2180  0.2201  0.0620
 6592SOL    HW131409   0.306   3.066   6.524  0.6242 -0.6660 -0.0589
 6592SOL    HW231410   0.195   2.994   6.453 -0.0607 -1.0272  0.0559
 6593SOL     OW31411   0.482   3.581   9.201  0.0032 -0.4906 -0.0055
 6593SOL    HW131412   0.421   3.510   9.186 -0.8981  0.3624 -0.3721
 6593SOL    HW231413   0.554   3.547   9.149 -1.9451 -0.6549 -2.5590
 6594SOL     OW31414   2.704   0.833  10.695 -0.7728  0.1370  0.2775
 6594SOL    HW131415   2.796   0.807  10.698 -0.5035  0.9628 -0.6087
 6594SOL    HW231416   2.702   0.888  10.617 -0.5610  2.1560  1.7256
 6595SOL     OW31417   4.632   0.504   4.897 -0.1715  0.2127  0.4858
 6595SOL    HW131418   4.605   0.454   4.820  0.0128  2.3562 -0.9580
 6595SOL    HW231419   4.550   0.514   4.945 -1.6008 -0.6560 -1.7849
 6596SOL     OW31420   1.991   3.079   0.133 -0.3001  0.2998  0.3245
 6596SOL    HW131421   1.912   3.120   0.169  0.4990  1.0815  1.1784
 6596SOL    HW231422   2.024   3.143   0.070  2.0788 -2.7486 -1.5134
 6597SOL     OW31423   2.590   4.542   3.771  0.4621 -0.2181 -0.2041
 6597SOL    HW131424   2.656   4.497   3.824 -0.6575 -0.4075  1.0324
 6597SOL    HW231425   2.591   4.629   3.809 -1.1497 -0.8802  1.3572
 6598SOL     OW31426   2.208   3.843  12.178 -0.5579 -0.7642 -0.2573
 6598SOL    HW131427   2.284   3.810  12.227  0.1065  0.0191 -0.7679
 6598SOL    HW231428   2.206   3.929  12.219  0.4460 -1.7598  1.9026
 6599SOL     OW31429   2.616   0.791   2.663  0.0408  0.3458  0.5866
 6599SOL    HW131430   2.592   0.815   2.573  1.9760  0.6459  0.1352
 6599SOL    HW231431   2.709   0.812   2.672  0.4377 -0.8675 -0.5751
 6600SOL     OW31432   4.469   1.528   2.695  0.2731  0.2309 -0.5622
 6600SOL    HW131433   4.385   1.484   2.708  1.1792 -0.2261  3.6707
 6600SOL    HW231434   4.507   1.497   2.613 -2.2527 -2.8179 -0.5708
 6601SOL     OW31435   3.272   2.936  12.281  0.1895  0.3026  0.3619
 6601SOL    HW131436   3.202   2.882  12.243  0.9287  0.0231 -0.6229
 6601SOL    HW231437   3.353   2.899  12.244 -0.6287  0.6870 -1.8268
 6602SOL     OW31438   0.810   4.240   4.492 -0.2471 -0.4755  0.4326
 6602SOL    HW131439   0.776   4.305   4.554  0.5901 -1.3821  1.8533
 6602SOL    HW231440   0.779   4.271   4.407  1.9075  0.7182  0.0952
 6603SOL     OW31441   1.176   2.560   7.952 -0.1832  0.2102 -0.3726
 6603SOL    HW131442   1.221   2.531   8.032  0.1771  1.6547 -0.0577
 6603SOL    HW231443   1.088   2.523   7.957 -0.0564 -0.2579 -1.7952
 6604SOL     OW31444   1.953   2.514   6.364  0.2869  0.2314 -0.6349
 6604SOL    HW131445   1.887   2.560   6.415  2.0853  1.9354  0.1576
 6604SOL    HW231446   2.028   2.563   6.397 -1.5440  1.2229  2.0459
 6605SOL     OW31447   3.928   2.596   4.327 -0.9317  0.1687 -0.2991
 6605SOL    HW131448   3.838   2.596   4.359 -1.2030  3.4476 -1.0486
 6605SOL    HW231449   3.976   2.568   4.405 -1.1824 -1.5970 -0.7625
 6606SOL     OW31450   0.218   2.749  14.211 -0.2319  0.1873  0.5365
 6606SOL    HW131451   0.164   2.684  14.256 -1.4949  1.6556  1.1378
 6606SOL    HW231452   0.148   2.812  14.193 -0.8405 -0.6487 -0.0044
 6607SOL     OW31453   1.788   2.680  11.904 -0.0278 -0.4479 -0.2784
 6607SOL    HW131454   1.808   2.598  11.949  0.1995 -1.0345 -1.4457
 6607SOL    HW231455   1.757   2.728  11.981 -0.0285  0.2813 -0.7245
 6608SOL     OW31456   3.412   0.341   6.719  0.1002  0.0168 -0.6042
 6608SOL    HW131457   3.433   0.374   6.806 -0.6448  0.3295 -0.5403
 6608SOL    HW231458   3.380   0.419   6.674  2.7081  0.3125 -1.9551
 6609SOL     OW31459   2.441   3.957   1.604  0.3202  0.2892 -0.2788
 6609SOL    HW131460   2.362   3.986   1.649  0.3342 -1.8022  1.1041
 6609SOL    HW231461   2.482   4.041   1.581 -1.5065  1.2360 -0.0862
 6610SOL     OW31462   2.349   0.896   2.271 -0.6446  0.6148  0.4440
 6610SOL    HW131463   2.372   0.872   2.181  0.4079  0.9419  0.6318
 6610SOL    HW231464   2.289   0.970   2.260  0.3989  1.4746  0.6186
 6611SOL     OW31465   4.213   3.511   1.568  0.0972  0.5498  0.4103
 6611SOL    HW131466   4.233   3.547   1.482  1.2166  2.5481  1.5304
 6611SOL    HW231467   4.296   3.469   1.591  0.0237  0.3924  0.3916
 6612SOL     OW31468   2.631   1.565   8.755  0.4536 -0.1571 -0.5532
 6612SOL    HW131469   2.569   1.605   8.816  2.3841  1.2108  0.5376
 6612SOL    HW231470   2.616   1.471   8.761  2.3353 -0.4183  0.1723
 6613SOL     OW31471   4.198   0.004   3.325 -0.0411 -0.8351 -0.0457
 6613SOL    HW131472   4.284   0.023   3.287 -0.8450 -1.9362 -2.4134
 6613SOL    HW231473   4.140   0.066   3.281 -2.0911 -1.7687  1.3493
 6614SOL     OW31474   1.446   3.314  14.301  0.0941  0.7247  0.3102
 6614SOL    HW131475   1.440   3.222  14.273  0.3680  0.3902  1.3336
 6614SOL    HW231476   1.360   3.340  14.267 -0.4766 -1.3871  0.1132
 6615SOL     OW31477   2.046   2.205   1.107  0.3475  0.3673 -0.0097
 6615SOL    HW131478   2.092   2.259   1.043 -0.1056  2.3099  1.2993
 6615SOL    HW231479   1.955   2.212   1.078  0.5185 -0.4815 -0.7558
 6616SOL     OW31480   3.075   1.471   3.817  0.0806 -0.0365 -1.2092
 6616SOL    HW131481   3.078   1.475   3.913 -1.4969  0.6331 -1.1879
 6616SOL    HW231482   3.132   1.398   3.796 -1.8135 -2.1061  0.8708
 6617SOL     OW31483   2.212   3.219   2.645  0.1094  0.0311 -0.6939
 6617SOL    HW131484   2.133   3.202   2.593 -0.1516 -0.1710 -0.2312
 6617SOL    HW231485   2.262   3.137   2.648  0.1964  0.1144  0.0611
 6618SOL     OW31486   0.454   2.998  12.977  0.1403 -0.1163  0.2470
 6618SOL    HW131487   0.434   2.906  12.999 -0.3377 -0.1938 -0.4982
 6618SOL    HW231488   0.454   2.993  12.882  1.0796  0.3266  0.2271
 6619SOL     OW31489   1.724   1.813   0.934 -0.0404  0.5036  0.1520
 6619SOL    HW131490   1.639   1.769   0.927  0.2112 -0.1224  1.0583
 6619SOL    HW231491   1.728   1.846   0.845  0.1873  0.1544  0.0308
 6620SOL     OW31492   1.959   3.544  14.274 -0.1174 -0.0063  0.3351
 6620SOL    HW131493   1.925   3.467  14.228  1.9932  0.7297 -2.4423
 6620SOL    HW231494   2.050   3.517  14.285  0.1014  0.8220  0.4983
 6621SOL     OW31495   2.348   0.485   0.760 -0.2214  0.0699 -0.4438
 6621SOL    HW131496   2.253   0.475   0.761 -0.2505 -0.3905 -5.9229
 6621SOL    HW231497   2.380   0.402   0.723 -1.4348 -1.3569  1.6634
 6622SOL     OW31498   0.285   0.827   7.747  0.4747  0.8378  0.4847
 6622SOL    HW131499   0.346   0.765   7.708  0.8373 -0.2502  2.7954
 6622SOL    HW231500   0.265   0.876   7.667  0.4843 -2.3915 -1.4937
 6623SOL     OW31501   0.016   3.390   6.793  0.2242 -0.2301 -0.1261
 6623SOL    HW131502   4.688   3.420   6.853  0.7752  0.7735 -0.0069
 6623SOL    HW231503   4.702   3.328   6.743 -0.3171  0.5051 -0.4560
 6624SOL     OW31504   2.170   0.980  15.422  0.0178 -0.0591  0.0057
 6624SOL    HW131505   2.117   0.975  15.343 -1.0544 -0.7874  0.7753
 6624SOL    HW231506   2.187   0.886  15.432  2.9576  0.2138 -2.6849
 6625SOL     OW31507   1.706   1.319   5.723  0.1247  0.1766  0.3366
 6625SOL    HW131508   1.704   1.404   5.767 -3.4855  1.4201 -2.2210
 6625SOL    HW231509   1.639   1.324   5.655  0.6513  0.7922 -0.1365
 6626SOL     OW31510   3.098   1.408   6.568 -0.0593 -0.2824  0.0507
 6626SOL    HW131511   3.064   1.375   6.485 -0.3729  1.7855 -0.6342
 6626SOL    HW231512   3.016   1.396   6.616  0.7033 -0.5194  1.2900
 6627SOL     OW31513   4.715   0.803   2.111  0.9237  0.0760  0.5013
 6627SOL    HW131514   4.711   0.726   2.168  0.5115  1.4227  2.3154
 6627SOL    HW231515   4.700   0.766   2.025  3.5035 -1.8390  0.8823
 6628SOL     OW31516   0.884   2.350   5.760 -0.3675  0.5477 -0.2368
 6628SOL    HW131517   0.949   2.340   5.829  0.5989  0.9411 -1.0822
 6628SOL    HW231518   0.932   2.409   5.702 -2.1393  0.2444 -2.0198
 6629SOL     OW31519   3.842   4.596   1.752 -0.3002 -0.7768  0.1373
 6629SOL    HW131520   3.819   4.547   1.831 -0.0260 -1.3159 -0.1277
 6629SOL    HW231521   3.936   4.583   1.754 -0.4576 -2.1094 -1.6054
 6630SOL     OW31522   2.526   3.379   8.759  0.5983  0.1803  0.1416
 6630SOL    HW131523   2.538   3.441   8.831 -3.3022 -0.0040  0.9472
 6630SOL    HW231524   2.593   3.311   8.773  0.7045  0.3892  0.6272
 6631SOL     OW31525   3.519   1.130   6.472 -0.1009  0.7544 -0.2463
 6631SOL    HW131526   3.453   1.194   6.498 -1.5091  0.2959 -2.7127
 6631SOL    HW231527   3.505   1.130   6.378 -2.4061  0.6369  0.1029
 6632SOL     OW31528   3.688   1.687   4.577 -0.1606  0.4154 -0.2123
 6632SOL    HW131529   3.625   1.631   4.532 -0.6120 -0.5039  1.5908
 6632SOL    HW231530   3.760   1.679   4.513 -0.2744 -1.9575 -0.0168
 6633SOL     OW31531   0.414   4.032   4.125  0.2186  0.2776 -0.7146
 6633SOL    HW131532   0.460   4.093   4.068  0.6047  0.5090 -0.1546
 6633SOL    HW231533   0.471   4.036   4.202  0.3292 -3.9613 -0.5414
 6634SOL     OW31534   4.118   3.404   5.691 -0.3713  0.0927  0.3872
 6634SOL    HW131535   4.173   3.410   5.613 -0.4986  1.2711  0.3854
 6634SOL    HW231536   4.184   3.420   5.758 -0.0964 -0.3050  0.2094
 6635SOL     OW31537   2.304   2.231   9.917  0.5027  0.6472  0.4113
 6635SOL    HW131538   2.300   2.284   9.996  0.5430 -0.3157  1.0553
 6635SOL    HW231539   2.337   2.144   9.940  2.2149  1.4297  0.9447
 6636SOL     OW31540   1.605   3.274   8.143  0.1682  0.6932  0.4867
 6636SOL    HW131541   1.541   3.330   8.186 -1.5690 -0.0596 -1.1470
 6636SOL    HW231542   1.554   3.230   8.076  0.7138  1.3713 -0.3768
 6637SOL     OW31543   1.170   0.761   4.792 -0.4258 -0.0276 -0.1621
 6637SOL    HW131544   1.120   0.714   4.726  0.2220  1.1719 -1.4897
 6637SOL    HW231545   1.258   0.740   4.762  0.4288 -1.3201  3.1881
 6638SOL     OW31546   4.628   0.362   8.598  0.2989 -0.2433  0.3234
 6638SOL    HW131547   4.535   0.383   8.605 -0.1583 -1.7009 -1.4703
 6638SOL    HW231548   4.668   0.407   8.673 -0.6866  0.7532  0.2435
 6639SOL     OW31549   2.241   4.719   6.438 -0.0163 -0.1973 -0.2042
 6639SOL    HW131550   2.167   0.041   6.435  1.8396  2.1532  1.5455
 6639SOL    HW231551   2.305   0.046   6.464  0.4255 -0.8111  0.2686
 6640SOL     OW31552   1.803   4.552   4.157  0.1247  0.5009  0.1316
 6640SOL    HW131553   1.837   4.497   4.227 -0.1310 -1.1106 -1.0112
 6640SOL    HW231554   1.745   4.486   4.119 -0.7096  0.3333  1.7108
 6641SOL     OW31555   0.117   1.399   1.131 -0.3301  0.4524 -0.1608
 6641SOL    HW131556   0.065   1.400   1.051 -0.9199  3.2196  0.2514
 6641SOL    HW231557   0.109   1.310   1.164  1.2861  0.3811  0.0479
 6642SOL     OW31558   2.362   2.775   1.885  0.0760  0.1788  0.2267
 6642SOL    HW131559   2.322   2.718   1.952  1.3917 -1.2445 -0.1881
 6642SOL    HW231560   2.309   2.748   1.811 -1.0058  0.6587  0.8383
 6643SOL     OW31561   3.153   3.484   4.118 -0.5547  0.0602  0.0894
 6643SOL    HW131562   3.061   3.499   4.097 -0.4259  0.2675 -0.3236
 6643SOL    HW231563   3.185   3.572   4.137 -1.7071  0.2450  1.2479
 6644SOL     OW31564   3.848   0.201  11.786 -0.2916 -0.0684  0.1761
 6644SOL    HW131565   3.891   0.164  11.863 -0.3577  1.2100  0.8222
 6644SOL    HW231566   3.895   0.284  11.773  0.3668 -0.4098  0.3590
 6645SOL     OW31567   2.020   4.670   6.231 -0.1808  0.6335  0.4229
 6645SOL    HW131568   1.966   4.666   6.310 -0.4526  3.7020  0.3947
 6645SOL    HW231569   2.092   4.609   6.249 -1.9277 -2.0093 -1.4986
 6646SOL     OW31570   1.954   2.285   4.420  0.1072  0.0629  0.0658
 6646SOL    HW131571   1.987   2.372   4.443  2.8072 -0.2940 -2.5014
 6646SOL    HW231572   2.017   2.228   4.463  1.3510  1.0359 -0.4431
 6647SOL     OW31573   3.646   1.459   3.668  0.2986  0.2152 -0.2454
 6647SOL    HW131574   3.715   1.424   3.726 -0.4379 -0.0125  0.4961
 6647SOL    HW231575   3.704   1.484   3.596  1.1803 -1.2433 -0.0602
 6648SOL     OW31576   1.143   4.366  17.125  0.1369  0.7443 -0.3968
 6648SOL    HW131577   1.133   4.451  17.168  0.0568  1.0173 -0.9691
 6648SOL    HW231578   1.233   4.348  17.155 -1.1433 -2.6757  1.4670
 6649SOL     OW31579   1.705   2.221   3.970  0.3053  0.1365 -0.1462
 6649SOL    HW131580   1.746   2.276   4.037 -1.2600 -0.2923  1.1907
 6649SOL    HW231581   1.751   2.139   3.988  0.3833  0.2373  0.1103
 6650SOL     OW31582   2.705   2.986   4.384  0.4102 -0.5389 -0.0885
 6650SOL    HW131583   2.704   2.892   4.370  3.0615 -0.2652 -2.2105
 6650SOL    HW231584   2.773   3.016   4.322 -1.4634  0.9839 -1.4249
 6651SOL     OW31585   3.068   1.973   9.282  0.3257 -0.2684 -0.0561
 6651SOL    HW131586   3.154   2.016   9.279 -0.0415  0.7034  3.5678
 6651SOL    HW231587   3.016   2.046   9.316  0.0200  0.1174 -1.3727
 6652SOL     OW31588   1.497   3.562   6.651  0.8727 -0.1320  0.3701
 6652SOL    HW131589   1.547   3.637   6.683 -0.0312 -0.0622  1.6110
 6652SOL    HW231590   1.569   3.505   6.626  1.1146  0.4300 -0.2101
 6653SOL     OW31591   3.297   0.858   7.422  0.5200 -0.0293 -0.1315
 6653SOL    HW131592   3.384   0.885   7.451  0.9902 -0.3565 -1.2707
 6653SOL    HW231593   3.274   0.938   7.375 -1.4664 -0.5281 -0.0013
 6654SOL     OW31594   4.605   1.107   0.210  0.2102  0.0565 -0.0988
 6654SOL    HW131595   4.617   1.182   0.268  2.6807  0.7774 -1.5455
 6654SOL    HW231596   4.512   1.119   0.188  0.2718  0.6531 -0.0379
 6655SOL     OW31597   4.003   1.413   6.385  0.3165  0.1590 -0.2638
 6655SOL    HW131598   4.025   1.461   6.305 -1.8597  0.5800 -0.6041
 6655SOL    HW231599   3.946   1.472   6.434 -1.2975 -1.6719  0.0596
 6656SOL     OW31600   0.067   1.427   2.888  0.0278  0.2741 -0.7303
 6656SOL    HW131601   0.086   1.336   2.864 -0.6068 -0.0487 -0.0160
 6656SOL    HW231602   4.722   1.423   2.932 -0.2051 -0.0533 -1.2104
 6657SOL     OW31603   1.815   1.525   5.239 -0.0394  0.1675  0.2695
 6657SOL    HW131604   1.889   1.544   5.181  1.3484  0.4252  2.1441
 6657SOL    HW231605   1.829   1.604   5.290  0.0002 -0.6105  1.4524
 6658SOL     OW31606   3.727   4.502   0.997 -0.7650  0.0942 -0.5159
 6658SOL    HW131607   3.796   4.534   1.055 -0.8895  0.7128 -0.7069
 6658SOL    HW231608   3.686   4.442   1.059  0.7559 -0.3992  0.0102
 6659SOL     OW31609   0.552   4.550  15.944 -0.0741 -0.4142 -0.3488
 6659SOL    HW131610   0.626   4.607  15.923 -0.2686  0.3037  0.9434
 6659SOL    HW231611   0.477   4.570  15.888  1.1761  0.9742 -1.5312
 6660SOL     OW31612   4.257   3.074   6.173 -0.2954  0.3503  0.1705
 6660SOL    HW131613   4.234   3.036   6.258 -1.1218  0.1327 -0.1525
 6660SOL    HW231614   4.220   3.161   6.189 -0.8459  1.0578 -4.9257
 6661SOL     OW31615   1.728   2.495   0.926  0.1158 -0.2281  0.2296
 6661SOL    HW131616   1.759   2.567   0.871 -0.4279  0.2200  0.5192
 6661SOL    HW231617   1.715   2.549   1.004 -1.0022 -2.3076  1.4722
 6662SOL     OW31618   3.394   2.306   7.417  0.5468 -0.8671  0.2938
 6662SOL    HW131619   3.368   2.220   7.384  0.8600  0.3122 -3.0450
 6662SOL    HW231620   3.312   2.344   7.448  1.3400  2.8919 -2.2605
 6663SOL     OW31621   4.657   3.983   2.874  0.4699  0.0225 -0.5752
 6663SOL    HW131622   4.692   3.936   2.950 -0.7794 -0.2017 -0.1439
 6663SOL    HW231623   0.000   4.016   2.840  0.7754  1.0422  1.1784
 6664SOL     OW31624   2.172   2.298   3.186  0.4928  0.2835  0.0078
 6664SOL    HW131625   2.148   2.357   3.258  1.1247 -1.6705  1.8377
 6664SOL    HW231626   2.224   2.362   3.138  1.1181  0.9112  1.4949
 6665SOL     OW31627   0.721   2.300  12.239  0.1407  0.0773 -0.3444
 6665SOL    HW131628   0.768   2.316  12.321 -0.6256 -2.6595  0.6394
 6665SOL    HW231629   0.788   2.307  12.171  1.2315 -0.5226  0.6695
 6666SOL     OW31630   0.570   4.406   1.764  0.1725 -0.1473  0.2943
 6666SOL    HW131631   0.539   4.321   1.732 -1.3800  0.5457 -0.0484
 6666SOL    HW231632   0.493   4.436   1.813 -0.1271 -0.0680 -0.2312
 6667SOL     OW31633   4.488   1.434   4.292  0.1917  0.3573  0.4444
 6667SOL    HW131634   4.514   1.434   4.200 -0.8318  0.8201  0.1488
 6667SOL    HW231635   4.481   1.526   4.318 -1.8632  0.3016  0.0882
 6668SOL     OW31636   0.405   0.030   1.666 -0.1845  0.0145  0.5490
 6668SOL    HW131637   0.479   0.089   1.679 -0.1493  0.0551  0.1701
 6668SOL    HW231638   0.334   0.077   1.709  1.6691  1.0347  2.4901
 6669SOL     OW31639   0.644   1.452   7.487 -0.6606  0.4819  0.3050
 6669SOL    HW131640   0.639   1.547   7.490 -0.0670  0.5541 -1.0198
 6669SOL    HW231641   0.645   1.435   7.582  0.1875  1.1835  0.4233
 6670SOL     OW31642   1.603   3.465   6.203 -0.4432 -0.0387  0.0117
 6670SOL    HW131643   1.518   3.503   6.222 -0.1429  0.4874  0.3049
 6670SOL    HW231644   1.596   3.436   6.112  2.6899  0.0088 -0.2704
 6671SOL     OW31645   4.694   3.245   7.650 -0.5606  0.3392 -0.3697
 6671SOL    HW131646   4.618   3.211   7.603 -0.3765 -0.2398 -0.2419
 6671SOL    HW231647   4.689   3.215   7.740 -2.9666 -1.6443 -1.1719
 6672SOL     OW31648   1.461   4.053   8.500  0.6416 -0.0748  0.4597
 6672SOL    HW131649   1.430   3.969   8.465 -0.4146  0.9783 -1.1430
 6672SOL    HW231650   1.418   4.047   8.585  0.6729  2.3640  0.6427
 6673SOL     OW31651   3.421   3.524   6.519 -0.6942  0.0674  0.1902
 6673SOL    HW131652   3.399   3.496   6.431 -2.2771  1.3776  0.1742
 6673SOL    HW231653   3.483   3.592   6.490 -0.7584  0.6161  1.3268
 6674SOL     OW31654   2.939   2.613   3.769  0.5894 -0.7619  0.5932
 6674SOL    HW131655   2.875   2.621   3.698  1.0207  1.8956  0.4704
 6674SOL    HW231656   2.893   2.668   3.832 -2.2508 -1.3888 -0.9184
 6675SOL     OW31657   3.573   2.683   4.715  0.3391  0.1337 -0.2061
 6675SOL    HW131658   3.538   2.748   4.776  0.9835 -0.6946  1.0353
 6675SOL    HW231659   3.535   2.720   4.636  1.5822 -0.2860 -0.9939
 6676SOL     OW31660   3.462   2.886   3.878  0.4138 -0.1260 -0.1331
 6676SOL    HW131661   3.554   2.885   3.902  1.3695  0.0313 -3.7920
 6676SOL    HW231662   3.478   2.887   3.783  1.8850  2.0484  0.1466
 6677SOL     OW31663   3.318   4.120   7.935 -0.2854  0.3892  0.5865
 6677SOL    HW131664   3.272   4.180   7.994 -0.8129  1.4755 -0.8926
 6677SOL    HW231665   3.261   4.128   7.858  0.1926 -0.6698  0.1358
 6678SOL     OW31666   2.933   4.428   7.892 -0.3287  0.1738 -0.1560
 6678SOL    HW131667   2.839   4.449   7.897 -0.0318  0.2285  4.8465
 6678SOL    HW231668   2.927   4.333   7.883  0.6357  0.1541 -0.5156
 6679SOL     OW31669   1.709   1.103  10.271 -0.7781  0.5691  0.0682
 6679SOL    HW131670   1.642   1.114  10.204 -2.5627 -1.6880  1.4306
 6679SOL    HW231671   1.706   1.009  10.289  0.2993  0.1641 -1.9496
 6680SOL     OW31672   2.276   3.766   5.711 -0.2443  0.4837 -0.3866
 6680SOL    HW131673   2.242   3.830   5.775  1.7326 -0.4089  1.5438
 6680SOL    HW231674   2.301   3.693   5.767  3.2482  3.0434  1.3850
 6681SOL     OW31675   2.456   2.919  10.371 -0.3720 -0.3026  0.1285
 6681SOL    HW131676   2.537   2.957  10.403  0.0571 -0.4748 -0.7501
 6681SOL    HW231677   2.459   2.929  10.276  0.0170 -0.6436  0.1040
 6682SOL     OW31678   1.756   4.403   6.413 -0.1894  0.1009 -0.1222
 6682SOL    HW131679   1.737   4.418   6.320 -0.0338 -2.9317 -0.6473
 6682SOL    HW231680   1.851   4.394   6.407 -0.0836  1.0640  0.1163
 6683SOL     OW31681   4.196   2.105   0.225  0.3204 -0.1514 -0.5986
 6683SOL    HW131682   4.268   2.052   0.191  1.1428  0.9732 -0.6041
 6683SOL    HW231683   4.205   2.068   0.312  1.7052  1.1792 -0.1999
 6684SOL     OW31684   0.489   2.594  11.793  0.3073  0.3552 -0.2076
 6684SOL    HW131685   0.513   2.592  11.886 -1.8999 -0.1755  0.3738
 6684SOL    HW231686   0.540   2.520  11.760 -0.9266 -0.5159 -0.1862
 6685SOL     OW31687   1.928   0.618   8.824 -0.4720  0.4629 -0.1344
 6685SOL    HW131688   1.834   0.635   8.813 -0.3584  1.0933 -0.1322
 6685SOL    HW231689   1.962   0.604   8.736 -1.2415 -1.4285 -0.1253
 6686SOL     OW31690   2.623   0.509   1.416 -0.9477 -0.0194  0.2422
 6686SOL    HW131691   2.690   0.475   1.357 -0.5786  0.6398  0.2732
 6686SOL    HW231692   2.581   0.425   1.431  1.8232 -1.3628  0.5387
 6687SOL     OW31693   2.000   0.307  10.079 -0.3802 -0.3518 -0.1198
 6687SOL    HW131694   2.020   0.310  10.172 -2.4372 -0.7548  0.3494
 6687SOL    HW231695   1.938   0.233  10.076  0.1289 -0.7877  0.0710
 6688SOL     OW31696   3.946   3.148   3.761  0.1357  0.2818  0.4966
 6688SOL    HW131697   3.883   3.093   3.808  0.0717 -0.2397 -0.1952
 6688SOL    HW231698   4.002   3.085   3.715 -1.3732 -1.3019  0.8438
 6689SOL     OW31699   0.552   0.918   4.214 -0.1964 -0.1585 -0.0472
 6689SOL    HW131700   0.475   0.891   4.163 -0.6115 -0.3744  0.6851
 6689SOL    HW231701   0.544   1.013   4.212  1.6618 -0.0119  0.1794
 6690SOL     OW31702   2.371   2.477   7.873 -0.2356  0.0221  0.5328
 6690SOL    HW131703   2.340   2.475   7.782  0.3437  0.3583  0.3250
 6690SOL    HW231704   2.457   2.518   7.856  0.5672 -1.1599  1.7441
 6691SOL     OW31705   4.381   1.402   8.201 -0.0568 -0.0104 -0.3528
 6691SOL    HW131706   4.426   1.350   8.134  1.1382  1.5430 -0.7608
 6691SOL    HW231707   4.405   1.485   8.161 -0.2350 -0.7702 -2.0268
 6692SOL     OW31708   4.735   4.477  13.345  0.1263  0.3976  0.0895
 6692SOL    HW131709   4.665   4.536  13.374 -1.1706 -1.8400  1.5216
 6692SOL    HW231710   0.062   4.513  13.403  1.1245  0.7098 -1.2592
 6693SOL     OW31711   0.070   1.672   5.011 -0.3167 -0.1994  0.7471
 6693SOL    HW131712   4.733   1.729   4.998  0.4963  0.6670 -0.2661
 6693SOL    HW231713   0.018   1.596   4.986 -0.9694  0.7822 -0.9167
 6694SOL     OW31714   2.981   2.061   4.106  0.3529  0.4877  0.5262
 6694SOL    HW131715   2.991   2.116   4.184 -1.2510 -0.8501  1.6870
 6694SOL    HW231716   3.067   2.020   4.091 -0.2566 -0.7062  0.2523
 6695SOL     OW31717   0.051   1.900   9.431 -0.5156  0.0918  0.3026
 6695SOL    HW131718   0.068   1.930   9.342  0.2122  2.4447  1.2417
 6695SOL    HW231719   4.705   1.858   9.423  0.2534 -1.2831 -0.5966
 6696SOL     OW31720   3.371   0.547   4.927 -0.4011 -0.4121  0.5391
 6696SOL    HW131721   3.403   0.630   4.963  0.1387 -0.5468  0.3673
 6696SOL    HW231722   3.331   0.497   4.997 -0.8293  0.4478  0.9106
 6697SOL     OW31723   2.419   4.699   9.849 -0.7156 -0.3710  0.4526
 6697SOL    HW131724   2.377   4.700   9.764  0.7674  1.3763 -0.2691
 6697SOL    HW231725   2.338   4.714   9.897 -1.2867  0.6301 -0.8471
 6698SOL     OW31726   4.097   3.939   2.199  0.6346 -0.0157  0.0302
 6698SOL    HW131727   4.019   3.985   2.168  0.3346 -0.3323  0.3223
 6698SOL    HW231728   4.156   3.949   2.124 -0.4216 -2.9859 -1.1952
 6699SOL     OW31729   2.388   4.206   4.952 -0.0501  0.2707 -0.6184
 6699SOL    HW131730   2.401   4.204   5.046  1.5776  0.6403 -0.8489
 6699SOL    HW231731   2.383   4.301   4.942 -2.1678  0.2409  0.0519
 6700SOL     OW31732   0.787   1.610   3.837 -0.3716  0.3640 -0.0567
 6700SOL    HW131733   0.834   1.598   3.755 -2.7820  1.7972 -1.6515
 6700SOL    HW231734   0.695   1.596   3.814 -0.4413  2.0898 -0.8118
 6701SOL     OW31735   3.344   4.602   4.502 -0.0867 -0.1359  0.7301
 6701SOL    HW131736   3.309   4.538   4.440 -0.5292  1.3524 -0.5577
 6701SOL    HW231737   3.349   4.682   4.450 -1.6635 -1.1785 -1.0395
 6702SOL     OW31738   1.863   1.774   5.059 -0.6617 -0.2416 -0.3257
 6702SOL    HW131739   1.769   1.783   5.044 -1.2374 -1.5812  2.5498
 6702SOL    HW231740   1.884   1.735   4.974 -0.9983 -0.7367 -0.1812
 6703SOL     OW31741   0.506   4.601   2.391  0.8794 -0.3531  0.1741
 6703SOL    HW131742   0.588   4.552   2.390  1.3898  0.5055 -0.3919
 6703SOL    HW231743   0.525   4.676   2.448 -1.1367  0.2200  0.1213
 6704SOL     OW31744   2.018   2.798   9.434 -0.6298  0.0494 -0.3289
 6704SOL    HW131745   2.078   2.869   9.411  1.1776 -0.2637  3.4426
 6704SOL    HW231746   1.999   2.822   9.525  0.0858 -0.8913  0.0693
 6705SOL     OW31747   3.696   0.014   2.794  0.2730 -0.2232  0.7128
 6705SOL    HW131748   3.784   0.041   2.820  0.4179 -0.6664  0.6782
 6705SOL    HW231749   3.684   0.085   2.731 -0.3398  1.7170  3.0153
 6706SOL     OW31750   4.462   2.192   5.898 -0.0167  0.4090  0.2166
 6706SOL    HW131751   4.482   2.153   5.984 -3.6315  0.1291  0.9226
 6706SOL    HW231752   4.381   2.233   5.929 -1.7460 -2.2943 -0.7903
 6707SOL     OW31753   2.307   0.655   2.679  0.7034 -0.3578 -0.0147
 6707SOL    HW131754   2.385   0.669   2.732  1.1449 -2.2878 -0.1438
 6707SOL    HW231755   2.237   0.684   2.738  1.2950 -1.7710  1.3790
 6708SOL     OW31756   1.864   4.584  12.804 -0.4325  0.4447 -0.2662
 6708SOL    HW131757   1.858   4.489  12.809 -1.2528  0.4194 -1.9747
 6708SOL    HW231758   1.777   4.614  12.831 -1.3979 -1.8297 -0.8623
 6709SOL     OW31759   3.029   2.454   0.067 -0.0256  0.0543  0.5935
 6709SOL    HW131760   3.123   2.458   0.085 -0.0598 -1.9589  1.2550
 6709SOL    HW231761   3.020   2.500  17.739 -0.0258 -0.0107  0.5579
 6710SOL     OW31762   1.920   1.226   2.051 -0.6256 -0.2124 -0.0136
 6710SOL    HW131763   1.930   1.242   2.145 -0.6699  0.0654 -0.0542
 6710SOL    HW231764   2.008   1.235   2.014  1.0960 -3.2945  3.3479
 6711SOL     OW31765   1.836   1.117  13.219  0.0707 -0.2030  0.9080
 6711SOL    HW131766   1.825   1.212  13.230 -0.1314  0.1775 -2.6951
 6711SOL    HW231767   1.917   1.118  13.168  0.8867  0.5594  2.2020
 6712SOL     OW31768   1.397   1.147   2.868  0.1762  0.0131 -0.1811
 6712SOL    HW131769   1.317   1.120   2.822 -0.3854 -1.2380  1.5281
 6712SOL    HW231770   1.369   1.215   2.929 -0.5708 -0.7526  0.3289
 6713SOL     OW31771   2.899   4.383  16.824 -0.1473 -0.4540 -0.1195
 6713SOL    HW131772   2.908   4.307  16.882  3.0594  0.1066  0.1106
 6713SOL    HW231773   2.834   4.430  16.877 -1.9616 -0.4132 -2.3772
 6714SOL     OW31774   3.020   4.461   5.144 -0.5636 -0.5398 -0.0011
 6714SOL    HW131775   2.956   4.518   5.102  1.2065 -0.0739 -2.0703
 6714SOL    HW231776   2.988   4.375   5.120 -1.8410 -0.0437 -0.0715
 6715SOL     OW31777   0.629   1.915  15.981  0.1235 -0.0424 -0.4392
 6715SOL    HW131778   0.694   1.894  15.914  1.1821  0.8702  0.3123
 6715SOL    HW231779   0.644   1.842  16.042  2.0983  0.4184 -0.3834
 6716SOL     OW31780   0.156   3.837   5.991 -0.0884 -0.3932 -0.0975
 6716SOL    HW131781   0.108   3.900   6.044  1.2011  0.8765 -0.4410
 6716SOL    HW231782   0.161   3.771   6.060  0.7392  0.4701  0.6853
 6717SOL     OW31783   1.837   0.565   7.795 -0.0927 -0.2884  0.5288
 6717SOL    HW131784   1.746   0.546   7.816  0.2686 -2.6095  0.0188
 6717SOL    HW231785   1.822   0.658   7.808  2.1956  0.3002 -1.0584
 6718SOL     OW31786   1.968   4.540   7.195  0.2937 -0.2603  0.2653
 6718SOL    HW131787   1.924   4.580   7.270  0.0599  2.0648 -1.0944
 6718SOL    HW231788   1.888   4.530   7.145  0.1153 -1.1348  0.7247
 6719SOL     OW31789   0.704   0.836  16.093  0.1138 -0.0415 -0.2861
 6719SOL    HW131790   0.643   0.902  16.061 -0.3538 -0.8351 -1.0506
 6719SOL    HW231791   0.661   0.796  16.169  1.8929  0.1155  0.8069
 6720SOL     OW31792   3.194   0.137   4.083 -0.6220 -0.0835 -0.4998
 6720SOL    HW131793   3.174   0.090   4.002 -1.7681  3.2744 -2.1378
 6720SOL    HW231794   3.288   0.153   4.078 -1.3607  4.3692  0.3835
 6721SOL     OW31795   1.356   2.608   5.191  0.2615 -0.1229 -0.2750
 6721SOL    HW131796   1.281   2.603   5.251 -0.8514 -0.3033 -1.6803
 6721SOL    HW231797   1.425   2.597   5.256  0.6457 -0.5545 -0.7541
 6722SOL     OW31798   1.188   0.397   6.381  0.0911 -0.0969  0.6406
 6722SOL    HW131799   1.174   0.303   6.393 -0.2795 -0.2644 -1.1470
 6722SOL    HW231800   1.135   0.432   6.309 -0.3919  1.0188  1.5354
 6723SOL     OW31801   1.890   2.273  10.536 -0.3787 -0.2298  0.0528
 6723SOL    HW131802   1.957   2.321  10.488  2.0637 -2.5323  1.1432
 6723SOL    HW231803   1.943   2.235  10.606  0.4972  2.4582  0.8291
 6724SOL     OW31804   3.585   3.855   1.760 -0.0377  0.1133 -0.2939
 6724SOL    HW131805   3.537   3.910   1.699 -0.4543 -0.4587 -0.4908
 6724SOL    HW231806   3.528   3.864   1.837  0.2396 -1.4093  0.1003
 6725SOL     OW31807   0.447   0.842  11.483 -0.3213 -0.1856  0.8032
 6725SOL    HW131808   0.489   0.780  11.542 -0.3073 -1.7708 -0.8864
 6725SOL    HW231809   0.418   0.900  11.553 -0.2680 -0.8028  1.3328
 6726SOL     OW31810   2.129   1.338  10.018 -0.3313  0.6508  0.2492
 6726SOL    HW131811   2.159   1.255  10.054  4.2960  0.2924 -4.3540
 6726SOL    HW231812   2.116   1.383  10.101  0.5488  0.8026  0.2999
 6727SOL     OW31813   2.998   0.106   7.970  0.0621 -0.0367 -0.6225
 6727SOL    HW131814   3.042   0.025   7.944 -0.3451 -0.6622  0.6624
 6727SOL    HW231815   3.080   0.156   7.975  0.8850 -1.5410  0.7021
 6728SOL     OW31816   0.537   4.541  11.440 -0.3185  0.7195 -0.0219
 6728SOL    HW131817   0.620   4.519  11.396 -0.7345 -0.8506 -0.0277
 6728SOL    HW231818   0.509   4.451  11.453  0.2896  0.2232 -2.0888
 6729SOL     OW31819   1.588   0.056   2.353 -0.2983  0.0574  0.9827
 6729SOL    HW131820   1.626   0.009   2.278 -0.2205 -0.1700  1.1647
 6729SOL    HW231821   1.668   0.074   2.403 -1.0272 -1.3765  2.6789
 6730SOL     OW31822   2.743   2.817   8.672  0.1026  0.1565  0.2836
 6730SOL    HW131823   2.692   2.804   8.591  0.4171 -1.2273  0.3055
 6730SOL    HW231824   2.832   2.834   8.642 -0.2414  2.9954  0.8854
 6731SOL     OW31825   3.540   2.842   8.679  0.0569 -0.0068 -0.4073
 6731SOL    HW131826   3.614   2.896   8.650  0.5048  0.0970  0.9445
 6731SOL    HW231827   3.579   2.760   8.649  0.8076 -0.5055  1.9714
 6732SOL     OW31828   4.281   2.352   4.376  0.6120  0.5544  0.0836
 6732SOL    HW131829   4.266   2.415   4.306 -1.6867  2.5486  2.3355
 6732SOL    HW231830   4.276   2.267   4.333 -0.9150  0.4720  0.3991
 6733SOL     OW31831   3.185   3.177   2.126  0.0240  0.0259 -0.1407
 6733SOL    HW131832   3.144   3.144   2.046  0.0127  1.8767 -0.9114
 6733SOL    HW231833   3.261   3.222   2.087  1.2996 -2.7723 -0.8940
 6734SOL     OW31834   4.396   2.420   6.304 -0.2980  0.2200  0.4030
 6734SOL    HW131835   4.360   2.485   6.243 -4.0788 -3.4489 -1.2901
 6734SOL    HW231836   4.477   2.466   6.328  1.2033 -1.3565 -1.6338
 6735SOL     OW31837   0.674   3.661  14.077  0.4717 -0.1407  0.2424
 6735SOL    HW131838   0.733   3.628  14.010 -0.5839  1.0061 -1.2612
 6735SOL    HW231839   0.590   3.667  14.031  1.3281  1.9700 -1.0438
 6736SOL     OW31840   0.962   3.424  12.434 -0.2633  0.0676 -0.8855
 6736SOL    HW131841   1.053   3.404  12.414 -0.4384 -1.9374  0.3474
 6736SOL    HW231842   0.915   3.410  12.352 -0.9161  1.3722 -0.7494
 6737SOL     OW31843   1.354   0.147   2.454  0.6132 -0.2891  0.0365
 6737SOL    HW131844   1.416   0.201   2.504  1.0056 -0.6719 -0.0324
 6737SOL    HW231845   1.419   0.101   2.401  0.3438 -0.2161 -0.3504
 6738SOL     OW31846   1.764   3.108   8.308 -0.2002  0.3230  0.3776
 6738SOL    HW131847   1.838   3.169   8.317  0.7759 -0.5650 -1.6366
 6738SOL    HW231848   1.715   3.155   8.241 -1.2319 -0.2934  0.7133
 6739SOL     OW31849   1.998   2.543  10.209 -0.6432 -0.5649 -0.0961
 6739SOL    HW131850   2.029   2.518  10.296  2.8134 -1.6773 -1.6405
 6739SOL    HW231851   2.080   2.567  10.165 -0.5229 -2.5963 -0.9621
 6740SOL     OW31852   2.835   2.661  15.557  0.0810  0.3104 -0.7705
 6740SOL    HW131853   2.794   2.612  15.629 -1.0681  3.2758  0.5948
 6740SOL    HW231854   2.863   2.736  15.610 -0.3869  0.3782 -0.6204
 6741SOL     OW31855   2.025   3.964   5.690  0.1361 -1.0182  0.7252
 6741SOL    HW131856   2.075   4.019   5.631 -2.1882  1.5864  1.1901
 6741SOL    HW231857   2.085   3.953   5.764  1.4666 -1.4152 -0.4229
 6742SOL     OW31858   1.236   2.907   6.461 -0.2005 -0.0231  0.1107
 6742SOL    HW131859   1.276   2.912   6.374 -0.5798  0.9467 -0.0009
 6742SOL    HW231860   1.174   2.979   6.457 -0.0429  0.1269  0.3704
 6743SOL     OW31861   1.184   0.857   4.450  0.0319 -0.2900  0.0833
 6743SOL    HW131862   1.273   0.857   4.416 -0.5889  0.0640 -1.5618
 6743SOL    HW231863   1.166   0.765   4.469 -0.8928 -0.2215 -0.4553
 6744SOL     OW31864   3.996   3.153   6.412  0.2612 -0.1880  0.2013
 6744SOL    HW131865   3.919   3.096   6.415  1.1848 -1.2241  4.6445
 6744SOL    HW231866   3.969   3.212   6.483 -1.0041 -1.0505  0.4319
 6745SOL     OW31867   1.145   2.186   5.654 -0.0705 -0.3855 -0.4075
 6745SOL    HW131868   1.115   2.273   5.629  2.6609  1.0620  1.4540
 6745SOL    HW231869   1.232   2.214   5.683 -0.2801 -1.6989  1.4900
 6746SOL     OW31870   4.242   4.581  16.854 -0.2846 -0.0910 -0.3821
 6746SOL    HW131871   4.203   4.666  16.833 -0.7023 -0.2977 -0.4316
 6746SOL    HW231872   4.226   4.528  16.776  1.3947 -0.3138 -0.5793
 6747SOL     OW31873   1.064   3.086   7.964 -0.4625  0.2012  0.0441
 6747SOL    HW131874   1.031   3.005   7.925  2.8132 -1.4881  0.8233
 6747SOL    HW231875   1.068   3.145   7.889 -0.9197  0.8471  0.5234
 6748SOL     OW31876   1.684   3.071  14.757  0.6099 -0.0939  0.0928
 6748SOL    HW131877   1.774   3.088  14.784  0.2062  1.5838  0.3919
 6748SOL    HW231878   1.658   3.032  14.840 -0.5029  0.1928 -0.1100
 6749SOL     OW31879   1.059   2.520   2.885  0.5042 -0.0385 -0.1037
 6749SOL    HW131880   1.075   2.517   2.791 -2.1929  0.2849 -0.5713
 6749SOL    HW231881   1.144   2.560   2.902  0.4424 -1.1842  2.7960
 6750SOL     OW31882   4.194   1.380   1.367  0.4890 -0.3234 -0.3139
 6750SOL    HW131883   4.165   1.422   1.286 -1.5878  1.2330  1.2354
 6750SOL    HW231884   4.128   1.310   1.367 -1.6115  1.6736  0.4945
 6751SOL     OW31885   1.484   1.811   5.815  0.2914  0.3041 -0.5054
 6751SOL    HW131886   1.526   1.850   5.739  2.1350 -1.2123 -0.2811
 6751SOL    HW231887   1.456   1.883   5.871 -1.5887  0.1306 -1.2209
 6752SOL     OW31888   4.622   4.223   6.984 -0.0212 -0.4572 -0.5456
 6752SOL    HW131889   4.535   4.253   7.013  0.2125  1.3658 -1.7144
 6752SOL    HW231890   4.670   4.239   7.066 -2.2642 -0.0312  0.6996
 6753SOL     OW31891   2.346   3.084   3.407 -0.2761  0.0883 -0.2187
 6753SOL    HW131892   2.355   3.049   3.496  2.1060  1.0188 -0.1193
 6753SOL    HW231893   2.345   3.178   3.423  0.8800 -0.1428  1.1979
 6754SOL     OW31894   3.134   3.343   8.274 -0.4391 -0.1279  0.1172
 6754SOL    HW131895   3.129   3.411   8.342  0.1276 -0.3614  0.3920
 6754SOL    HW231896   3.144   3.258   8.317  0.4413  0.1476  0.4541
 6755SOL     OW31897   1.420   2.045   5.938 -0.5205  0.3242  0.2844
 6755SOL    HW131898   1.331   2.020   5.962 -0.4464  0.2747  0.5080
 6755SOL    HW231899   1.404   2.126   5.890 -0.3882 -0.1931 -0.6169
 6756SOL     OW31900   0.832   1.510   5.342  0.3662 -0.8998 -0.5059
 6756SOL    HW131901   0.785   1.448   5.398  2.5857 -0.4997  1.8003
 6756SOL    HW231902   0.832   1.588   5.397  1.4959 -0.1239 -1.6099
 6757SOL     OW31903   3.046   2.880   3.773 -0.0913 -0.2198 -0.8012
 6757SOL    HW131904   3.035   2.887   3.679  0.5965 -1.2211 -0.9517
 6757SOL    HW231905   3.025   2.788   3.785 -0.2386  0.3070  3.0898
 6758SOL     OW31906   3.448   3.985   1.973  0.0680 -0.1419  0.1786
 6758SOL    HW131907   3.410   3.936   2.045  2.7380 -1.1747  0.8723
 6758SOL    HW231908   3.371   3.991   1.916  0.7657  0.6122 -0.6955
 6759SOL     OW31909   1.459   1.008   8.686  0.4263 -0.1496  0.7732
 6759SOL    HW131910   1.421   1.094   8.670  0.8079 -0.4988 -2.0819
 6759SOL    HW231911   1.550   1.037   8.684  0.5109 -0.5473 -1.4431
 6760SOL     OW31912   4.098   3.390  15.652 -0.3939 -0.3527 -0.1079
 6760SOL    HW131913   4.049   3.324  15.701 -0.9204 -1.0011 -1.5057
 6760SOL    HW231914   4.024   3.420  15.598  0.3513 -1.2187 -1.6039
 6761SOL     OW31915   3.451   0.689   5.718 -0.0363  0.1858 -0.3814
 6761SOL    HW131916   3.522   0.627   5.726  0.9084  1.7058  2.7407
 6761SOL    HW231917   3.480   0.772   5.756 -1.4131 -0.6470  2.4733
 6762SOL     OW31918   3.695   2.129   3.091  0.0028 -0.1727 -0.3478
 6762SOL    HW131919   3.727   2.109   3.179 -0.2833  0.3778 -0.1202
 6762SOL    HW231920   3.602   2.105   3.094 -0.0991  0.4371  1.1571
 6763SOL     OW31921   0.166   3.950   2.050 -0.6603  0.4734  0.2436
 6763SOL    HW131922   0.099   3.884   2.031 -2.8002  3.3307 -2.0597
 6763SOL    HW231923   0.164   3.965   2.145  0.4283 -1.7013  0.6133
 6764SOL     OW31924   0.553   2.021  17.732  0.6974 -0.5851  0.9000
 6764SOL    HW131925   0.537   2.110   0.006  0.6172  0.1649 -1.4520
 6764SOL    HW231926   0.595   1.994   0.058 -0.4074 -0.6869  1.4355
 6765SOL     OW31927   0.038   2.512   2.085 -0.0887 -0.0823  0.0922
 6765SOL    HW131928   0.044   2.417   2.087  3.0527  0.0115 -4.2346
 6765SOL    HW231929   0.002   2.528   2.172 -1.7817 -2.0603 -0.2506
 6766SOL     OW31930   2.917   3.352   7.555 -0.3927 -0.1900 -0.0523
 6766SOL    HW131931   2.853   3.376   7.622 -1.1259  0.6399 -1.0421
 6766SOL    HW231932   2.988   3.413   7.574 -0.1737  0.2684 -2.3020
 6767SOL     OW31933   3.352   2.912  16.776  0.8534 -0.2337  0.3386
 6767SOL    HW131934   3.331   2.886  16.865  2.1565  0.0561  0.7321
 6767SOL    HW231935   3.338   2.838  16.717 -0.4423  0.9109 -0.7839
 6768SOL     OW31936   4.100   3.765   2.851 -0.3868 -0.3401  0.1187
 6768SOL    HW131937   4.166   3.759   2.920  0.7644  0.5730 -0.9213
 6768SOL    HW231938   4.117   3.679   2.812 -0.5252 -0.4085  0.2083
 6769SOL     OW31939   1.769   4.075   9.638 -0.0398  0.2585  0.5683
 6769SOL    HW131940   1.718   4.002   9.602 -1.3243  0.9943  0.8881
 6769SOL    HW231941   1.786   4.048   9.728 -1.4560 -1.7563  0.2371
 6770SOL     OW31942   1.639   2.636   7.362  0.2138  0.0392 -0.2965
 6770SOL    HW131943   1.573   2.648   7.430  1.1867  0.0839  0.6387
 6770SOL    HW231944   1.711   2.603   7.415  0.5369  0.5322 -0.4239
 6771SOL     OW31945   4.125   2.379   9.372 -0.6574 -0.1395 -0.3956
 6771SOL    HW131946   4.205   2.393   9.423  0.2149 -1.8357 -1.3121
 6771SOL    HW231947   4.158   2.340   9.291 -2.7347 -0.5083 -1.0537
 6772SOL     OW31948   0.883   3.753   6.650 -0.3452 -0.0502 -0.4746
 6772SOL    HW131949   0.871   3.782   6.559 -1.9226  0.6104 -0.0340
 6772SOL    HW231950   0.862   3.835   6.693 -1.1479 -0.1275 -0.7279
 6773SOL     OW31951   0.771   3.641   5.145 -0.9183  0.6547  0.5950
 6773SOL    HW131952   0.800   3.576   5.081  0.5880  1.2039  0.7249
 6773SOL    HW231953   0.677   3.624   5.140 -1.3787  3.1595  0.8353
 6774SOL     OW31954   3.158   3.307   1.505  0.3662 -0.5717 -0.1443
 6774SOL    HW131955   3.120   3.222   1.529 -1.6532  0.7108  1.1724
 6774SOL    HW231956   3.212   3.321   1.583 -0.5618  2.5556 -0.0546
 6775SOL     OW31957   1.563   2.882   2.740 -0.4022 -0.2944 -0.5999
 6775SOL    HW131958   1.629   2.947   2.716 -0.9992  1.3524  2.2726
 6775SOL    HW231959   1.523   2.862   2.656  2.1306 -2.2673 -1.3621
 6776SOL     OW31960   2.502   1.714   2.765  0.3337 -0.1038  1.2316
 6776SOL    HW131961   2.445   1.781   2.803  1.5647  0.8019  1.4929
 6776SOL    HW231962   2.443   1.639   2.764 -0.1711  0.3124 -0.9878
 6777SOL     OW31963   4.372   3.106   2.029 -0.1659  0.3476 -0.0330
 6777SOL    HW131964   4.348   3.108   2.122  2.2414 -0.0722  0.5870
 6777SOL    HW231965   4.445   3.045   2.028 -1.6831 -1.4926  0.4557
 6778SOL     OW31966   4.534   3.082   6.250  0.2233 -0.0980  0.2140
 6778SOL    HW131967   4.517   2.989   6.265  0.4485 -0.2048 -0.1904
 6778SOL    HW231968   4.448   3.111   6.222  0.5541  0.0959 -0.6259
 6779SOL     OW31969   2.050   4.605  12.604 -0.3392  0.1734 -0.7396
 6779SOL    HW131970   2.019   4.680  12.554 -0.3949 -0.2168 -1.2864
 6779SOL    HW231971   1.991   4.606  12.680  0.0504 -0.0061 -0.4321
 6780SOL     OW31972   1.426   1.122  12.995 -0.0305 -0.0304 -0.3406
 6780SOL    HW131973   1.481   1.201  12.989  0.7395 -0.4325  1.5075
 6780SOL    HW231974   1.420   1.110  13.089  1.1306  1.1342 -0.1078
 6781SOL     OW31975   1.427   3.490   8.190  0.3150  0.0551  0.1063
 6781SOL    HW131976   1.466   3.540   8.262  0.1334  2.9389 -1.8070
 6781SOL    HW231977   1.351   3.547   8.178 -0.2823 -1.1035 -1.7154
 6782SOL     OW31978   1.418   4.499   4.649  0.6474  0.0183 -0.1141
 6782SOL    HW131979   1.396   4.485   4.557 -0.4345  1.2574 -0.0502
 6782SOL    HW231980   1.495   4.554   4.636  0.7968 -0.4821 -1.2729
 6783SOL     OW31981   1.539   0.904  15.141 -0.2170 -0.2700 -0.3679
 6783SOL    HW131982   1.608   0.849  15.178  0.4804  0.5274 -0.4926
 6783SOL    HW231983   1.584   0.940  15.065 -0.4808  1.8275  0.4664
 6784SOL     OW31984   4.620   1.290   4.482 -0.2751  0.0027 -0.2621
 6784SOL    HW131985   4.669   1.211   4.460 -1.9081 -0.9818 -0.4400
 6784SOL    HW231986   4.590   1.324   4.398  2.5032  1.8903 -0.4888
 6785SOL     OW31987   3.678   4.185   3.634 -0.1378 -0.2576 -0.5861
 6785SOL    HW131988   3.762   4.177   3.590 -0.6365 -0.4315 -1.5036
 6785SOL    HW231989   3.685   4.121   3.705  0.2201  0.7637  0.2941
 6786SOL     OW31990   1.477   2.936   9.871  0.1542 -0.0038 -0.3282
 6786SOL    HW131991   1.498   2.853   9.829 -0.9823 -0.3814 -0.1423
 6786SOL    HW231992   1.459   2.897   9.957  3.2542  1.3226  0.9410
 6787SOL     OW31993   3.260   1.809   2.912 -0.2188 -0.0746  0.4581
 6787SOL    HW131994   3.194   1.765   2.858 -1.5690  1.3214  0.9579
 6787SOL    HW231995   3.198   1.842   2.978  0.1822 -1.3102  1.4526
 6788SOL     OW31996   3.873   0.985   0.728 -1.0193  0.2493 -0.1133
 6788SOL    HW131997   3.865   1.075   0.695  1.5622  0.1645 -1.0170
 6788SOL    HW231998   3.855   0.931   0.650  0.6078  1.4096 -1.3035
 6789SOL     OW31999   4.445   4.588   2.665  0.1336 -0.5512 -0.1853
 6789SOL    HW132000   4.523   4.553   2.622  1.5094 -0.7576  2.4522
 6789SOL    HW232001   4.457   4.550   2.753 -0.8471  0.5161  0.4043
 6790SOL     OW32002   0.213   0.359   6.378  0.5644 -0.2021 -0.0599
 6790SOL    HW132003   0.280   0.426   6.392  0.7942 -0.7807  1.6339
 6790SOL    HW232004   0.262   0.318   6.306 -2.6518  0.4949 -2.6514
 6791SOL     OW32005   3.847   4.658  12.607 -0.0963 -0.3884 -0.1752
 6791SOL    HW132006   3.772   4.664  12.666  0.4167 -0.9154  0.5330
 6791SOL    HW232007   3.824   4.738  12.559 -2.6800 -0.6804  0.5669
 6792SOL     OW32008   0.961   1.780   4.536  0.1047  0.2759  0.1440
 6792SOL    HW132009   1.027   1.755   4.601  0.9463 -0.9968 -1.2103
 6792SOL    HW232010   0.878   1.738   4.560 -0.0857  0.8722  0.5401
 6793SOL     OW32011   0.491   4.203   2.883  0.6694  0.2286  0.0597
 6793SOL    HW132012   0.573   4.251   2.891 -0.0755  1.2740  1.4404
 6793SOL    HW232013   0.504   4.132   2.944 -0.4214  1.0432  1.2322
 6794SOL     OW32014   0.891   3.934   3.873  0.6133  0.3935 -0.0364
 6794SOL    HW132015   0.911   4.011   3.821 -1.3571 -0.1797 -1.6461
 6794SOL    HW232016   0.973   3.885   3.869  0.8073  0.8479 -1.4677
 6795SOL     OW32017   1.471   2.733   6.421 -0.0652 -0.1116  0.1316
 6795SOL    HW132018   1.522   2.813   6.413 -0.6001 -0.0507 -2.7830
 6795SOL    HW232019   1.386   2.763   6.455  0.3017  1.2818 -0.1856
 6796SOL     OW32020   0.541   2.912   2.114  0.2124 -0.1890 -0.6563
 6796SOL    HW132021   0.465   2.877   2.160 -0.6181  0.0071 -1.8663
 6796SOL    HW232022   0.611   2.850   2.135 -0.0123  0.1691  1.0940
 6797SOL     OW32023   4.014   1.793   0.948  0.6539 -0.3021 -0.1688
 6797SOL    HW132024   3.984   1.805   1.038  1.6451  0.9150  0.0027
 6797SOL    HW232025   4.101   1.832   0.961  0.7060 -0.6509  0.5434
 6798SOL     OW32026   4.576   4.458   5.463 -0.1906  0.3699 -0.3102
 6798SOL    HW132027   4.659   4.487   5.500 -0.6199 -0.8932  1.6157
 6798SOL    HW232028   4.509   4.489   5.524  0.9761 -2.3412  2.3452
 6799SOL     OW32029   3.378   2.216  12.343  0.5795  0.1891 -0.2899
 6799SOL    HW132030   3.401   2.167  12.422 -0.3623 -1.0415 -0.7777
 6799SOL    HW232031   3.322   2.290  12.369 -1.8729 -1.4513 -0.9417
 6800SOL     OW32032   4.188   1.079   7.066  0.4263  0.0607  0.7395
 6800SOL    HW132033   4.166   0.988   7.084 -1.6330  0.6535  1.1434
 6800SOL    HW232034   4.166   1.115   7.153  1.3959  0.7755  0.6974
 6801SOL     OW32035   1.078   2.943   8.187 -0.5640  0.1850  0.1315
 6801SOL    HW132036   1.065   3.005   8.116 -1.8792 -1.4055 -1.0021
 6801SOL    HW232037   1.022   2.869   8.164  1.1829 -0.8052 -0.9313
 6802SOL     OW32038   4.102   3.080  14.933  0.5841  0.1650  0.3094
 6802SOL    HW132039   4.071   2.998  14.972  0.1544 -0.0894 -0.5515
 6802SOL    HW232040   4.124   3.036  14.851 -1.8997 -0.1236 -0.2190
 6803SOL     OW32041   0.559   3.502   8.553 -0.2635 -0.2309  0.1414
 6803SOL    HW132042   0.566   3.469   8.463  1.5276  1.4820 -0.3453
 6803SOL    HW232043   0.628   3.451   8.596  0.3233  1.2602  0.9527
 6804SOL     OW32044   2.486   0.104   3.982  0.0587 -0.7422  0.0679
 6804SOL    HW132045   2.438   0.039   4.034  1.1749 -0.4984  1.3907
 6804SOL    HW232046   2.419   0.137   3.922 -0.6426  1.4120  2.0172
 6805SOL     OW32047   4.420   1.652   6.376 -0.5206  0.2627 -0.4531
 6805SOL    HW132048   4.481   1.685   6.310  0.7767 -0.1309  0.5430
 6805SOL    HW232049   4.488   1.615   6.433 -1.2572  0.3781  0.5009
 6806SOL     OW32050   2.350   0.540   4.825  0.3083  0.7602  0.2623
 6806SOL    HW132051   2.294   0.482   4.877  1.9144  0.0809  1.2779
 6806SOL    HW232052   2.436   0.506   4.853 -0.2582 -0.6023  0.3337
 6807SOL     OW32053   2.622   4.318   3.051  0.5297  0.1831  0.2161
 6807SOL    HW132054   2.532   4.334   3.025  0.6282 -0.1646 -0.3236
 6807SOL    HW232055   2.657   4.341   2.965  4.1367 -1.0876  1.3630
 6808SOL     OW32056   3.300   1.125   4.606 -0.5605  0.0539 -0.5008
 6808SOL    HW132057   3.344   1.207   4.628  1.6466 -0.4152 -3.0523
 6808SOL    HW232058   3.261   1.110   4.692  0.6281  2.4880  0.4568
 6809SOL     OW32059   1.363   2.041   9.379 -0.7253  0.5161  0.3392
 6809SOL    HW132060   1.337   1.952   9.402 -0.5860  0.5311  0.5588
 6809SOL    HW232061   1.449   2.036   9.421 -1.4552  0.0338  1.7587
 6810SOL     OW32062   4.248   3.564  15.809  0.1221 -0.2987  0.8157
 6810SOL    HW132063   4.190   3.522  15.745 -1.7116  2.4305  0.7282
 6810SOL    HW232064   4.221   3.511  15.884  0.3295 -1.4819  0.0684
 6811SOL     OW32065   2.870   1.040   9.760  0.0058  0.6924  0.1642
 6811SOL    HW132066   2.805   1.109   9.772  0.0418  1.3349 -3.2766
 6811SOL    HW232067   2.937   1.065   9.823  0.1420  0.2989  0.1733
 6812SOL     OW32068   2.530   3.666   3.824 -0.6323  0.2067  0.3579
 6812SOL    HW132069   2.567   3.618   3.899 -2.9832 -1.7368  0.2417
 6812SOL    HW232070   2.549   3.604   3.755 -1.2105 -0.1273  0.5002
 6813SOL     OW32071   1.242   0.040  13.259 -0.4843  0.4963 -0.7173
 6813SOL    HW132072   1.241   4.733  13.176 -2.3959 -1.0569  0.1863
 6813SOL    HW232073   1.159   0.028  13.304  0.3374 -0.5984  0.5094
 6814SOL     OW32074   2.233   3.472   6.138  0.6561 -0.1710 -0.4279
 6814SOL    HW132075   2.277   3.557   6.144  0.6719 -0.1340 -0.9833
 6814SOL    HW232076   2.303   3.424   6.182  0.7611  1.1334  0.8492
 6815SOL     OW32077   2.003   3.506  11.997 -0.2835 -0.2206 -0.1221
 6815SOL    HW132078   1.966   3.498  11.910 -0.4637  0.1537 -0.0832
 6815SOL    HW232079   2.049   3.590  11.988 -0.8749  0.3335  1.8069
 6816SOL     OW32080   2.202   1.410   8.929  0.2107 -0.3483  0.2527
 6816SOL    HW132081   2.238   1.321   8.925  2.9559  0.7140  1.5851
 6816SOL    HW232082   2.222   1.431   9.020  2.9185 -2.9781  0.2601
 6817SOL     OW32083   1.529   2.672  13.936 -0.2519 -0.3541 -0.0450
 6817SOL    HW132084   1.480   2.619  13.998  0.1069 -1.7609 -0.9588
 6817SOL    HW232085   1.603   2.618  13.907  0.0377 -0.7086  1.3614
 6818SOL     OW32086   1.620   3.023  10.203  0.7400 -0.1211  0.3073
 6818SOL    HW132087   1.640   2.988  10.290 -1.2497 -2.8490 -0.3035
 6818SOL    HW232088   1.569   2.949  10.170  0.0272 -0.7196  2.7462
 6819SOL     OW32089   0.087   4.633   4.963 -0.0253  0.4498  0.0940
 6819SOL    HW132090   0.040   4.558   5.000  2.1518 -0.7273  0.4421
 6819SOL    HW232091   0.149   4.597   4.900  0.4929 -0.3522  1.0563
 6820SOL     OW32092   1.411   2.394   6.654  0.0437  1.0046 -0.4887
 6820SOL    HW132093   1.417   2.309   6.610  0.1685  0.3953  0.7358
 6820SOL    HW232094   1.504   2.406   6.672 -0.0114  1.0335 -0.2361
 6821SOL     OW32095   2.157   3.334   6.827 -0.0214  0.7476 -0.1050
 6821SOL    HW132096   2.233   3.334   6.768  2.0582  0.2325  2.6084
 6821SOL    HW232097   2.106   3.401   6.782  2.6367  1.5455 -1.9389
 6822SOL     OW32098   4.182   2.052   0.644 -0.1640 -0.4891  0.2273
 6822SOL    HW132099   4.246   2.113   0.608  0.6176 -1.1405  0.5186
 6822SOL    HW232100   4.226   2.013   0.720  0.2715 -0.9262 -0.2443
 6823SOL     OW32101   0.199   4.602   8.689  0.2727  0.2865 -0.0996
 6823SOL    HW132102   0.258   4.661   8.642  1.2588 -2.2952 -2.0877
 6823SOL    HW232103   0.248   4.595   8.771  2.0109  3.0525 -0.8804
 6824SOL     OW32104   3.621   0.626   3.717  0.2004 -0.2773  0.5055
 6824SOL    HW132105   3.707   0.606   3.754  1.1520  2.1617 -0.3244
 6824SOL    HW232106   3.578   0.545   3.743  0.5791 -0.4814  0.5073
 6825SOL     OW32107   2.222   3.322  15.335 -0.4139  0.0822  0.2012
 6825SOL    HW132108   2.210   3.291  15.425  0.9206 -1.6613 -0.2131
 6825SOL    HW232109   2.257   3.409  15.357 -0.1587 -0.0164  0.1852
 6826SOL     OW32110   0.637   2.048  13.820  0.4981  0.2021  0.2049
 6826SOL    HW132111   0.687   2.025  13.742 -0.1863  1.3378 -0.5543
 6826SOL    HW232112   0.672   2.121  13.871 -0.0701  0.3401  0.4014
 6827SOL     OW32113   4.600   3.016   5.485  0.2143  0.0442  0.2217
 6827SOL    HW132114   4.631   3.091   5.536  1.7114 -1.4915  1.5361
 6827SOL    HW232115   4.674   3.013   5.425  1.8561  1.8890  2.1479
 6828SOL     OW32116   1.741   0.852  16.624 -0.3421 -0.1028  0.0660
 6828SOL    HW132117   1.732   0.840  16.529  2.8913  0.8450 -0.3913
 6828SOL    HW232118   1.752   0.947  16.626  1.9328 -0.4110  2.0057
 6829SOL     OW32119   0.343   0.630   3.246  0.4590  0.7987 -0.3456
 6829SOL    HW132120   0.408   0.611   3.313  0.8251 -0.5739 -1.0832
 6829SOL    HW232121   0.358   0.544   3.206 -2.9508  0.0901 -0.1436
 6830SOL     OW32122   0.479   3.219   0.168 -0.2834  0.1290  0.4378
 6830SOL    HW132123   0.468   3.292   0.107  0.2542 -0.7066 -0.6784
 6830SOL    HW232124   0.545   3.249   0.230  0.7334 -0.5997 -0.2712
 6831SOL     OW32125   2.216   0.414   6.707 -0.0048 -0.0325  0.0426
 6831SOL    HW132126   2.232   0.507   6.724 -1.3365  0.0639  0.8064
 6831SOL    HW232127   2.209   0.376   6.795  0.7561  0.8714  0.4864
 6832SOL     OW32128   1.861   2.058  12.134  0.0758  0.4346 -0.4296
 6832SOL    HW132129   1.946   2.083  12.098  0.5959  0.8558  1.0785
 6832SOL    HW232130   1.860   1.964  12.150  2.1728  0.9086  2.5934
 6833SOL     OW32131   2.185   4.327  13.036  0.2024 -0.1330  0.9798
 6833SOL    HW132132   2.138   4.385  12.976 -0.1349 -0.4535  0.9373
 6833SOL    HW232133   2.177   4.381  13.116  0.2551  1.9510 -0.4131
 6834SOL     OW32134   0.831   0.331   3.537 -0.3126 -0.3023  0.4348
 6834SOL    HW132135   0.791   0.396   3.595 -0.4380 -0.0159  0.0286
 6834SOL    HW232136   0.751   0.279   3.544  0.0012 -1.0257 -1.2568
 6835SOL     OW32137   3.285   1.626   6.252  0.4045 -0.1439 -0.2825
 6835SOL    HW132138   3.351   1.606   6.186  0.1868  0.3817 -0.6606
 6835SOL    HW232139   3.315   1.700   6.305 -0.8740  0.2932 -0.1766
 6836SOL     OW32140   4.680   4.407   6.506  0.5529  0.5446 -0.1778
 6836SOL    HW132141   4.711   4.493   6.476 -1.9061  1.6806  0.4931
 6836SOL    HW232142   4.725   4.401   6.590 -1.6425  1.3673  1.0589
 6837SOL     OW32143   1.943   4.500   3.148 -0.4327 -0.7287 -0.0215
 6837SOL    HW132144   1.906   4.452   3.074  0.3062  0.7985 -1.3614
 6837SOL    HW232145   1.950   4.589   3.115 -1.8770 -0.7625 -0.3941
 6838SOL     OW32146   3.257   0.069  13.817 -0.4893  0.1247  0.3241
 6838SOL    HW132147   3.201   0.082  13.740  2.2137  1.4063 -1.4307
 6838SOL    HW232148   3.187   0.031  13.870 -1.0743  1.5480  0.5735
 6839SOL     OW32149   1.446   1.425   6.530 -0.0839 -0.0029 -0.0795
 6839SOL    HW132150   1.407   1.349   6.573 -2.1873  1.2363  0.1645
 6839SOL    HW232151   1.447   1.396   6.439  1.5963 -1.5198  0.4227
 6840SOL     OW32152   0.819   4.544   7.130  0.1089 -0.0055  0.3829
 6840SOL    HW132153   0.878   4.619   7.135  0.6069 -0.4092  0.5384
 6840SOL    HW232154   0.889   4.488   7.162  0.2773  0.7786  1.4038
 6841SOL     OW32155   1.034   4.229  12.078  0.1913 -0.0832 -0.0338
 6841SOL    HW132156   1.087   4.153  12.102 -0.1278 -0.1062  0.6060
 6841SOL    HW232157   1.088   4.299  12.040 -0.4481  0.3430 -0.1631
 6842SOL     OW32158   1.728   0.616   4.000 -0.4233  0.5667 -0.3912
 6842SOL    HW132159   1.802   0.673   3.976 -0.2625  1.0215  1.2141
 6842SOL    HW232160   1.766   0.551   4.059  0.2062  1.9903  0.7722
 6843SOL     OW32161   3.830   2.352   7.671  0.0576  0.1480  0.2167
 6843SOL    HW132162   3.843   2.446   7.678 -1.5944  0.3555  0.3867
 6843SOL    HW232163   3.853   2.323   7.760  3.4395  4.5454  0.7359
 6844SOL     OW32164   3.930   0.990   9.677 -0.0505  0.1678  0.1931
 6844SOL    HW132165   3.902   1.006   9.767  1.9018  0.8912  0.6683
 6844SOL    HW232166   3.973   0.905   9.670  0.3310  0.4599 -1.0885
 6845SOL     OW32167   2.339   2.719   6.249  0.4406  0.1533 -0.0466
 6845SOL    HW132168   2.416   2.742   6.197 -0.6512  1.0213 -1.2834
 6845SOL    HW232169   2.296   2.651   6.198  0.5723  0.7054 -0.8976
 6846SOL     OW32170   4.228   1.717   4.389 -0.6407 -0.0097  0.3821
 6846SOL    HW132171   4.149   1.763   4.360 -1.1245 -0.8056  0.4222
 6846SOL    HW232172   4.297   1.769   4.347 -1.2984  0.6494  0.1327
 6847SOL     OW32173   3.163   2.678   8.030 -0.6049 -0.3376 -0.3356
 6847SOL    HW132174   3.227   2.694   8.100  1.3078  0.5164 -2.2723
 6847SOL    HW232175   3.093   2.635   8.079  1.1888 -1.1481  1.5418
 6848SOL     OW32176   4.206   1.786   6.859 -0.1269 -0.9013 -0.5134
 6848SOL    HW132177   4.208   1.733   6.939 -2.3844 -0.8134 -0.4036
 6848SOL    HW232178   4.125   1.760   6.815  1.1021 -2.7796 -1.7040
 6849SOL     OW32179   4.252   2.651   1.742 -0.0984  0.0541  0.0716
 6849SOL    HW132180   4.243   2.561   1.711 -2.2723  0.3963 -0.2925
 6849SOL    HW232181   4.346   2.664   1.730 -0.0843 -0.0296  0.0926
 6850SOL     OW32182   2.120   1.515  14.863 -0.1899  0.2586 -0.1038
 6850SOL    HW132183   2.119   1.456  14.788  0.9709 -0.8691  0.7479
 6850SOL    HW232184   2.028   1.537  14.854 -0.0477  0.9755  0.1559
 6851SOL     OW32185   2.556   4.016   3.426  0.5273 -0.1987  0.1496
 6851SOL    HW132186   2.605   3.941   3.457  3.6949  1.3823 -1.0432
 6851SOL    HW232187   2.624   4.077   3.398 -0.6289  0.4906 -1.1677
 6852SOL     OW32188   0.581   3.096   7.946 -0.4558 -0.1983 -0.2544
 6852SOL    HW132189   0.522   3.049   7.887  0.5745 -0.1973 -1.2779
 6852SOL    HW232190   0.537   3.182   7.945  0.0732  0.0746 -0.0382
 6853SOL     OW32191   4.658   1.130   6.485 -0.0880  0.4734  0.3628
 6853SOL    HW132192   4.640   1.103   6.575  0.9560  0.6204  0.6200
 6853SOL    HW232193   4.690   1.219   6.494  0.2800  0.3774  0.0323
 6854SOL     OW32194   2.020   4.237   1.573  0.4779 -0.4905  0.0917
 6854SOL    HW132195   2.090   4.181   1.606  0.8224 -0.8222 -1.2064
 6854SOL    HW232196   1.994   4.191   1.493 -0.1824 -1.1469  0.6831
 6855SOL     OW32197   4.319   1.575   7.173 -0.7732 -0.2633 -0.0823
 6855SOL    HW132198   4.327   1.542   7.263  0.1345  1.0950  0.3389
 6855SOL    HW232199   4.226   1.558   7.165 -1.5491  3.7962  0.6371
 6856SOL     OW32200   2.313   0.858   5.739 -0.0517 -0.2074 -0.1658
 6856SOL    HW132201   2.328   0.775   5.694 -0.8921  0.0499 -0.9163
 6856SOL    HW232202   2.233   0.839   5.788  1.4063 -0.2275  2.2173
 6857SOL     OW32203   0.541   1.243   8.230  0.1203 -0.2589 -0.3136
 6857SOL    HW132204   0.609   1.181   8.207 -0.6129 -1.1380 -0.1069
 6857SOL    HW232205   0.557   1.247   8.324 -0.5261  0.2074 -0.2198
 6858SOL     OW32206   2.622   0.012   7.333  0.2264  0.3485 -0.1274
 6858SOL    HW132207   2.695   0.029   7.391  0.0883  1.1635 -0.2024
 6858SOL    HW232208   2.559   0.067   7.379  1.8613  1.3972  0.8625
 6859SOL     OW32209   4.112   2.915   8.645 -0.5151  0.0304  0.6496
 6859SOL    HW132210   4.186   2.875   8.689  0.6178  0.8453 -0.5299
 6859SOL    HW232211   4.151   2.981   8.589 -2.7583  0.3275 -0.5846
 6860SOL     OW32212   3.296   0.073   4.350  0.9658  0.2549  0.2972
 6860SOL    HW132213   3.325   0.163   4.367  0.6494  0.3750  0.2163
 6860SOL    HW232214   3.245   0.084   4.270 -0.3512 -0.3181  1.0637
 6861SOL     OW32215   2.330   3.012   2.235  0.1334 -0.5576 -0.4165
 6861SOL    HW132216   2.345   3.073   2.307  0.5827  1.1086 -1.9211
 6861SOL    HW232217   2.335   3.069   2.159  0.2591  0.2914  0.2293
 6862SOL     OW32218   0.065   0.147   4.768 -0.2306 -0.3104  0.1303
 6862SOL    HW132219   0.098   0.199   4.695 -3.0032  0.6880 -0.4076
 6862SOL    HW232220   4.719   0.114   4.738 -0.8881  0.2788  1.3427
 6863SOL     OW32221   1.688   1.393  15.502 -0.0327  0.0712 -0.1107
 6863SOL    HW132222   1.621   1.396  15.434 -1.7663 -0.5963  1.5775
 6863SOL    HW232223   1.643   1.389  15.586  1.1543  0.2947  0.5309
 6864SOL     OW32224   4.739   0.926   2.623 -0.1683 -0.7614  0.1169
 6864SOL    HW132225   0.091   0.908   2.644  0.3742  0.7692 -0.8752
 6864SOL    HW232226   0.007   0.980   2.544 -1.8274 -0.9372 -0.1715
 6865SOL     OW32227   0.141   3.709   6.239  0.0485 -0.2001  0.4097
 6865SOL    HW132228   0.095   3.644   6.293  2.1113 -1.6000  0.4907
 6865SOL    HW232229   0.134   3.785   6.296 -0.5793  0.9355 -1.1893
 6866SOL     OW32230   0.292   1.334   7.798 -0.3660 -0.2766  0.0819
 6866SOL    HW132231   0.315   1.306   7.886  1.7015  2.0949  0.2773
 6866SOL    HW232232   0.308   1.427   7.814 -1.7333 -0.0263  0.0169
 6867SOL     OW32233   1.244   0.488   5.942 -0.3502 -0.4840 -0.1160
 6867SOL    HW132234   1.165   0.541   5.928  0.9420  1.1631 -1.0860
 6867SOL    HW232235   1.204   0.425   6.002 -0.4599 -0.5669 -0.2732
 6868SOL     OW32236   4.103   2.785  14.463  0.5832 -0.3632 -0.0315
 6868SOL    HW132237   4.150   2.798  14.380  0.3006  5.2111  0.6786
 6868SOL    HW232238   4.084   2.692  14.468 -2.1947  0.1020 -1.4331
 6869SOL     OW32239   3.096   1.748   2.670  0.1207 -0.6204 -0.3133
 6869SOL    HW132240   3.146   1.822   2.636 -1.8526 -0.9192 -3.8050
 6869SOL    HW232241   3.014   1.735   2.622  0.4016 -0.9481 -0.7042
 6870SOL     OW32242   1.572   3.035  15.197  0.6895 -0.5793 -0.2899
 6870SOL    HW132243   1.515   2.966  15.230 -3.0900  1.4957 -2.4119
 6870SOL    HW232244   1.639   2.979  15.161  0.0160 -1.5882  0.0335
 6871SOL     OW32245   3.884   1.812   6.614  0.1232 -0.0047 -0.2681
 6871SOL    HW132246   3.905   1.905   6.622  0.4529 -0.1560  0.5803
 6871SOL    HW232247   3.878   1.785   6.705 -2.7197  0.2766 -0.3630
 6872SOL     OW32248   3.036   4.713   8.597 -0.9929 -0.2817 -0.0079
 6872SOL    HW132249   3.062   4.694   8.687 -1.9067 -2.4321 -0.2221
 6872SOL    HW232250   3.053   4.630   8.553  2.1425 -0.0317  0.7471
 6873SOL     OW32251   1.251   4.026   5.380  0.2503 -0.0510  0.5683
 6873SOL    HW132252   1.214   4.098   5.329  0.9810  0.9942  1.5339
 6873SOL    HW232253   1.248   4.066   5.467  0.0166 -1.6537  1.2970
 6874SOL     OW32254   3.080   1.950   6.218 -0.4699 -0.1019 -0.5722
 6874SOL    HW132255   3.163   1.937   6.173  0.3149 -0.4752  0.9994
 6874SOL    HW232256   3.045   1.860   6.217 -1.2591  0.2016 -0.5343
 6875SOL     OW32257   2.823   0.484   5.609 -0.0574 -0.8016  0.1145
 6875SOL    HW132258   2.885   0.527   5.666 -1.1679  2.3727 -1.0876
 6875SOL    HW232259   2.842   0.391   5.621 -1.9476 -1.1735  0.3094
 6876SOL     OW32260   0.094   2.366   7.630 -0.2271 -0.2576  0.5547
 6876SOL    HW132261   0.046   2.434   7.677 -0.4586 -0.0530  0.0220
 6876SOL    HW232262   0.023   2.337   7.573 -0.2809 -2.2355  1.6221
 6877SOL     OW32263   0.727   2.621  14.856  0.4956 -0.1704 -0.5105
 6877SOL    HW132264   0.764   2.643  14.942  3.0308 -2.2815 -1.0680
 6877SOL    HW232265   0.736   2.526  14.854 -0.6445 -0.2514 -1.5554
 6878SOL     OW32266   1.815   2.370  11.993  0.0629 -0.2290  0.5824
 6878SOL    HW132267   1.752   2.298  11.990 -1.7501  1.2375  2.6805
 6878SOL    HW232268   1.777   2.418  12.067 -2.2960 -1.8788  0.4343
 6879SOL     OW32269   1.298   1.236  11.070  0.0877  0.1021 -0.3320
 6879SOL    HW132270   1.323   1.144  11.055  1.4900  0.4952 -0.4099
 6879SOL    HW232271   1.346   1.253  11.152 -0.8926  2.6604 -0.3019
 6880SOL     OW32272   2.853   1.964   7.399  0.1367  0.1134  0.4202
 6880SOL    HW132273   2.903   1.897   7.353 -1.2191 -0.3767 -0.3226
 6880SOL    HW232274   2.764   1.931   7.400  0.7430 -1.5207 -0.3082
 6881SOL     OW32275   0.363   2.374   4.878 -0.3895 -0.1495  0.4881
 6881SOL    HW132276   0.276   2.356   4.841  1.0759 -2.3678 -1.8690
 6881SOL    HW232277   0.419   2.365   4.801  1.1272 -1.6378  1.7750
 6882SOL     OW32278   2.836   2.492   0.678  0.5724  0.0702 -0.3168
 6882SOL    HW132279   2.751   2.534   0.691  0.7465 -0.4775  2.6194
 6882SOL    HW232280   2.829   2.494   0.583  0.9998  1.3362 -0.3327
 6883SOL     OW32281   0.948   4.517   5.506  0.0715  0.0642  0.1879
 6883SOL    HW132282   1.039   4.530   5.532 -0.4733  1.1983  1.5334
 6883SOL    HW232283   0.894   4.564   5.569  0.6898  1.6613 -0.4681
 6884SOL     OW32284   1.350   4.567  13.595 -0.4203 -0.1700  0.4624
 6884SOL    HW132285   1.385   4.652  13.623 -1.2209  0.2088  0.3246
 6884SOL    HW232286   1.322   4.526  13.677 -2.0764 -0.6008 -0.3240
 6885SOL     OW32287   4.649   3.333   0.875  0.0323 -0.1392 -0.3355
 6885SOL    HW132288   4.625   3.381   0.953  1.0524 -1.6387  0.8974
 6885SOL    HW232289   4.684   3.403   0.819  0.8321  0.3018  0.7263
 6886SOL     OW32290   3.914   2.029  14.130 -0.1325  0.0060 -0.0982
 6886SOL    HW132291   3.999   2.017  14.173  0.6278  0.9043 -1.3499
 6886SOL    HW232292   3.870   1.961  14.180 -0.2141  1.0126  1.2023
 6887SOL     OW32293   3.598   4.661   8.197 -0.6957 -0.2001 -0.5962
 6887SOL    HW132294   3.577   4.711   8.118  0.0790  1.6984  0.4071
 6887SOL    HW232295   3.513   4.621   8.214 -1.0414  0.3183 -1.0899
 6888SOL     OW32296   1.670   2.276   8.427 -0.6413 -0.1917  0.1057
 6888SOL    HW132297   1.627   2.360   8.442 -0.9789 -0.7171  2.0655
 6888SOL    HW232298   1.614   2.217   8.476 -0.3446 -0.7440 -0.2150
 6889SOL     OW32299   2.179   4.723  11.383  0.1025 -0.1598  0.5570
 6889SOL    HW132300   2.262   0.020  11.353  1.0704 -2.2220  0.7252
 6889SOL    HW232301   2.116   0.044  11.342 -0.7074  0.3721  2.5812
 6890SOL     OW32302   1.605   3.358  14.518  0.1843  0.1373  0.6395
 6890SOL    HW132303   1.680   3.301  14.502 -2.4052 -1.7015 -4.8270
 6890SOL    HW232304   1.548   3.346  14.442  1.0169  1.6984 -0.2327
 6891SOL     OW32305   0.587   4.196   8.969  0.0707 -0.3405 -0.0572
 6891SOL    HW132306   0.513   4.256   8.976 -1.1795 -1.8820 -0.3145
 6891SOL    HW232307   0.554   4.110   8.944  1.0479 -0.5776 -0.5534
 6892SOL     OW32308   0.016   0.704   5.216  0.0868 -0.8587 -0.4560
 6892SOL    HW132309   4.688   0.655   5.262 -0.9401  0.2036 -0.8196
 6892SOL    HW232310   4.696   0.756   5.161  0.1440  0.4092  0.7016
 6893SOL     OW32311   2.725   2.543   4.763  0.4049 -0.2908 -0.5987
 6893SOL    HW132312   2.768   2.582   4.839 -1.0427  0.6493 -0.2644
 6893SOL    HW232313   2.710   2.628   4.721 -2.6987 -0.1640  0.7415
 6894SOL     OW32314   4.430   2.253   4.073 -0.9945 -0.5899 -0.1947
 6894SOL    HW132315   4.432   2.348   4.080 -0.3258 -0.4658 -2.0405
 6894SOL    HW232316   4.518   2.224   4.096 -0.8619 -0.2463 -0.2705
 6895SOL     OW32317   3.723   3.317   0.257 -0.4178  0.5028  0.5319
 6895SOL    HW132318   3.630   3.296   0.258 -0.1305 -0.7501 -0.1438
 6895SOL    HW232319   3.758   3.260   0.325  1.0228  0.4295 -0.2715
 6896SOL     OW32320   2.798   4.572   5.930  0.0225 -0.4086  0.0158
 6896SOL    HW132321   2.823   4.609   5.845  0.2039 -0.7137 -0.0611
 6896SOL    HW232322   2.871   4.613   5.976 -0.7390 -0.5340  1.3346
 6897SOL     OW32323   1.211   2.341   1.683  0.1153 -0.5009 -0.0675
 6897SOL    HW132324   1.192   2.251   1.656 -1.5337  0.0600 -0.8456
 6897SOL    HW232325   1.119   2.370   1.681  0.6366  1.1400 -0.1286
 6898SOL     OW32326   3.652   0.967   7.970  0.3854  0.2647 -0.4562
 6898SOL    HW132327   3.688   0.882   7.946  1.0152  1.3179 -3.3282
 6898SOL    HW232328   3.686   0.978   8.059  2.5906  1.7154 -1.4899
 6899SOL     OW32329   3.106   4.440   9.715  0.5172  0.1093  0.3386
 6899SOL    HW132330   3.018   4.475   9.700  0.8643  0.5662 -0.6173
 6899SOL    HW232331   3.089   4.390   9.795  2.8169 -0.9474  0.1722
 6900SOL     OW32332   3.783   3.409   4.696 -0.0670  0.0004 -0.4018
 6900SOL    HW132333   3.820   3.496   4.683  3.1621 -1.2510  0.2906
 6900SOL    HW232334   3.769   3.405   4.791  0.9188  1.3749 -0.2021
 6901SOL     OW32335   1.111   2.931  16.098 -0.2358 -0.6952  0.7211
 6901SOL    HW132336   1.042   2.989  16.066 -0.7888 -2.9301 -2.2199
 6901SOL    HW232337   1.187   2.987  16.113  1.3760 -2.9000  0.7978
 6902SOL     OW32338   1.424   0.604  17.168  0.1058  0.1866  0.1137
 6902SOL    HW132339   1.398   0.581  17.258 -0.4597  0.8989  0.1398
 6902SOL    HW232340   1.502   0.549  17.162  0.2507  0.6261 -1.8958
 6903SOL     OW32341   4.142   0.752   9.160 -0.8022 -0.0844  0.9056
 6903SOL    HW132342   4.167   0.832   9.113 -0.0773 -0.2381  1.0326
 6903SOL    HW232343   4.094   0.785   9.236 -1.1859  0.4519  0.4294
 6904SOL     OW32344   3.164   2.744  11.314  0.3665 -0.1550  0.0828
 6904SOL    HW132345   3.250   2.746  11.272 -0.2405 -0.9939 -1.2089
 6904SOL    HW232346   3.189   2.722  11.403  2.0751  0.5340 -0.2285
 6905SOL     OW32347   3.384   2.628   4.489  0.4112 -0.1519  0.2017
 6905SOL    HW132348   3.295   2.602   4.515  0.3571 -2.7370 -2.5473
 6905SOL    HW232349   3.393   2.720   4.511  0.1711 -0.0564 -0.1029
 6906SOL     OW32350   2.397   0.270   7.208  0.0769  0.2297  0.4597
 6906SOL    HW132351   2.308   0.306   7.200  1.5183  3.0304 -2.5992
 6906SOL    HW232352   2.427   0.332   7.275 -3.5049  0.0681  2.2508
 6907SOL     OW32353   0.127   1.008   3.321  0.3401 -0.2532 -0.0230
 6907SOL    HW132354   0.203   0.972   3.274  1.6470 -1.0558  2.7027
 6907SOL    HW232355   0.154   1.008   3.413  1.3686  3.0574 -0.3012
 6908SOL     OW32356   2.613   4.602   3.126  0.1715  0.2393 -0.1877
 6908SOL    HW132357   2.531   4.639   3.159  0.1391  0.6006 -0.6764
 6908SOL    HW232358   2.618   4.508   3.143 -0.7084  0.2844  0.3333
 6909SOL     OW32359   0.406   1.183  15.761 -0.2446  0.5701 -0.5898
 6909SOL    HW132360   0.390   1.236  15.683  0.1757 -1.3191 -1.9837
 6909SOL    HW232361   0.461   1.117  15.719 -1.2444 -0.1329 -0.7937
 6910SOL     OW32362   4.408   2.244   2.183  0.1467 -0.8234  0.2228
 6910SOL    HW132363   4.394   2.169   2.125 -1.1153  0.4220 -1.0747
 6910SOL    HW232364   4.426   2.204   2.269 -0.4241 -0.7507  0.3777
 6911SOL     OW32365   0.727   0.688  17.131  0.3363  0.8213  0.2410
 6911SOL    HW132366   0.684   0.603  17.140 -0.3133  1.1446  0.1502
 6911SOL    HW232367   0.668   0.759  17.157 -0.7472  0.3398 -0.9149
 6912SOL     OW32368   2.743   4.018  13.256 -0.7234  0.3483  0.3230
 6912SOL    HW132369   2.755   3.979  13.170  1.3355  0.8735  0.3768
 6912SOL    HW232370   2.648   4.013  13.259 -0.8846  2.3391 -1.4573
 6913SOL     OW32371   1.899   3.931  11.723 -0.9834 -0.1795 -0.0286
 6913SOL    HW132372   1.850   4.011  11.702  0.6963  1.3760  1.9822
 6913SOL    HW232373   1.991   3.955  11.716 -1.2600  1.1511  0.9164
 6914SOL     OW32374   3.138   0.254   2.430  0.1314 -0.5888 -0.2086
 6914SOL    HW132375   3.166   0.310   2.503 -0.9912 -0.9779  0.5235
 6914SOL    HW232376   3.125   0.320   2.362  1.3353 -0.0057  0.1245
 6915SOL     OW32377   4.219   4.491   3.472  0.0702 -0.4610  0.5645
 6915SOL    HW132378   4.247   4.579   3.448 -0.1441  0.0647  2.2316
 6915SOL    HW232379   4.140   4.515   3.520 -0.0595  0.7765 -0.2738
 6916SOL     OW32380   1.435   2.789   8.084  0.6095 -0.1282 -0.1923
 6916SOL    HW132381   1.403   2.846   8.154  0.9165 -0.9313  0.6099
 6916SOL    HW232382   1.442   2.709   8.137 -3.0859  1.0746  2.1361
 6917SOL     OW32383   0.296   2.897   4.387  0.1087 -0.4950  0.0609
 6917SOL    HW132384   0.348   2.948   4.450 -0.1311 -0.8706  0.5666
 6917SOL    HW232385   0.215   2.901   4.438 -1.1814  2.0119 -2.1529
 6918SOL     OW32386   3.609   3.068   6.054 -0.2347  0.2747  0.4722
 6918SOL    HW132387   3.690   3.019   6.040 -1.3287 -1.7491  1.2671
 6918SOL    HW232388   3.614   3.122   5.975 -2.4016  1.7789  1.3716
 6919SOL     OW32389   2.862   2.901   7.853 -0.1350  0.0385 -0.3206
 6919SOL    HW132390   2.845   2.858   7.937 -0.5940 -1.3160 -1.1146
 6919SOL    HW232391   2.957   2.896   7.842 -0.4703 -0.6285 -2.7658
 6920SOL     OW32392   1.283   1.935  13.304  0.4704  0.0094  0.5734
 6920SOL    HW132393   1.279   2.031  13.311 -0.6600  0.0574 -0.9196
 6920SOL    HW232394   1.247   1.906  13.387 -1.4481  0.2660 -0.1729
 6921SOL     OW32395   1.099   0.762   8.420 -0.3677 -0.3845  0.3810
 6921SOL    HW132396   1.174   0.805   8.463 -0.4018 -1.9623  2.0077
 6921SOL    HW232397   1.040   0.833   8.396  0.5104  0.6651  1.3211
 6922SOL     OW32398   3.388   4.485   8.757  0.1961  0.0324  0.0991
 6922SOL    HW132399   3.389   4.563   8.702  0.0209  0.5855  0.9008
 6922SOL    HW232400   3.312   4.503   8.812 -1.0812  0.2323 -1.7000
 6923SOL     OW32401   3.555   2.574   5.724  0.7135  0.0557 -0.6282
 6923SOL    HW132402   3.578   2.543   5.636  2.2768  0.2432 -0.2889
 6923SOL    HW232403   3.467   2.608   5.715  0.4742 -0.2526  0.5101
 6924SOL     OW32404   1.927   1.503  15.494 -0.1127 -0.2870  0.4164
 6924SOL    HW132405   1.842   1.476  15.460 -0.3031  1.1798 -0.2461
 6924SOL    HW232406   1.963   1.421  15.529  2.1078  0.0569 -1.0334
 6925SOL     OW32407   1.760   1.840   4.449  0.2793  0.1074  0.2332
 6925SOL    HW132408   1.668   1.816   4.458  0.1023  0.8838  0.4968
 6925SOL    HW232409   1.766   1.896   4.526 -2.4766  2.4946 -1.2728
 6926SOL     OW32410   4.205   0.323   2.672 -0.0657 -0.5703  0.3141
 6926SOL    HW132411   4.217   0.402   2.619  0.2706 -1.2542 -0.6200
 6926SOL    HW232412   4.288   0.277   2.658 -0.2714 -0.6025 -0.8305
 6927SOL     OW32413   1.552   3.173   1.952 -0.3203 -0.0346 -0.4144
 6927SOL    HW132414   1.564   3.078   1.949  0.8007  0.0252  2.4778
 6927SOL    HW232415   1.638   3.210   1.931 -0.0903  0.8810  2.1262
 6928SOL     OW32416   2.278   0.885  11.307 -0.3137  0.5079  0.2357
 6928SOL    HW132417   2.262   0.799  11.268 -0.9719  0.2948  0.9842
 6928SOL    HW232418   2.333   0.921  11.237 -0.4036 -0.9963 -0.6070
 6929SOL     OW32419   1.185   2.459   4.128 -0.1367  0.1139  0.5311
 6929SOL    HW132420   1.269   2.461   4.082 -0.3276 -1.6433  0.0990
 6929SOL    HW232421   1.146   2.380   4.091  1.5011 -1.7087  2.7083
 6930SOL     OW32422   0.255   2.774  12.032  0.1233  0.0721 -0.5280
 6930SOL    HW132423   0.244   2.841  12.099  1.6334 -3.0341  2.8161
 6930SOL    HW232424   0.167   2.777  11.995  0.3056  0.0768 -0.9694
 6931SOL     OW32425   1.919   0.033   9.688  0.3098  0.0968 -0.3528
 6931SOL    HW132426   1.869   4.699   9.724  0.5212  0.2553  0.2637
 6931SOL    HW232427   1.865   0.042   9.609  0.3301 -2.3959 -0.6353
 6932SOL     OW32428   1.600   4.725   3.083 -0.3680  0.6407 -0.3803
 6932SOL    HW132429   1.589   4.696   2.992  0.3926 -1.1062  0.0892
 6932SOL    HW232430   1.685   4.687   3.106 -0.2710  0.9068 -0.3050
 6933SOL     OW32431   0.693   1.370   5.517  0.1792  0.4623  0.4684
 6933SOL    HW132432   0.774   1.372   5.569  2.4593  2.1330 -3.1774
 6933SOL    HW232433   0.674   1.279   5.541  0.9889  0.1886  0.0573
 6934SOL     OW32434   2.213   2.954   2.844  0.3032 -0.0688  0.4026
 6934SOL    HW132435   2.269   3.031   2.855  0.0479  0.4615 -2.0304
 6934SOL    HW232436   2.180   2.943   2.934 -1.0865 -2.6030 -0.4236
 6935SOL     OW32437   4.482   1.031   7.354  0.3261 -0.3440  0.7029
 6935SOL    HW132438   4.483   1.069   7.266  2.9654 -0.9258  0.4994
 6935SOL    HW232439   4.530   0.950   7.334  2.2572  0.8993  0.3566
 6936SOL     OW32440   3.865   0.549   3.822  0.0321  0.0041  0.5623
 6936SOL    HW132441   3.938   0.608   3.807  0.2151 -0.3106  0.2184
 6936SOL    HW232442   3.902   0.461   3.828 -0.4954 -0.1496  1.6868
 6937SOL     OW32443   3.551   2.603   1.245  0.3355 -0.2033 -0.5535
 6937SOL    HW132444   3.545   2.521   1.197  1.5434 -0.9518  0.5823
 6937SOL    HW232445   3.551   2.663   1.170 -1.4427  2.2242  1.3870
 6938SOL     OW32446   1.545   0.586   5.981 -0.5568 -0.4057 -0.7221
 6938SOL    HW132447   1.574   0.528   6.051  1.5818  1.1950 -0.2737
 6938SOL    HW232448   1.473   0.536   5.944 -1.0034 -0.9856  0.9647
 6939SOL     OW32449   2.830   0.599  13.705 -0.9930  0.6694 -0.0688
 6939SOL    HW132450   2.887   0.585  13.629 -1.0136 -0.9450  0.2202
 6939SOL    HW232451   2.741   0.592  13.672 -1.3369 -0.7506  1.1338
 6940SOL     OW32452   0.580   1.996  15.462 -0.7069  0.0248  0.2096
 6940SOL    HW132453   0.553   2.042  15.542 -0.7903  1.3364 -0.5687
 6940SOL    HW232454   0.669   2.029  15.453 -0.3085 -1.3484 -0.8507
 6941SOL     OW32455   4.240   1.338   0.921 -0.4082  0.2724  0.0194
 6941SOL    HW132456   4.320   1.375   0.885  0.2116 -0.0799  1.0502
 6941SOL    HW232457   4.182   1.348   0.845 -1.8939 -2.7411  0.7423
 6942SOL     OW32458   2.822   0.328   6.650 -0.0284 -0.0593  0.2243
 6942SOL    HW132459   2.891   0.392   6.636  0.5987 -0.1559  2.9327
 6942SOL    HW232460   2.845   0.292   6.736  0.0279  2.3995  1.2178
 6943SOL     OW32461   3.612   0.310   0.718  0.3817 -0.3331 -0.3642
 6943SOL    HW132462   3.548   0.364   0.766  0.8700 -0.9847  1.0109
 6943SOL    HW232463   3.552   0.249   0.675 -0.0629 -0.0096 -0.2071
 6944SOL     OW32464   4.464   3.069  10.269  0.1093 -0.6166  0.4154
 6944SOL    HW132465   4.548   3.114  10.283 -0.8405  0.5067  2.5385
 6944SOL    HW232466   4.487   2.977  10.258  0.9205 -0.4036  0.3469
 6945SOL     OW32467   1.440   1.574   8.414  0.8930  0.2590 -0.1959
 6945SOL    HW132468   1.380   1.509   8.379 -0.7422  0.4970  2.1329
 6945SOL    HW232469   1.465   1.617   8.332  2.6255 -2.3261 -1.0096
 6946SOL     OW32470   0.583   4.113  17.180 -0.0855 -0.8249 -0.4575
 6946SOL    HW132471   0.522   4.181  17.209 -0.0434 -0.6293 -0.8254
 6946SOL    HW232472   0.647   4.161  17.127 -0.0067  0.1628  0.5369
 6947SOL     OW32473   0.275   2.719   6.214  0.1033 -0.1722  0.0849
 6947SOL    HW132474   0.270   2.693   6.122  0.5087  2.4761 -0.6623
 6947SOL    HW232475   0.362   2.681   6.231  0.1831 -0.6579 -1.3896
 6948SOL     OW32476   0.152   3.335   8.779 -0.1962 -0.1641  0.0100
 6948SOL    HW132477   0.061   3.317   8.754 -0.5367  2.3119 -0.4947
 6948SOL    HW232478   0.192   3.252   8.807  2.0422  0.9080  0.0032
 6949SOL     OW32479   4.444   4.532   4.927 -0.0583 -0.2260  0.5726
 6949SOL    HW132480   4.359   4.543   4.970 -1.0076 -0.1630 -1.3179
 6949SOL    HW232481   4.481   4.620   4.939  1.9909 -1.2777  1.9853
 6950SOL     OW32482   0.056   3.285   2.495  0.7190 -0.7875  0.6796
 6950SOL    HW132483   0.109   3.232   2.555  0.2610 -1.9423  0.0632
 6950SOL    HW232484   0.033   3.221   2.429 -0.9605  1.6808 -1.1348
 6951SOL     OW32485   1.731   0.750   5.046  0.5491 -0.1917  0.7725
 6951SOL    HW132486   1.805   0.804   5.016 -0.2675  1.0405  0.9756
 6951SOL    HW232487   1.668   0.812   5.082  0.9630  0.5403  0.2604
 6952SOL     OW32488   3.862   3.195  16.971  0.1321 -0.1120  0.1280
 6952SOL    HW132489   3.851   3.290  16.969  1.8456  0.0458 -1.7271
 6952SOL    HW232490   3.865   3.173  17.064  0.1237 -0.2609  0.0917
 6953SOL     OW32491   0.504   2.795  10.682  0.0462  0.7530 -0.1741
 6953SOL    HW132492   0.567   2.867  10.685  0.2931  0.5453 -0.3642
 6953SOL    HW232493   0.560   2.733  10.729  0.3916 -0.2030 -1.8593
 6954SOL     OW32494   2.202   3.991   5.901 -0.5828  0.1698  0.2908
 6954SOL    HW132495   2.212   3.957   5.990 -0.2379 -0.1660  0.1231
 6954SOL    HW232496   2.267   4.060   5.894 -1.2858  0.3845 -4.4594
 6955SOL     OW32497   4.109   4.378   2.643  0.4137 -0.2055 -0.4904
 6955SOL    HW132498   4.024   4.340   2.665  1.0556 -1.3377  0.0342
 6955SOL    HW232499   4.171   4.307   2.658 -0.4357 -0.9585 -0.5187
 6956SOL     OW32500   2.507   4.356   9.788  0.2741 -0.6342 -0.1359
 6956SOL    HW132501   2.423   4.337   9.745 -0.6721 -1.0237  1.8670
 6956SOL    HW232502   2.506   4.276   9.841 -3.2192 -0.7752 -0.3703
 6957SOL     OW32503   0.713   3.340   8.685  0.0462 -0.2500  0.7338
 6957SOL    HW132504   0.764   3.286   8.626 -1.7815 -2.6645  1.3634
 6957SOL    HW232505   0.760   3.358   8.766  1.9786  0.6717 -0.5852
 6958SOL     OW32506   1.611   4.708   4.053 -0.2828  0.0876 -0.0742
 6958SOL    HW132507   1.681   4.692   4.116  0.9849  1.2948 -1.1801
 6958SOL    HW232508   1.548   4.638   4.068 -0.1805 -0.0832 -0.4339
 6959SOL     OW32509   1.675   3.612   5.478  0.6742 -0.0122  0.4121
 6959SOL    HW132510   1.746   3.659   5.435 -0.1661  1.8325  1.0094
 6959SOL    HW232511   1.609   3.641   5.416 -1.7320 -2.7081  1.7502
 6960SOL     OW32512   1.817   4.644   7.397  0.1393 -0.0636  0.0591
 6960SOL    HW132513   1.815   4.567   7.455  1.3709 -0.4167 -0.3643
 6960SOL    HW232514   1.739   4.688   7.431  1.4182  2.3839 -0.2227
 6961SOL     OW32515   2.003   3.550   6.055 -0.0574 -0.1764  0.4692
 6961SOL    HW132516   1.948   3.545   6.134 -0.3642  2.6323  0.4351
 6961SOL    HW232517   2.086   3.526   6.096  1.3827  1.0944 -1.7380
 6962SOL     OW32518   2.963   3.600   9.658  0.1188  0.3167  0.3160
 6962SOL    HW132519   2.906   3.675   9.641  2.2856  1.6367 -1.1919
 6962SOL    HW232520   2.909   3.566   9.729 -0.3221 -1.9146 -1.0828
 6963SOL     OW32521   2.370   1.155   9.700  0.1440 -0.5169 -0.0348
 6963SOL    HW132522   2.409   1.202   9.774  0.1307 -2.0015  0.9061
 6963SOL    HW232523   2.287   1.121   9.733 -0.7407  1.2150 -0.4613
 6964SOL     OW32524   2.943   4.500   9.358  0.7174 -0.2344 -0.6221
 6964SOL    HW132525   2.915   4.481   9.447  1.6008  0.1890 -0.2479
 6964SOL    HW232526   2.859   4.480   9.317  0.2041  0.9221 -0.1505
 6965SOL     OW32527   2.112   0.229   9.763  0.0171 -0.0241 -0.9013
 6965SOL    HW132528   2.035   0.173   9.754 -1.7554  2.0617  1.3272
 6965SOL    HW232529   2.172   0.201   9.694  1.4052 -1.6622  0.9710
 6966SOL     OW32530   2.829   4.285   4.210 -0.1267 -0.3837 -1.2364
 6966SOL    HW132531   2.736   4.264   4.212 -0.4246  1.0860 -0.2814
 6966SOL    HW232532   2.871   4.224   4.271 -0.8985  1.5413  1.2094
 6967SOL     OW32533   0.112   2.746   8.645 -0.3602  0.2098  0.5076
 6967SOL    HW132534   0.137   2.838   8.630 -1.7509  0.3909 -0.7039
 6967SOL    HW232535   0.203   2.720   8.663 -0.7714 -0.9312  0.9122
 6968SOL     OW32536   1.761   2.240   5.977  0.4954  0.5240  0.1506
 6968SOL    HW132537   1.856   2.241   5.975  0.4793 -2.5578 -1.6837
 6968SOL    HW232538   1.751   2.303   6.049 -0.1118  0.1654  0.3857
 6969SOL     OW32539   4.197   4.143  15.225 -0.0655 -0.2980  0.2923
 6969SOL    HW132540   4.267   4.139  15.290  0.8060  0.3867 -0.5899
 6969SOL    HW232541   4.210   4.226  15.178 -1.3855 -1.0223 -1.3606
 6970SOL     OW32542   3.054   3.499   4.901  0.3285  0.3091 -0.2803
 6970SOL    HW132543   3.004   3.456   4.832 -0.8453  0.8714  0.2259
 6970SOL    HW232544   3.007   3.464   4.977  0.5847 -0.1047 -0.3124
 6971SOL     OW32545   3.041   2.284   7.759 -0.0235  0.8187 -0.0235
 6971SOL    HW132546   3.135   2.284   7.780 -0.0601 -1.3798  0.0944
 6971SOL    HW232547   3.027   2.194   7.729  0.1409  0.6108  0.5064
 6972SOL     OW32548   2.246   4.551   2.160 -0.0886  0.1638  0.1834
 6972SOL    HW132549   2.238   4.592   2.246  0.7788  0.8922 -0.0838
 6972SOL    HW232550   2.169   4.591   2.120 -0.2495  0.4356  0.7792
 6973SOL     OW32551   3.736   3.426   4.950 -0.0140  0.6048  0.5849
 6973SOL    HW132552   3.654   3.378   4.962 -1.0780  2.4512  0.5823
 6973SOL    HW232553   3.784   3.397   5.027  1.2090 -0.1757 -0.4686
 6974SOL     OW32554   0.806   0.567   5.392  0.4177  0.1260  0.4865
 6974SOL    HW132555   0.767   0.537   5.310  1.3592 -1.7115  0.7138
 6974SOL    HW232556   0.736   0.552   5.456  2.3213  1.7707  2.9545
 6975SOL     OW32557   0.606   0.025   6.284  0.0286 -0.1058  0.2451
 6975SOL    HW132558   0.617   0.074   6.365 -2.1014 -1.2600  1.2653
 6975SOL    HW232559   0.639   0.093   6.226 -0.0018  0.1456  0.5238
 6976SOL     OW32560   0.776   4.310   7.853 -0.1732 -0.1323 -0.2067
 6976SOL    HW132561   0.685   4.321   7.883  0.0154  0.6537  0.0962
 6976SOL    HW232562   0.794   4.399   7.822 -0.0056 -0.2865 -0.5447
 6977SOL     OW32563   0.735   2.036   2.163 -0.0563  0.3278 -0.1025
 6977SOL    HW132564   0.677   2.108   2.191  1.8236  1.5689  0.6082
 6977SOL    HW232565   0.755   1.994   2.247 -1.4963  1.5261  0.8414
 6978SOL     OW32566   1.994   4.555  13.463  0.6205  0.5553  0.2501
 6978SOL    HW132567   2.020   4.582  13.551 -2.5018 -1.2443  1.7059
 6978SOL    HW232568   1.951   4.637  13.439 -0.2533  0.7046  2.3205
 6979SOL     OW32569   1.320   0.285   6.851  0.0278  0.3891  0.4245
 6979SOL    HW132570   1.369   0.276   6.770 -0.5051  1.2855  0.0087
 6979SOL    HW232571   1.234   0.317   6.824  0.3344  0.6422 -0.2490
 6980SOL     OW32572   4.032   2.080  12.377 -0.4133 -0.0677  0.2771
 6980SOL    HW132573   3.975   2.004  12.363  0.6070 -0.1756 -3.3017
 6980SOL    HW232574   3.999   2.116  12.459 -2.0410 -1.2959  0.1527
 6981SOL     OW32575   1.532   1.864   6.536  0.0750  0.5682 -0.3426
 6981SOL    HW132576   1.516   1.793   6.474 -0.5084  1.0710 -0.7677
 6981SOL    HW232577   1.514   1.812   6.614  0.1971  0.7112 -0.2201
 6982SOL     OW32578   1.917   0.240   6.687  0.3610 -0.0762 -0.6439
 6982SOL    HW132579   2.008   0.269   6.679 -0.0378  1.3335  0.0205
 6982SOL    HW232580   1.925   0.156   6.733  1.0762  0.7707  0.8029
 6983SOL     OW32581   2.488   2.177   0.870  0.3099  0.7683  0.5956
 6983SOL    HW132582   2.544   2.254   0.872  2.0165 -0.5128  1.8380
 6983SOL    HW232583   2.539   2.132   0.803 -0.5986 -1.5521  1.4558
 6984SOL     OW32584   4.388   3.498   4.638 -0.1143  0.0778 -0.2462
 6984SOL    HW132585   4.297   3.528   4.647 -0.2254 -0.4196  0.3048
 6984SOL    HW232586   4.419   3.557   4.570 -0.1071  1.0123  0.5578
 6985SOL     OW32587   2.736   4.475  17.004 -0.1095 -0.4957  0.4405
 6985SOL    HW132588   2.733   4.554  16.951  0.7584 -0.5956  0.2372
 6985SOL    HW232589   2.785   4.505  17.080  0.7889 -0.4151 -0.1723
 6986SOL     OW32590   3.702   1.512   8.430  0.3298 -0.3237 -0.0854
 6986SOL    HW132591   3.673   1.601   8.450 -1.5508 -0.3577 -2.6539
 6986SOL    HW232592   3.660   1.502   8.345 -0.0976  2.2038 -0.1858
 6987SOL     OW32593   0.250   3.229   6.777  1.0352 -0.1702 -0.9379
 6987SOL    HW132594   0.281   3.229   6.686  0.7812 -2.1448 -1.0054
 6987SOL    HW232595   0.198   3.309   6.784 -1.0317 -1.5326 -1.0137
 6988SOL     OW32596   4.575   4.062   4.295  0.1325  0.9205  0.1559
 6988SOL    HW132597   4.541   4.052   4.205 -0.1546  1.5842  0.1913
 6988SOL    HW232598   4.550   4.154   4.306 -0.1381  1.3423 -3.9535
 6989SOL     OW32599   3.845   4.710   3.807  0.1251  0.2479 -0.2831
 6989SOL    HW132600   3.752   4.718   3.785 -0.2907  1.2090  1.7986
 6989SOL    HW232601   3.841   4.676   3.896  0.6490  0.9274  0.0033
 6990SOL     OW32602   4.629   3.155   1.591 -0.0362  0.8064  0.0977
 6990SOL    HW132603   4.716   3.147   1.630  0.5218 -0.9714 -1.5432
 6990SOL    HW232604   4.639   3.084   1.528 -3.7253 -0.1291  0.5825
 6991SOL     OW32605   1.477   0.173  12.525  0.1694 -0.2626 -0.4449
 6991SOL    HW132606   1.553   0.231  12.517  0.4488 -0.3530  1.5837
 6991SOL    HW232607   1.485   0.168  12.621 -1.5225 -0.1996 -0.3039
 6992SOL     OW32608   3.004   3.272   0.827  0.0089 -0.0004 -0.0294
 6992SOL    HW132609   2.995   3.292   0.920  0.8983  0.3415 -0.0214
 6992SOL    HW232610   2.961   3.187   0.827 -3.8309  1.9128 -3.4634
 6993SOL     OW32611   4.217   4.010   3.207  0.1168 -0.3489  0.0677
 6993SOL    HW132612   4.206   4.064   3.285  1.2040  1.4059 -0.9917
 6993SOL    HW232613   4.214   4.070   3.133  0.0362 -0.2449  0.1557
 6994SOL     OW32614   3.317   0.327  13.969 -0.5874 -0.4133  0.1850
 6994SOL    HW132615   3.282   0.263  13.907  0.2853 -1.8660  1.2006
 6994SOL    HW232616   3.391   0.276  14.003  0.6952  1.2949 -0.0494
 6995SOL     OW32617   3.770   4.102  10.514 -0.1790 -0.0007 -0.2915
 6995SOL    HW132618   3.805   4.192  10.514  3.5191 -1.4217 -0.5589
 6995SOL    HW232619   3.784   4.084  10.607 -1.0586  2.5611  0.3403
 6996SOL     OW32620   4.532   1.588  16.034 -0.2006 -0.2245 -0.2625
 6996SOL    HW132621   4.604   1.589  15.971  0.1085  2.9062  0.1486
 6996SOL    HW232622   4.479   1.516  16.000 -2.7591  2.1068 -1.1516
 6997SOL     OW32623   3.430   3.869   5.470 -0.1135 -1.4414 -0.2149
 6997SOL    HW132624   3.438   3.834   5.559 -0.2923 -1.1165 -0.0686
 6997SOL    HW232625   3.503   3.826   5.426  1.5563  0.0396  1.0827
 6998SOL     OW32626   0.500   3.540   1.889 -1.1140  0.3286  0.2242
 6998SOL    HW132627   0.526   3.455   1.925  0.8259  0.5307 -0.6790
 6998SOL    HW232628   0.534   3.595   1.959  2.3596 -0.6863 -0.6370
 6999SOL     OW32629   0.102   4.546   5.518  0.1110  0.8664 -0.0258
 6999SOL    HW132630   0.162   4.621   5.514  1.4200 -0.0651  2.1785
 6999SOL    HW232631   0.134   4.489   5.448 -0.0809 -0.1837  0.7572
 7000SOL     OW32632   4.707   1.568  10.323 -0.5317  0.2692 -0.0888
 7000SOL    HW132633   4.656   1.491  10.349  1.5573  0.0951  3.5022
 7000SOL    HW232634   4.642   1.637  10.318  1.1774  2.0001  1.6388
 7001SOL     OW32635   2.816   0.939  14.605  0.4983 -1.2564 -0.0093
 7001SOL    HW132636   2.894   0.992  14.621  0.8443 -2.2117  1.5354
 7001SOL    HW232637   2.789   0.970  14.519  1.4449 -0.7976 -0.1380
 7002SOL     OW32638   1.447   1.730   8.675  0.2338 -0.2228 -0.0990
 7002SOL    HW132639   1.529   1.776   8.654 -1.2956  1.5371 -2.1717
 7002SOL    HW232640   1.424   1.679   8.597 -1.2811 -0.3702  0.4564
 7003SOL     OW32641   3.911   3.738   3.411  0.4126  0.3292  0.8748
 7003SOL    HW132642   3.835   3.680   3.401  2.4016 -2.3418  1.3585
 7003SOL    HW232643   3.980   3.694   3.363 -1.1100 -2.0026  0.8404
 7004SOL     OW32644   1.616   0.261   3.797  0.5717  0.4837 -0.1037
 7004SOL    HW132645   1.525   0.238   3.814  0.1823  1.9252 -0.2605
 7004SOL    HW232646   1.652   0.180   3.761 -3.1238 -0.9845 -0.4770
 7005SOL     OW32647   4.523   2.083   6.157  0.0908 -0.3664 -0.1718
 7005SOL    HW132648   4.486   2.105   6.242 -0.1867  2.4097 -0.9828
 7005SOL    HW232649   4.493   1.994   6.142 -2.7414  0.3644  1.2641
 7006SOL     OW32650   2.405   3.131   5.057  0.0732  0.0104 -0.3132
 7006SOL    HW132651   2.310   3.119   5.063  0.6436 -5.2366 -2.0000
 7006SOL    HW232652   2.431   3.128   5.149  1.9023 -1.5550 -0.8671
 7007SOL     OW32653   3.858   0.280   1.175 -0.1637 -0.2003 -0.3318
 7007SOL    HW132654   3.774   0.250   1.141  0.3130 -0.9792 -0.8427
 7007SOL    HW232655   3.906   0.197   1.168  1.3421  0.7844 -1.8420
 7008SOL     OW32656   2.498   2.204   3.335 -0.0278 -0.5265  0.4847
 7008SOL    HW132657   2.523   2.174   3.423 -0.2762 -0.2834  0.6375
 7008SOL    HW232658   2.433   2.136   3.319  0.5221 -0.8027 -0.6180
 7009SOL     OW32659   3.941   0.980   8.949  0.3624 -0.1726 -0.3727
 7009SOL    HW132660   3.888   0.932   9.013  0.5168  0.5871  0.3064
 7009SOL    HW232661   3.922   0.932   8.868  0.3177 -0.6529 -0.0764
 7010SOL     OW32662   0.841   1.652   4.865 -0.4746 -0.2870 -0.3840
 7010SOL    HW132663   0.831   1.605   4.948 -0.7201 -0.5339 -0.5533
 7010SOL    HW232664   0.934   1.638   4.846 -0.5364 -3.4006  1.6183
 7011SOL     OW32665   3.682   0.677   1.013  0.1038 -0.2676  0.1307
 7011SOL    HW132666   3.634   0.616   1.069  2.0451 -1.7790  0.1571
 7011SOL    HW232667   3.747   0.709   1.076  0.4402 -0.2905 -0.2090
 7012SOL     OW32668   0.376   2.080  15.996  0.2286 -0.0669  0.1357
 7012SOL    HW132669   0.456   2.032  16.016  0.4738 -0.5467 -1.9580
 7012SOL    HW232670   0.309   2.031  16.043 -0.9817 -0.4429 -1.9732
 7013SOL     OW32671   3.675   0.425   7.217  0.4483  0.1608 -0.1325
 7013SOL    HW132672   3.769   0.405   7.211 -0.1320 -1.9417 -2.4364
 7013SOL    HW232673   3.662   0.458   7.128  2.2962 -1.2141 -0.9258
 7014SOL     OW32674   1.226   4.673  11.820  0.3159  0.0205 -0.3038
 7014SOL    HW132675   1.300   4.722  11.855 -0.4497 -0.7922  2.4624
 7014SOL    HW232676   1.156   4.712  11.873  0.4252  0.3045 -0.3702
 7015SOL     OW32677   4.204   0.636   6.916 -0.5161  0.1028 -0.2346
 7015SOL    HW132678   4.155   0.554   6.925  0.8597 -0.7033 -0.1107
 7015SOL    HW232679   4.273   0.607   6.856  1.9998  2.5517  1.5553
 7016SOL     OW32680   3.048   4.185  16.635  0.0397 -0.0731  0.2384
 7016SOL    HW132681   3.063   4.100  16.677  0.8961 -1.2692 -2.5333
 7016SOL    HW232682   3.098   4.234  16.700 -0.3823  0.0006  0.5080
 7017SOL     OW32683   2.170   3.488   3.539  0.2833 -0.0195 -0.1191
 7017SOL    HW132684   2.244   3.448   3.494 -0.5653  0.3401 -1.8377
 7017SOL    HW232685   2.163   3.578   3.507 -0.1239  0.2407  0.6955
 7018SOL     OW32686   3.456   3.060   1.506 -0.6489  0.0263 -0.7726
 7018SOL    HW132687   3.516   3.036   1.576 -0.3204  2.8621 -0.1075
 7018SOL    HW232688   3.511   3.077   1.429  1.1092  0.8775  0.6848
 7019SOL     OW32689   4.194   0.550  17.582  0.4790 -0.3996  0.2609
 7019SOL    HW132690   4.157   0.638  17.580  0.8242 -0.2748 -0.6721
 7019SOL    HW232691   4.124   0.495  17.618 -1.6915  1.6163 -0.9270
 7020SOL     OW32692   0.853   2.559   4.248  0.5127 -0.1362 -0.1814
 7020SOL    HW132693   0.934   2.609   4.249  0.4200  0.0312 -1.2120
 7020SOL    HW232694   0.849   2.520   4.160  0.9012  0.5512 -0.5003
 7021SOL     OW32695   2.733   1.286   3.119  0.0321 -0.1146 -0.4504
 7021SOL    HW132696   2.721   1.299   3.213 -1.3522  0.1657 -0.6539
 7021SOL    HW232697   2.770   1.370   3.091  0.2926 -0.9324 -2.5774
 7022SOL     OW32698   0.138   4.421  16.795  0.0616 -0.2236  0.2385
 7022SOL    HW132699   0.095   4.441  16.879  3.0635  2.5015  1.1309
 7022SOL    HW232700   0.061   4.429  16.738 -0.7327 -0.8707  1.2256
 7023SOL     OW32701   0.480   0.285   4.864 -0.4816  0.7803 -0.3402
 7023SOL    HW132702   0.473   0.230   4.786 -1.3583  1.1744 -0.5439
 7023SOL    HW232703   0.391   0.316   4.881 -1.7178 -2.7795 -0.5088
 7024SOL     OW32704   1.822   1.757  15.380  0.2231  0.0135  0.5167
 7024SOL    HW132705   1.741   1.714  15.352 -0.0298 -0.6126  2.1879
 7024SOL    HW232706   1.878   1.680  15.384  1.1047  0.6149 -0.2490
 7025SOL     OW32707   1.554   1.681  15.336 -0.5394 -0.0777 -0.1500
 7025SOL    HW132708   1.480   1.699  15.278 -1.1856 -2.0256  0.0897
 7025SOL    HW232709   1.513   1.641  15.412 -0.3939 -0.7209 -0.4127
 7026SOL     OW32710   4.454   3.630   8.323  0.5329  0.0210  0.3595
 7026SOL    HW132711   4.517   3.702   8.326 -0.2257  0.7175 -0.4436
 7026SOL    HW232712   4.437   3.615   8.230  1.3711  0.8797  0.0580
 7027SOL     OW32713   1.753   0.895  13.332 -0.2754  0.2149 -0.2254
 7027SOL    HW132714   1.777   0.973  13.283  0.3328  0.0849 -0.1426
 7027SOL    HW232715   1.741   0.922  13.423 -0.6769  0.2368 -0.2879
 7028SOL     OW32716   1.420   3.342   5.959 -0.0734  0.0538  0.1819
 7028SOL    HW132717   1.477   3.315   5.888  0.3125 -2.7148  1.5528
 7028SOL    HW232718   1.410   3.437   5.946 -0.7310 -0.3652 -2.4047
 7029SOL     OW32719   3.404   2.892   6.272 -0.3547 -0.6053 -0.5607
 7029SOL    HW132720   3.453   2.973   6.285 -1.5542 -0.0771  0.6876
 7029SOL    HW232721   3.362   2.912   6.188  1.6228  0.4288 -1.2939
 7030SOL     OW32722   2.458   2.173   4.920  0.1460  0.0253 -0.6642
 7030SOL    HW132723   2.397   2.174   4.846  1.5753 -0.9943 -1.8417
 7030SOL    HW232724   2.508   2.255   4.915  0.5266 -0.1726 -0.0537
 7031SOL     OW32725   0.124   2.730   6.475  0.1076  0.1235  0.1727
 7031SOL    HW132726   0.189   2.752   6.407 -1.6452  1.3348 -1.0902
 7031SOL    HW232727   0.151   2.639   6.492 -1.4937 -0.3397  0.2111
 7032SOL     OW32728   0.545   2.099  12.120  0.6586 -0.3656 -0.0484
 7032SOL    HW132729   0.614   2.138  12.174 -0.9075  0.9524  0.9830
 7032SOL    HW232730   0.487   2.174  12.118  1.4526  0.3052  1.6563
 7033SOL     OW32731   2.015   1.145   6.500  0.2533 -0.6494  0.0189
 7033SOL    HW132732   1.955   1.077   6.531 -0.3594  0.0537  0.3592
 7033SOL    HW232733   2.005   1.214   6.565 -1.0288 -1.4691  0.6787
 7034SOL     OW32734   4.597   1.954   1.149  0.3603  0.0058  0.1549
 7034SOL    HW132735   4.623   1.937   1.240  0.8209 -3.1100 -0.5596
 7034SOL    HW232736   4.558   2.041   1.154 -1.2593 -0.6778 -0.4863
 7035SOL     OW32737   1.482   1.101  10.046 -0.1215  0.7535  0.8199
 7035SOL    HW132738   1.431   1.028  10.013  0.4202  1.2059 -1.0676
 7035SOL    HW232739   1.557   1.112   9.986 -1.4713 -2.3745 -1.4532
 7036SOL     OW32740   0.986   0.313   4.140  0.6634 -0.0151  0.0368
 7036SOL    HW132741   0.955   0.360   4.062 -3.3914  0.9012  2.1840
 7036SOL    HW232742   1.034   0.251   4.085  1.6324  0.6881  0.0900
 7037SOL     OW32743   2.122   2.652   5.587 -0.4484  0.3651 -0.2148
 7037SOL    HW132744   2.135   2.704   5.508 -2.0451 -1.9781 -2.0203
 7037SOL    HW232745   2.100   2.718   5.653 -0.8082  0.3783 -0.3486
 7038SOL     OW32746   2.830   4.463   4.935  0.4226  0.0871  0.0429
 7038SOL    HW132747   2.883   4.473   4.856  2.3361 -2.3153  1.0036
 7038SOL    HW232748   2.791   4.376   4.930  1.1005 -0.0730 -2.3646
 7039SOL     OW32749   4.091   2.027   1.459  0.2642 -0.5586  0.5274
 7039SOL    HW132750   4.179   2.059   1.482  1.2164 -2.1821 -0.8029
 7039SOL    HW232751   4.078   1.945   1.507  0.9615 -1.4441 -0.7885
 7040SOL     OW32752   2.831   3.988   9.954  0.6135  0.0199  0.0752
 7040SOL    HW132753   2.827   4.026  10.042 -2.4841 -1.0593  0.3848
 7040SOL    HW232754   2.926   3.999   9.950  0.9573 -2.7951  0.5438
 7041SOL     OW32755   1.853   1.701   5.429  0.4034 -0.2200  0.8165
 7041SOL    HW132756   1.916   1.770   5.405 -0.2286  0.6902  1.7714
 7041SOL    HW232757   1.884   1.668   5.513  0.5032 -0.9947  0.4728
 7042SOL     OW32758   2.706   3.866   6.625  0.2984  0.1388  0.1233
 7042SOL    HW132759   2.787   3.894   6.668  0.7592  0.4300 -0.9270
 7042SOL    HW232760   2.744   3.792   6.578 -0.4797  0.2707 -0.7050
 7043SOL     OW32761   2.889   1.767   6.410  0.4168 -0.1591  0.2863
 7043SOL    HW132762   2.958   1.701   6.406 -1.1707 -1.7304 -1.0885
 7043SOL    HW232763   2.912   1.793   6.499  0.2639 -0.2053  0.3399
 7044SOL     OW32764   2.913   3.234   3.478  0.1989  0.5267  0.1174
 7044SOL    HW132765   2.827   3.258   3.511 -1.3450 -1.6573 -2.3538
 7044SOL    HW232766   2.966   3.314   3.485  0.8218 -0.0273  1.7219
 7045SOL     OW32767   3.649   3.727  11.245 -0.0153 -0.7861 -0.0205
 7045SOL    HW132768   3.624   3.819  11.257  0.8559 -0.7731  1.8095
 7045SOL    HW232769   3.745   3.729  11.247 -0.0406  0.2708  0.4609
 7046SOL     OW32770   2.833   0.973   6.226 -0.2253 -0.3719 -0.2283
 7046SOL    HW132771   2.894   1.037   6.190  1.6777 -2.7464 -1.2786
 7046SOL    HW232772   2.808   0.933   6.143 -1.2984  0.5031 -0.3243
 7047SOL     OW32773   1.620   3.886   9.527  0.2646 -0.0624  0.1939
 7047SOL    HW132774   1.549   3.909   9.587  0.8313  1.1704  0.3976
 7047SOL    HW232775   1.646   3.809   9.577 -1.2274  0.5933  1.9849
 7048SOL     OW32776   4.095   4.396   7.972 -0.1434 -0.4408  0.2716
 7048SOL    HW132777   4.047   4.474   7.944 -0.3145  0.0541  1.9691
 7048SOL    HW232778   4.139   4.422   8.053 -0.6151 -0.9171  0.6715
 7049SOL     OW32779   1.190   0.704  14.931  0.3285  0.0480 -0.2113
 7049SOL    HW132780   1.236   0.784  14.906  0.8850 -1.2970 -3.4429
 7049SOL    HW232781   1.137   0.680  14.855  1.3342 -0.6149 -0.7062
 7050SOL     OW32782   1.907   1.327   6.660 -0.2663 -0.7220  0.6027
 7050SOL    HW132783   1.824   1.304   6.617 -1.2573  1.8897  1.0939
 7050SOL    HW232784   1.875   1.347   6.748 -1.5757  0.8658 -0.2258
 7051SOL     OW32785   2.275   1.000   9.254  0.0744  0.1805  0.0940
 7051SOL    HW132786   2.206   1.043   9.205  0.3420  0.9925  0.4305
 7051SOL    HW232787   2.285   1.072   9.316 -1.1946 -0.4514  1.0238
 7052SOL     OW32788   3.319   4.517   6.851  0.0936 -0.6726 -0.0867
 7052SOL    HW132789   3.351   4.577   6.783 -0.5659 -0.8656 -0.5590
 7052SOL    HW232790   3.384   4.448   6.840  0.6502 -0.2597  0.6108
 7053SOL     OW32791   0.522   1.049   8.458  0.1899  0.1508  0.3058
 7053SOL    HW132792   0.472   0.986   8.406 -1.1339 -0.4125  2.2785
 7053SOL    HW232793   0.451   1.099   8.497  2.0188  0.0228  3.8110
 7054SOL     OW32794   3.282   3.361   3.488 -0.1284 -0.0098 -0.2451
 7054SOL    HW132795   3.259   3.271   3.510 -0.4418  0.4752  1.3818
 7054SOL    HW232796   3.363   3.344   3.439 -0.4876 -0.1371 -0.8025
 7055SOL     OW32797   0.101   0.287  13.489  0.1981  0.0392  0.0493
 7055SOL    HW132798   0.024   0.292  13.433 -1.5648 -2.5485  2.2992
 7055SOL    HW232799   0.122   0.381  13.494 -0.5363  0.2643 -1.0443
 7056SOL     OW32800   0.307   3.347   9.267  0.0340 -0.3701 -0.1116
 7056SOL    HW132801   0.238   3.408   9.245 -1.0901 -1.4757  0.3458
 7056SOL    HW232802   0.309   3.364   9.361  2.5703  0.8475 -0.3959
 7057SOL     OW32803   2.020   0.207   7.425 -0.2958 -0.5089 -0.6100
 7057SOL    HW132804   2.021   0.303   7.424 -2.4820 -0.4826 -0.3693
 7057SOL    HW232805   1.993   0.184   7.336 -2.3120 -1.3636  0.2511
 7058SOL     OW32806   2.633   1.987   9.394  0.1085 -0.4658  0.0721
 7058SOL    HW132807   2.611   1.920   9.459  1.7183  1.0199  2.1723
 7058SOL    HW232808   2.579   1.948   9.326 -0.5605 -1.2314  1.0264
 7059SOL     OW32809   0.915   3.163  11.861  0.4318 -0.5842 -0.4574
 7059SOL    HW132810   0.913   3.237  11.801  2.7600  0.2768  0.5488
 7059SOL    HW232811   0.926   3.219  11.938 -3.1180  1.0190 -1.0995
 7060SOL     OW32812   4.116   3.543   1.257 -0.4523 -0.0560 -0.1305
 7060SOL    HW132813   4.073   3.488   1.323 -0.6393  0.5078  0.2188
 7060SOL    HW232814   4.207   3.512   1.253 -0.1182  1.0785 -1.2757
 7061SOL     OW32815   0.432   1.665  16.686  0.1931  0.5545  0.5909
 7061SOL    HW132816   0.348   1.646  16.727 -0.1296  2.9001  1.0292
 7061SOL    HW232817   0.497   1.640  16.752  0.1096  2.4904  1.4076
 7062SOL     OW32818   4.435   1.604   1.134 -0.4638 -0.3062  0.1409
 7062SOL    HW132819   4.373   1.646   1.193  1.9142  0.1911  2.3112
 7062SOL    HW232820   4.389   1.529   1.095  0.4790 -1.1670  0.6940
 7063SOL     OW32821   1.572   2.352   5.481  0.4397  0.5064 -0.0398
 7063SOL    HW132822   1.590   2.431   5.429  0.6071  0.5066  0.0200
 7063SOL    HW232823   1.628   2.371   5.556  1.1881  1.3660 -0.8208
 7064SOL     OW32824   3.234   1.724  11.750  0.3010 -0.0386 -0.4411
 7064SOL    HW132825   3.293   1.730  11.675 -2.0302  1.1666 -2.1729
 7064SOL    HW232826   3.198   1.636  11.738 -0.2709 -0.3107  3.0659
 7065SOL     OW32827   3.558   4.249   2.302  0.3368 -0.1005 -0.0479
 7065SOL    HW132828   3.611   4.172   2.282 -1.2248 -1.7578  2.3051
 7065SOL    HW232829   3.603   4.290   2.376 -2.0107  0.1571  1.2150
 7066SOL     OW32830   3.190   1.047   8.442 -0.4533  0.1284  0.5363
 7066SOL    HW132831   3.116   0.988   8.432 -0.4651  0.0145  1.3277
 7066SOL    HW232832   3.168   1.091   8.524 -1.3543 -0.5912  0.6720
 7067SOL     OW32833   3.297   2.147   4.451 -0.8871 -0.1025  0.5767
 7067SOL    HW132834   3.335   2.226   4.490 -0.2808 -0.9688  1.7578
 7067SOL    HW232835   3.347   2.083   4.501  0.5448  0.3829 -0.2532
 7068SOL     OW32836   1.368   0.784   6.598 -0.2249  0.1080  0.6041
 7068SOL    HW132837   1.329   0.868   6.623 -1.6931 -0.7605  1.2107
 7068SOL    HW232838   1.411   0.788   6.512  0.3524 -1.5453  0.8287
 7069SOL     OW32839   2.409   2.895   5.557 -0.2418  0.1120 -0.2736
 7069SOL    HW132840   2.407   2.879   5.462 -0.2481  3.1730 -0.7900
 7069SOL    HW232841   2.472   2.828   5.582 -1.1077 -0.5397  0.1544
 7070SOL     OW32842   4.235   0.004   4.212  0.2465 -0.1737  0.4036
 7070SOL    HW132843   4.249   4.695   4.293 -0.3796  0.8427  1.1254
 7070SOL    HW232844   4.218   4.672   4.150 -0.1363  1.0864 -0.9360
 7071SOL     OW32845   3.691   3.838   4.081 -0.4946  0.2228  0.2246
 7071SOL    HW132846   3.634   3.802   4.149 -0.2005 -1.5931 -0.4687
 7071SOL    HW232847   3.773   3.852   4.129  0.6366 -0.7577 -1.4045
 7072SOL     OW32848   1.991   2.466  17.277 -0.0518 -0.5424  0.4547
 7072SOL    HW132849   1.971   2.528  17.207  0.1053  1.7223  2.4248
 7072SOL    HW232850   2.085   2.482  17.276 -0.1576  0.0249 -0.9568
 7073SOL     OW32851   0.545   0.260  12.843  0.0654 -0.5697 -0.7188
 7073SOL    HW132852   0.455   0.227  12.835  0.0359 -0.9760  1.5669
 7073SOL    HW232853   0.599   0.188  12.873 -0.3358 -0.6074 -0.0988
 7074SOL     OW32854   1.042   1.547  14.891  0.4283 -0.1803 -0.6280
 7074SOL    HW132855   0.965   1.541  14.948 -0.1280  0.5352 -1.2986
 7074SOL    HW232856   1.037   1.636  14.855  0.1106 -0.1333 -0.4683
 7075SOL     OW32857   0.760   2.139   6.901  0.3303  0.3146 -0.3630
 7075SOL    HW132858   0.764   2.149   6.805 -1.0425 -4.2656 -0.9002
 7075SOL    HW232859   0.710   2.058   6.903  1.6585 -0.4668  0.9075
 7076SOL     OW32860   2.943   2.568   1.681 -0.5080 -0.4296 -0.3822
 7076SOL    HW132861   3.038   2.573   1.674 -0.4770 -0.3042  0.1646
 7076SOL    HW232862   2.923   2.632   1.612 -2.5416  0.5290  1.1140
 7077SOL     OW32863   2.509   1.427   5.458  0.2297  0.3667  0.2401
 7077SOL    HW132864   2.482   1.381   5.536  0.4570  1.1746  0.7970
 7077SOL    HW232865   2.436   1.482   5.428  1.1395  2.1217  1.2519
 7078SOL     OW32866   3.868   2.979  16.548 -0.2608 -0.3840  0.1075
 7078SOL    HW132867   3.892   3.065  16.514  0.5552 -0.5801  0.1781
 7078SOL    HW232868   3.947   2.953  16.595 -0.7990 -1.1426  0.5912
 7079SOL     OW32869   3.836   3.201   2.358 -0.5021 -0.1974  0.8197
 7079SOL    HW132870   3.770   3.163   2.301  1.5226 -0.3512 -1.3913
 7079SOL    HW232871   3.904   3.234   2.300  1.2803  0.3428  3.1897
 7080SOL     OW32872   1.560   3.354   7.085 -0.4798 -0.1211  0.1213
 7080SOL    HW132873   1.629   3.385   7.027 -0.8182  4.0476  1.9453
 7080SOL    HW232874   1.594   3.268   7.112 -0.9279 -0.1226  0.6913
 7081SOL     OW32875   3.786   1.699   5.275 -0.1142 -0.5967  0.4609
 7081SOL    HW132876   3.740   1.741   5.348 -0.6890  1.6026 -1.1472
 7081SOL    HW232877   3.784   1.606   5.297 -0.0955 -0.6022  0.4398
 7082SOL     OW32878   0.670   0.574   1.661 -0.0687  0.2648  0.4194
 7082SOL    HW132879   0.677   0.566   1.757 -0.3542 -2.6277  0.2152
 7082SOL    HW232880   0.719   0.499   1.628  0.6003  0.8911  0.0035
 7083SOL     OW32881   2.279   1.492   8.403  0.1595  0.2524 -0.8992
 7083SOL    HW132882   2.274   1.465   8.495  1.5017  3.1326  0.0044
 7083SOL    HW232883   2.276   1.408   8.357 -1.3830 -0.1452 -0.0963
 7084SOL     OW32884   3.586   3.120  13.878  0.0622 -0.5055 -0.0893
 7084SOL    HW132885   3.606   3.203  13.920  1.1524 -0.8127  0.0078
 7084SOL    HW232886   3.507   3.087  13.922 -0.3933  0.8406  0.0813
 7085SOL     OW32887   3.047   1.832   0.740 -0.1953 -0.5407  0.1983
 7085SOL    HW132888   3.103   1.769   0.783  0.8389  0.0695 -0.2542
 7085SOL    HW232889   3.100   1.911   0.743 -2.1317  0.7436  0.8630
 7086SOL     OW32890   1.838   0.886   6.541  0.6967 -0.0855 -0.3001
 7086SOL    HW132891   1.775   0.815   6.524  0.1556 -0.5439  3.6701
 7086SOL    HW232892   1.919   0.837   6.523  0.5680  0.0829 -1.3700
 7087SOL     OW32893   4.669   4.472   7.272  0.0481  0.0658  0.3895
 7087SOL    HW132894   4.714   4.389   7.286  0.6449  0.6280  1.8449
 7087SOL    HW232895   4.585   4.460   7.316  1.6214  0.1611  3.4411
 7088SOL     OW32896   0.739   2.351   7.121  0.5344 -0.2439  0.1465
 7088SOL    HW132897   0.742   2.272   7.066 -0.2259 -0.0431 -0.1806
 7088SOL    HW232898   0.812   2.397   7.081 -0.0220  0.9078  0.4726
 7089SOL     OW32899   1.893   3.900  14.643 -0.0230 -0.5143 -0.1387
 7089SOL    HW132900   1.902   3.830  14.708 -0.8866  0.6346  1.2114
 7089SOL    HW232901   1.940   3.855  14.572 -1.6795 -1.2570 -0.7775
 7090SOL     OW32902   3.343   0.367   9.408 -0.3538  0.1246 -0.2441
 7090SOL    HW132903   3.396   0.339   9.334  0.5831  1.0531  0.0760
 7090SOL    HW232904   3.254   0.373   9.374 -0.2524  1.0936 -0.3506
 7091SOL     OW32905   1.307   0.007   8.726  0.3390 -0.2817 -1.2820
 7091SOL    HW132906   1.271   4.685   8.790 -2.5810  2.9855  0.2211
 7091SOL    HW232907   1.238   0.006   8.660 -0.8761  0.8970 -0.0394
 7092SOL     OW32908   0.654   2.590  16.524  0.3349  0.4355 -0.4307
 7092SOL    HW132909   0.621   2.659  16.467 -1.4918 -0.3942 -0.3909
 7092SOL    HW232910   0.694   2.537  16.455  0.0734  0.0430 -0.2817
 7093SOL     OW32911   4.242   1.028   9.714  0.2434  0.2118 -0.0635
 7093SOL    HW132912   4.158   1.073   9.703  0.8700  1.3252 -0.3305
 7093SOL    HW232913   4.253   1.013   9.621  0.5825  2.0118 -0.3239
 7094SOL     OW32914   4.586   0.052   8.805 -0.0998  0.2629  0.0347
 7094SOL    HW132915   4.613   0.135   8.842  1.5468 -1.1054  1.8828
 7094SOL    HW232916   4.559   0.002   8.883  0.5442 -1.1224 -0.6331
 7095SOL     OW32917   4.628   2.310   9.123 -0.8057  0.2939  0.0925
 7095SOL    HW132918   4.665   2.381   9.070  0.5417 -0.9522 -0.6453
 7095SOL    HW232919   4.670   2.319   9.209 -0.7108  0.8326 -0.0090
 7096SOL     OW32920   0.918   0.748   2.268 -0.0616  0.9580  0.1038
 7096SOL    HW132921   0.845   0.711   2.219  0.6320 -0.6105  0.2643
 7096SOL    HW232922   0.884   0.734   2.356 -0.0193  0.8140  0.0977
 7097SOL     OW32923   0.553   2.191   3.704  0.0823 -0.1568  0.2859
 7097SOL    HW132924   0.473   2.233   3.672  0.4039 -0.3141 -0.7466
 7097SOL    HW232925   0.538   2.102   3.672 -0.9826 -0.7875  2.5440
 7098SOL     OW32926   1.991   3.809   4.491  0.0635  0.2072 -0.1867
 7098SOL    HW132927   1.966   3.717   4.483 -0.6575  0.2994  1.0754
 7098SOL    HW232928   2.083   3.793   4.516  0.8753  1.0435 -2.6335
 7099SOL     OW32929   2.536   4.013  16.310  0.5520 -0.2139 -0.2019
 7099SOL    HW132930   2.471   4.026  16.241 -0.7797  0.3527  1.1592
 7099SOL    HW232931   2.519   4.091  16.363 -2.2978  0.7729 -2.5930
 7100SOL     OW32932   1.637   2.314   7.424  0.5271 -0.5686 -0.4783
 7100SOL    HW132933   1.699   2.385   7.437  0.3679 -0.4078 -0.5868
 7100SOL    HW232934   1.573   2.363   7.371  2.1629  2.8069  0.7471
 7101SOL     OW32935   0.105   2.076  12.506  0.6130  0.1884 -0.2942
 7101SOL    HW132936   0.089   2.154  12.560  1.0831  0.8896 -1.1736
 7101SOL    HW232937   0.189   2.105  12.470  1.2460 -0.7356  0.4334
 7102SOL     OW32938   4.315   0.007   3.855 -0.3865 -0.0408 -0.1243
 7102SOL    HW132939   4.245   4.711   3.910  0.2876 -0.1946  0.6412
 7102SOL    HW232940   4.296   4.714   3.768  0.8554  0.8182 -0.7237
 7103SOL     OW32941   0.776   2.791   7.335  0.2353  0.9538  0.0408
 7103SOL    HW132942   0.851   2.736   7.312  0.9087  2.1651 -0.6784
 7103SOL    HW232943   0.813   2.848   7.403  0.5900 -1.0618  1.5472
 7104SOL     OW32944   0.810   4.040  14.986 -0.7860  0.3116 -0.5255
 7104SOL    HW132945   0.758   3.986  14.926  2.8750 -3.7117 -0.0459
 7104SOL    HW232946   0.869   4.087  14.928 -0.5831  0.6172 -0.0658
 7105SOL     OW32947   0.623   1.753  15.589 -0.3228 -0.2582  0.6107
 7105SOL    HW132948   0.563   1.825  15.569 -1.1395 -0.3607  2.7214
 7105SOL    HW232949   0.552   1.690  15.600 -1.1823  0.4267 -1.0894
 7106SOL     OW32950   1.719   2.473   5.668 -0.2525  0.1023 -0.4204
 7106SOL    HW132951   1.802   2.515   5.693  1.5950 -3.1019 -1.1464
 7106SOL    HW232952   1.659   2.486   5.742  1.6251 -0.1256  1.1728
 7107SOL     OW32953   4.733   3.741   8.018 -0.1161 -0.0460  0.7794
 7107SOL    HW132954   0.055   3.666   8.018  1.0246  0.8702 -1.8596
 7107SOL    HW232955   4.739   3.765   7.926 -3.1633 -2.2446  0.0075
 7108SOL     OW32956   3.157   2.976   4.468  0.6899  0.6185  0.0396
 7108SOL    HW132957   3.125   2.925   4.394  1.5994 -0.3074  0.2767
 7108SOL    HW232958   3.087   2.957   4.530  0.1075 -0.7773 -1.0697
 7109SOL     OW32959   0.358   0.227   7.601  0.1538  0.2514  0.4106
 7109SOL    HW132960   0.326   0.217   7.512  3.0300 -0.2659 -0.5824
 7109SOL    HW232961   0.367   0.138   7.637  0.7018  0.4582  0.7838
 7110SOL     OW32962   2.173   2.576  10.725 -0.5000 -0.0700  0.5795
 7110SOL    HW132963   2.109   2.637  10.762  0.1473  0.1609  1.3075
 7110SOL    HW232964   2.253   2.628  10.711 -0.4142 -0.6219 -1.0004
 7111SOL     OW32965   4.595   1.578   7.480 -1.1511  0.2788 -0.7179
 7111SOL    HW132966   4.511   1.533   7.472  0.4727 -2.6838 -0.9440
 7111SOL    HW232967   4.642   1.563   7.399 -1.5170  1.8478 -1.2331
 7112SOL     OW32968   3.280   1.196  11.534 -0.2037 -0.2323  0.4593
 7112SOL    HW132969   3.279   1.127  11.601 -1.0619  1.3705  2.1179
 7112SOL    HW232970   3.323   1.269  11.578 -1.1541  1.1278 -0.8725
 7113SOL     OW32971   2.035   0.914  13.640 -0.0398  0.4069 -0.3619
 7113SOL    HW132972   2.099   0.868  13.586  0.2359 -1.3705  1.4827
 7113SOL    HW232973   2.094   0.944  13.709 -1.1624  1.4326  0.1584
 7114SOL     OW32974   3.572   4.485   3.179  0.5177  0.1263 -0.2251
 7114SOL    HW132975   3.575   4.414   3.116  0.5640 -0.2963  0.2549
 7114SOL    HW232976   3.645   4.535   3.141 -1.4683  2.9373 -0.3761
 7115SOL     OW32977   0.906   1.252   8.483 -0.0738  0.3698  0.6175
 7115SOL    HW132978   0.932   1.199   8.407 -0.5870  1.9057 -0.6369
 7115SOL    HW232979   0.887   1.335   8.439  1.5493  0.4650  0.0782
 7116SOL     OW32980   0.727   3.599  17.743  0.3093 -0.2180  0.3047
 7116SOL    HW132981   0.735   3.641  17.658  0.4763  0.7357  0.7888
 7116SOL    HW232982   0.817   3.578   0.013  1.4610  1.7232 -2.1726
 7117SOL     OW32983   3.387   3.940  10.716 -0.2758  0.0220 -0.5744
 7117SOL    HW132984   3.454   3.878  10.685  2.5108  2.3271  0.7773
 7117SOL    HW232985   3.314   3.879  10.719 -0.8537  0.8398  1.5656
 7118SOL     OW32986   0.757   0.038   4.519  0.3690 -0.4568  0.3354
 7118SOL    HW132987   0.757   0.098   4.444  3.3062 -0.4347  0.3636
 7118SOL    HW232988   0.796   4.700   4.479 -0.5670 -0.4692 -0.5514
 7119SOL     OW32989   2.116   3.327   2.910  0.1033 -0.7510 -0.0036
 7119SOL    HW132990   2.160   3.331   2.825  0.8495  0.2914  0.4422
 7119SOL    HW232991   2.027   3.307   2.880 -0.3565  0.9244  0.2515
 7120SOL     OW32992   3.636   1.308   2.582  0.4091  0.3149  0.0821
 7120SOL    HW132993   3.624   1.401   2.602 -0.9088  0.5702 -1.9103
 7120SOL    HW232994   3.612   1.309   2.490  1.9914 -0.0944 -0.3375
 7121SOL     OW32995   3.659   0.539   5.868  0.2134 -0.2266 -0.2782
 7121SOL    HW132996   3.736   0.591   5.888 -1.5258  2.2839 -0.0221
 7121SOL    HW232997   3.592   0.581   5.922  0.7514  1.8631 -1.2517
 7122SOL     OW32998   2.444   0.144   7.534  0.2743 -0.1469  0.2190
 7122SOL    HW132999   2.354   0.112   7.530 -0.3375  1.6288 -0.0297
 7122SOL    HW233000   2.471   0.120   7.623 -0.3388 -2.0505 -0.1047
 7123SOL     OW33001   1.776   2.358  12.762  0.9302 -0.0557  0.4613
 7123SOL    HW133002   1.780   2.319  12.849  1.6094  0.7124  0.7862
 7123SOL    HW233003   1.862   2.402  12.760  0.8237  0.1525  0.4479
 7124SOL     OW33004   0.016   1.038   4.299 -0.1383 -0.2856 -0.6995
 7124SOL    HW133005   0.079   1.013   4.367  0.4510  1.6044 -0.5399
 7124SOL    HW233006   0.058   1.118   4.266 -0.8189  0.2918 -0.1824
 7125SOL     OW33007   2.053   3.263  13.281  0.3653  0.5532  0.1820
 7125SOL    HW133008   2.131   3.224  13.241  0.0546 -0.8970  0.9841
 7125SOL    HW233009   1.995   3.192  13.310  0.7941  0.7127  1.4122
 7126SOL     OW33010   3.133   0.521  17.648 -0.5946 -0.2248  0.3971
 7126SOL    HW133011   3.069   0.592  17.644  1.8738  1.8961 -1.5625
 7126SOL    HW233012   3.163   0.520  17.739  0.9858 -3.1201 -0.1385
 7127SOL     OW33013   1.263   0.335   2.942  0.1488 -0.5377 -0.1140
 7127SOL    HW133014   1.307   0.375   2.867  1.3610 -0.1026  0.8373
 7127SOL    HW233015   1.185   0.304   2.895  0.0912 -0.9901  0.2830
 7128SOL     OW33016   2.824   4.523   8.967 -0.0996  0.5719 -0.0551
 7128SOL    HW133017   2.793   4.476   9.044  0.2086  0.5022  0.0255
 7128SOL    HW233018   2.818   4.445   8.911 -0.8880  1.3742 -1.0985
 7129SOL     OW33019   2.138   1.072  11.964  0.2506 -0.1646 -0.2601
 7129SOL    HW133020   2.074   1.073  12.035 -0.0413  2.6203 -0.5664
 7129SOL    HW233021   2.207   1.117  12.012  0.3813  0.6937 -1.2504
 7130SOL     OW33022   3.430   4.526   7.105 -0.1820  0.0781 -0.1391
 7130SOL    HW133023   3.419   4.515   7.011  1.7765  2.0330 -0.6168
 7130SOL    HW233024   3.440   4.621   7.113  0.4408 -0.0118  0.2171
 7131SOL     OW33025   0.581   2.874   1.104 -0.0047 -0.4792  0.5473
 7131SOL    HW133026   0.641   2.821   1.157  2.3723  1.7062 -0.0189
 7131SOL    HW233027   0.575   2.949   1.163 -0.5762  0.2857 -0.4946
 7132SOL     OW33028   3.776   4.289   4.013 -0.5159 -0.1224  0.4246
 7132SOL    HW133029   3.840   4.264   3.946 -0.2820  0.4431  0.4421
 7132SOL    HW233030   3.819   4.251   4.090 -0.5136 -0.3009  0.3362
 7133SOL     OW33031   1.750   2.053   5.352 -0.0754 -0.3306  0.6494
 7133SOL    HW133032   1.754   2.148   5.357  2.1035 -0.3468 -0.6705
 7133SOL    HW233033   1.842   2.029   5.348  0.0393 -0.1528  2.2426
 7134SOL     OW33034   4.551   4.491  15.308 -0.1859  0.0297 -0.1980
 7134SOL    HW133035   4.489   4.424  15.279 -0.9158  1.3818 -1.7361
 7134SOL    HW233036   4.621   4.468  15.247 -0.3928  0.7436 -0.7064
 7135SOL     OW33037   4.170   0.617   2.937 -0.1431 -0.4201  0.9587
 7135SOL    HW133038   4.242   0.648   2.992  0.7253 -1.1670  0.2193
 7135SOL    HW233039   4.191   0.524   2.929  0.4221 -0.1915 -0.0970
 7136SOL     OW33040   3.548   3.107   6.319 -0.1624  0.5267  0.2626
 7136SOL    HW133041   3.588   3.102   6.232 -1.0349 -0.9050 -0.0659
 7136SOL    HW233042   3.565   3.197   6.348  0.0363  1.2729 -2.1483
 7137SOL     OW33043   3.730   2.902   4.012  0.2209 -0.3961  0.0938
 7137SOL    HW133044   3.714   2.992   4.041  2.3855 -0.0201  0.1083
 7137SOL    HW233045   3.824   2.893   3.999  0.2323  1.1299 -0.8961
 7138SOL     OW33046   1.510   1.754   4.469 -0.5995  0.4277 -0.2125
 7138SOL    HW133047   1.429   1.804   4.456 -2.0205 -2.3718 -2.1120
 7138SOL    HW233048   1.515   1.736   4.563  0.2966  1.9357  0.0290
 7139SOL     OW33049   0.028   1.080   5.656 -0.5091 -0.1701  0.3849
 7139SOL    HW133050   0.087   1.016   5.614 -1.4928 -0.9691  0.2020
 7139SOL    HW233051   4.712   1.019   5.705 -3.1077  1.5205 -0.4447
 7140SOL     OW33052   3.612   3.246   7.608  0.1329 -0.2861  0.8696
 7140SOL    HW133053   3.620   3.325   7.554 -0.5308 -1.2729 -0.6757
 7140SOL    HW233054   3.525   3.215   7.585 -0.2738 -0.1037  2.1991
 7141SOL     OW33055   3.338   1.895   6.874 -0.1010  0.1965 -0.4652
 7141SOL    HW133056   3.311   1.803   6.868  1.1803 -0.2018 -0.2936
 7141SOL    HW233057   3.410   1.891   6.937  0.8736  1.4424 -1.4963
 7142SOL     OW33058   0.406   2.698  12.911 -0.5849 -0.4466  0.3896
 7142SOL    HW133059   0.355   2.730  12.837 -1.0059 -0.1982  0.7874
 7142SOL    HW233060   0.350   2.631  12.950  2.1488 -1.2879  2.8735
 7143SOL     OW33061   4.678   4.011  10.727  0.1739  0.0301  0.1715
 7143SOL    HW133062   4.717   3.947  10.787 -1.9877 -1.3830  0.0555
 7143SOL    HW233063   4.693   4.087  10.784  0.5444  1.0180 -1.2417
 7144SOL     OW33064   3.173   4.059   8.458  0.2839 -0.5883 -0.3381
 7144SOL    HW133065   3.240   4.108   8.505  0.2802 -0.7695 -0.1380
 7144SOL    HW233066   3.212   3.974   8.436 -1.4599 -1.5129  0.1312
 7145SOL     OW33067   2.099   1.015   5.270 -0.4651  0.1642 -0.7856
 7145SOL    HW133068   2.171   0.952   5.271 -0.4993  0.1886  2.5131
 7145SOL    HW233069   2.102   1.057   5.356  1.1585  0.6872 -1.0825
 7146SOL     OW33070   2.782   3.304   5.240 -0.1013 -0.1102  0.2742
 7146SOL    HW133071   2.841   3.317   5.314  1.7738  0.1996 -1.2630
 7146SOL    HW233072   2.769   3.389   5.199 -2.1380 -0.0591  1.0683
 7147SOL     OW33073   2.751   3.219   8.733 -0.0084  0.4677 -0.0030
 7147SOL    HW133074   2.772   3.186   8.645  0.1771  2.6615 -0.7859
 7147SOL    HW233075   2.839   3.231   8.769 -0.4144 -1.3929  1.5954
 7148SOL     OW33076   1.406   3.196   4.364 -0.7662  0.4672 -0.0036
 7148SOL    HW133077   1.397   3.228   4.454 -2.4599  1.0576 -0.3683
 7148SOL    HW233078   1.326   3.240   4.334 -0.2125  1.9793  0.6912
 7149SOL     OW33079   0.549   2.359   4.213 -0.2347  0.4693 -0.0025
 7149SOL    HW133080   0.605   2.326   4.142  0.2367 -2.8943  1.9291
 7149SOL    HW233081   0.616   2.371   4.280 -0.2673  0.3853  0.0454
 7150SOL     OW33082   0.714   0.901   8.580  0.3624  0.6357  0.0684
 7150SOL    HW133083   0.665   0.820   8.566  2.3597 -0.6442  0.4520
 7150SOL    HW233084   0.652   0.963   8.542  0.7782  0.6975 -0.5072
 7151SOL     OW33085   0.747   2.196  15.292  0.3658  0.2212 -0.7405
 7151SOL    HW133086   0.778   2.126  15.235  0.6504 -0.8573  0.7467
 7151SOL    HW233087   0.672   2.231  15.244 -1.5743 -1.9635  0.6731
 7152SOL     OW33088   4.357   3.426   1.320  0.0865  0.1961  0.1680
 7152SOL    HW133089   4.299   3.350   1.323  0.2070  0.1620  1.6413
 7152SOL    HW233090   4.424   3.410   1.386 -2.6375  0.2780  2.9567
 7153SOL     OW33091   4.485   2.233   5.026 -0.3012  0.1143 -0.1145
 7153SOL    HW133092   4.408   2.285   5.051 -0.8398 -1.0298  0.5803
 7153SOL    HW233093   4.550   2.298   5.054 -0.7683 -0.3492  1.9778
 7154SOL     OW33094   2.892   0.013   1.046 -0.7129  0.3379  0.1449
 7154SOL    HW133095   2.942   4.725   0.969  0.5364  2.5099  0.2105
 7154SOL    HW233096   2.861   0.098   1.013 -1.3580  0.0277 -0.0628
 7155SOL     OW33097   0.046   0.091  14.319 -0.3237  0.7390 -0.2006
 7155SOL    HW133098   0.018   0.026  14.384 -0.5162  1.7889  0.7542
 7155SOL    HW233099   4.705   0.098  14.267 -0.3744 -0.5080 -0.2979
 7156SOL     OW33100   1.468   3.022   6.890  0.5826  0.1802  0.4661
 7156SOL    HW133101   1.540   2.960   6.885  0.1739 -0.1633 -1.0522
 7156SOL    HW233102   1.494   3.085   6.823 -0.0870 -0.8501 -0.7483
 7157SOL     OW33103   4.413   0.450  16.554  0.3744  0.3284  0.5066
 7157SOL    HW133104   4.345   0.465  16.488 -0.3109 -1.7035  0.7242
 7157SOL    HW233105   4.484   0.453  16.491  1.1974 -2.3874  1.2965
 7158SOL     OW33106   2.936   3.056   4.834 -0.3255  0.1151  0.6019
 7158SOL    HW133107   2.863   3.076   4.775  0.3700 -0.9610 -0.6343
 7158SOL    HW233108   2.979   2.992   4.777  2.8564  3.3227 -0.6307
 7159SOL     OW33109   2.144   3.049   5.517  0.1192  0.0995 -0.4491
 7159SOL    HW133110   2.188   2.988   5.576 -1.0573  0.3722  0.7050
 7159SOL    HW233111   2.086   3.097   5.575 -1.6153 -0.7028 -1.5020
 7160SOL     OW33112   0.142   1.199   3.120 -0.2571  0.3414 -0.3099
 7160SOL    HW133113   0.074   1.135   3.099  0.3929  0.1819 -1.9976
 7160SOL    HW233114   0.142   1.202   3.215  0.2695  0.6263 -0.3128
 7161SOL     OW33115   1.890   2.770   3.208  0.3004  0.2600 -0.2060
 7161SOL    HW133116   1.933   2.855   3.213 -1.4464  1.2498 -1.8186
 7161SOL    HW233117   1.954   2.721   3.156 -1.0536 -0.8897 -0.7931
 7162SOL     OW33118   0.434   2.445   7.182  0.0882  0.2156  0.2849
 7162SOL    HW133119   0.516   2.484   7.152 -0.8529  3.1286  1.5566
 7162SOL    HW233120   0.428   2.367   7.126 -1.0720  0.4339  0.1152
 7163SOL     OW33121   3.523   0.241   4.894 -0.4107  0.2453  0.2129
 7163SOL    HW133122   3.485   0.267   4.810  0.4107  0.0711 -0.2079
 7163SOL    HW233123   3.570   0.319   4.922  1.8350  0.4253 -3.9981
 7164SOL     OW33124   4.648   3.254   3.049  0.0841  0.7340  0.2112
 7164SOL    HW133125   4.563   3.287   3.019  0.3480  1.1290 -0.1084
 7164SOL    HW233126   4.674   3.325   3.108 -0.2428  0.9945  0.0425
 7165SOL     OW33127   0.989   0.102   8.202  0.2343 -0.1755 -0.4201
 7165SOL    HW133128   1.068   0.128   8.249 -1.0752  1.4982  0.8688
 7165SOL    HW233129   1.018   0.127   8.114 -0.1345 -1.9073 -1.0367
 7166SOL     OW33130   2.320   1.290  16.016 -0.3835  0.3715  0.1047
 7166SOL    HW133131   2.362   1.375  16.005  0.7123 -0.1690  0.0975
 7166SOL    HW233132   2.245   1.312  16.072 -1.6954  0.9283 -1.8518
 7167SOL     OW33133   3.286   3.930   7.281  0.2595  0.4564  0.1111
 7167SOL    HW133134   3.225   3.909   7.352 -0.0449  1.2048  0.0599
 7167SOL    HW233135   3.228   3.999   7.249 -0.4134  0.3720  1.1263
 7168SOL     OW33136   3.598   2.197   7.547  0.0023  0.1917 -0.3939
 7168SOL    HW133137   3.644   2.279   7.569  1.2227 -0.5060 -0.3520
 7168SOL    HW233138   3.519   2.236   7.510 -0.1518  1.3770  1.2208
 7169SOL     OW33139   4.461   0.016   3.490 -0.6204 -0.3426 -0.0236
 7169SOL    HW133140   4.508   4.673   3.502 -2.2257 -0.9061  2.4982
 7169SOL    HW233141   4.481   0.038   3.400 -2.1067 -1.5508 -0.6606
 7170SOL     OW33142   1.907   2.810   9.007  0.3382  0.0600  0.3629
 7170SOL    HW133143   1.837   2.757   9.047  0.1140  0.8488  0.9994
 7170SOL    HW233144   1.986   2.761   9.028 -0.4632 -0.3124  2.5698
 7171SOL     OW33145   1.707   3.914   9.030 -0.5834 -0.2006  0.5288
 7171SOL    HW133146   1.783   3.860   9.054 -0.4906 -0.1104  0.4363
 7171SOL    HW233147   1.682   3.955   9.113 -1.6474 -0.5466  0.3822
 7172SOL     OW33148   4.464   3.946   0.482  0.0362  0.0785 -0.2733
 7172SOL    HW133149   4.375   3.924   0.455  0.1402 -0.1869 -0.4118
 7172SOL    HW233150   4.448   4.031   0.521 -0.0468  0.3615 -0.9259
 7173SOL     OW33151   2.313   1.349   8.650  0.4980  0.1934 -0.5524
 7173SOL    HW133152   2.295   1.416   8.717 -0.1261  0.5083 -1.0276
 7173SOL    HW233153   2.252   1.279   8.672  0.7190 -0.0745 -0.7941
 7174SOL     OW33154   3.692   2.368  17.525  0.0098  0.3246  0.1731
 7174SOL    HW133155   3.727   2.428  17.591  2.5179 -0.2295 -0.6842
 7174SOL    HW233156   3.648   2.301  17.578 -1.7728  0.9677 -0.4806
 7175SOL     OW33157   2.101   1.142   4.152 -0.0505 -0.0807 -0.5208
 7175SOL    HW133158   2.041   1.068   4.149  0.2649 -0.2942 -1.5723
 7175SOL    HW233159   2.181   1.089   4.143 -0.7891 -1.2368 -0.3490
 7176SOL     OW33160   0.777   3.928   7.720 -0.2315 -0.6180  0.4696
 7176SOL    HW133161   0.766   3.872   7.642  0.7075  0.3253 -0.3304
 7176SOL    HW233162   0.772   4.016   7.683 -0.4822  0.4740  3.1402
 7177SOL     OW33163   3.635   0.997   8.488 -0.3628  0.4939  0.3433
 7177SOL    HW133164   3.640   1.058   8.415 -0.7563 -1.9206 -1.6878
 7177SOL    HW233165   3.675   1.058   8.549  1.0554 -1.5155  1.4179
 7178SOL     OW33166   1.846   3.017   6.686 -0.2451  0.3744 -0.0695
 7178SOL    HW133167   1.833   3.060   6.602  1.1575  1.6480  0.3681
 7178SOL    HW233168   1.941   3.012   6.686 -0.3735 -2.3856 -0.2235
 7179SOL     OW33169   3.865   3.993   3.491  0.4974 -0.1785 -0.1221
 7179SOL    HW133170   3.884   3.904   3.461 -2.2469 -0.4422 -0.9823
 7179SOL    HW233171   3.776   4.005   3.458  0.6344  2.2258  0.3554
 7180SOL     OW33172   3.994   0.845   1.637  0.0128 -0.1682 -0.3186
 7180SOL    HW133173   3.939   0.850   1.715  1.4041 -2.7517  0.8046
 7180SOL    HW233174   4.080   0.849   1.678  1.2033 -1.7717 -2.6567
 7181SOL     OW33175   3.708   0.144   9.365 -0.3563 -0.2581 -0.5203
 7181SOL    HW133176   3.696   0.171   9.456  2.4175 -0.1105 -0.1927
 7181SOL    HW233177   3.679   0.053   9.365 -0.3739 -0.2519 -0.3240
 7182SOL     OW33178   3.217   1.154   7.502  0.1697 -0.0132 -0.0395
 7182SOL    HW133179   3.145   1.204   7.540  0.4808 -0.6788  1.4375
 7182SOL    HW233180   3.177   1.138   7.416  0.8052 -1.1947 -0.1131
 7183SOL     OW33181   4.524   0.951  14.408  0.5444 -0.2579 -0.1268
 7183SOL    HW133182   4.517   1.044  14.428 -0.6963 -0.0332 -1.5457
 7183SOL    HW233183   4.485   0.943  14.321  0.8873 -3.0056 -0.0202
 7184SOL     OW33184   1.339   1.964   7.058  0.1239 -0.4268 -0.2804
 7184SOL    HW133185   1.360   1.918   7.139  0.5799 -1.8957 -1.2446
 7184SOL    HW233186   1.318   1.887   7.006 -1.7321 -0.2409  0.1902
 7185SOL     OW33187   2.815   0.269   3.084  0.3656  0.3331 -0.0482
 7185SOL    HW133188   2.824   0.363   3.102 -1.6835  0.5370 -0.1252
 7185SOL    HW233189   2.732   0.247   3.126 -0.3775  1.2568 -1.0343
 7186SOL     OW33190   3.887   0.994   2.233  0.2303  0.2906  0.1322
 7186SOL    HW133191   3.944   0.925   2.198  0.3516  0.8305 -0.7284
 7186SOL    HW233192   3.947   1.034   2.296  1.2985  1.1183 -1.4016
 7187SOL     OW33193   2.164   0.355   9.236  0.0703  0.1746 -0.3281
 7187SOL    HW133194   2.185   0.441   9.200 -2.5266  0.2934 -1.5597
 7187SOL    HW233195   2.093   0.375   9.298  1.4344  0.4006  1.1616
 7188SOL     OW33196   0.903   2.558   7.874 -0.4346 -0.6544 -0.2897
 7188SOL    HW133197   0.830   2.512   7.915  0.5857 -1.6730  0.3816
 7188SOL    HW233198   0.919   2.513   7.791 -1.9774 -1.7233 -0.0110
 7189SOL     OW33199   3.554   2.258  16.059 -0.2671 -0.1871 -0.0574
 7189SOL    HW133200   3.507   2.268  15.976  0.0645 -2.2977 -0.4968
 7189SOL    HW233201   3.504   2.188  16.101  0.0549  0.8898  2.1205
 7190SOL     OW33202   3.070   2.593  13.848  0.2410 -0.5270  0.5955
 7190SOL    HW133203   3.061   2.601  13.943 -1.2748 -1.3016  0.4995
 7190SOL    HW233204   3.148   2.645  13.826  1.5753 -1.1311  4.0120
 7191SOL     OW33205   4.061   2.300  12.224 -0.2271  0.0231 -0.0270
 7191SOL    HW133206   4.057   2.228  12.287 -0.3094  2.5126  2.7903
 7191SOL    HW233207   4.156   2.299  12.213 -0.0762  1.9402  1.0584
 7192SOL     OW33208   1.873   4.652   6.459 -0.5846  0.3715  0.3301
 7192SOL    HW133209   1.808   4.588   6.487 -0.9404  1.0661  1.0799
 7192SOL    HW233210   1.932   4.653   6.534 -2.1612 -0.1487  1.5831
 7193SOL     OW33211   1.765   3.032  17.528  0.4203 -0.6272 -0.4735
 7193SOL    HW133212   1.718   3.089  17.589 -1.4833 -2.6242 -0.0729
 7193SOL    HW233213   1.808   2.979  17.595 -0.7004 -1.0826 -0.1262
 7194SOL     OW33214   4.724   3.812   5.520 -0.1847  0.2055  0.1977
 7194SOL    HW133215   4.714   3.736   5.461 -0.6134  2.0464 -2.0999
 7194SOL    HW233216   4.707   3.771   5.605  0.3366  0.9271  0.6449
 7195SOL     OW33217   1.032   0.421   9.104 -0.1473 -0.1976  0.8053
 7195SOL    HW133218   0.974   0.359   9.060  0.0992 -1.5091  2.3646
 7195SOL    HW233219   0.962   0.454   9.160  0.0585  0.6568  0.5555
 7196SOL     OW33220   4.345   1.881   2.394 -0.4814  0.1477 -0.5693
 7196SOL    HW133221   4.393   1.859   2.474 -0.9515  1.2968  0.0316
 7196SOL    HW233222   4.264   1.914   2.432 -0.9613  0.3444 -1.7785
 7197SOL     OW33223   3.962   0.501   1.276  0.0683 -0.6121  0.6025
 7197SOL    HW133224   3.948   0.420   1.227  1.9495 -0.2387 -0.5564
 7197SOL    HW233225   4.009   0.554   1.212  0.4277 -1.0686  0.4862
 7198SOL     OW33226   2.874   0.251  15.549 -0.1398 -0.5390 -0.0320
 7198SOL    HW133227   2.963   0.237  15.516  0.1819 -0.2031  0.6869
 7198SOL    HW233228   2.838   0.175  15.505 -2.2055  0.1732  0.4400
 7199SOL     OW33229   2.471   1.547   5.796  0.6260  0.1495  0.3375
 7199SOL    HW133230   2.496   1.566   5.706  1.1412  2.0519  0.8860
 7199SOL    HW233231   2.561   1.555   5.827  0.2899  2.1451  0.7965
 7200SOL     OW33232   3.438   3.942  13.484 -0.2523  0.0849 -0.5362
 7200SOL    HW133233   3.398   4.028  13.499 -1.0270 -0.2680 -0.5692
 7200SOL    HW233234   3.484   3.959  13.402 -1.4013 -1.2364 -1.4458
 7201SOL     OW33235   2.649   0.556   2.978 -0.4850  0.0337  0.1055
 7201SOL    HW133236   2.678   0.563   3.069  0.6848  0.5186 -0.3046
 7201SOL    HW233237   2.733   0.558   2.932 -0.1372  0.7577  0.7670
 7202SOL     OW33238   4.485   1.311   1.350 -0.2307 -0.0978 -0.9090
 7202SOL    HW133239   4.391   1.330   1.357  0.3898  1.7826  2.6566
 7202SOL    HW233240   4.494   1.251   1.276 -0.3677  0.5862 -1.4829
 7203SOL     OW33241   2.758   0.692  13.043 -0.3038 -0.7374 -0.0856
 7203SOL    HW133242   2.690   0.727  12.985 -0.8311 -2.2055 -0.3591
 7203SOL    HW233243   2.835   0.699  12.987  0.7826  1.6147  1.6903
 7204SOL     OW33244   3.141   1.760  12.666 -0.6313 -0.3194  0.4800
 7204SOL    HW133245   3.064   1.749  12.722 -1.1172 -0.1182 -0.1493
 7204SOL    HW233246   3.200   1.818  12.713 -0.0920  0.3087 -1.0023
 7205SOL     OW33247   0.649   1.150   3.068  0.7298 -0.1716 -0.2391
 7205SOL    HW133248   0.559   1.149   3.036  0.4697 -1.9802  0.5106
 7205SOL    HW233249   0.694   1.203   3.002 -0.7244 -1.2433 -2.0844
 7206SOL     OW33250   2.350   2.430  10.464  0.1738  0.2478  0.0460
 7206SOL    HW133251   2.355   2.387  10.378  1.8796  1.7072 -0.5801
 7206SOL    HW233252   2.432   2.478  10.468 -2.0839  3.9799  1.5694
 7207SOL     OW33253   0.525   1.687   9.925  0.5308  0.7600  0.2176
 7207SOL    HW133254   0.583   1.618   9.956 -0.8172 -0.8649 -0.8636
 7207SOL    HW233255   0.557   1.763   9.974  1.8904 -0.0654  0.5939
 7208SOL     OW33256   0.831   2.205   8.262  0.1383  0.1338  0.3728
 7208SOL    HW133257   0.858   2.196   8.353 -2.9207  0.4608  1.2963
 7208SOL    HW233258   0.906   2.159   8.224 -0.4170 -0.1040 -0.4290
 7209SOL     OW33259   2.476   1.367   4.765 -0.3235  0.1565 -0.5632
 7209SOL    HW133260   2.392   1.322   4.759  0.3559 -1.0640 -0.7293
 7209SOL    HW233261   2.504   1.365   4.673  0.6283 -2.2871 -0.2024
 7210SOL     OW33262   4.268   1.058   0.817 -0.1946 -0.2791 -0.2405
 7210SOL    HW133263   4.221   1.072   0.735  0.2401 -1.3388 -0.6760
 7210SOL    HW233264   4.260   1.140   0.865  0.2413 -0.1719 -0.3444
 7211SOL     OW33265   1.949   2.610  14.040  0.4040 -0.6733  0.0843
 7211SOL    HW133266   2.044   2.613  14.032  0.2031  0.6425 -1.8080
 7211SOL    HW233267   1.939   2.517  14.060 -2.0590 -0.2924  0.6599
 7212SOL     OW33268   0.148   0.149   5.531  0.0520  0.6206  0.0810
 7212SOL    HW133269   0.114   0.139   5.619  1.2160  1.3982  0.6274
 7212SOL    HW233270   0.178   0.240   5.529  0.3897  0.5223  0.6335
 7213SOL     OW33271   3.131   3.861   4.527  0.3342  0.4147  0.4289
 7213SOL    HW133272   3.207   3.919   4.532  0.7722  0.0339 -1.6125
 7213SOL    HW233273   3.166   3.793   4.585  1.6167  0.4462 -0.3095
 7214SOL     OW33274   3.266   2.506   1.020 -0.2722  0.3912  0.1274
 7214SOL    HW133275   3.234   2.485   1.108  2.2769 -0.2944  0.9012
 7214SOL    HW233276   3.263   2.601   1.012 -0.2818  0.2407 -1.6038
 7215SOL     OW33277   0.188   2.805   9.534 -0.0059 -0.3752 -0.1267
 7215SOL    HW133278   0.228   2.803   9.447 -2.3393 -0.2976 -1.1833
 7215SOL    HW233279   0.140   2.888   9.534 -0.3940 -0.6011  0.4456
 7216SOL     OW33280   1.627   2.094   6.359  0.4485  0.8054  0.0833
 7216SOL    HW133281   1.647   2.048   6.277  0.9677  0.5452  0.3621
 7216SOL    HW233282   1.661   2.032   6.423 -0.0846 -0.5789 -0.9572
 7217SOL     OW33283   1.123   3.505   1.860  0.5643  0.3883  0.4185
 7217SOL    HW133284   1.129   3.500   1.764 -0.9298 -0.0612  0.3471
 7217SOL    HW233285   1.028   3.499   1.870  0.2837  0.4612 -2.0446
 7218SOL     OW33286   0.268   2.724   8.975  0.3380 -0.5991  0.6823
 7218SOL    HW133287   0.295   2.717   8.883  0.1516  2.9332  0.3573
 7218SOL    HW233288   0.345   2.695   9.025  0.2696  0.2761  1.2942
 7219SOL     OW33289   2.804   2.005   3.612 -0.0632  1.2886 -0.2587
 7219SOL    HW133290   2.826   2.052   3.692  1.3083 -0.1033  0.1791
 7219SOL    HW233291   2.856   1.928   3.634  0.2432  1.5617 -0.0347
 7220SOL     OW33292   2.468   0.412   7.442 -0.2400  0.4760 -0.6037
 7220SOL    HW133293   2.435   0.342   7.498  0.2017 -0.9895 -2.1738
 7220SOL    HW233294   2.544   0.444   7.488 -0.0727 -2.1699  0.9559
 7221SOL     OW33295   4.582   1.877   7.403  0.2072  0.1347  0.0511
 7221SOL    HW133296   4.597   1.954   7.458  1.8651 -0.0915 -0.0660
 7221SOL    HW233297   4.670   1.842   7.386 -0.5133 -1.5998 -0.1202
 7222SOL     OW33298   1.899   1.267   4.469 -0.0370 -0.1994 -0.3197
 7222SOL    HW133299   1.979   1.280   4.418  0.4399 -2.4377 -0.1646
 7222SOL    HW233300   1.825   1.257   4.409 -0.4916 -1.4285  0.4316
 7223SOL     OW33301   2.577   2.910   7.840 -0.2759 -0.1152  0.1298
 7223SOL    HW133302   2.564   3.003   7.820  1.2605  0.4811  1.9012
 7223SOL    HW233303   2.668   2.915   7.871 -0.0793  2.1192 -0.8322
 7224SOL     OW33304   0.075   0.940   3.598  0.1147  0.3661 -0.2436
 7224SOL    HW133305   0.146   0.877   3.612  0.1772  0.2394 -1.1629
 7224SOL    HW233306   0.091   0.999   3.671 -0.2927 -0.0562  0.1840
 7225SOL     OW33307   3.307   4.427   0.187  0.4759  0.2154 -0.3918
 7225SOL    HW133308   3.251   4.351   0.171  1.3984 -0.5679  0.1150
 7225SOL    HW233309   3.339   4.436   0.097  0.6648 -2.3704 -0.5745
 7226SOL     OW33310   4.369   1.102   2.471 -0.2795  0.4861 -0.0783
 7226SOL    HW133311   4.419   1.181   2.491  1.6102 -0.8265  0.4229
 7226SOL    HW233312   4.435   1.056   2.418 -1.3300  0.0894 -1.0596
 7227SOL     OW33313   3.679   4.372   5.415  0.2077  0.5368 -0.2811
 7227SOL    HW133314   3.675   4.277   5.429 -0.1351  0.5593 -0.2307
 7227SOL    HW233315   3.764   4.382   5.373 -0.1271 -0.6892 -1.2715
 7228SOL     OW33316   0.771   2.204   9.773  0.7403  0.5319  0.4119
 7228SOL    HW133317   0.685   2.216   9.812  0.3581 -0.3376 -0.1584
 7228SOL    HW233318   0.787   2.113   9.797  0.7393  0.9023  1.8023
 7229SOL     OW33319   1.308   3.302   8.922  0.3686 -0.6724 -0.9105
 7229SOL    HW133320   1.245   3.324   8.990 -0.0407 -0.1779 -1.4445
 7229SOL    HW233321   1.365   3.375   8.945  1.5390 -3.1408  4.0833
 7230SOL     OW33322   3.134   1.405   9.173  0.5502  0.1696  0.2873
 7230SOL    HW133323   3.122   1.457   9.252  0.5878 -0.5524  0.7679
 7230SOL    HW233324   3.140   1.318   9.213 -1.1892 -0.8206 -1.5687
 7231SOL     OW33325   3.325   1.647  15.217 -0.4456 -0.6001  0.0463
 7231SOL    HW133326   3.305   1.708  15.146 -1.6984  0.9699  1.7528
 7231SOL    HW233327   3.405   1.608  15.183 -0.2182 -0.7568  0.7659
 7232SOL     OW33328   4.294   2.740   4.950 -0.2210 -0.5320 -0.0757
 7232SOL    HW133329   4.333   2.815   4.994  0.3732 -1.1556  0.4551
 7232SOL    HW233330   4.300   2.768   4.859 -1.0549 -1.9236 -0.5640
 7233SOL     OW33331   3.536   4.437  16.021 -0.8273  0.2597  0.3184
 7233SOL    HW133332   3.446   4.439  15.991 -1.0231 -0.2473  0.8715
 7233SOL    HW233333   3.582   4.429  15.937 -0.4699 -1.0777  0.6468
 7234SOL     OW33334   3.200   2.931   2.282  0.3532  0.3571 -0.0157
 7234SOL    HW133335   3.158   2.995   2.224  0.5184  0.7764  0.3263
 7234SOL    HW233336   3.295   2.936   2.274  0.1948 -1.9119 -3.0505
 7235SOL     OW33337   1.864   2.195   1.737 -0.1340  0.2571  0.0028
 7235SOL    HW133338   1.770   2.199   1.719 -0.2315  1.1959  0.6873
 7235SOL    HW233339   1.881   2.122   1.678  0.7297 -0.4693  1.1430
 7236SOL     OW33340   2.685   3.328   5.720 -0.4581  0.4369 -0.1914
 7236SOL    HW133341   2.711   3.350   5.809 -2.4404  1.1075  0.2078
 7236SOL    HW233342   2.710   3.404   5.666  1.9597  0.0144  0.3503
 7237SOL     OW33343   1.697   2.195   5.707  0.4496  0.1368 -0.2193
 7237SOL    HW133344   1.765   2.244   5.659  0.6641  0.4286  0.3867
 7237SOL    HW233345   1.734   2.197   5.795  2.0447 -1.8888 -0.8281
 7238SOL     OW33346   1.106   3.091  12.216  0.6759  0.0913 -0.4770
 7238SOL    HW133347   1.078   3.003  12.191  0.0753  0.0323  0.4034
 7238SOL    HW233348   1.197   3.078  12.189  0.3245  1.0959 -2.1615
 7239SOL     OW33349   4.067   2.053   5.475 -0.2000 -0.0940  0.2668
 7239SOL    HW133350   4.137   2.060   5.410 -0.1048 -1.7629  0.1825
 7239SOL    HW233351   4.061   1.958   5.488  1.2600 -0.0333  1.3792
 7240SOL     OW33352   3.042   3.235   8.031  0.3456 -0.0478  0.1321
 7240SOL    HW133353   3.069   3.291   8.103 -0.4239  0.1922  0.2370
 7240SOL    HW233354   3.117   3.177   8.022  0.7764  0.3454  1.2261
 7241SOL     OW33355   1.037   4.541   3.669  0.0243 -0.5465  0.0702
 7241SOL    HW133356   1.023   4.631   3.639 -1.8144  0.3587  3.6594
 7241SOL    HW233357   1.077   4.556   3.755  0.8228  0.4622 -0.4697
 7242SOL     OW33358   1.008   3.790  15.536  0.1929  0.0040  1.0087
 7242SOL    HW133359   1.081   3.803  15.597  0.3624 -0.5948  0.9334
 7242SOL    HW233360   1.014   3.695  15.532 -0.9243 -0.1922  3.4722
 7243SOL     OW33361   4.175   0.176  17.158  0.6636  0.0130 -0.4390
 7243SOL    HW133362   4.128   0.219  17.229  0.6067 -0.7816 -0.0000
 7243SOL    HW233363   4.254   0.165  17.211  0.3721 -0.8025 -0.1647
 7244SOL     OW33364   2.550   2.303   7.419  0.1158  0.2337 -0.1339
 7244SOL    HW133365   2.536   2.391   7.383  0.2014 -0.1273 -1.0449
 7244SOL    HW233366   2.588   2.324   7.504  0.5974  1.1476 -0.5756
 7245SOL     OW33367   3.844   3.497   4.141  0.8091 -0.0839 -0.5104
 7245SOL    HW133368   3.907   3.435   4.104 -0.7981 -1.5746 -0.7802
 7245SOL    HW233369   3.764   3.446   4.126  1.3303 -1.0537  0.0467
 7246SOL     OW33370   0.374   3.397   5.959  0.1448 -0.2151  0.0613
 7246SOL    HW133371   0.332   3.469   5.912 -0.1318 -0.3455  0.1144
 7246SOL    HW233372   0.449   3.436   6.004  0.8063 -2.1193  0.6181
 7247SOL     OW33373   1.374   1.518   2.478 -0.2089 -0.1067  0.2392
 7247SOL    HW133374   1.307   1.500   2.544 -0.1174  0.7208  0.5560
 7247SOL    HW233375   1.317   1.537   2.403  0.1955 -0.9550 -0.2839
 7248SOL     OW33376   4.551   3.128  14.854  0.2546 -0.1252  0.4098
 7248SOL    HW133377   4.613   3.089  14.915  0.7459 -1.2699 -0.8181
 7248SOL    HW233378   4.534   3.212  14.895  2.2761 -0.6405  2.2640
 7249SOL     OW33379   0.974   3.222   1.035  0.3852 -0.4397 -0.4080
 7249SOL    HW133380   0.910   3.210   1.105  0.1053 -0.2972 -0.6401
 7249SOL    HW233381   1.032   3.148   1.055  1.9128  0.8970  0.1695
 7250SOL     OW33382   1.482   2.650   3.461 -0.2086  0.3529 -0.2083
 7250SOL    HW133383   1.545   2.669   3.531  0.0576  0.7938 -0.5692
 7250SOL    HW233384   1.535   2.620   3.387  1.9503 -0.9205  1.8290
 7251SOL     OW33385   0.726   3.379  16.579 -0.1055 -0.1592  0.2183
 7251SOL    HW133386   0.792   3.314  16.604 -0.1760 -1.1998 -2.2909
 7251SOL    HW233387   0.654   3.348  16.634  0.9163 -0.6143  1.2967
 7252SOL     OW33388   1.246   4.351   2.318 -0.1916  0.1884  0.5261
 7252SOL    HW133389   1.293   4.394   2.389 -0.0234 -0.8768  1.0469
 7252SOL    HW233390   1.254   4.260   2.346  0.8713  0.1373  0.0613
 7253SOL     OW33391   1.598   0.367   2.558 -0.7730 -0.2412  0.2653
 7253SOL    HW133392   1.587   0.427   2.485 -1.0476 -0.1802  0.3590
 7253SOL    HW233393   1.679   0.325   2.530 -0.0211  0.0836  1.9145
 7254SOL     OW33394   0.902   0.919   7.744 -0.2916  0.3126  0.0842
 7254SOL    HW133395   0.841   0.992   7.734 -0.8240  0.0045  1.0401
 7254SOL    HW233396   0.897   0.878   7.658  0.0732 -1.2157  0.7787
 7255SOL     OW33397   2.606   2.555   6.238  0.1469  0.0519  0.1002
 7255SOL    HW133398   2.546   2.515   6.301  2.5111 -0.8836  1.7491
 7255SOL    HW233399   2.619   2.475   6.187  1.7811  0.6240 -0.3898
 7256SOL     OW33400   2.003   1.775   9.579 -0.2498 -0.1971 -0.4763
 7256SOL    HW133401   1.950   1.847   9.545 -0.0001  0.4035  0.4040
 7256SOL    HW233402   2.040   1.751   9.494  1.3125 -0.7487  0.3584
 7257SOL     OW33403   3.890   2.034   4.731  0.1850 -0.0612 -0.3563
 7257SOL    HW133404   3.880   2.072   4.818 -0.2124 -3.6163  1.1402
 7257SOL    HW233405   3.858   2.103   4.672 -2.2190 -1.9567 -1.2798
 7258SOL     OW33406   1.632   3.744  15.356 -0.4227  0.0030  0.4943
 7258SOL    HW133407   1.654   3.680  15.424  0.4452  1.1111  1.2698
 7258SOL    HW233408   1.593   3.814  15.408  0.7482  0.8885  0.1908
 7259SOL     OW33409   3.320   2.680   5.678  0.0221  0.0815 -0.3634
 7259SOL    HW133410   3.252   2.683   5.610 -2.0136  0.4736  1.6760
 7259SOL    HW233411   3.266   2.704   5.754  0.1507  0.0962 -0.2775
 7260SOL     OW33412   2.275   2.031  10.809  0.4234  0.3645 -0.4361
 7260SOL    HW133413   2.202   2.027  10.748 -0.7606  0.8304  0.9572
 7260SOL    HW233414   2.298   2.123  10.806 -1.1114  0.7171 -1.1783
 7261SOL     OW33415   0.411   2.301   2.455  0.3455  0.6555  0.0382
 7261SOL    HW133416   0.420   2.215   2.416 -3.5318  0.1499  0.2455
 7261SOL    HW233417   0.471   2.294   2.530  0.9551  2.8482 -0.2358
 7262SOL     OW33418   1.726   0.486   5.005  0.0325 -0.2016 -0.1126
 7262SOL    HW133419   1.733   0.573   5.043  2.4686 -1.1076  1.5156
 7262SOL    HW233420   1.637   0.502   4.974 -0.0640 -0.0741  0.2330
 7263SOL     OW33421   0.394   0.531   2.581  0.1894 -0.2877 -0.0104
 7263SOL    HW133422   0.470   0.513   2.636 -0.4208 -0.0010  0.9341
 7263SOL    HW233423   0.434   0.504   2.498 -0.1411  0.9988 -0.5843
 7264SOL     OW33424   3.458   0.047   7.177  0.1097  0.4612 -1.0643
 7264SOL    HW133425   3.523   0.108   7.210 -1.1119  1.3403 -0.2525
 7264SOL    HW233426   3.382   0.103   7.159  0.1256  1.2320  1.2821
 7265SOL     OW33427   4.677   2.720   5.829 -0.4318 -0.3574  0.2759
 7265SOL    HW133428   4.658   2.730   5.735  1.9644 -0.8347 -0.2588
 7265SOL    HW233429   4.646   2.633   5.855 -1.2252  0.5862  2.4830
 7266SOL     OW33430   3.304   1.438   2.929  0.6657 -0.0279  0.0724
 7266SOL    HW133431   3.251   1.454   2.851  0.4351  0.0353  0.2456
 7266SOL    HW233432   3.390   1.461   2.892  0.8743 -0.1425  0.4895
 7267SOL     OW33433   3.974   0.140  14.767  0.3733 -0.5286  0.0721
 7267SOL    HW133434   4.060   0.104  14.791  0.6349 -0.4608 -0.7579
 7267SOL    HW233435   3.939   0.160  14.854 -1.1184  3.0661 -1.3459
 7268SOL     OW33436   0.830   1.362  15.748  0.0622 -0.2321 -0.2013
 7268SOL    HW133437   0.843   1.308  15.827 -2.9806  2.0915  1.9018
 7268SOL    HW233438   0.893   1.327  15.686  1.5850  0.8907  0.7223
 7269SOL     OW33439   3.368   2.738   2.795  0.1746 -0.1585 -0.6692
 7269SOL    HW133440   3.314   2.681   2.742  0.6600 -0.4401 -0.8533
 7269SOL    HW233441   3.337   2.821   2.759  0.9295  0.6010  0.3881
 7270SOL     OW33442   2.633   3.330   4.511  0.0399 -0.0004 -0.3821
 7270SOL    HW133443   2.563   3.360   4.453 -0.4529 -0.6955 -0.1373
 7270SOL    HW233444   2.620   3.380   4.591 -0.5513 -3.3066  1.5682
 7271SOL     OW33445   3.515   4.390   6.726 -0.3846  0.5147 -0.0757
 7271SOL    HW133446   3.591   4.446   6.712 -0.5460  1.2982  2.1925
 7271SOL    HW233447   3.559   4.312   6.760  0.0981  1.9347  2.5417
 7272SOL     OW33448   4.206   1.093   7.339  0.2242  0.1984  0.1050
 7272SOL    HW133449   4.291   1.050   7.343 -0.3134 -0.8942 -0.1909
 7272SOL    HW233450   4.200   1.133   7.426 -2.6902 -1.1044  0.5080
 7273SOL     OW33451   0.064   4.533   2.214  0.1492 -0.2519  0.6987
 7273SOL    HW133452   0.113   4.545   2.295 -0.7786  0.5575  1.1327
 7273SOL    HW233453   4.722   4.579   2.230 -0.2164 -0.9048  0.7275
 7274SOL     OW33454   2.078   2.023  10.630  0.5794 -0.3185 -0.3891
 7274SOL    HW133455   2.001   1.967  10.618 -0.7733  1.2510  0.9866
 7274SOL    HW233456   2.100   2.034  10.537 -0.4282  3.6442 -0.1636
 7275SOL     OW33457   3.300   1.246   3.848 -0.5399 -0.2902  0.2382
 7275SOL    HW133458   3.330   1.169   3.897  0.4044 -0.2889 -0.3309
 7275SOL    HW233459   3.276   1.307   3.917 -3.9817 -1.3260 -0.0513
 7276SOL     OW33460   0.825   2.238   3.849  0.4888  0.1601  0.2354
 7276SOL    HW133461   0.876   2.166   3.813 -1.2422 -1.9243  1.9793
 7276SOL    HW233462   0.748   2.222   3.794  0.0308  0.5724  0.7486
 7277SOL     OW33463   3.342   1.935   6.071  0.4395 -0.2395  0.5724
 7277SOL    HW133464   3.438   1.931   6.074  0.6781  4.9183  0.1133
 7277SOL    HW233465   3.323   1.903   5.983  1.4402  1.9132 -0.4392
 7278SOL     OW33466   3.173   3.432  16.092  0.3207 -0.4595 -0.5372
 7278SOL    HW133467   3.078   3.440  16.086  0.4247  0.6644 -0.6564
 7278SOL    HW233468   3.209   3.498  16.152  2.0250  0.2824 -2.4176
 7279SOL     OW33469   3.534   2.204   9.332 -1.3905 -0.0841 -0.1007
 7279SOL    HW133470   3.577   2.224   9.415 -1.1894 -0.7039 -0.0583
 7279SOL    HW233471   3.572   2.120   9.308 -3.1050 -1.4682  1.9516
 7280SOL     OW33472   1.708   0.241   5.833 -0.8239  0.2139  0.0038
 7280SOL    HW133473   1.653   0.188   5.891  0.1291  0.6651  1.3117
 7280SOL    HW233474   1.784   0.268   5.885 -0.5156 -1.2591  0.3179
 7281SOL     OW33475   3.729   2.739   0.796 -0.4035  0.3631  0.3667
 7281SOL    HW133476   3.721   2.832   0.817  0.0477  0.3761  0.4692
 7281SOL    HW233477   3.670   2.736   0.720 -1.6877 -1.4163  1.4212
 7282SOL     OW33478   2.499   2.694   5.891 -0.4629  0.3125 -0.3865
 7282SOL    HW133479   2.516   2.681   5.798  0.7851 -0.5962 -0.0384
 7282SOL    HW233480   2.441   2.621   5.910  2.3864 -1.9132 -0.2394
 7283SOL     OW33481   4.030   2.831   1.372  0.2763 -0.3590  0.0341
 7283SOL    HW133482   4.090   2.806   1.302 -0.3203  2.9445 -1.6698
 7283SOL    HW233483   3.964   2.764   1.357 -2.7956  2.5993  0.3949
 7284SOL     OW33484   2.789   0.169  12.147  0.6705  0.2443 -0.6893
 7284SOL    HW133485   2.838   0.163  12.065 -0.3056  0.3215 -1.2706
 7284SOL    HW233486   2.755   0.258  12.148 -1.4326 -0.5970  1.1715
 7285SOL     OW33487   0.578   4.593  17.219  0.0071 -0.0467  0.2099
 7285SOL    HW133488   0.652   4.591  17.280  0.1297 -1.9839 -0.0065
 7285SOL    HW233489   0.575   4.688  17.206 -1.2513 -0.0047  0.8366
 7286SOL     OW33490   3.758   2.037  17.251  0.0452 -0.1827  0.3228
 7286SOL    HW133491   3.675   2.084  17.258  0.3626  0.6048 -1.2287
 7286SOL    HW233492   3.750   1.947  17.282 -0.2494  0.4224  2.0060
 7287SOL     OW33493   4.538   0.632   4.498 -0.0842  0.0381  0.6280
 7287SOL    HW133494   4.474   0.619   4.568 -1.7735 -2.9841 -1.4876
 7287SOL    HW233495   4.520   0.558   4.439  1.4361  0.1443  0.0391
 7288SOL     OW33496   3.745   1.409  15.329  0.1671 -0.3982 -0.4172
 7288SOL    HW133497   3.682   1.407  15.257 -0.0972  1.1902 -0.2133
 7288SOL    HW233498   3.799   1.479  15.294 -0.2537 -0.4701 -1.2039
 7289SOL     OW33499   1.936   1.097  15.189 -0.1941 -0.1125 -0.2682
 7289SOL    HW133500   1.934   1.006  15.158  0.5221 -0.3139  0.3004
 7289SOL    HW233501   1.855   1.093  15.241 -0.1334 -0.5379 -0.2035
 7290SOL     OW33502   2.339   2.085   3.832  0.2293  0.7367 -0.4755
 7290SOL    HW133503   2.357   2.175   3.859 -1.2479 -0.1661  3.4662
 7290SOL    HW233504   2.411   2.041   3.878  1.7386  1.6874 -1.9393
 7291SOL     OW33505   2.646   4.329   8.215  0.3570  1.2878 -0.5401
 7291SOL    HW133506   2.631   4.297   8.126 -1.7289  0.3150  0.1499
 7291SOL    HW233507   2.720   4.389   8.207  1.4721  0.1135  1.0457
 7292SOL     OW33508   2.359   2.582   7.412  0.0987  0.3266 -0.3885
 7292SOL    HW133509   2.368   2.595   7.317  1.8887  0.2139 -0.2370
 7292SOL    HW233510   2.410   2.661   7.429  0.7240 -0.0538 -0.4828
 7293SOL     OW33511   0.569   3.502  12.587 -0.4925  0.6074 -0.2643
 7293SOL    HW133512   0.608   3.435  12.645  0.5728  2.0733  0.7260
 7293SOL    HW233513   0.652   3.546  12.567  0.2896 -0.3591  0.7821
 7294SOL     OW33514   2.135   1.775   2.476 -0.2240  0.2506 -0.1939
 7294SOL    HW133515   2.120   1.763   2.570  2.0082 -1.6820 -0.1021
 7294SOL    HW233516   2.082   1.854   2.460  0.3686  0.4323 -1.1898
 7295SOL     OW33517   2.046   3.540   3.181  0.3183 -0.0208  0.3650
 7295SOL    HW133518   2.060   3.577   3.268  1.3056 -0.0255  0.2148
 7295SOL    HW233519   2.137   3.517   3.160  0.1911 -0.3048  0.1259
 7296SOL     OW33520   0.412   3.206   8.306 -0.0633 -0.0466  0.3805
 7296SOL    HW133521   0.464   3.281   8.278 -0.8043 -0.2819 -1.5672
 7296SOL    HW233522   0.362   3.258   8.369  1.1557  1.8524 -0.2230
 7297SOL     OW33523   1.064   1.536  13.341 -0.3566  0.8010 -0.2095
 7297SOL    HW133524   1.089   1.453  13.381 -0.1212  0.6187 -0.7255
 7297SOL    HW233525   1.084   1.526  13.247  0.5101 -3.4913  0.4255
 7298SOL     OW33526   3.539   1.032   4.529  0.3449 -0.4734 -0.5348
 7298SOL    HW133527   3.462   1.065   4.576 -0.5370 -1.1549 -1.5021
 7298SOL    HW233528   3.520   1.053   4.438  2.3030  0.9598 -0.6100
 7299SOL     OW33529   0.315   4.501   1.247 -0.9313 -0.2050  0.3417
 7299SOL    HW133530   0.322   4.579   1.302 -0.5091 -1.0019  1.4209
 7299SOL    HW233531   0.227   4.520   1.215 -1.1086  2.5390  2.3744
 7300SOL     OW33532   4.032   0.646   1.060  0.5307 -0.4355 -0.5378
 7300SOL    HW133533   4.069   0.727   1.026 -0.9925  0.0806 -0.9969
 7300SOL    HW233534   4.051   0.587   0.987 -0.8661  0.5844 -1.7397
 7301SOL     OW33535   2.614   0.339   7.077  0.5869  0.0152  0.7041
 7301SOL    HW133536   2.622   0.419   7.128  1.3416  0.8036 -0.6444
 7301SOL    HW233537   2.545   0.296   7.127  1.2024 -1.5056  0.2687
 7302SOL     OW33538   4.258   2.288  15.909  0.1795  0.1763  0.7989
 7302SOL    HW133539   4.167   2.296  15.938  0.5231  0.8253  1.7099
 7302SOL    HW233540   4.277   2.198  15.936 -1.4377 -0.6105 -0.6674
 7303SOL     OW33541   1.436   1.769   1.507  0.1721  1.1133 -0.2420
 7303SOL    HW133542   1.392   1.807   1.583  1.7249  0.9794  0.7052
 7303SOL    HW233543   1.442   1.679   1.539 -3.4407 -0.1353 -2.9898
 7304SOL     OW33544   1.461   0.228   8.643  0.1155  0.4199 -0.5500
 7304SOL    HW133545   1.440   0.153   8.699 -0.6993  1.7911  1.0054
 7304SOL    HW233546   1.484   0.184   8.562  1.8641  2.8359 -1.3576
 7305SOL     OW33547   2.646   1.916   2.072  0.1386 -0.2325  0.3647
 7305SOL    HW133548   2.731   1.874   2.065  0.7048  1.0604 -0.6322
 7305SOL    HW233549   2.594   1.841   2.102 -1.5694  1.6560  2.1788
 7306SOL     OW33550   4.722   3.517  16.444 -0.0711 -0.5104 -0.6684
 7306SOL    HW133551   0.015   3.541  16.530 -4.5545  0.1597  0.8587
 7306SOL    HW233552   0.063   3.508  16.392 -0.3487 -0.4606 -1.1088
 7307SOL     OW33553   0.758   2.209  10.944 -0.3986  0.1239 -0.0086
 7307SOL    HW133554   0.834   2.159  10.913 -0.9089 -0.6418 -0.0256
 7307SOL    HW233555   0.795   2.297  10.936  0.5153 -0.3258 -0.7830
 7308SOL     OW33556   0.905   4.246  16.346  0.3431 -0.7363 -0.1844
 7308SOL    HW133557   0.825   4.197  16.367 -1.3442  0.5961 -3.4815
 7308SOL    HW233558   0.977   4.213  16.400  0.0296 -0.9322  0.1179
 7309SOL     OW33559   0.845   2.508   1.162  0.6894 -0.6978  0.1623
 7309SOL    HW133560   0.932   2.493   1.197 -0.2277  0.0442  2.7346
 7309SOL    HW233561   0.822   2.596   1.191  1.4390 -0.7217  0.8191
 7310SOL     OW33562   3.958   3.808   8.112  0.2410  0.0991  0.2514
 7310SOL    HW133563   3.978   3.891   8.153 -1.3817  0.6177 -0.0102
 7310SOL    HW233564   4.041   3.760   8.116  1.5363  2.3252 -0.2800
 7311SOL     OW33565   1.314   0.410   8.525 -0.1061 -0.1099 -0.1917
 7311SOL    HW133566   1.404   0.394   8.552  0.2002  0.9849 -0.5537
 7311SOL    HW233567   1.258   0.357   8.581 -0.8183  0.6133 -0.2028
 7312SOL     OW33568   4.119   3.775  11.074  0.1045  0.0397 -0.0489
 7312SOL    HW133569   4.120   3.680  11.065 -1.7946  0.0105 -0.0472
 7312SOL    HW233570   4.160   3.792  11.158  2.2687 -1.0133 -0.8974
 7313SOL     OW33571   0.427   3.117   9.190  0.7403  0.1564  0.9903
 7313SOL    HW133572   0.385   3.198   9.219  1.0168 -0.1205  2.1594
 7313SOL    HW233573   0.509   3.123   9.240  0.8327  0.1686  0.8389
 7314SOL     OW33574   4.477   2.506   0.579 -0.3743 -0.0091  0.0846
 7314SOL    HW133575   4.393   2.535   0.543  0.8047  2.5886 -0.6068
 7314SOL    HW233576   4.532   2.569   0.532  0.6491 -1.2085 -0.3243
 7315SOL     OW33577   0.922   1.387   3.518  0.2678  0.5305  0.0168
 7315SOL    HW133578   0.956   1.412   3.432  0.8925 -0.0758  0.0901
 7315SOL    HW233579   0.910   1.474   3.555  0.1311 -0.6501  2.7888
 7316SOL     OW33580   3.112   3.112   7.297  0.9272 -0.4040  0.3585
 7316SOL    HW133581   3.208   3.108   7.306  0.8157  0.1446  1.8288
 7316SOL    HW233582   3.105   3.130   7.203  0.3531 -0.3026  0.4208
 7317SOL     OW33583   2.711   1.712   5.288  0.1421  0.5155 -0.1976
 7317SOL    HW133584   2.661   1.758   5.355  0.6510 -0.2974  0.7385
 7317SOL    HW233585   2.742   1.787   5.237 -0.0059  0.7557  0.0645
 7318SOL     OW33586   1.790   0.749  13.654  0.6703  0.0255 -0.1338
 7318SOL    HW133587   1.870   0.802  13.659 -0.1694  1.0442  2.0730
 7318SOL    HW233588   1.816   0.672  13.603  0.1065  1.3703 -2.4498
 7319SOL     OW33589   4.413   3.237   5.295 -0.5040  0.1944 -0.0526
 7319SOL    HW133590   4.337   3.292   5.315 -1.5777 -1.0883 -0.6057
 7319SOL    HW233591   4.466   3.266   5.369 -0.7614 -1.8811  0.9517
 7320SOL     OW33592   3.684   1.762  17.300  0.1612 -0.3023  0.1293
 7320SOL    HW133593   3.736   1.711  17.362  0.3426 -0.0413  0.1963
 7320SOL    HW233594   3.686   1.710  17.219  2.1795 -1.1881  0.7365
 7321SOL     OW33595   4.015   3.287  17.285  0.0819  0.1886 -0.1404
 7321SOL    HW133596   3.978   3.357  17.338  0.2087 -0.2780  0.5728
 7321SOL    HW233597   3.948   3.219  17.293  1.5581 -1.3473 -0.8256
 7322SOL     OW33598   1.166   0.333   2.536  0.3785 -0.1694  0.3714
 7322SOL    HW133599   1.223   0.326   2.460 -0.5244 -0.7384 -0.2478
 7322SOL    HW233600   1.185   0.419   2.574 -0.1929 -0.4895  1.3925
 7323SOL     OW33601   4.137   0.667  11.554  0.1253 -0.2897  0.2351
 7323SOL    HW133602   4.146   0.630  11.642  0.8339  1.5903  0.9502
 7323SOL    HW233603   4.201   0.738  11.557 -0.4721  0.2683 -0.2648
 7324SOL     OW33604   0.293   2.277   3.606  0.4032  0.1512 -0.2901
 7324SOL    HW133605   0.228   2.290   3.536  0.8375 -1.0138 -0.9057
 7324SOL    HW233606   0.251   2.220   3.670 -0.2385  0.5218 -0.3758
 7325SOL     OW33607   0.635   4.182  14.303 -0.4414  0.7855  0.1092
 7325SOL    HW133608   0.693   4.205  14.377 -1.7244 -0.3409  1.4653
 7325SOL    HW233609   0.669   4.238  14.233  1.3926 -2.3834 -1.5559
 7326SOL     OW33610   4.692   1.246  17.249  0.5729  0.9156  0.6135
 7326SOL    HW133611   4.610   1.284  17.218  0.3771 -0.7055 -0.8080
 7326SOL    HW233612   4.664   1.197  17.326  1.7949  0.0241  0.4897
 7327SOL     OW33613   2.645   2.223   6.058 -0.6154 -0.1331 -0.1388
 7327SOL    HW133614   2.571   2.260   6.009 -0.9891  0.7966  1.1364
 7327SOL    HW233615   2.595   2.181   6.128  1.8411 -0.5784  1.3537
 7328SOL     OW33616   1.302   3.370   6.717  0.2516 -0.5870 -0.4378
 7328SOL    HW133617   1.337   3.356   6.629  1.6228 -1.1240  0.1787
 7328SOL    HW233618   1.343   3.456   6.731 -0.8681 -0.0605 -0.4521
 7329SOL     OW33619   2.547   1.411  14.627  0.3083  0.7649  0.5801
 7329SOL    HW133620   2.548   1.492  14.576 -0.8598 -0.0007 -0.6782
 7329SOL    HW233621   2.637   1.381  14.613 -0.2295 -0.0223 -1.1272
 7330SOL     OW33622   2.143   3.774  12.671  0.1557 -0.3970  0.6367
 7330SOL    HW133623   2.154   3.869  12.670 -0.2268 -0.3487  1.1151
 7330SOL    HW233624   2.224   3.749  12.716 -0.0628 -2.5587 -0.1617
 7331SOL     OW33625   3.471   1.912  17.426  0.0599 -0.1233 -1.1378
 7331SOL    HW133626   3.435   1.933  17.340 -3.0257 -0.1203  0.1393
 7331SOL    HW233627   3.544   1.860  17.393  0.5996  0.6892 -1.2351
 7332SOL     OW33628   3.549   0.710   6.779 -0.4161  0.0409 -0.0225
 7332SOL    HW133629   3.500   0.645   6.829 -2.1900 -0.5155 -2.4681
 7332SOL    HW233630   3.619   0.725   6.842  1.3550 -1.5961 -1.5901
 7333SOL     OW33631   3.557   3.235   4.854 -0.0719 -0.0138  0.3618
 7333SOL    HW133632   3.499   3.187   4.912 -2.4591  1.7967 -0.5557
 7333SOL    HW233633   3.562   3.183   4.774  1.6166  0.9838 -0.1985
 7334SOL     OW33634   3.365   2.514   2.167  0.2394 -0.2152 -0.5795
 7334SOL    HW133635   3.340   2.482   2.254  1.2722  1.7993  0.4763
 7334SOL    HW233636   3.458   2.489   2.170  0.3705  0.3451  0.3765
 7335SOL     OW33637   2.497   0.656  13.772  0.0312  0.2174  0.5026
 7335SOL    HW133638   2.448   0.698  13.843 -1.4494 -0.6481 -0.0079
 7335SOL    HW233639   2.504   0.723  13.704 -0.3252  0.0715  0.3229
 7336SOL     OW33640   1.437   3.966   3.133  0.4455 -0.5835 -0.7047
 7336SOL    HW133641   1.533   3.970   3.138  0.3215  1.0193  0.4596
 7336SOL    HW233642   1.415   3.979   3.225  2.4987  0.2641 -0.3224
 7337SOL     OW33643   2.679   2.986   8.281 -0.5504 -0.3800 -0.3654
 7337SOL    HW133644   2.594   2.970   8.323 -1.2682  0.4576 -1.5043
 7337SOL    HW233645   2.690   2.916   8.216 -0.8703 -1.4311  0.6992
 7338SOL     OW33646   2.438   3.942   6.065  0.8716 -0.0448 -0.4282
 7338SOL    HW133647   2.484   4.021   6.094 -1.5571  0.1030  2.9899
 7338SOL    HW233648   2.484   3.914   5.985  2.2196  0.0344  0.3080
 7339SOL     OW33649   1.718   4.283   7.298 -0.5958 -1.0306  0.2690
 7339SOL    HW133650   1.668   4.334   7.361  0.5590 -0.4620  0.7281
 7339SOL    HW233651   1.657   4.213   7.274 -1.3505 -0.4641  0.5382
 7340SOL     OW33652   4.074   2.966   2.221 -0.1957 -0.4654  0.9334
 7340SOL    HW133653   3.994   2.969   2.168 -0.9074  2.0894  2.1161
 7340SOL    HW233654   4.113   2.893   2.174  0.5412 -0.3672  1.3917
 7341SOL     OW33655   2.145   4.635   7.003  0.2790  0.1127 -0.4215
 7341SOL    HW133656   2.095   4.708   6.966 -0.4902  0.0346  0.4743
 7341SOL    HW233657   2.091   4.608   7.078 -2.0876  0.6540 -1.9336
 7342SOL     OW33658   0.844   1.910  16.445  0.1801  0.0580 -0.2795
 7342SOL    HW133659   0.886   1.831  16.411 -1.7365 -2.5468  3.4258
 7342SOL    HW233660   0.768   1.870  16.487  1.1690 -0.2708  1.1807
 7343SOL     OW33661   3.398   1.156   7.751  0.2768 -0.7525 -0.0023
 7343SOL    HW133662   3.443   1.237   7.730 -1.4496 -0.2797 -1.9583
 7343SOL    HW233663   3.417   1.113   7.668 -0.1218  0.1225 -0.5486
 7344SOL     OW33664   0.471   1.313   9.110 -0.5400  0.5672 -0.2562
 7344SOL    HW133665   0.528   1.295   9.035  0.0547 -2.5644  0.9516
 7344SOL    HW233666   0.495   1.242   9.170  0.7633  1.0487 -0.2228
 7345SOL     OW33667   4.131   2.188   7.691 -0.2170  0.9592 -0.5357
 7345SOL    HW133668   4.061   2.181   7.756 -1.3778 -3.1049 -2.1712
 7345SOL    HW233669   4.123   2.097   7.661  3.0168  0.4564  0.2050
 7346SOL     OW33670   3.724   1.649   6.785  0.5498  0.5210  0.1673
 7346SOL    HW133671   3.668   1.639   6.707  1.5179 -0.0573 -0.4426
 7346SOL    HW233672   3.710   1.564   6.825 -0.5069  0.2849 -0.6751
 7347SOL     OW33673   1.300   4.166   5.640  0.1810 -0.1184  0.1986
 7347SOL    HW133674   1.292   4.226   5.715  0.7628  0.8062 -0.4779
 7347SOL    HW233675   1.387   4.191   5.608 -0.1019  0.0433 -0.4331
 7348SOL     OW33676   4.540   3.390   8.424  0.7567  0.0425 -0.2075
 7348SOL    HW133677   4.595   3.375   8.347 -1.5527 -0.7257 -1.7087
 7348SOL    HW233678   4.505   3.478   8.415 -0.2106 -0.2804  0.3908
 7349SOL     OW33679   0.001   0.872   6.430 -0.2099 -1.0580 -0.5863
 7349SOL    HW133680   4.678   0.944   6.439  1.6096  0.6199 -1.4476
 7349SOL    HW233681   4.713   0.818   6.356  0.1864 -0.9194 -0.8376
 7350SOL     OW33682   4.263   3.877  11.297 -0.3492  0.0368  0.2986
 7350SOL    HW133683   4.303   3.963  11.282  1.2342 -1.1251 -2.1928
 7350SOL    HW233684   4.327   3.856  11.365 -1.9763  0.5148  1.9510
 7351SOL     OW33685   3.009   4.580   7.399 -0.5970 -0.6894  0.4819
 7351SOL    HW133686   2.947   4.516   7.364  0.0636 -0.9023 -0.3249
 7351SOL    HW233687   3.094   4.537   7.383  0.2462  0.4434  1.9110
 7352SOL     OW33688   0.476   3.975  14.180  0.0231  0.1283 -0.0991
 7352SOL    HW133689   0.515   4.014  14.101 -2.4306  0.5439 -1.1165
 7352SOL    HW233690   0.512   4.036  14.244 -0.3934  1.8032 -1.4751
 7353SOL     OW33691   3.626   3.622   2.865  0.9222 -0.3856  0.3962
 7353SOL    HW133692   3.617   3.628   2.960 -3.2771 -2.3769  0.1252
 7353SOL    HW233693   3.590   3.705   2.835  1.7115 -0.0129  0.4772
 7354SOL     OW33694   2.690   2.154   8.299 -0.5361 -0.6792 -0.3638
 7354SOL    HW133695   2.764   2.176   8.356 -0.3872 -0.9803 -0.4411
 7354SOL    HW233696   2.690   2.060   8.316 -0.8105 -0.3638  1.3943
 7355SOL     OW33697   3.609   2.550   2.437  0.3154 -0.2701  0.1927
 7355SOL    HW133698   3.633   2.484   2.502  0.6421  1.6015  1.9745
 7355SOL    HW233699   3.640   2.632   2.477 -0.6628  0.0073  0.3790
 7356SOL     OW33700   3.059   1.757   7.588  0.0469  0.0292 -0.4337
 7356SOL    HW133701   3.102   1.804   7.516  1.4729  1.0770  1.0781
 7356SOL    HW233702   3.069   1.664   7.570 -0.6313  0.4716 -3.0045
 7357SOL     OW33703   3.998   2.883   3.991  0.4423 -0.6472  0.1621
 7357SOL    HW133704   4.074   2.936   3.968 -1.0266  0.8147 -1.3505
 7357SOL    HW233705   4.017   2.875   4.084 -2.1223 -1.4469  0.6088
 7358SOL     OW33706   1.381   2.475   3.875 -0.4735  0.1219 -0.1532
 7358SOL    HW133707   1.455   2.477   3.814 -1.2490  1.1701 -1.0598
 7358SOL    HW233708   1.362   2.564   3.903 -1.2072  0.0831 -0.5311
 7359SOL     OW33709   1.745   0.884   3.609  0.4290 -0.5266 -0.2027
 7359SOL    HW133710   1.750   0.978   3.592  0.4575 -0.5572 -0.3637
 7359SOL    HW233711   1.767   0.856   3.521  1.8295  0.5303 -0.1890
 7360SOL     OW33712   4.717   1.540   9.539 -0.2351 -0.1901  0.0990
 7360SOL    HW133713   4.633   1.586   9.534  0.9666  1.9185 -0.5648
 7360SOL    HW233714   0.006   1.550   9.448  1.8610  0.7197  0.8438
 7361SOL     OW33715   1.311   3.520   7.035 -0.1474  0.1911 -0.4997
 7361SOL    HW133716   1.318   3.491   7.126 -2.4193  0.6966 -0.1634
 7361SOL    HW233717   1.394   3.479   7.009 -0.4675 -0.4122 -0.5857
 7362SOL     OW33718   0.540   4.268   6.126 -0.1649 -0.3989 -0.6540
 7362SOL    HW133719   0.586   4.235   6.203 -1.6138 -2.2383 -0.5728
 7362SOL    HW233720   0.598   4.339   6.100  0.1495 -0.1003  0.8699
 7363SOL     OW33721   0.869   4.238   2.301  0.0270  0.8589 -0.5288
 7363SOL    HW133722   0.938   4.207   2.360  0.0988 -4.1317 -3.2950
 7363SOL    HW233723   0.845   4.160   2.252 -1.4078  0.1122  1.3366
 7364SOL     OW33724   4.302   1.118  12.616 -0.3692 -0.5134 -0.6298
 7364SOL    HW133725   4.342   1.038  12.651 -0.5402  0.3267  1.5141
 7364SOL    HW233726   4.247   1.079  12.548 -0.8200 -2.9627  1.1184
 7365SOL     OW33727   4.203   3.094  13.969 -0.1066  0.0754 -0.0061
 7365SOL    HW133728   4.127   3.105  13.913 -1.0326 -0.5963  1.1242
 7365SOL    HW233729   4.163   3.049  14.043  0.6116 -0.8683 -0.1997
 7366SOL     OW33730   3.070   4.708   0.825 -0.5258 -0.0437  0.3563
 7366SOL    HW133731   3.095   4.624   0.863 -1.0235 -0.7450 -0.8646
 7366SOL    HW233732   3.069   4.692   0.730  0.2443  0.7402  0.2201
 7367SOL     OW33733   1.467   3.533   0.208 -0.7202 -0.6023  0.7555
 7367SOL    HW133734   1.452   3.511   0.117  1.0690 -1.6131  0.6993
 7367SOL    HW233735   1.464   3.443   0.241 -1.0504 -0.5195  0.9553
 7368SOL     OW33736   2.399   1.687  13.882 -0.8753  0.0189  1.1230
 7368SOL    HW133737   2.413   1.742  13.960 -0.1638  2.5123 -0.7578
 7368SOL    HW233738   2.420   1.601  13.919 -0.8893 -1.1480 -1.6245
 7369SOL     OW33739   0.536   4.657   4.041 -0.3967 -0.2678  0.1513
 7369SOL    HW133740   0.552   4.657   4.135  1.9456 -1.7756 -0.2499
 7369SOL    HW233741   0.463   4.718   4.037 -0.3361 -0.1529  0.7679
 7370SOL     OW33742   3.252   2.889   1.468 -0.3829  0.6871 -0.0678
 7370SOL    HW133743   3.295   2.830   1.530 -0.2927  1.3149  0.4630
 7370SOL    HW233744   3.308   2.967   1.469  0.5538  0.0402 -1.0609
 7371SOL     OW33745   3.983   4.279   3.836  0.1874 -0.3696 -0.2661
 7371SOL    HW133746   3.950   4.365   3.809  0.7157 -0.2131 -0.4107
 7371SOL    HW233747   4.014   4.238   3.756 -1.1442 -0.4200 -0.7525
 7372SOL     OW33748   3.791   1.418   5.156  0.5698  0.3895  0.4016
 7372SOL    HW133749   3.816   1.422   5.064  0.9284 -3.9636  0.3081
 7372SOL    HW233750   3.869   1.398   5.207  1.3278 -0.9091 -1.2745
 7373SOL     OW33751   4.486   1.866   7.855 -0.1024 -0.6243 -0.1223
 7373SOL    HW133752   4.424   1.881   7.784  0.2970  2.1518  0.1311
 7373SOL    HW233753   4.429   1.892   7.928  0.7261 -0.1067  0.3451
 7374SOL     OW33754   3.361   2.007  14.910  0.2874 -0.5346 -0.7890
 7374SOL    HW133755   3.303   1.950  14.960 -1.7967  0.2942 -2.2630
 7374SOL    HW233756   3.445   1.969  14.935 -0.4519 -1.0801  0.8829
 7375SOL     OW33757   1.741   2.623   3.763 -0.5683  0.1300 -0.2053
 7375SOL    HW133758   1.684   2.546   3.760 -2.3410  1.4721 -1.0504
 7375SOL    HW233759   1.813   2.601   3.821 -0.5077  1.7517  0.3299
 7376SOL     OW33760   2.970   0.055   3.187 -0.5174  0.1925 -0.4702
 7376SOL    HW133761   2.918   0.129   3.154 -2.2898 -1.1608 -0.6908
 7376SOL    HW233762   2.927   4.721   3.144 -3.3980  1.2366  0.6835
 7377SOL     OW33763   0.563   0.311  17.400 -0.0305 -0.5876  0.0071
 7377SOL    HW133764   0.520   0.357  17.472 -0.0728  0.6356 -0.7945
 7377SOL    HW233765   0.639   0.274  17.445 -0.2871  0.4647  1.2888
 7378SOL     OW33766   3.333   4.737   8.991 -0.4509 -0.0242 -0.2425
 7378SOL    HW133767   3.336   0.032   9.080  0.9947 -1.0508  0.1075
 7378SOL    HW233768   3.241   0.006   8.965 -1.1503 -2.7242  1.3533
 7379SOL     OW33769   1.770   3.780   4.717 -0.1041 -0.8325  0.0325
 7379SOL    HW133770   1.861   3.751   4.725  0.3878  1.1877  1.7258
 7379SOL    HW233771   1.742   3.801   4.806  2.4784 -0.3763  0.7427
 7380SOL     OW33772   2.473   1.894   5.190  0.0130 -0.1202  0.1089
 7380SOL    HW133773   2.445   1.880   5.280 -0.6060 -2.3723 -0.4276
 7380SOL    HW233774   2.524   1.974   5.198  0.3020 -0.4170  1.2085
 7381SOL     OW33775   3.880   0.250   6.932  0.3041 -0.0191 -0.5539
 7381SOL    HW133776   3.850   0.234   6.843  1.0730 -0.5448 -0.7166
 7381SOL    HW233777   3.816   0.197   6.980 -0.0918 -1.3352 -2.5241
 7382SOL     OW33778   3.103   2.479   7.200  0.1907  0.6127 -0.2630
 7382SOL    HW133779   3.010   2.456   7.200 -0.1301  1.8929  0.1193
 7382SOL    HW233780   3.111   2.474   7.296 -1.4996 -0.7895 -0.1930
 7383SOL     OW33781   0.203   2.166   1.922  0.6001  0.5177 -0.1430
 7383SOL    HW133782   0.125   2.158   1.978 -0.1167 -3.1468 -1.6907
 7383SOL    HW233783   0.163   2.160   1.835  0.0756  1.3447  0.0348
 7384SOL     OW33784   1.079   2.013  13.784  0.5179 -0.1670 -0.7075
 7384SOL    HW133785   1.073   2.090  13.840  0.0309  0.0176 -1.0151
 7384SOL    HW233786   1.070   1.953  13.857  0.2357  1.0309  0.2427
 7385SOL     OW33787   2.437   3.102   1.291  0.1523  0.2827 -0.1143
 7385SOL    HW133788   2.411   3.188   1.258  0.4952  0.1847 -0.6527
 7385SOL    HW233789   2.533   3.102   1.284  0.0710  1.9842 -1.1168
 7386SOL     OW33790   2.443   2.494  15.224 -0.0368 -0.0465  0.2162
 7386SOL    HW133791   2.462   2.451  15.307 -0.5102  0.4760  0.5968
 7386SOL    HW233792   2.530   2.498  15.186  0.4438  1.1999  1.4564
 7387SOL     OW33793   1.975   4.101   7.508 -1.0272 -0.1192  0.2305
 7387SOL    HW133794   2.051   4.159   7.499 -1.3641  0.1562 -0.8052
 7387SOL    HW233795   1.979   4.049   7.428 -4.8468 -2.7559  1.7785
 7388SOL     OW33796   3.618   4.025  13.281 -0.4151 -0.8236  0.1148
 7388SOL    HW133797   3.685   4.056  13.221  0.4372 -1.3911  0.7811
 7388SOL    HW233798   3.671   4.018  13.360  2.5099  0.9042 -1.7113
 7389SOL     OW33799   4.483   1.115   4.870  0.1379  0.3190 -0.3573
 7389SOL    HW133800   4.413   1.129   4.933  1.0920  1.1865  0.4890
 7389SOL    HW233801   4.506   1.206   4.851 -1.1667  0.6213 -0.5425
 7390SOL     OW33802   1.771   4.625   4.460  0.2249 -0.6331  0.2239
 7390SOL    HW133803   1.676   4.635   4.463  0.6143  2.2844  3.1557
 7390SOL    HW233804   1.780   4.544   4.410 -0.1740  1.1334 -2.7374
 7391SOL     OW33805   3.443   0.798  10.380 -0.1577  0.0861 -0.1445
 7391SOL    HW133806   3.388   0.807  10.458  0.7819  2.2929  0.2721
 7391SOL    HW233807   3.402   0.717  10.350 -2.9868  2.2442 -2.0389
 7392SOL     OW33808   0.262   1.212   1.881 -0.4209  0.2987  0.5511
 7392SOL    HW133809   0.327   1.282   1.880 -0.5966  0.4639  0.7926
 7392SOL    HW233810   0.310   1.142   1.923  0.0404  0.3393  0.0934
 7393SOL     OW33811   1.339   4.124   4.981 -0.0543  0.8715  0.4026
 7393SOL    HW133812   1.382   4.184   4.921 -2.0343  0.4836 -1.4477
 7393SOL    HW233813   1.248   4.123   4.950  0.5127  1.5534 -1.2750
 7394SOL     OW33814   4.506   0.498  11.863 -0.4264 -0.0481  0.0583
 7394SOL    HW133815   4.510   0.512  11.768 -0.4585 -2.0474 -0.2282
 7394SOL    HW233816   4.412   0.480  11.854 -0.2857  0.0776 -1.8612
 7395SOL     OW33817   4.314   3.236  15.158 -0.2466  0.5008  0.1939
 7395SOL    HW133818   4.277   3.173  15.096  3.7778 -0.7164 -1.0124
 7395SOL    HW233819   4.353   3.308  15.109  1.9127 -0.4236  0.5120
 7396SOL     OW33820   0.025   1.213  15.618  0.4060 -0.4095  0.1227
 7396SOL    HW133821   0.010   1.165  15.536  1.2774  1.3086 -1.0360
 7396SOL    HW233822   0.116   1.240  15.605 -0.4989  2.4985 -0.2359
 7397SOL     OW33823   4.667   1.373   6.607  0.4795  0.2735 -0.3386
 7397SOL    HW133824   4.572   1.372   6.601  0.4228 -2.0415  0.8922
 7397SOL    HW233825   4.688   1.393   6.698 -2.4267 -0.9413  0.5985
 7398SOL     OW33826   0.087   1.489   8.935  0.3226 -0.5454  0.2325
 7398SOL    HW133827   0.176   1.481   8.969  0.1352  0.2390  0.9036
 7398SOL    HW233828   0.086   1.578   8.901  0.6409  0.3424  2.5636
 7399SOL     OW33829   3.666   0.648   6.260 -0.2002  0.1986 -0.1105
 7399SOL    HW133830   3.715   0.719   6.218  0.9760 -0.6521 -0.1761
 7399SOL    HW233831   3.676   0.674   6.351 -0.3624  2.2794 -0.6935
 7400SOL     OW33832   1.944   3.853   9.407  0.2606  0.2850  0.5931
 7400SOL    HW133833   1.998   3.916   9.360 -1.5500  1.6191  0.2853
 7400SOL    HW233834   2.010   3.789   9.436  1.0099  1.2711  1.0470
 7401SOL     OW33835   3.120   3.933   5.979  0.0085 -0.0957 -0.0715
 7401SOL    HW133836   3.204   3.964   5.945  0.3667  0.9695  1.7336
 7401SOL    HW233837   3.124   3.965   6.070 -0.2753  0.4129 -0.2375
 7402SOL     OW33838   3.940   0.408   3.234  0.2341 -0.1095  0.4267
 7402SOL    HW133839   3.887   0.431   3.158 -1.4876  1.9373  2.2198
 7402SOL    HW233840   3.993   0.487   3.238 -0.2068  0.2586 -1.0534
 7403SOL     OW33841   1.807   0.089   1.800  0.2740 -0.2891  0.2493
 7403SOL    HW133842   1.787   0.084   1.707 -1.1360  0.9816  0.4803
 7403SOL    HW233843   1.809   4.735   1.822  2.1193 -0.6657 -1.4977
 7404SOL     OW33844   3.450   3.893   7.934 -0.9409 -0.5468  0.2416
 7404SOL    HW133845   3.405   3.976   7.923 -0.2451 -0.0654  1.1066
 7404SOL    HW233846   3.378   3.841   7.970 -2.2542  2.1472  1.4180
 7405SOL     OW33847   2.532   3.958   2.083  0.1667 -0.5237 -0.5970
 7405SOL    HW133848   2.568   3.942   1.996 -0.0462 -1.0328 -0.5894
 7405SOL    HW233849   2.595   3.917   2.142  0.4774  0.0058 -0.5619
 7406SOL     OW33850   3.129   1.222   9.482 -0.7704  0.3439 -0.2029
 7406SOL    HW133851   3.079   1.141   9.495  0.9144 -1.0102 -2.2416
 7406SOL    HW233852   3.088   1.304   9.507 -0.7249 -0.1189  1.3757
 7407SOL     OW33853   3.304   0.058   0.994  0.4076 -0.0193 -0.3753
 7407SOL    HW133854   3.235   0.018   0.940 -0.1558 -1.2728  1.2949
 7407SOL    HW233855   3.384   0.031   0.950  0.7040 -1.2924  0.9231
 7408SOL     OW33856   0.794   0.006  11.523  0.5480  0.5334  0.6173
 7408SOL    HW133857   0.701   4.726  11.530  0.6466 -0.1848 -0.0740
 7408SOL    HW233858   0.822   4.692  11.598 -0.1625  0.8097  1.0779
 7409SOL     OW33859   0.852   4.326   8.446 -0.5309  0.1281  0.1634
 7409SOL    HW133860   0.839   4.384   8.521 -0.5214  1.2879 -0.7360
 7409SOL    HW233861   0.912   4.261   8.481 -1.5984 -0.1936  1.3721
 7410SOL     OW33862   2.315   2.332   0.164  0.1454  0.5608 -0.4443
 7410SOL    HW133863   2.261   2.256   0.184 -1.7320  1.6687 -1.3238
 7410SOL    HW233864   2.255   2.376   0.104  1.0634 -1.3165 -2.7390
 7411SOL     OW33865   1.827   4.348   8.310 -0.2341  0.5112 -0.7819
 7411SOL    HW133866   1.890   4.276   8.306  3.3061  3.5005  1.5010
 7411SOL    HW233867   1.755   4.323   8.367  1.3040 -2.2099 -0.0450
 7412SOL     OW33868   3.278   3.597   7.644 -0.0999  0.7067 -0.1472
 7412SOL    HW133869   3.297   3.611   7.551 -0.9154  1.4415 -0.2059
 7412SOL    HW233870   3.310   3.507   7.647 -1.4976  0.2766  1.7261
 7413SOL     OW33871   1.508   3.587   3.060  0.3721  0.1095  0.5255
 7413SOL    HW133872   1.460   3.511   3.092 -0.3659 -0.0527 -0.9503
 7413SOL    HW233873   1.586   3.600   3.114  1.0870  1.6204 -0.8568
 7414SOL     OW33874   3.394   0.821   4.958  0.1290 -0.4504 -0.3184
 7414SOL    HW133875   3.477   0.843   5.001 -0.6476  0.2215  0.8215
 7414SOL    HW233876   3.379   0.912   4.932 -0.5516 -0.9498 -1.6733
 7415SOL     OW33877   0.653   4.734  12.297  0.4407  0.4516  0.0593
 7415SOL    HW133878   0.737   4.694  12.322  0.2423 -0.9686 -1.5576
 7415SOL    HW233879   0.673   0.087  12.313  0.9412  0.5046 -0.8215
 7416SOL     OW33880   1.318   3.840   4.671 -0.2491  0.4227 -0.4462
 7416SOL    HW133881   1.293   3.826   4.763 -0.6256  0.0434 -0.6059
 7416SOL    HW233882   1.257   3.785   4.622  1.0515  1.3867 -3.1669
 7417SOL     OW33883   1.372   0.829   3.059  0.5363 -0.0406  0.2286
 7417SOL    HW133884   1.312   0.776   3.006 -0.4626  1.3870 -0.0557
 7417SOL    HW233885   1.363   0.913   3.013 -1.6120 -0.5087 -0.1762
 7418SOL     OW33886   2.644   2.401  15.469  0.2138  0.2967  0.6202
 7418SOL    HW133887   2.574   2.338  15.455  0.7659 -0.3560  0.8257
 7418SOL    HW233888   2.613   2.433  15.553 -1.9551  1.7462 -0.7255
 7419SOL     OW33889   3.109   3.119   0.172 -0.3341 -0.0459  0.2616
 7419SOL    HW133890   3.188   3.142   0.124 -0.8719 -1.5792 -1.3458
 7419SOL    HW233891   3.069   3.206   0.178 -0.6732 -0.3358  2.2798
 7420SOL     OW33892   3.519   2.621   6.332  0.1061  0.2948 -0.3065
 7420SOL    HW133893   3.442   2.678   6.325  0.4188  0.8248  0.5440
 7420SOL    HW233894   3.545   2.639   6.422 -1.0641 -0.0740  0.0967
 7421SOL     OW33895   2.340   1.848   5.431 -0.0457  0.1397 -0.1309
 7421SOL    HW133896   2.304   1.762   5.449  0.5711  0.1569  1.1988
 7421SOL    HW233897   2.394   1.851   5.509 -1.6731 -2.3020  1.0718
 7422SOL     OW33898   2.415   4.224  10.523 -0.2449 -0.1919 -0.3583
 7422SOL    HW133899   2.487   4.165  10.503  0.5816  1.3623 -1.9818
 7422SOL    HW233900   2.394   4.263  10.438  0.4708 -0.7982 -0.8089
 7423SOL     OW33901   2.666   1.255  16.033  0.6175 -0.7378 -0.0095
 7423SOL    HW133902   2.579   1.236  16.067  0.0379  2.3166  0.1824
 7423SOL    HW233903   2.656   1.221  15.944  1.8912 -2.8400  0.6581
 7424SOL     OW33904   4.133   0.154  16.873 -0.1714  0.5790  0.4324
 7424SOL    HW133905   4.097   0.241  16.857 -2.7228 -0.6115 -0.3331
 7424SOL    HW233906   4.161   0.157  16.964 -2.2567 -1.5233  1.1520
 7425SOL     OW33907   0.829   3.771   4.153 -0.5894 -0.5691 -0.4912
 7425SOL    HW133908   0.913   3.726   4.162 -1.1572 -1.6814 -0.7612
 7425SOL    HW233909   0.822   3.760   4.058 -0.7870 -0.5138 -0.4844
 7426SOL     OW33910   4.397   0.028  12.176 -0.7531 -0.0164  0.3364
 7426SOL    HW133911   4.400   0.112  12.129 -0.4677  0.9499  2.0868
 7426SOL    HW233912   4.488   4.737  12.174 -0.7199 -0.1070  3.9652
 7427SOL     OW33913   2.779   1.535   5.565 -0.1313 -0.4083  0.1618
 7427SOL    HW133914   2.862   1.560   5.524  0.1788 -0.8937  0.5116
 7427SOL    HW233915   2.727   1.507   5.489 -0.0166  0.3158 -0.1901
 7428SOL     OW33916   0.035   0.081   3.342 -0.8333 -0.4725 -0.4970
 7428SOL    HW133917   0.055   4.739   3.296 -0.2070 -0.2837 -0.5657
 7428SOL    HW233918   0.112   0.095   3.397 -1.6251 -2.3484  1.0638
 7429SOL     OW33919   0.947   2.738   4.980  0.2803 -0.9311  0.2136
 7429SOL    HW133920   1.026   2.755   4.928  1.1953 -2.1922  1.1881
 7429SOL    HW233921   0.923   2.828   5.003 -2.1133 -1.4106 -0.4253
 7430SOL     OW33922   0.048   0.736  16.159  0.1262  0.2117 -0.1714
 7430SOL    HW133923   0.124   0.691  16.198  0.3154 -0.9437 -1.8657
 7430SOL    HW233924   4.727   0.670  16.126 -2.0634  0.1897  4.0258
 7431SOL     OW33925   0.021   2.696   1.814  1.1472 -0.3344  0.1151
 7431SOL    HW133926   0.103   2.724   1.773  0.5917  1.8656  0.5021
 7431SOL    HW233927   0.062   2.639   1.878  0.9517  0.0653  0.6021
 7432SOL     OW33928   3.779   3.231   7.812  0.0097 -0.3825  0.0744
 7432SOL    HW133929   3.717   3.205   7.743 -0.5782  2.8239 -0.5815
 7432SOL    HW233930   3.749   3.182   7.889 -1.0979 -0.4956 -0.4185
 7433SOL     OW33931   2.962   1.196   3.506  0.8808  0.0051  0.0515
 7433SOL    HW133932   2.978   1.187   3.412 -2.2386  0.8952 -0.5797
 7433SOL    HW233933   2.964   1.291   3.510  0.0639  0.0585 -0.8181
 7434SOL     OW33934   2.616   1.822   6.450  0.0315 -0.2764 -0.3481
 7434SOL    HW133935   2.711   1.812   6.449 -0.0321 -1.3256  3.6729
 7434SOL    HW233936   2.595   1.914   6.435 -0.7101 -0.0115  2.3837
 7435SOL     OW33937   3.828   2.950   7.730 -0.1166  0.3989  0.6150
 7435SOL    HW133938   3.915   2.961   7.769 -0.6389  0.8334  1.6546
 7435SOL    HW233939   3.846   3.002   7.652  0.6332  0.2184  0.6628
 7436SOL     OW33940   1.623   0.657   3.663 -0.5815 -0.4021  0.0647
 7436SOL    HW133941   1.570   0.667   3.584  0.3215  1.6075 -0.2664
 7436SOL    HW233942   1.689   0.726   3.661 -1.3790  0.4409  2.7164
 7437SOL     OW33943   0.388   1.539   2.568  0.1082  0.6979 -0.0091
 7437SOL    HW133944   0.299   1.560   2.595  0.6251 -0.2600  2.4685
 7437SOL    HW233945   0.381   1.477   2.495  3.1720  0.8055 -0.4254
 7438SOL     OW33946   1.090   3.308   8.747  0.0749 -0.1435 -0.3991
 7438SOL    HW133947   1.113   3.368   8.676  1.8837 -1.1581 -0.6591
 7438SOL    HW233948   1.168   3.300   8.802  0.5917 -2.0143 -1.4010
 7439SOL     OW33949   0.482   0.731   5.079 -0.1114  0.2420 -0.4226
 7439SOL    HW133950   0.426   0.672   5.029  1.6617 -2.0024  0.2809
 7439SOL    HW233951   0.426   0.809   5.077 -0.8586 -0.2949 -0.5222
 7440SOL     OW33952   0.857   4.335   4.001 -0.4022  0.3768  0.5578
 7440SOL    HW133953   0.766   4.345   3.972  0.0311 -0.0658 -0.9477
 7440SOL    HW233954   0.905   4.334   3.919 -0.4317  0.0498  0.5464
 7441SOL     OW33955   2.207   0.054  17.614 -0.2187  0.0581 -0.4405
 7441SOL    HW133956   2.157   0.039  17.534  0.3820 -0.7525 -0.6620
 7441SOL    HW233957   2.245   4.706  17.627  0.3517  0.3464 -0.1947
 7442SOL     OW33958   2.838   2.426   5.443  0.3276  0.1607  0.2311
 7442SOL    HW133959   2.764   2.394   5.494 -0.7076  0.2791 -1.1788
 7442SOL    HW233960   2.788   2.475   5.377  0.2739 -0.7926 -0.4387
 7443SOL     OW33961   0.108   1.119  14.521  0.4043  0.7512  0.3428
 7443SOL    HW133962   0.094   1.104  14.614  0.0306  0.8192  0.2948
 7443SOL    HW233963   0.097   1.036  14.475 -3.2005 -0.5551  3.5932
 7444SOL     OW33964   1.781   0.146   5.429  0.1264 -0.0829  0.1660
 7444SOL    HW133965   1.696   0.187   5.413  0.9611  2.1037  1.4527
 7444SOL    HW233966   1.834   0.222   5.452 -0.8933  0.3000  1.2627
 7445SOL     OW33967   1.179   3.110   1.721 -0.0047 -0.3246  0.3598
 7445SOL    HW133968   1.230   3.034   1.748 -0.7100 -0.6797  0.6986
 7445SOL    HW233969   1.168   3.149   1.808 -0.3896 -0.0388  0.1827
 7446SOL     OW33970   1.887   3.124   7.693  0.3665  0.3525  0.0665
 7446SOL    HW133971   1.839   3.137   7.775  0.3755  1.4593 -0.0929
 7446SOL    HW233972   1.827   3.059   7.657  2.1371 -2.1488  1.6838
 7447SOL     OW33973   4.736   0.554   6.750 -0.0442  0.2899  0.2072
 7447SOL    HW133974   4.720   0.647   6.734  0.7854  0.1933 -1.1888
 7447SOL    HW233975   0.068   0.551   6.813  0.2325  0.4687 -0.1012
 7448SOL     OW33976   4.342   0.758  17.315 -0.5255  0.4809 -0.2438
 7448SOL    HW133977   4.249   0.740  17.301 -0.0594  0.1416 -2.9922
 7448SOL    HW233978   4.348   0.850  17.291  0.5178  0.2909 -0.7172
 7449SOL     OW33979   1.075   1.325   8.165 -0.3878 -0.5831  0.5398
 7449SOL    HW133980   1.070   1.362   8.077  1.4013  1.1918  1.1779
 7449SOL    HW233981   1.076   1.230   8.152  0.5389 -0.5557  0.3619
 7450SOL     OW33982   2.846   4.452  12.741 -0.4882 -0.2876  0.1060
 7450SOL    HW133983   2.820   4.412  12.658  0.0469  0.9602 -0.6647
 7450SOL    HW233984   2.796   4.533  12.737 -0.9998 -0.6161 -0.1074
 7451SOL     OW33985   2.712   0.703   8.549 -0.1647 -0.4838  0.5138
 7451SOL    HW133986   2.759   0.740   8.624 -2.3893 -0.9273  2.1150
 7451SOL    HW233987   2.623   0.736   8.564  1.1497  3.2808  0.1650
 7452SOL     OW33988   2.831   2.034   2.712 -0.6104  0.0577  0.3520
 7452SOL    HW133989   2.759   2.023   2.650  0.7506  0.2035 -1.2744
 7452SOL    HW233990   2.794   1.987   2.787  1.0009  0.5605  1.4497
 7453SOL     OW33991   0.359   0.103   4.123 -0.3241 -0.6176 -0.5460
 7453SOL    HW133992   0.327   0.072   4.208 -1.7285  2.1267 -0.0907
 7453SOL    HW233993   0.284   0.144   4.080 -2.0801 -0.7904  2.3386
 7454SOL     OW33994   1.091   1.795   1.837 -0.3079  0.0491  0.0358
 7454SOL    HW133995   1.165   1.736   1.848 -1.6169 -1.5502  0.1129
 7454SOL    HW233996   1.129   1.880   1.861 -1.1532  0.2171  0.7915
 7455SOL     OW33997   2.500   4.126  13.633  0.2004  0.2095 -0.5310
 7455SOL    HW133998   2.517   4.220  13.633  1.3002  0.0091 -0.4069
 7455SOL    HW233999   2.591   4.097  13.639  0.0247 -0.4246 -0.9626
 7456SOL     OW34000   0.508   2.723   7.967 -0.1979 -0.2794  0.4641
 7456SOL    HW134001   0.584   2.759   7.921 -0.5080 -1.3462 -0.8847
 7456SOL    HW234002   0.439   2.744   7.904  0.5894  2.8472  0.6414
 7457SOL     OW34003   2.492   0.016   8.031  0.2236  0.0372 -0.1155
 7457SOL    HW134004   2.441   4.680   8.002  1.8875 -1.9850  2.0966
 7457SOL    HW234005   2.499   4.731   8.124 -0.0492 -1.1651 -0.4155
 7458SOL     OW34006   2.143   3.863   8.337  0.3393  0.2477 -0.3521
 7458SOL    HW134007   2.214   3.926   8.322  0.2727  0.3990 -0.0312
 7458SOL    HW234008   2.186   3.778   8.320 -0.7889 -0.2041 -0.9392
 7459SOL     OW34009   2.166   1.814  15.089  0.1866  0.1129 -0.5333
 7459SOL    HW134010   2.123   1.807  15.004 -3.0762 -1.7805  1.2974
 7459SOL    HW234011   2.107   1.759  15.141 -1.8237  0.4755 -2.4476
 7460SOL     OW34012   3.904   2.738   5.459 -0.0570  0.1373 -0.3702
 7460SOL    HW134013   3.979   2.777   5.414  0.0321  0.3362 -0.0513
 7460SOL    HW234014   3.904   2.649   5.425 -1.1114  0.2237 -0.5932
 7461SOL     OW34015   3.734   2.375   3.750 -0.1059 -0.9108 -0.2188
 7461SOL    HW134016   3.708   2.467   3.754 -2.0296 -1.3539 -2.4035
 7461SOL    HW234017   3.794   2.376   3.824  2.2504 -1.0795 -2.1186
 7462SOL     OW34018   0.368   3.190  11.250  0.1158 -0.4214 -0.1294
 7462SOL    HW134019   0.284   3.206  11.206 -1.0824  1.0667  2.7153
 7462SOL    HW234020   0.357   3.111  11.303  2.4008  0.3872  1.5154
 7463SOL     OW34021   3.077   1.223  11.793 -0.0781 -0.3489  0.5996
 7463SOL    HW134022   3.126   1.239  11.874  0.6378 -1.0380  0.2947
 7463SOL    HW234023   3.101   1.131  11.788  0.4041 -0.2901  1.7818
 7464SOL     OW34024   1.850   4.656   8.830  0.1824 -0.6004  0.2069
 7464SOL    HW134025   1.765   4.612   8.823 -0.5852  1.3368 -2.7728
 7464SOL    HW234026   1.828   0.005   8.860 -1.1275 -1.4352  1.7129
 7465SOL     OW34027   1.921   4.369   2.867 -0.3074  0.3409 -0.7000
 7465SOL    HW134028   1.996   4.348   2.923 -1.7053  1.9329  1.7543
 7465SOL    HW234029   1.949   4.336   2.782  2.1142 -1.0103  0.6182
 7466SOL     OW34030   2.051   2.553   2.537  0.3513 -0.5132  0.1055
 7466SOL    HW134031   2.090   2.640   2.545  0.6889 -0.5157 -1.4596
 7466SOL    HW234032   1.964   2.572   2.502 -0.4326 -1.3665  1.5707
 7467SOL     OW34033   0.237   0.816  10.534  0.3511  0.1241  0.0830
 7467SOL    HW134034   0.165   0.872  10.507 -0.2463 -0.2333  0.9332
 7467SOL    HW234035   0.280   0.867  10.602  0.3298  0.1636  0.0665
 7468SOL     OW34036   3.512   3.545  11.121  0.6614  0.4745  0.4644
 7468SOL    HW134037   3.595   3.510  11.087  0.4479  0.0170  0.4077
 7468SOL    HW234038   3.554   3.620  11.163 -0.8111  1.2765  0.4740
 7469SOL     OW34039   2.548   0.816   7.525  0.1562  0.3714  0.2067
 7469SOL    HW134040   2.601   0.757   7.578  1.1632  1.2611  0.1929
 7469SOL    HW234041   2.609   0.889   7.512 -0.8025  0.7919 -2.0742
 7470SOL     OW34042   0.660   4.416   9.813  0.3962  0.1863 -0.1865
 7470SOL    HW134043   0.604   4.354   9.860  1.5779  0.9687  2.2735
 7470SOL    HW234044   0.687   4.459   9.894  1.1608  0.4884 -0.5984
 7471SOL     OW34045   0.195   2.077   7.186  0.2376 -0.2418 -0.8706
 7471SOL    HW134046   0.290   2.091   7.191  0.1917 -0.2255 -0.0172
 7471SOL    HW234047   0.159   2.166   7.186 -2.0757 -1.1966 -0.3946
 7472SOL     OW34048   1.936   3.487   1.988 -0.3923  0.1872 -0.1635
 7472SOL    HW134049   1.935   3.509   2.081 -1.8730  0.5982 -0.2727
 7472SOL    HW234050   1.930   3.580   1.964 -0.9033  0.1408 -0.2211
 7473SOL     OW34051   4.374   1.843   7.627 -0.2418 -0.4458 -0.2297
 7473SOL    HW134052   4.328   1.765   7.594  2.0460 -1.5321 -0.8044
 7473SOL    HW234053   4.424   1.859   7.547  0.2641 -3.5945 -0.5494
 7474SOL     OW34054   1.940   3.584   7.014 -1.0600  0.1066  0.3529
 7474SOL    HW134055   1.957   3.674   6.988 -1.3009  0.2428  0.6596
 7474SOL    HW234056   2.030   3.569   7.041 -0.5198  0.2515 -1.4380
 7475SOL     OW34057   2.805   3.110   4.615  1.0297 -1.1967  0.3133
 7475SOL    HW134058   2.860   3.179   4.579 -2.0384  1.4305  0.6319
 7475SOL    HW234059   2.752   3.082   4.540  0.3402  1.5680 -0.2391
 7476SOL     OW34060   3.756   2.304   4.271 -0.1676  0.1123  0.1800
 7476SOL    HW134061   3.832   2.334   4.322 -1.2453  1.0056  1.2616
 7476SOL    HW234062   3.699   2.380   4.286 -1.2786 -0.3066 -2.0449
 7477SOL     OW34063   0.444   2.356   9.043  0.2309 -0.1077 -0.3203
 7477SOL    HW134064   0.503   2.315   9.106  0.2909  1.5720  0.7338
 7477SOL    HW234065   0.419   2.429   9.100 -1.0823 -1.7334  1.1500
 7478SOL     OW34066   1.377   2.457   0.584  0.0110 -0.0303  0.1188
 7478SOL    HW134067   1.305   2.442   0.523  1.3253 -0.6264 -1.2764
 7478SOL    HW234068   1.338   2.442   0.670  0.4321 -1.1016  0.1215
 7479SOL     OW34069   2.140   2.284   5.839  0.1595  0.5879 -0.1990
 7479SOL    HW134070   2.091   2.229   5.777  1.8862 -0.0152 -1.0149
 7479SOL    HW234071   2.133   2.239   5.923  1.8223  0.3424 -0.2078
 7480SOL     OW34072   3.715   3.025   7.431  0.2046  0.4647  0.6342
 7480SOL    HW134073   3.790   3.065   7.388  0.2255 -1.9115 -1.5380
 7480SOL    HW234074   3.666   2.985   7.360  0.2008  0.8547  0.4170
 7481SOL     OW34075   3.231   0.969   5.738 -0.0163  0.4160 -0.3601
 7481SOL    HW134076   3.281   1.047   5.762  0.7751  0.2075 -1.3128
 7481SOL    HW234077   3.293   0.897   5.750  0.3292  1.3055  3.2427
 7482SOL     OW34078   1.465   1.681   6.358  0.1694  0.0306  0.3736
 7482SOL    HW134079   1.418   1.692   6.275  0.5653 -2.4375 -0.1761
 7482SOL    HW234080   1.546   1.647   6.320 -0.0541 -0.1081  0.0192
 7483SOL     OW34081   0.798   0.737   9.096 -0.1052  0.3478  0.0511
 7483SOL    HW134082   0.782   0.827   9.066 -0.2874 -0.3867 -2.0935
 7483SOL    HW234083   0.753   0.690   9.025 -1.9652  1.7262  0.3022
 7484SOL     OW34084   3.560   2.689   8.182  0.2559  0.4392 -0.3314
 7484SOL    HW134085   3.552   2.600   8.215 -0.8796  0.6848  0.0597
 7484SOL    HW234086   3.477   2.724   8.213  0.1033  1.2669 -1.6553
 7485SOL     OW34087   4.560   2.829   9.726  0.1085 -0.1197  0.3085
 7485SOL    HW134088   4.641   2.779   9.720  1.1122  1.2471  2.5357
 7485SOL    HW234089   4.525   2.813   9.638  1.6972  0.4825 -0.4203
 7486SOL     OW34090   1.078   3.967   2.232  1.4030  0.3877  0.0727
 7486SOL    HW134091   1.030   3.893   2.268 -0.2655  1.5722  0.2973
 7486SOL    HW234092   1.052   3.964   2.140  0.8664 -1.1134  0.2674
 7487SOL     OW34093   3.707   4.734   6.438 -0.0658 -0.5753  0.6614
 7487SOL    HW134094   3.654   4.694   6.369 -1.5241 -0.6930  1.8374
 7487SOL    HW234095   3.654   0.062   6.481  0.2220  0.3575 -0.4609
 7488SOL     OW34096   0.800   0.251   6.890 -0.2646  0.0685 -0.2789
 7488SOL    HW134097   0.803   0.265   6.796  0.8705 -0.7875 -0.3675
 7488SOL    HW234098   0.895   0.259   6.893 -0.2075 -0.1505 -1.9075
 7489SOL     OW34099   4.281   0.854   2.587  0.4539  0.1112  0.8619
 7489SOL    HW134100   4.361   0.812   2.621  0.8882  0.8666  0.7666
 7489SOL    HW234101   4.318   0.937   2.558  0.3004 -0.0324  0.2710
 7490SOL     OW34102   1.677   2.860   6.891  0.2755 -0.7515 -0.0883
 7490SOL    HW134103   1.697   2.826   6.978 -0.2966 -0.5867  0.1101
 7490SOL    HW234104   1.639   2.786   6.844  2.5777 -1.4452 -0.8767
 7491SOL     OW34105   2.214   0.202   4.338  0.3644 -0.2702 -0.3250
 7491SOL    HW134106   2.290   0.143   4.335  0.7673  0.1444  2.2584
 7491SOL    HW234107   2.163   0.167   4.265  0.1442 -0.7212  0.0528
 7492SOL     OW34108   0.994   3.539   6.386  0.2827  0.2214  0.4271
 7492SOL    HW134109   1.037   3.614   6.427 -0.8943  2.1435 -1.8765
 7492SOL    HW234110   0.995   3.481   6.463  0.4716 -0.9453 -0.4491
 7493SOL     OW34111   0.422   3.576   6.217 -0.2095  1.0678 -0.3286
 7493SOL    HW134112   0.422   3.644   6.149 -0.4610  0.7674 -0.6284
 7493SOL    HW234113   0.514   3.573   6.243 -0.5183 -0.4057  0.5909
 7494SOL     OW34114   4.510   4.150   6.615 -0.4416  0.4185  0.0262
 7494SOL    HW134115   4.562   4.182   6.689  0.2440 -1.7601  0.4914
 7494SOL    HW234116   4.544   4.205   6.545  1.5272  2.9383  2.9333
 7495SOL     OW34117   0.245   2.199   5.716 -0.0890  0.0644 -0.1708
 7495SOL    HW134118   0.263   2.227   5.806  3.2265  3.3707 -1.8726
 7495SOL    HW234119   0.221   2.107   5.728  2.8967 -0.5171  1.2848
 7496SOL     OW34120   2.563   2.164   2.178 -0.2191 -0.4258 -0.4304
 7496SOL    HW134121   2.469   2.181   2.183  0.0889  1.0968  0.1114
 7496SOL    HW234122   2.569   2.072   2.150  0.6824 -1.2514  2.4982
 7497SOL     OW34123   0.316   0.504   1.531  0.2409  0.8411  0.4677
 7497SOL    HW134124   0.365   0.424   1.508  0.0639  0.5061  1.2469
 7497SOL    HW234125   0.359   0.570   1.477  0.8088  0.4504  0.4370
 7498SOL     OW34126   4.352   2.748   8.633 -0.4724  0.4131  0.0493
 7498SOL    HW134127   4.441   2.776   8.610 -0.0759  1.3061  2.6736
 7498SOL    HW234128   4.323   2.707   8.552 -0.6034 -2.0426  1.3289
 7499SOL     OW34129   3.444   0.564  15.201 -0.2852 -0.1352  0.0415
 7499SOL    HW134130   3.353   0.564  15.233 -0.8845  0.6766 -1.6585
 7499SOL    HW234131   3.488   0.546  15.284  1.1442 -1.2506 -0.9548
 7500SOL     OW34132   0.284   1.950   8.616  0.1083  0.5456  0.3497
 7500SOL    HW134133   0.360   2.004   8.594 -1.5493  2.7135 -0.0412
 7500SOL    HW234134   0.211   2.010   8.600 -0.7548 -0.7609 -0.7249
 7501SOL     OW34135   1.883   4.056  13.699 -0.5636  0.0524  0.2710
 7501SOL    HW134136   1.868   4.028  13.609  0.4123  0.8834 -0.1484
 7501SOL    HW234137   1.839   4.141  13.703 -1.5267 -0.3917 -0.8032
 7502SOL     OW34138   3.928   0.261  15.699 -0.0541  0.4006 -1.0552
 7502SOL    HW134139   3.931   0.354  15.721  2.6237  0.1224 -0.2250
 7502SOL    HW234140   3.835   0.256  15.677 -0.6395 -1.3252  1.8290
 7503SOL     OW34141   3.226   1.410   4.049 -0.1217 -0.0290 -0.0707
 7503SOL    HW134142   3.217   1.357   4.128 -0.5477  0.3033  0.1036
 7503SOL    HW234143   3.171   1.484   4.075 -3.6694 -2.0627 -1.7556
 7504SOL     OW34144   1.429   2.247   2.198  0.3313  0.0631 -0.6086
 7504SOL    HW134145   1.500   2.200   2.154 -0.3956 -1.1032 -0.5297
 7504SOL    HW234146   1.368   2.175   2.213  2.1682 -0.9988  1.6922
 7505SOL     OW34147   0.857   1.916   2.413  0.1482 -0.1957  0.5359
 7505SOL    HW134148   0.880   1.850   2.348  0.3644 -1.7693  2.2123
 7505SOL    HW234149   0.940   1.914   2.462 -0.2299 -0.0747  1.1719
 7506SOL     OW34150   1.762   2.748   7.113  0.1646  0.0881 -0.2289
 7506SOL    HW134151   1.684   2.724   7.164 -0.0297  1.4278  0.1039
 7506SOL    HW234152   1.777   2.661   7.076  1.0107  0.6373 -1.1822
 7507SOL     OW34153   3.244   1.761  16.067  0.7109 -0.3269 -0.3162
 7507SOL    HW134154   3.184   1.823  16.026  3.1401  1.8173 -0.6483
 7507SOL    HW234155   3.241   1.789  16.159  2.1878 -2.1775  0.3080
 7508SOL     OW34156   2.925   3.954  16.942 -0.1833 -0.3782 -0.6167
 7508SOL    HW134157   2.947   3.866  16.972 -1.9785 -0.5899  0.1081
 7508SOL    HW234158   2.997   3.960  16.879 -1.6848  2.0365 -2.1113
 7509SOL     OW34159   3.773   4.549   4.013  0.1645  0.1366 -0.8845
 7509SOL    HW134160   3.680   4.551   3.988 -0.4240 -0.6401  1.1660
 7509SOL    HW234161   3.789   4.457   3.993  0.3526  0.4123 -1.9835
 7510SOL     OW34162   1.333   0.250  13.047  0.0137 -0.1912 -0.7281
 7510SOL    HW134163   1.268   0.303  13.092 -0.3620 -0.2412 -1.2219
 7510SOL    HW234164   1.309   0.165  13.085  0.4386 -0.4456 -1.0252
 7511SOL     OW34165   4.462   1.959   1.870 -0.4430  0.1896 -0.1825
 7511SOL    HW134166   4.402   2.030   1.896 -0.3895  0.1137  0.1497
 7511SOL    HW234167   4.496   1.943   1.958  0.3279 -0.5831 -0.6309
 7512SOL     OW34168   3.571   2.436   3.283 -0.6736 -0.6041  0.7412
 7512SOL    HW134169   3.637   2.378   3.319  1.3156  1.3281  0.1897
 7512SOL    HW234170   3.526   2.444   3.368 -0.9610 -1.3569  0.6595
 7513SOL     OW34171   1.545   4.147   0.577 -0.1908  0.4376 -0.7684
 7513SOL    HW134172   1.626   4.168   0.624  0.0812  0.1436 -1.1114
 7513SOL    HW234173   1.593   4.098   0.510 -0.8295  1.2260 -1.8120
 7514SOL     OW34174   1.036   3.659   7.949 -0.0411 -0.0811 -0.5149
 7514SOL    HW134175   0.952   3.620   7.927 -1.2505  2.5807 -0.6611
 7514SOL    HW234176   1.018   3.752   7.935 -0.1800  0.2030  1.5582
 7515SOL     OW34177   3.771   0.263   4.437  0.4506 -0.0200  0.1222
 7515SOL    HW134178   3.800   0.348   4.471  0.8700  0.0396 -0.3855
 7515SOL    HW234179   3.832   0.243   4.366  0.6521  1.4827 -0.1318
 7516SOL     OW34180   1.238   2.135   4.327  0.2325 -0.3416  0.0181
 7516SOL    HW134181   1.308   2.183   4.282  0.1466  1.5003  1.8318
 7516SOL    HW234182   1.159   2.180   4.297  0.4430  0.4525  0.6452
 7517SOL     OW34183   0.341   2.412   9.651  0.2178  0.2740  0.4805
 7517SOL    HW134184   0.262   2.402   9.704 -1.2371  2.1676 -1.2952
 7517SOL    HW234185   0.400   2.346   9.685  0.6982 -0.1071 -1.0732
 7518SOL     OW34186   4.349   3.826   6.293 -0.6621  0.2019 -0.4409
 7518SOL    HW134187   4.363   3.847   6.385  2.2968  0.0740 -0.8699
 7518SOL    HW234188   4.319   3.912   6.265  2.6111  2.0739  1.8775
 7519SOL     OW34189   2.323   4.015  13.785 -0.1398 -0.0398 -0.0264
 7519SOL    HW134190   2.386   4.075  13.745  2.3539 -1.5704  1.5713
 7519SOL    HW234191   2.376   3.936  13.791 -1.9581 -1.2234  0.4121
 7520SOL     OW34192   0.315   1.750   9.391 -0.1563 -0.3517 -0.1946
 7520SOL    HW134193   0.231   1.797   9.390 -0.5260 -1.0114 -0.0949
 7520SOL    HW234194   0.352   1.765   9.304  0.9826 -1.2756  0.1402
 7521SOL     OW34195   3.488   3.478  13.099  0.2832 -0.5123  0.1885
 7521SOL    HW134196   3.528   3.478  13.013  2.6587 -1.0559  1.2979
 7521SOL    HW234197   3.507   3.565  13.135  2.6073  0.0035 -2.3400
 7522SOL     OW34198   4.016   2.438  17.743  0.0432 -0.0855  0.2014
 7522SOL    HW134199   4.045   2.389  17.666 -2.1868  3.2770 -2.7866
 7522SOL    HW234200   3.931   2.475  17.717  0.4740 -0.0469 -1.1480
 7523SOL     OW34201   2.872   2.407  12.396  0.5613  0.4142 -0.4241
 7523SOL    HW134202   2.840   2.497  12.406 -2.7668 -0.6816 -1.1199
 7523SOL    HW234203   2.817   2.364  12.331 -0.7386  0.0463  0.9200
 7524SOL     OW34204   3.075   0.136  15.400  0.1604 -0.0787 -0.6730
 7524SOL    HW134205   3.154   0.174  15.361  0.9965 -0.1574  0.9518
 7524SOL    HW234206   3.011   0.157  15.333 -0.4560  0.1344 -0.0205
 7525SOL     OW34207   4.629   0.235   2.484 -0.2619 -0.0871  0.1725
 7525SOL    HW134208   4.697   0.170   2.502 -0.2884 -0.6527 -1.7877
 7525SOL    HW234209   4.672   0.275   2.408 -0.7068  1.4066  0.7009
 7526SOL     OW34210   0.986   3.420   3.627 -0.4706  0.5265  0.2133
 7526SOL    HW134211   1.001   3.326   3.638 -2.0664  0.2417 -0.0034
 7526SOL    HW234212   1.073   3.458   3.624 -0.0541 -0.4947 -0.2857
 7527SOL     OW34213   2.036   3.852   7.684  0.3112  0.5172  0.3376
 7527SOL    HW134214   1.959   3.886   7.638 -0.2245  1.4458  1.9406
 7527SOL    HW234215   1.978   3.811   7.748 -2.5132  2.4165 -1.0143
 7528SOL     OW34216   4.357   3.584  10.208 -0.4393 -0.2008  0.3821
 7528SOL    HW134217   4.406   3.650  10.257 -1.3762  0.8028 -0.0245
 7528SOL    HW234218   4.309   3.547  10.282 -1.9387  1.4185  0.2338
 7529SOL     OW34219   3.745   1.578   9.466 -0.3137  0.0946 -0.1102
 7529SOL    HW134220   3.788   1.651   9.422 -1.6221  0.6486 -0.4640
 7529SOL    HW234221   3.662   1.576   9.418 -0.7009 -0.6432  0.5975
 7530SOL     OW34222   4.554   2.843   9.454 -0.3799  0.0242 -0.0409
 7530SOL    HW134223   4.555   2.759   9.408  0.3848 -0.7242  1.3543
 7530SOL    HW234224   4.489   2.895   9.406  1.2763  0.2250 -2.0651
 7531SOL     OW34225   1.774   0.443   3.554  0.9058  0.3224  0.4961
 7531SOL    HW134226   1.708   0.489   3.605 -0.5789 -1.0859 -0.1640
 7531SOL    HW234227   1.801   0.380   3.620  0.4567  0.1521  0.5165
 7532SOL     OW34228   0.200   1.729   3.423 -0.3577 -0.5121  0.3297
 7532SOL    HW134229   0.106   1.742   3.434 -0.5080 -0.6342 -0.8034
 7532SOL    HW234230   0.216   1.786   3.347 -0.2473 -0.2163  0.5716
 7533SOL     OW34231   2.799   1.318   4.105  0.1535 -0.4387  0.6701
 7533SOL    HW134232   2.766   1.339   4.017  3.2377 -0.8329 -0.5846
 7533SOL    HW234233   2.874   1.377   4.113 -1.1564  1.2986  0.2680
 7534SOL     OW34234   3.752   1.198   8.630 -0.0761  0.3930  0.1708
 7534SOL    HW134235   3.727   1.198   8.722 -1.6196  0.4915 -0.2595
 7534SOL    HW234236   3.773   1.291   8.615  0.4588  0.2988  0.3189
 7535SOL     OW34237   1.627   3.501  13.669  0.1896  0.2653 -0.0554
 7535SOL    HW134238   1.620   3.406  13.683  2.3407  0.1575  0.2464
 7535SOL    HW234239   1.599   3.534  13.755  0.6357 -0.1284  0.2397
 7536SOL     OW34240   1.936   0.013   3.052 -0.0062 -0.6797 -0.1930
 7536SOL    HW134241   1.911   0.098   3.087  2.2036  0.3500 -1.1101
 7536SOL    HW234242   1.967   0.026   2.962  0.6964  1.0775  0.3016
 7537SOL     OW34243   3.920   2.989  15.892 -0.1671 -0.7291 -0.0389
 7537SOL    HW134244   3.886   2.973  15.804 -0.8998  3.2278 -0.5017
 7537SOL    HW234245   3.837   2.999  15.940  0.5361  1.0566  0.8224
 7538SOL     OW34246   1.156   1.957   5.513 -0.5563 -0.3119  0.3835
 7538SOL    HW134247   1.172   2.025   5.578  0.3777  0.5457 -0.7309
 7538SOL    HW234248   1.246   1.927   5.499 -0.5821  1.2465 -3.1365
 7539SOL     OW34249   1.214   3.978  10.018  0.1021 -0.1812  0.1078
 7539SOL    HW134250   1.164   3.900   9.993  1.3304 -1.4313  1.5783
 7539SOL    HW234251   1.295   3.941  10.052  0.5441  1.9397  1.4052
 7540SOL     OW34252   1.865   0.518  13.513  0.6115 -0.5143  0.0498
 7540SOL    HW134253   1.878   0.551  13.424 -2.2442  1.0264  0.2030
 7540SOL    HW234254   1.956   0.496  13.533 -0.1064 -0.9952  2.8080
 7541SOL     OW34255   4.389   1.287   3.822  0.2118 -0.3945 -0.1126
 7541SOL    HW134256   4.424   1.199   3.812 -1.1273 -0.7925 -1.3319
 7541SOL    HW234257   4.466   1.331   3.858 -1.2341  0.3042  2.0922
 7542SOL     OW34258   1.493   1.954   0.407  0.5144 -0.5391  0.1897
 7542SOL    HW134259   1.556   1.898   0.453 -1.1639 -0.4871  2.5454
 7542SOL    HW234260   1.514   2.044   0.432 -0.6297 -0.1535 -0.2433
 7543SOL     OW34261   1.506   1.028   4.998  0.1823  0.1294  0.3350
 7543SOL    HW134262   1.531   1.029   4.906  1.1820  2.0041  0.6120
 7543SOL    HW234263   1.462   1.113   5.010 -1.1281 -0.6518  0.9955
 7544SOL     OW34264   3.528   2.403   8.227  0.1960 -0.3012  0.0415
 7544SOL    HW134265   3.484   2.348   8.162 -1.1653  1.0269 -0.1663
 7544SOL    HW234266   3.496   2.368   8.310  0.4184 -0.2901  0.1316
 7545SOL     OW34267   3.664   1.764   1.005 -0.0562 -0.6416  0.1139
 7545SOL    HW134268   3.695   1.674   1.010 -0.1919 -0.6081  1.4869
 7545SOL    HW234269   3.648   1.769   0.911 -0.4260  0.2385  0.2181
 7546SOL     OW34270   1.066   2.017   1.151 -0.2822  0.5880  0.3844
 7546SOL    HW134271   0.972   2.004   1.141  0.1206 -0.3504 -2.0637
 7546SOL    HW234272   1.073   1.960   1.227  1.4479 -0.5129 -0.6009
 7547SOL     OW34273   2.564   4.068   5.408 -0.1127  0.0390 -0.1631
 7547SOL    HW134274   2.530   4.017   5.481  1.6473 -2.7411 -1.2370
 7547SOL    HW234275   2.659   4.073   5.423  0.1636 -1.5094 -1.3360
 7548SOL     OW34276   4.559   4.207   3.256 -0.0963 -0.2931 -0.1056
 7548SOL    HW134277   4.634   4.230   3.310  1.0124  0.0854 -1.8185
 7548SOL    HW234278   4.548   4.286   3.202 -1.4287  0.2937  1.0206
 7549SOL     OW34279   4.362   3.131   1.335 -0.3141 -0.0998  0.3082
 7549SOL    HW134280   4.384   3.072   1.263 -1.2662 -1.3393  1.0311
 7549SOL    HW234281   4.395   3.075   1.406  1.6843 -0.6073 -1.0155
 7550SOL     OW34282   0.964   1.861   5.901  0.2612 -0.5394 -0.0463
 7550SOL    HW134283   0.956   1.770   5.873  0.9662 -1.0330  1.3329
 7550SOL    HW234284   0.921   1.906   5.828 -0.9047  0.5130  1.2791
 7551SOL     OW34285   3.498   2.197  15.091  0.1041  0.0766 -0.1265
 7551SOL    HW134286   3.447   2.141  15.033 -1.4547  0.0965  1.2438
 7551SOL    HW234287   3.468   2.282  15.058 -1.8766 -0.3192  0.6467
 7552SOL     OW34288   1.901   2.840   8.390  0.1002 -0.9590 -0.2943
 7552SOL    HW134289   1.922   2.840   8.297 -1.9916 -1.6919 -0.7605
 7552SOL    HW234290   1.877   2.931   8.406  1.7595 -0.4595 -0.5870
 7553SOL     OW34291   0.352   0.990   4.878  0.2678 -0.0934 -0.9083
 7553SOL    HW134292   0.400   0.912   4.850  0.4739 -0.2328 -0.1776
 7553SOL    HW234293   0.305   0.954   4.954  1.2840  1.1752  0.3186
 7554SOL     OW34294   4.689   1.258   3.477  0.1990 -0.0975  0.5311
 7554SOL    HW134295   4.642   1.183   3.443  0.9374 -0.7353  0.9149
 7554SOL    HW234296   4.614   1.310   3.505  0.3446  1.3818 -1.8239
 7555SOL     OW34297   0.392   0.957   2.550 -0.4558 -0.4087 -0.0992
 7555SOL    HW134298   0.472   0.998   2.517 -0.5634 -0.1092  0.0132
 7555SOL    HW234299   0.355   1.017   2.614  1.6851  0.0757  0.6807
 7556SOL     OW34300   2.051   0.293  16.732  0.2908 -0.4746  0.9795
 7556SOL    HW134301   1.985   0.223  16.727 -0.5272  0.3154  0.7618
 7556SOL    HW234302   2.017   0.348  16.661  0.7532 -1.4235  0.0203
 7557SOL     OW34303   3.210   1.140   9.209 -0.5188  0.3690 -0.2547
 7557SOL    HW134304   3.243   1.056   9.175  0.1840  0.2691  0.6807
 7557SOL    HW234305   3.203   1.127   9.303  1.8026 -1.2348 -0.3060
 7558SOL     OW34306   2.942   4.085   5.836  1.0837 -0.3446  0.3382
 7558SOL    HW134307   2.982   4.018   5.892 -0.0654 -1.3994 -0.0888
 7558SOL    HW234308   3.014   4.145   5.815  0.7873 -0.1522 -0.1352
 7559SOL     OW34309   1.113   2.940   4.466  0.0171  0.5318  0.2429
 7559SOL    HW134310   1.086   2.898   4.384  1.8174 -1.4241  0.6471
 7559SOL    HW234311   1.093   2.870   4.528  0.1419  1.2059  1.0390
 7560SOL     OW34312   3.455   2.563  17.188  0.2126  0.8198  0.4078
 7560SOL    HW134313   3.406   2.549  17.108 -0.2122 -0.2371  0.8558
 7560SOL    HW234314   3.401   2.633  17.227 -0.6734  0.2013  0.2854
 7561SOL     OW34315   2.044   1.507   6.227 -0.5656 -0.6100  0.2079
 7561SOL    HW134316   2.051   1.561   6.306 -1.1079 -0.5860  0.2418
 7561SOL    HW234317   1.951   1.484   6.219 -0.7876  0.5317 -0.5894
 7562SOL     OW34318   0.182   1.039  11.308  0.5522  0.4860 -0.1360
 7562SOL    HW134319   0.226   1.009  11.229 -0.1559 -2.2411  0.5210
 7562SOL    HW234320   0.194   1.131  11.285  2.2679  0.2699 -0.1019
 7563SOL     OW34321   3.217   1.320   5.572  0.7698 -0.5130  0.3768
 7563SOL    HW134322   3.145   1.286   5.519  0.8474 -2.6420  1.6419
 7563SOL    HW234323   3.232   1.404   5.530 -4.2916  0.5991  0.7939
 7564SOL     OW34324   3.196   1.020   4.844  0.0645 -0.5566  0.4229
 7564SOL    HW134325   3.103   0.995   4.848 -0.0939 -0.0340  0.0592
 7564SOL    HW234326   3.205   1.049   4.934 -1.5844 -0.6461  0.6221
 7565SOL     OW34327   4.655   3.626   4.855  0.1662  0.0141 -0.1804
 7565SOL    HW134328   4.599   3.703   4.842 -0.0727 -0.3282 -1.1647
 7565SOL    HW234329   4.737   3.663   4.820  0.8248 -0.6901  0.6385
 7566SOL     OW34330   1.010   2.858  12.090 -0.7535  0.4822 -0.2012
 7566SOL    HW134331   1.080   2.793  12.094 -1.0946  0.3282  3.2967
 7566SOL    HW234332   1.017   2.904  12.007 -0.1180 -0.7493 -0.8234
 7567SOL     OW34333   3.798   1.200   6.978 -0.2796 -0.0754 -0.1617
 7567SOL    HW134334   3.850   1.163   6.907 -0.8419 -0.5628 -0.3206
 7567SOL    HW234335   3.767   1.120   7.021  2.9135 -1.8342 -1.1186
 7568SOL     OW34336   1.961   2.024  13.399  0.4048  0.1721 -0.2152
 7568SOL    HW134337   1.994   1.974  13.474  2.0756  2.7414  0.7669
 7568SOL    HW234338   1.870   2.043  13.420  0.5702 -0.3135  0.9249
 7569SOL     OW34339   2.710   3.191   7.073  0.0209  0.3703  0.0320
 7569SOL    HW134340   2.735   3.259   7.135 -2.7128  0.6388  0.8271
 7569SOL    HW234341   2.622   3.182   7.108 -1.0540  2.0023 -2.2650
 7570SOL     OW34342   4.675   0.793   6.684 -0.4776  0.0514  0.4281
 7570SOL    HW134343   4.648   0.885   6.693 -0.2895  0.0228  1.2586
 7570SOL    HW234344   4.704   0.797   6.593  1.2545  1.8597  1.0500
 7571SOL     OW34345   3.222   2.269   1.669 -0.4628 -0.5768 -0.5664
 7571SOL    HW134346   3.174   2.238   1.746  1.7009 -1.2010  0.5245
 7571SOL    HW234347   3.252   2.355   1.698  0.0200 -0.8443 -0.2655
 7572SOL     OW34348   2.605   3.947   5.841  0.4745  0.0662  0.4553
 7572SOL    HW134349   2.654   3.866   5.856 -1.1873 -0.8836  0.7687
 7572SOL    HW234350   2.586   3.941   5.747  2.8326 -0.7115  0.0181
 7573SOL     OW34351   4.175   0.844   2.200  0.4443  0.0091 -0.0123
 7573SOL    HW134352   4.134   0.767   2.161  0.0505  0.7649 -1.1087
 7573SOL    HW234353   4.221   0.882   2.125  0.1339  0.6031  0.0986
 7574SOL     OW34354   2.487   2.288   8.635 -0.1700 -0.1162 -0.3165
 7574SOL    HW134355   2.436   2.221   8.589  1.6080 -1.5778 -0.1610
 7574SOL    HW234356   2.461   2.285   8.727  0.0807  0.0280 -0.2407
 7575SOL     OW34357   0.964   2.694   0.630 -0.2534  0.2212  1.2179
 7575SOL    HW134358   0.872   2.719   0.645 -0.3579 -0.2835  1.4260
 7575SOL    HW234359   0.965   2.618   0.688  0.2857 -0.2478  0.5885
 7576SOL     OW34360   1.931   1.493   8.877 -0.2313 -0.7140  0.0463
 7576SOL    HW134361   1.869   1.533   8.939  1.4544  0.9952  0.6428
 7576SOL    HW234362   2.007   1.549   8.894 -1.7970  2.0634 -2.1439
 7577SOL     OW34363   3.818   2.051   9.372  0.0073 -0.5259  0.0166
 7577SOL    HW134364   3.733   2.009   9.361  0.2473 -1.2693  1.0275
 7577SOL    HW234365   3.872   1.973   9.365 -1.1188 -1.3953  0.9486
 7578SOL     OW34366   1.216   3.396   4.362  0.3432  0.0703 -0.0396
 7578SOL    HW134367   1.163   3.376   4.439  1.0512 -1.0802  0.1505
 7578SOL    HW234368   1.212   3.489   4.341 -0.8255 -0.4681 -2.1787
 7579SOL     OW34369   1.798   2.005   9.909 -0.0226 -0.4570 -0.0782
 7579SOL    HW134370   1.706   2.027   9.893 -0.0289  1.0827  2.0567
 7579SOL    HW234371   1.823   1.917   9.882 -1.7218 -0.9721  0.0611
 7580SOL     OW34372   3.136   3.224   3.747 -0.2040 -0.0404  0.3346
 7580SOL    HW134373   3.175   3.186   3.668 -1.8253  2.2215 -1.5359
 7580SOL    HW234374   3.212   3.213   3.805 -1.4419 -1.1075  1.7811
 7581SOL     OW34375   2.246   4.630   8.878 -0.0164  0.4588 -0.1865
 7581SOL    HW134376   2.177   4.661   8.937 -0.3705 -1.3151  0.3292
 7581SOL    HW234377   2.197   4.617   8.797 -2.0455 -3.2082  1.6152
 7582SOL     OW34378   3.074   3.506   6.657  0.5624  0.0322  0.0231
 7582SOL    HW134379   3.165   3.486   6.681  0.6635 -0.6646 -0.9617
 7582SOL    HW234380   3.047   3.414   6.666 -0.9841  0.5369  0.5596
 7583SOL     OW34381   3.655   4.117  10.251  0.0076 -0.2089 -0.0277
 7583SOL    HW134382   3.705   4.096  10.330 -1.2506 -1.0344  0.5506
 7583SOL    HW234383   3.680   4.208  10.237  0.2922 -0.1493  0.8984
 7584SOL     OW34384   3.315   4.382   5.495 -0.1937  0.0185 -0.0437
 7584SOL    HW134385   3.384   4.432   5.538 -1.2808  1.6642 -0.1922
 7584SOL    HW234386   3.236   4.424   5.531  0.6802  0.8222  0.9160
 7585SOL     OW34387   4.319   4.213   6.085  0.2103 -0.2682 -0.0498
 7585SOL    HW134388   4.279   4.299   6.095 -1.4683 -1.0557  0.1186
 7585SOL    HW234389   4.411   4.226   6.064 -0.0653 -0.2881 -1.2825
 7586SOL     OW34390   2.294   1.238   5.310  0.3685 -0.0306  0.3581
 7586SOL    HW134391   2.234   1.204   5.376 -0.1136  1.1986  0.5430
 7586SOL    HW234392   2.377   1.200   5.339  1.0181  4.5697  4.4929
 7587SOL     OW34393   3.771   0.879  14.072  0.6585 -0.0678 -0.1036
 7587SOL    HW134394   3.803   0.791  14.089 -0.8854 -0.7756 -0.9008
 7587SOL    HW234395   3.805   0.937  14.140  0.6979 -1.9687  1.4776
 7588SOL     OW34396   2.828   2.982  14.194 -0.0931 -0.0002  0.2215
 7588SOL    HW134397   2.743   2.990  14.150 -0.9589 -1.7995  1.6108
 7588SOL    HW234398   2.883   2.949  14.123  0.6946 -0.3131  0.9755
 7589SOL     OW34399   3.958   0.080  13.229  0.1639 -0.0424  0.4788
 7589SOL    HW134400   3.958   0.144  13.159 -0.7643  1.9099  2.2422
 7589SOL    HW234401   3.871   0.057  13.262 -1.0276  1.1777 -1.8179
 7590SOL     OW34402   1.536   1.422  13.422  0.0271  0.0895  0.2141
 7590SOL    HW134403   1.621   1.467  13.419  1.0893 -1.7969  2.4843
 7590SOL    HW234404   1.507   1.456  13.506 -0.7076  0.6622 -0.2818
 7591SOL     OW34405   3.951   2.332  16.565 -0.0892  0.7038  0.2773
 7591SOL    HW134406   4.035   2.318  16.607 -0.8392 -1.9475  0.8823
 7591SOL    HW234407   3.905   2.278  16.629  1.6031 -0.7799  0.2224
 7592SOL     OW34408   2.170   3.937  14.693  0.0662 -0.0652  0.6029
 7592SOL    HW134409   2.229   3.909  14.622  0.0684 -0.5195  0.7800
 7592SOL    HW234410   2.092   3.950  14.639  0.0150  0.2131  0.7429
 7593SOL     OW34411   2.253   1.317   0.849  0.2112  0.5779 -0.5655
 7593SOL    HW134412   2.236   1.225   0.829 -1.1385  1.3494 -2.9717
 7593SOL    HW234413   2.187   1.364   0.798 -0.4474 -0.3088 -0.5485
 7594SOL     OW34414   0.254   2.728   0.059 -0.2851  0.5905  0.9153
 7594SOL    HW134415   0.271   2.802   0.117  0.1795  0.9520  0.3194
 7594SOL    HW234416   0.311   2.752  17.741 -0.7754  1.6540  0.8763
 7595SOL     OW34417   2.673   1.787   1.660  0.5349  0.2388  0.4851
 7595SOL    HW134418   2.594   1.776   1.714  0.6027  0.5081  0.6368
 7595SOL    HW234419   2.722   1.707   1.681  0.4918  0.3012  0.8252
 7596SOL     OW34420   2.205   0.633  16.658 -0.4731 -0.9240  0.2298
 7596SOL    HW134421   2.294   0.669  16.654 -0.3745 -1.2074 -0.0939
 7596SOL    HW234422   2.211   0.565  16.591  1.1295  0.9241 -1.5368
 7597SOL     OW34423   4.247   1.913   0.416  0.3465  0.7396 -0.5205
 7597SOL    HW134424   4.216   1.935   0.503 -0.0406  2.4414 -1.0955
 7597SOL    HW234425   4.328   1.865   0.433 -0.4272 -0.8252 -1.1777
 7598SOL     OW34426   0.848   0.609   9.702 -0.3521 -0.3827 -0.3792
 7598SOL    HW134427   0.771   0.619   9.758 -0.6046  0.1355 -0.8182
 7598SOL    HW234428   0.828   0.528   9.654 -1.0089  0.3205 -1.2862
 7599SOL     OW34429   2.779   0.172   8.324 -0.0778 -0.0005  0.7293
 7599SOL    HW134430   2.845   0.169   8.393 -0.5284 -2.7966  1.0293
 7599SOL    HW234431   2.692   0.189   8.359 -0.8892  0.1120 -1.3514
 7600SOL     OW34432   0.449   1.353   6.589  0.4951  0.2040 -0.3382
 7600SOL    HW134433   0.464   1.277   6.645 -0.6259 -1.0054 -1.6739
 7600SOL    HW234434   0.359   1.335   6.560 -0.3321  0.5209  2.0416
 7601SOL     OW34435   1.131   3.864   4.885  0.0114  0.0539  0.7857
 7601SOL    HW134436   1.038   3.848   4.901  0.0556  0.6174  1.5894
 7601SOL    HW234437   1.120   3.955   4.855  1.9862  0.1870  0.4913
 7602SOL     OW34438   0.959   1.968   7.008 -0.0151 -0.2773 -0.0958
 7602SOL    HW134439   1.041   1.981   6.960 -0.7756  0.1403 -1.2726
 7602SOL    HW234440   0.915   2.049   6.983 -0.0868 -0.4954 -0.6860
 7603SOL     OW34441   0.720   1.525  10.335 -0.4022 -0.0398  0.3780
 7603SOL    HW134442   0.655   1.465  10.370  1.3005 -0.4480  2.7985
 7603SOL    HW234443   0.693   1.610  10.371 -1.8823 -0.5335  0.4123
 7604SOL     OW34444   3.143   1.859   5.211  0.1314 -0.1687  0.8135
 7604SOL    HW134445   3.079   1.797   5.176 -1.2745  2.0964 -0.6009
 7604SOL    HW234446   3.219   1.839   5.157  0.6562  1.9931  0.7501
 7605SOL     OW34447   1.176   4.119   8.424 -0.1590 -0.2544 -0.2207
 7605SOL    HW134448   1.262   4.083   8.446 -0.8299 -1.3434  0.5872
 7605SOL    HW234449   1.127   4.110   8.505 -0.9536 -1.8799 -0.8881
 7606SOL     OW34450   3.363   2.167   3.596 -0.1168 -0.6476  0.4815
 7606SOL    HW134451   3.434   2.116   3.557 -0.3699 -0.2513 -0.5143
 7606SOL    HW234452   3.297   2.173   3.526 -0.1425 -2.4044  0.3695
 7607SOL     OW34453   2.555   1.813   5.977 -0.2743  0.7698  0.1307
 7607SOL    HW134454   2.508   1.732   5.954 -0.5621  0.4683  1.7919
 7607SOL    HW234455   2.618   1.764   6.030  0.7503  2.0660  0.0838
 7608SOL     OW34456   0.738   2.804   1.554  0.3562 -0.1282  0.0074
 7608SOL    HW134457   0.795   2.881   1.559  3.2489 -2.0506 -3.8288
 7608SOL    HW234458   0.653   2.847   1.543  0.2885 -0.5399 -1.1091
 7609SOL     OW34459   4.394   1.735  15.742 -0.4285 -0.2774 -0.2357
 7609SOL    HW134460   4.447   1.810  15.712 -1.2700  0.5818  0.4260
 7609SOL    HW234461   4.447   1.656  15.732 -2.1951 -1.5424  0.4813
 7610SOL     OW34462   4.132   4.609   3.979 -0.2498  0.1190 -0.8331
 7610SOL    HW134463   4.047   4.646   4.005  0.8432  1.1559  1.2824
 7610SOL    HW234464   4.122   4.526   4.026 -1.2809  1.4201  1.2669
 7611SOL     OW34465   0.968   4.192   3.711 -0.1667  0.0271  0.1088
 7611SOL    HW134466   1.002   4.281   3.722  0.1435 -0.1669  0.7528
 7611SOL    HW234467   1.051   4.148   3.729  0.2108  0.4071 -0.6965
 7612SOL     OW34468   1.049   4.065   0.534  0.2252 -0.7822  0.8372
 7612SOL    HW134469   1.131   4.114   0.529 -0.6603  0.6433  0.1666
 7612SOL    HW234470   1.078   3.973   0.535  2.1151 -0.1684  2.0496
 7613SOL     OW34471   4.695   2.049   7.787 -0.2654  0.1873  0.5140
 7613SOL    HW134472   4.701   2.080   7.877  1.7407 -2.3458  1.2609
 7613SOL    HW234473   4.635   1.975   7.801  0.4793 -0.0685  2.3680
 7614SOL     OW34474   1.379   0.284   2.077 -0.1709 -0.1200 -0.6422
 7614SOL    HW134475   1.345   0.265   1.989 -0.1392  0.9946 -0.8946
 7614SOL    HW234476   1.469   0.315   2.064 -0.5945  1.1804 -0.4416
 7615SOL     OW34477   2.359   2.150   7.803  0.7770 -0.2641 -0.4001
 7615SOL    HW134478   2.384   2.185   7.889 -0.6696  1.2875 -0.6268
 7615SOL    HW234479   2.444   2.160   7.761  2.9923 -2.3695  3.4515
 7616SOL     OW34480   3.758   4.340   7.803 -0.5080 -0.3167  0.1805
 7616SOL    HW134481   3.752   4.306   7.892 -1.6466  1.3440  0.7351
 7616SOL    HW234482   3.697   4.279   7.760 -2.4528  2.0212 -0.3803
 7617SOL     OW34483   3.806   3.134   9.908  0.7220 -0.0800  0.3314
 7617SOL    HW134484   3.810   3.099   9.819  0.2421  1.6851 -0.3971
 7617SOL    HW234485   3.732   3.086   9.945  0.3480  1.3110  1.3700
 7618SOL     OW34486   2.899   1.894  11.409 -0.1932 -0.0084  0.0843
 7618SOL    HW134487   2.838   1.924  11.476  2.1984  0.7607  1.9341
 7618SOL    HW234488   2.940   1.818  11.450 -2.4621 -1.2244  0.0625
 7619SOL     OW34489   4.154   0.597   6.455 -0.2529  0.3914 -0.1116
 7619SOL    HW134490   4.154   0.693   6.448 -1.0711  0.4177  0.1561
 7619SOL    HW234491   4.237   0.572   6.416  0.2531  0.0424  1.1816
 7620SOL     OW34492   2.179   1.792   5.811  0.3135 -0.0859 -0.1984
 7620SOL    HW134493   2.219   1.769   5.894 -1.8537 -2.4610  0.1892
 7620SOL    HW234494   2.171   1.702   5.780 -0.0671  0.1194 -0.6982
 7621SOL     OW34495   4.588   2.831  14.890  0.0463  0.0928 -0.7338
 7621SOL    HW134496   4.649   2.793  14.953 -0.0397 -1.3904 -1.5525
 7621SOL    HW234497   4.614   2.923  14.897  1.9419 -0.3368 -1.9993
 7622SOL     OW34498   2.650   4.642   6.555  0.2930  0.0218 -0.9885
 7622SOL    HW134499   2.720   4.649   6.620 -0.7994  0.1215  0.1746
 7622SOL    HW234500   2.646   4.733   6.525  2.6473  0.5688  0.3488
 7623SOL     OW34501   3.676   0.901   0.546 -0.0387  0.0825  0.3303
 7623SOL    HW134502   3.617   0.946   0.606  0.1330  1.2303 -0.3595
 7623SOL    HW234503   3.679   0.948   0.462 -0.5543 -0.9972 -0.2827
 7624SOL     OW34504   1.173   0.200   7.971 -0.4247  0.1525  0.2782
 7624SOL    HW134505   1.105   0.261   7.942 -0.3909 -0.7396 -1.7039
 7624SOL    HW234506   1.235   0.256   8.017  0.2760  1.0262 -1.7120
 7625SOL     OW34507   1.579   0.072  14.772 -0.5938 -0.4942  0.2857
 7625SOL    HW134508   1.497   0.022  14.767 -1.1861  0.1531  3.2509
 7625SOL    HW234509   1.593   0.068  14.867 -0.2276 -1.6954  0.1814
 7626SOL     OW34510   4.366   2.777   7.306  0.0257  0.1307 -0.4308
 7626SOL    HW134511   4.324   2.831   7.238  0.5259  1.6945  0.4913
 7626SOL    HW234512   4.358   2.694   7.259  1.0330 -1.7783  2.7858
 7627SOL     OW34513   4.623   0.684   5.762  0.2809  0.0190  0.8077
 7627SOL    HW134514   4.648   0.592   5.764 -1.6642 -0.5083  1.2197
 7627SOL    HW234515   4.530   0.667   5.780  0.0455 -0.1460 -0.5607
 7628SOL     OW34516   0.326   4.557  13.146  0.2068  0.1807 -0.0468
 7628SOL    HW134517   0.395   4.601  13.096  0.7170 -1.0426 -0.4270
 7628SOL    HW234518   0.365   4.483  13.194  0.2839  0.1558 -0.1467
 7629SOL     OW34519   2.383   2.323   9.647  0.5319 -0.0291 -0.3448
 7629SOL    HW134520   2.303   2.344   9.599 -0.7071 -0.0522  1.6761
 7629SOL    HW234521   2.357   2.338   9.738 -1.9387  0.2478 -1.0896
 7630SOL     OW34522   1.796   3.489   4.663 -0.7123  0.1314  0.2634
 7630SOL    HW134523   1.862   3.558   4.677 -2.8932  2.7324 -2.1272
 7630SOL    HW234524   1.741   3.483   4.740  0.5999  0.1546  1.2086
 7631SOL     OW34525   1.842   0.080  13.686  0.8477  0.0307 -0.0163
 7631SOL    HW134526   1.817   4.728  13.668 -0.5372  0.1399  1.3593
 7631SOL    HW234527   1.796   0.135  13.624  1.4671  0.4198 -0.1260
 7632SOL     OW34528   3.471   2.389   8.929  0.1421 -0.3437 -0.2354
 7632SOL    HW134529   3.548   2.364   8.981  0.0482 -1.4661 -0.6298
 7632SOL    HW234530   3.518   2.430   8.856 -0.0709 -1.0472 -0.7701
 7633SOL     OW34531   3.975   4.728  11.005  0.6782  0.3647  0.7556
 7633SOL    HW134532   3.884   4.734  11.031  0.0443  0.3268 -1.4358
 7633SOL    HW234533   3.999   4.636  11.016 -0.1446  0.0661 -0.0111
 7634SOL     OW34534   4.570   2.634   4.834  0.0611  0.2066 -0.5539
 7634SOL    HW134535   4.525   2.636   4.918  1.7759 -0.3649  0.3857
 7634SOL    HW234536   4.517   2.688   4.777  0.1509  0.6289 -0.2355
 7635SOL     OW34537   2.238   2.470  11.290  0.0115 -0.4931 -0.5228
 7635SOL    HW134538   2.296   2.404  11.252 -1.8994 -2.1948 -0.4805
 7635SOL    HW234539   2.296   2.545  11.306  0.4102 -0.6137 -1.3575
 7636SOL     OW34540   3.412   4.573  17.398 -0.2755 -0.0165  0.2303
 7636SOL    HW134541   3.469   4.565  17.474 -1.1503  2.1190  1.1286
 7636SOL    HW234542   3.454   4.512  17.338 -0.0507  0.0864  0.2814
 7637SOL     OW34543   0.266   4.435  12.723 -0.0152 -0.1415  0.1092
 7637SOL    HW134544   0.245   4.403  12.635 -0.8081  1.0289 -0.1283
 7637SOL    HW234545   0.195   4.390  12.770  0.7428 -2.5574 -1.0120
 7638SOL     OW34546   0.397   0.776   9.678 -0.0551  0.5361 -0.0615
 7638SOL    HW134547   0.421   0.686   9.655  0.2925  0.2687  1.3368
 7638SOL    HW234548   0.472   0.796   9.734  1.0728 -1.8803 -0.7226
 7639SOL     OW34549   0.338   4.576  15.787 -0.6099 -0.2518  0.2982
 7639SOL    HW134550   0.267   4.632  15.820 -1.3741 -1.1832  0.2531
 7639SOL    HW234551   0.281   4.505  15.756 -1.8631  0.0935  1.7830
 7640SOL     OW34552   1.524   3.734   2.645 -0.1242  0.0448 -0.3929
 7640SOL    HW134553   1.500   3.770   2.730  0.9366 -1.5149  0.5660
 7640SOL    HW234554   1.615   3.765   2.638 -0.1229 -0.0279 -0.7231
 7641SOL     OW34555   1.665   1.558   0.149 -0.1182 -0.1060  0.5397
 7641SOL    HW134556   1.593   1.570   0.211  0.1103  0.8788  0.6158
 7641SOL    HW234557   1.736   1.541   0.211 -0.4007  0.4128  1.0085
 7642SOL     OW34558   3.665   1.010  17.705  0.0807 -0.1381 -0.2171
 7642SOL    HW134559   3.607   1.086  17.706 -1.1464 -1.0623 -0.7350
 7642SOL    HW234560   3.667   0.984   0.042  0.8661  0.4373 -0.0766
 7643SOL     OW34561   2.077   2.557  15.376 -0.5778  0.6847 -0.2211
 7643SOL    HW134562   2.111   2.471  15.401  1.3632  0.4900 -3.6159
 7643SOL    HW234563   2.146   2.609  15.416 -0.9062  1.4944 -0.7060
 7644SOL     OW34564   2.217   4.148   9.488 -0.2556  0.0255  1.0491
 7644SOL    HW134565   2.311   4.128   9.485 -0.3350 -0.4438  1.7246
 7644SOL    HW234566   2.234   4.238   9.516  0.8269 -0.3947  1.7443
 7645SOL     OW34567   3.215   4.641   5.311  0.2346 -0.6467 -0.6006
 7645SOL    HW134568   3.248   4.665   5.225 -1.1411  0.8009 -0.7267
 7645SOL    HW234569   3.170   4.561   5.283 -1.0201 -0.4500  0.8100
 7646SOL     OW34570   2.154   0.847   8.160 -0.0492 -0.0786  0.2040
 7646SOL    HW134571   2.206   0.919   8.195  0.7958  0.1324 -1.4847
 7646SOL    HW234572   2.223   0.794   8.121 -0.2351 -1.8233  2.2065
 7647SOL     OW34573   0.878   0.967   8.374 -0.0929 -0.4591  0.4102
 7647SOL    HW134574   0.839   0.970   8.462 -0.5892  0.9912  0.1409
 7647SOL    HW234575   0.804   0.956   8.314  0.1673 -1.7014  0.3142
 7648SOL     OW34576   2.763   4.158   5.627 -0.1300  0.5179 -0.1770
 7648SOL    HW134577   2.810   4.165   5.709  0.2720 -0.4144 -0.3220
 7648SOL    HW234578   2.794   4.072   5.599 -1.4078 -0.0479  0.1337
 7649SOL     OW34579   4.644   1.254   6.906 -0.1639 -0.0444 -0.7421
 7649SOL    HW134580   4.594   1.316   6.959 -2.4329 -0.7285 -2.0982
 7649SOL    HW234581   4.727   1.270   6.951 -0.8130 -3.1052  1.5724
 7650SOL     OW34582   3.005   3.030   8.244  0.2932  0.0535  0.1072
 7650SOL    HW134583   3.095   3.048   8.216  1.4023 -2.0830  2.3301
 7650SOL    HW234584   2.945   3.076   8.185  0.4609 -1.9896 -1.6338
 7651SOL     OW34585   2.768   2.794   8.104  0.0629  1.0090  0.5852
 7651SOL    HW134586   2.725   2.709   8.092  0.6749  1.1352 -2.6497
 7651SOL    HW234587   2.849   2.768   8.148 -1.9844  1.5485  4.6649
 7652SOL     OW34588   0.377   4.286   5.484 -0.1781  0.2188 -0.5064
 7652SOL    HW134589   0.375   4.332   5.568 -2.0464 -0.6494 -0.0678
 7652SOL    HW234590   0.283   4.275   5.468  0.2177 -1.4013 -1.6752
 7653SOL     OW34591   0.176   1.640   7.436  0.4854  0.6683  0.1133
 7653SOL    HW134592   0.130   1.719   7.411 -0.5579 -0.1081 -0.4304
 7653SOL    HW234593   0.258   1.664   7.393 -0.0744 -0.1064 -1.3914
 7654SOL     OW34594   2.709   1.989   6.729 -0.2324 -0.2888 -0.1855
 7654SOL    HW134595   2.644   1.994   6.798  1.5531  0.9487  1.4050
 7654SOL    HW234596   2.658   2.026   6.657  0.3999 -0.5184 -0.7559
 7655SOL     OW34597   1.778   2.996   0.921  0.0615  0.2350  0.1185
 7655SOL    HW134598   1.803   3.039   0.840  3.9392  1.2669  1.8383
 7655SOL    HW234599   1.833   3.043   0.984 -1.6009  1.3092  0.7719
 7656SOL     OW34600   1.021   4.426   7.278  0.0384  0.3460 -0.0649
 7656SOL    HW134601   1.089   4.375   7.322  1.4163  0.3048 -2.2440
 7656SOL    HW234602   0.960   4.354   7.297  1.5555 -1.0657 -0.5961
 7657SOL     OW34603   0.397   3.522   6.964 -0.0886 -0.0937  0.0088
 7657SOL    HW134604   0.342   3.524   6.886  2.2035  0.4077 -1.6130
 7657SOL    HW234605   0.471   3.576   6.936  0.1421  0.1391  1.0750
 7658SOL     OW34606   2.585   1.264   1.629 -0.9222  0.2571 -0.1277
 7658SOL    HW134607   2.630   1.318   1.564 -1.4378 -0.4444 -1.0633
 7658SOL    HW234608   2.524   1.331   1.659 -2.4514 -0.4062 -1.7812
 7659SOL     OW34609   4.381   2.391   9.479  0.0116  0.1563 -0.2553
 7659SOL    HW134610   4.383   2.436   9.563  0.9043 -0.2980 -0.0303
 7659SOL    HW234611   4.400   2.299   9.500 -4.2551 -0.8703 -0.9127
 7660SOL     OW34612   4.594   0.962  10.101  0.0609 -0.8289  0.1155
 7660SOL    HW134613   4.590   1.016  10.021 -0.5536  1.2011  1.5245
 7660SOL    HW234614   4.688   0.968  10.119  0.2551 -3.7416  0.1299
 7661SOL     OW34615   3.365   0.776   3.041  0.1010 -0.0113 -0.4537
 7661SOL    HW134616   3.392   0.867   3.052  2.6030 -0.6112 -1.4505
 7661SOL    HW234617   3.272   0.771   3.022  0.2847 -0.3482 -1.2767
 7662SOL     OW34618   3.531   2.593  13.279  0.1030 -0.3583  0.3890
 7662SOL    HW134619   3.551   2.513  13.229  1.6655 -0.8336  1.7662
 7662SOL    HW234620   3.547   2.563  13.369 -0.7005  0.5223  0.8197
 7663SOL     OW34621   2.150   2.185   4.848 -0.2318  0.6570  0.1186
 7663SOL    HW134622   2.099   2.105   4.863 -0.2740  0.2097 -2.4046
 7663SOL    HW234623   2.089   2.259   4.844 -1.3000 -0.1403  1.4620
 7664SOL     OW34624   1.817   0.124   4.274  0.5298 -0.0267  0.2544
 7664SOL    HW134625   1.744   0.172   4.312 -0.7059  0.5699 -2.8534
 7664SOL    HW234626   1.814   0.048   4.331 -0.5847 -0.4508 -0.3687
 7665SOL     OW34627   0.361   3.537  10.225  0.1191  0.6943 -0.0580
 7665SOL    HW134628   0.384   3.492  10.144 -1.6841 -0.3334  0.0008
 7665SOL    HW234629   0.265   3.527  10.225  0.1789  0.1140  0.9758
 7666SOL     OW34630   3.032   0.110   9.584 -0.4563 -0.0575 -0.2564
 7666SOL    HW134631   2.974   0.135   9.512  1.1885  0.1297 -1.5233
 7666SOL    HW234632   3.054   0.197   9.619 -0.2967 -0.7434  1.3175
 7667SOL     OW34633   2.753   3.567  12.019 -0.1232 -0.0256  0.4486
 7667SOL    HW134634   2.727   3.553  11.928 -1.1497 -0.8630  0.8771
 7667SOL    HW234635   2.678   3.531  12.067 -1.1812 -1.2416 -2.1637
 7668SOL     OW34636   3.909   0.503  17.469 -0.4293 -0.1025  0.2321
 7668SOL    HW134637   3.960   0.534  17.394 -1.0153 -0.6316 -0.3924
 7668SOL    HW234638   3.829   0.554  17.477 -0.6591 -0.5327  0.6787
 7669SOL     OW34639   2.868   0.418   4.051 -0.2551  0.2509 -0.1881
 7669SOL    HW134640   2.961   0.411   4.031 -0.4182 -1.8844 -0.1918
 7669SOL    HW234641   2.867   0.433   4.145  0.0046 -0.7117 -0.0257
 7670SOL     OW34642   3.712   2.800   2.213 -0.4588  0.3159 -0.4222
 7670SOL    HW134643   3.718   2.725   2.154 -1.6655  0.6788 -1.0112
 7670SOL    HW234644   3.784   2.800   2.276 -0.3117 -1.5731 -0.5716
 7671SOL     OW34645   1.890   1.735   8.412  0.2194  0.3333  0.0433
 7671SOL    HW134646   1.858   1.806   8.357 -1.2914  0.1315  0.6620
 7671SOL    HW234647   1.813   1.678   8.417  2.0734 -2.1833 -0.0332
 7672SOL     OW34648   0.320   1.137   2.736 -0.2511 -0.0591 -0.0073
 7672SOL    HW134649   0.232   1.159   2.767 -0.1209  0.3569  0.0632
 7672SOL    HW234650   0.367   1.129   2.819 -2.9849  1.2517  1.6506
 7673SOL     OW34651   2.201   2.417  15.076 -0.3324  0.3775 -0.3775
 7673SOL    HW134652   2.127   2.426  15.136 -0.5767 -0.7957 -0.5004
 7673SOL    HW234653   2.277   2.438  15.130 -0.1251 -0.6436 -0.2768
 7674SOL     OW34654   2.974   2.103  16.483 -0.3354 -0.3513  0.1141
 7674SOL    HW134655   2.905   2.158  16.521 -0.2942 -0.8822  0.9536
 7674SOL    HW234656   2.954   2.025  16.534 -1.5454  1.2264  2.0605
 7675SOL     OW34657   2.885   1.562  14.510 -0.2725  0.2178  0.1644
 7675SOL    HW134658   2.824   1.635  14.500 -1.2177 -0.6907 -0.7639
 7675SOL    HW234659   2.823   1.489  14.501 -0.9940  0.7958  0.3934
 7676SOL     OW34660   2.163   0.623   9.143  0.1049 -0.3549  0.5121
 7676SOL    HW134661   2.085   0.668   9.174  0.1465  0.3293 -0.3977
 7676SOL    HW234662   2.228   0.660   9.202  0.4615  2.6012 -1.7739
 7677SOL     OW34663   3.124   2.887   7.872  0.0968 -0.2885  0.1084
 7677SOL    HW134664   3.145   2.804   7.915 -1.9395 -1.2016 -0.6681
 7677SOL    HW234665   3.165   2.952   7.930  0.1000 -1.8171  1.8311
 7678SOL     OW34666   1.797   0.175  16.609  0.2949 -0.0263  0.0056
 7678SOL    HW134667   1.736   0.212  16.673  1.7135  0.8263  0.8648
 7678SOL    HW234668   1.762   0.089  16.586  1.1336 -0.0912 -1.0346
 7679SOL     OW34669   2.142   4.248   4.070  0.1903  0.3820  0.1822
 7679SOL    HW134670   2.061   4.278   4.028  0.4088  1.6355  0.6511
 7679SOL    HW234671   2.149   4.158   4.038 -0.7126 -0.6675  2.9318
 7680SOL     OW34672   4.670   1.424  11.278 -0.7223 -0.0448  0.1803
 7680SOL    HW134673   0.012   1.378  11.296 -1.9906 -1.2464  2.8127
 7680SOL    HW234674   4.655   1.468  11.362  0.0702 -0.2840  0.4417
 7681SOL     OW34675   3.634   0.357   2.217  0.3390 -0.5789  0.3204
 7681SOL    HW134676   3.628   0.264   2.195 -1.6106 -0.2483 -0.5640
 7681SOL    HW234677   3.677   0.389   2.138 -1.3936 -0.0164 -0.3966
 7682SOL     OW34678   2.069   0.701   6.527  0.0380 -0.2780 -0.3121
 7682SOL    HW134679   2.137   0.675   6.465 -0.9091  0.0718 -1.5096
 7682SOL    HW234680   2.122   0.768   6.570  0.7668 -2.3617  2.0340
 7683SOL     OW34681   2.286   2.280   6.417  0.1905 -0.3874  0.0282
 7683SOL    HW134682   2.305   2.321   6.501 -1.8226 -1.3389  0.9532
 7683SOL    HW234683   2.223   2.215   6.450 -0.8826  0.0570 -1.1453
 7684SOL     OW34684   0.246   4.266  10.777 -0.4411  0.6685  0.4555
 7684SOL    HW134685   0.270   4.241  10.866 -0.4956 -1.2601 -0.0890
 7684SOL    HW234686   0.325   4.309  10.742 -0.6404 -0.4496 -1.3583
 7685SOL     OW34687   1.324   2.444   3.371 -0.1527 -0.0939  0.0602
 7685SOL    HW134688   1.366   2.525   3.398  1.2676 -0.7615 -0.1715
 7685SOL    HW234689   1.276   2.464   3.290 -1.4869  0.3550  0.9619
 7686SOL     OW34690   1.010   0.037  13.386 -0.8394  0.3540 -0.9308
 7686SOL    HW134691   0.997   4.693  13.432  0.6858 -0.5360 -2.1192
 7686SOL    HW234692   0.958   0.098  13.437  0.3285  0.6197 -0.0670
 7687SOL     OW34693   0.045   1.044   6.110 -0.0932 -0.6545  0.3841
 7687SOL    HW134694   0.055   1.130   6.070 -0.3776 -0.8744 -0.1583
 7687SOL    HW234695   0.100   0.990   6.053 -0.7986 -0.2754 -0.6425
 7688SOL     OW34696   1.217   4.199   9.273 -0.0996  0.2818 -0.3080
 7688SOL    HW134697   1.234   4.267   9.208 -0.8904  0.6593 -0.1194
 7688SOL    HW234698   1.218   4.250   9.353 -0.1179 -2.1838  1.2775
 7689SOL     OW34699   1.426   3.259   4.630 -0.2082  0.2900  0.5653
 7689SOL    HW134700   1.471   3.182   4.664  0.9465  0.9125  0.4723
 7689SOL    HW234701   1.388   3.280   4.715 -1.7601 -0.1879 -0.0199
 7690SOL     OW34702   3.488   4.495   7.724 -0.3235  0.9386  0.0925
 7690SOL    HW134703   3.472   4.576   7.675  2.4591  0.5930 -1.3705
 7690SOL    HW234704   3.582   4.504   7.734 -0.1473 -0.5160 -0.2558
 7691SOL     OW34705   3.650   4.046   5.005  0.3657 -0.2745  0.2087
 7691SOL    HW134706   3.557   4.048   5.025  0.0778 -1.0857 -1.0763
 7691SOL    HW234707   3.665   4.039   4.911  0.0552  0.1579  0.1237
 7692SOL     OW34708   0.494   0.933  11.215  0.1907  0.4839  0.1061
 7692SOL    HW134709   0.486   0.899  11.304  1.7386 -0.4917 -0.1074
 7692SOL    HW234710   0.586   0.959  11.215 -0.0475  1.2843 -2.1317
 7693SOL     OW34711   2.329   2.532  16.026  0.2265 -0.2572  0.5137
 7693SOL    HW134712   2.259   2.589  15.994  0.0363 -0.9643 -0.3313
 7693SOL    HW234713   2.402   2.579  15.988 -1.4776  1.8138 -0.1913
 7694SOL     OW34714   0.835   1.650   1.891 -0.5819  0.3540  0.1564
 7694SOL    HW134715   0.874   1.678   1.809 -1.8787 -0.2113 -0.6408
 7694SOL    HW234716   0.834   1.555   1.889  0.3600  0.2943  2.5707
 7695SOL     OW34717   2.754   0.064  17.184 -0.2172 -0.2792  0.1866
 7695SOL    HW134718   2.848   0.074  17.199 -0.2202 -1.4915  1.0562
 7695SOL    HW234719   2.731   0.038  17.273  0.0105 -1.9308 -0.2396
 7696SOL     OW34720   3.139   3.543   8.968 -0.0419  0.0097  0.4893
 7696SOL    HW134721   3.088   3.554   8.888  0.7975 -1.0372 -0.1925
 7696SOL    HW234722   3.217   3.508   8.924 -1.8649 -0.2895 -2.5068
 7697SOL     OW34723   3.945   4.155   0.714  0.0686  0.1089  0.2903
 7697SOL    HW134724   4.034   4.182   0.736  0.5061  0.0216 -1.3795
 7697SOL    HW234725   3.900   4.219   0.768 -1.3373 -0.3939 -0.2808
 7698SOL     OW34726   3.833   3.099   3.023 -0.2067 -0.2433 -0.2340
 7698SOL    HW134727   3.899   3.159   3.058  0.0630  0.1535 -1.4155
 7698SOL    HW234728   3.890   3.036   2.979 -1.2093 -1.1994 -0.1500
 7699SOL     OW34729   1.983   2.827  12.247 -0.6255  0.5701 -0.1210
 7699SOL    HW134730   1.992   2.819  12.342 -0.6180 -2.2493 -0.3513
 7699SOL    HW234731   1.980   2.921  12.230 -2.5060  0.6407  0.5853
 7700SOL     OW34732   2.037   4.404   5.088  0.2250  0.9836  0.1718
 7700SOL    HW134733   2.026   4.403   4.993 -0.2404 -2.7681  0.2683
 7700SOL    HW234734   2.008   4.489   5.118 -1.2726  0.1907  0.9434
 7701SOL     OW34735   4.252   3.254  11.004  0.7336  0.5838  0.2000
 7701SOL    HW134736   4.164   3.219  11.019  1.4973 -1.2347  0.4085
 7701SOL    HW234737   4.301   3.232  11.083  0.2268  0.4826  0.4880
 7702SOL     OW34738   1.069   0.879   6.603 -0.1839  0.0956 -0.0742
 7702SOL    HW134739   0.982   0.903   6.573 -1.4142 -3.0181  1.0164
 7702SOL    HW234740   1.082   0.794   6.561  1.0366 -0.1907  0.8615
 7703SOL     OW34741   4.620   0.115   2.062 -0.0235  0.0009  0.3693
 7703SOL    HW134742   4.581   0.203   2.056  1.3550  0.5982  0.1166
 7703SOL    HW234743   4.673   0.121   2.141 -0.6734 -2.8532  1.0026
 7704SOL     OW34744   1.590   0.126  13.924  0.0243  0.1024  0.5665
 7704SOL    HW134745   1.575   0.032  13.924 -0.0087  0.1048 -0.7883
 7704SOL    HW234746   1.658   0.143  13.989  1.7274  0.0537 -1.2178
 7705SOL     OW34747   1.283   4.192   3.565  0.4961 -0.2028 -0.1290
 7705SOL    HW134748   1.373   4.211   3.591 -0.1962  2.0673  0.6647
 7705SOL    HW234749   1.256   4.168   3.654 -0.4649  1.6824  0.1090
 7706SOL     OW34750   0.825   0.863   4.215  0.5254 -0.8184  0.0206
 7706SOL    HW134751   0.735   0.861   4.180 -0.0280  0.3086  1.4032
 7706SOL    HW234752   0.818   0.812   4.295  3.9782  1.6603  1.8770
 7707SOL     OW34753   0.516   3.137   6.892 -0.1328  0.1773  0.6541
 7707SOL    HW134754   0.466   3.127   6.974  0.2149 -0.1931  0.8186
 7707SOL    HW234755   0.440   3.133   6.834  1.7306  1.7496 -1.9095
 7708SOL     OW34756   4.222   0.907   3.646  0.0735  0.0855 -0.0512
 7708SOL    HW134757   4.133   0.936   3.628 -1.2496 -3.1499  1.2542
 7708SOL    HW234758   4.209   0.814   3.663  0.2300  0.3635  1.6083
 7709SOL     OW34759   2.315   1.229   6.621  0.0235  0.4437  0.4308
 7709SOL    HW134760   2.367   1.272   6.688 -1.1676 -0.1820  1.7390
 7709SOL    HW234761   2.262   1.169   6.672 -0.6823  0.2297 -0.5454
 7710SOL     OW34762   1.682   2.639  16.851 -0.0773 -0.5497 -0.1699
 7710SOL    HW134763   1.641   2.559  16.886  0.5400 -0.9334 -0.3335
 7710SOL    HW234764   1.701   2.620  16.760 -1.9358  1.1970 -0.9191
 7711SOL     OW34765   3.145   4.028   6.655  0.0123  0.0790  0.1339
 7711SOL    HW134766   3.087   4.094   6.620  0.4848 -0.8713 -2.4403
 7711SOL    HW234767   3.091   3.966   6.704 -0.6720  1.2032  0.7766
 7712SOL     OW34768   4.125   0.209   7.059 -0.2474  0.2802  0.3472
 7712SOL    HW134769   4.187   0.188   6.989  3.0508 -2.1846  3.9936
 7712SOL    HW234770   4.040   0.209   7.015  1.1805  0.6836 -2.4121
 7713SOL     OW34771   0.871   0.267   5.724 -0.1718 -0.1828  0.0719
 7713SOL    HW134772   0.811   0.302   5.790 -0.2182  1.6259 -0.9572
 7713SOL    HW234773   0.950   0.263   5.777 -0.8641  0.4048  1.1414
 7714SOL     OW34774   4.427   2.921  12.162 -0.0293 -0.4037 -0.3216
 7714SOL    HW134775   4.513   2.955  12.135  0.8365 -0.0319  2.8656
 7714SOL    HW234776   4.395   2.886  12.079 -2.1873  2.9933 -0.8859
 7715SOL     OW34777   2.562   2.371   1.456  0.4092  0.0829  0.4214
 7715SOL    HW134778   2.603   2.348   1.539 -1.5927 -4.2604  0.2169
 7715SOL    HW234779   2.515   2.290   1.436 -0.7784  1.1969 -1.3548
 7716SOL     OW34780   3.793   0.719   5.639 -0.6410 -0.0258  0.7647
 7716SOL    HW134781   3.814   0.671   5.719 -1.1671 -0.4098  0.6738
 7716SOL    HW234782   3.868   0.778   5.637 -1.1546  0.6035  0.1498
 7717SOL     OW34783   1.479   3.356   5.533 -0.4815  0.2551 -0.5072
 7717SOL    HW134784   1.440   3.437   5.500  0.4341  0.8147 -0.2364
 7717SOL    HW234785   1.419   3.303   5.481  2.6720  0.4627 -4.3728
 7718SOL     OW34786   0.622   0.647   6.363  0.1877  0.1468  0.3512
 7718SOL    HW134787   0.575   0.727   6.340  0.1152  0.1026  0.3442
 7718SOL    HW234788   0.549   0.595   6.396 -0.5156  0.9125 -0.0164
 7719SOL     OW34789   3.286   3.224   4.458 -0.9238 -0.0949 -0.3657
 7719SOL    HW134790   3.226   3.275   4.512  2.6003  2.9976  0.5947
 7719SOL    HW234791   3.230   3.146   4.457 -1.6016  0.3854  0.2627
 7720SOL     OW34792   0.207   4.577  14.708 -0.4952 -0.4222  0.0026
 7720SOL    HW134793   0.199   4.622  14.792  1.1814  2.2758 -1.2441
 7720SOL    HW234794   0.141   4.509  14.714 -0.9433  0.0134  0.0324
 7721SOL     OW34795   2.300   1.358   5.082  0.4668 -0.0029 -0.3175
 7721SOL    HW134796   2.300   1.319   5.170  0.3991  1.5840  0.3919
 7721SOL    HW234797   2.390   1.338   5.056  1.2310 -0.7115  2.8777
 7722SOL     OW34798   1.651   4.361  16.445  0.5768 -0.5140  0.7792
 7722SOL    HW134799   1.714   4.377  16.516  2.0144  4.9767 -1.7488
 7722SOL    HW234800   1.670   4.432  16.384 -2.8720 -0.1305  0.1427
 7723SOL     OW34801   1.458   2.330   8.779  0.1566  0.0310 -0.3466
 7723SOL    HW134802   1.463   2.399   8.845 -0.7342 -0.8710  0.6769
 7723SOL    HW234803   1.485   2.373   8.698  1.6240 -0.5732 -0.1696
 7724SOL     OW34804   2.188   3.313   4.427  0.0266  0.4522 -0.4590
 7724SOL    HW134805   2.273   3.288   4.463 -1.3731 -2.5919  0.7577
 7724SOL    HW234806   2.124   3.298   4.497 -2.4270 -2.0573 -3.2212
 7725SOL     OW34807   3.130   0.631  12.678 -0.3376  0.5932 -0.4374
 7725SOL    HW134808   3.081   0.550  12.663 -0.7157 -0.0048  4.1528
 7725SOL    HW234809   3.192   0.617  12.607  0.7728 -0.6080  0.7916
 7726SOL     OW34810   2.412   4.051  16.673  0.0006  0.6245  0.3372
 7726SOL    HW134811   2.330   4.037  16.626  0.1509 -0.2499  0.3183
 7726SOL    HW234812   2.404   3.982  16.739 -3.2554 -2.0283 -2.8185
 7727SOL     OW34813   0.785   1.607  15.357  0.1691 -0.3511 -0.3032
 7727SOL    HW134814   0.752   1.542  15.420  0.6392  1.2672  1.6323
 7727SOL    HW234815   0.711   1.667  15.363 -0.3972 -0.9811 -1.1019
 7728SOL     OW34816   4.387   2.923  11.518  0.0480  0.7338 -0.4646
 7728SOL    HW134817   4.308   2.897  11.565  1.2001 -2.4269 -0.3144
 7728SOL    HW234818   4.375   3.017  11.501  2.7715  1.0664 -0.4812
 7729SOL     OW34819   1.953   1.907   5.841 -0.3685  0.1401 -0.1236
 7729SOL    HW134820   1.932   1.938   5.753  0.1231  1.4376  0.2163
 7729SOL    HW234821   2.030   1.856   5.816 -0.2092 -0.3916  1.4055
 7730SOL     OW34822   1.818   0.683  12.087 -0.0590  0.4427 -0.1787
 7730SOL    HW134823   1.764   0.754  12.122 -1.2562 -0.3389 -0.4714
 7730SOL    HW234824   1.754   0.640  12.032  0.6928  1.0082 -1.4952
 7731SOL     OW34825   2.235   0.617  11.252 -0.4401  0.2626  0.3362
 7731SOL    HW134826   2.204   0.554  11.317 -1.7048 -0.2579 -0.7705
 7731SOL    HW234827   2.212   0.585  11.165  0.4027  2.6750 -0.7981
 7732SOL     OW34828   2.311   2.745   4.009 -0.1661 -0.0274  0.2212
 7732SOL    HW134829   2.272   2.802   3.942 -0.0941 -0.8994 -0.5665
 7732SOL    HW234830   2.294   2.661   3.966  0.5480 -0.4854  0.8498
 7733SOL     OW34831   0.992   2.403   8.493 -0.2203 -0.0278 -0.3307
 7733SOL    HW134832   0.934   2.349   8.546 -2.8392  1.3744 -1.7627
 7733SOL    HW234833   1.042   2.448   8.561  1.0798  0.9240 -1.9104
 7734SOL     OW34834   1.943   0.486   9.696  0.6235 -0.0492  0.7558
 7734SOL    HW134835   1.872   0.434   9.733 -1.4020  1.8812 -0.4058
 7734SOL    HW234836   2.007   0.415   9.686  1.4222  1.0276 -1.7353
 7735SOL     OW34837   3.614   2.581  16.670  0.3687 -0.1875  0.6289
 7735SOL    HW134838   3.653   2.516  16.611  0.5921  0.7883 -0.3169
 7735SOL    HW234839   3.575   2.648  16.613 -0.0919  1.3318  2.7235
 7736SOL     OW34840   1.222   4.137   6.658 -0.2609 -0.5665 -0.6406
 7736SOL    HW134841   1.306   4.169   6.626  0.0755 -0.5155  0.3058
 7736SOL    HW234842   1.249   4.055   6.699  1.3992 -0.1046 -0.8247
 7737SOL     OW34843   0.916   4.159   0.749 -0.1078 -0.0558  1.0135
 7737SOL    HW134844   0.961   4.101   0.688  1.6713 -0.3048  2.5953
 7737SOL    HW234845   0.929   4.240   0.700  0.3611 -0.2977  0.7408
 7738SOL     OW34846   2.772   4.163   8.379 -0.2968 -0.1790  0.4596
 7738SOL    HW134847   2.718   4.232   8.339 -0.5524 -0.4882  0.2783
 7738SOL    HW234848   2.703   4.098   8.391  0.6326 -1.1113  0.7034
 7739SOL     OW34849   4.414   4.723   6.192 -0.0793 -0.0445 -0.4206
 7739SOL    HW134850   4.352   0.051   6.165 -0.0108  0.3412  0.4092
 7739SOL    HW234851   4.363   4.653   6.151 -1.4871  1.0254 -0.4803
 7740SOL     OW34852   1.582   1.115   5.893  0.1707 -0.3486 -0.3293
 7740SOL    HW134853   1.614   1.192   5.846  2.7509 -1.3249 -0.1531
 7740SOL    HW234854   1.513   1.083   5.835  0.6560  0.2332 -1.2278
 7741SOL     OW34855   2.690   3.769   2.213  0.3384 -0.2487 -0.3530
 7741SOL    HW134856   2.668   3.709   2.284 -1.9661  1.1483  0.0993
 7741SOL    HW234857   2.720   3.706   2.148  3.3863 -0.0993  0.9007
 7742SOL     OW34858   2.871   1.699   4.483 -0.5559 -1.2296  0.1619
 7742SOL    HW134859   2.825   1.742   4.411 -1.3168 -0.3051  1.2174
 7742SOL    HW234860   2.801   1.674   4.542 -0.5423 -0.8274  0.3463
 7743SOL     OW34861   4.004   4.057   5.397 -0.2995  0.3736  0.2696
 7743SOL    HW134862   3.966   3.977   5.433  4.0608 -2.5459 -1.7013
 7743SOL    HW234863   3.926   4.092   5.353 -1.3576 -1.7108  0.5106
 7744SOL     OW34864   4.188   2.290   2.726  0.1285 -0.4152  0.2004
 7744SOL    HW134865   4.177   2.362   2.788  1.9942  0.2395 -0.2193
 7744SOL    HW234866   4.097   2.270   2.704 -0.1791  0.1786  0.9381
 7745SOL     OW34867   1.329   4.391   5.796  0.2037 -0.0028  0.3527
 7745SOL    HW134868   1.384   4.424   5.868  0.3613  0.9770 -0.2204
 7745SOL    HW234869   1.241   4.413   5.828 -0.7790 -1.2832 -1.4749
 7746SOL     OW34870   1.313   3.083  15.135 -0.1110 -0.6402  0.2787
 7746SOL    HW134871   1.299   2.993  15.165 -3.4699  0.2361  1.3692
 7746SOL    HW234872   1.406   3.097  15.154  0.3015 -3.3533  0.2562
 7747SOL     OW34873   3.613   1.779   4.818 -0.3523 -0.4020 -0.1584
 7747SOL    HW134874   3.667   1.756   4.743 -0.9907 -3.6719  0.3810
 7747SOL    HW234875   3.678   1.775   4.889 -1.5139 -3.0254  0.7806
 7748SOL     OW34876   3.210   3.529   5.235 -0.8191 -0.0212 -0.2160
 7748SOL    HW134877   3.218   3.513   5.141  0.0630 -2.9180  0.3547
 7748SOL    HW234878   3.188   3.622   5.227 -0.8104 -0.0857 -0.9789
 7749SOL     OW34879   2.736   4.383   9.219  0.3597 -0.0579 -0.3594
 7749SOL    HW134880   2.680   4.337   9.157 -2.0469  1.8859  0.3603
 7749SOL    HW234881   2.764   4.313   9.279  0.5730  0.0519 -0.3310
 7750SOL     OW34882   1.621   3.009  17.296 -0.0525 -0.2209  0.1743
 7750SOL    HW134883   1.643   2.941  17.232  0.7522 -1.9014  2.2334
 7750SOL    HW234884   1.692   2.998  17.359 -0.4752  0.3332  0.7370
 7751SOL     OW34885   2.994   4.480   8.149 -0.2520 -0.4934 -0.0571
 7751SOL    HW134886   2.915   4.533   8.158  0.6052  0.8094 -0.2339
 7751SOL    HW234887   2.999   4.472   8.054 -1.6050 -0.1298 -0.1649
 7752SOL     OW34888   3.932   0.638   7.361 -0.5572 -0.1260 -0.1860
 7752SOL    HW134889   3.905   0.599   7.444  0.5464 -1.0805 -0.2806
 7752SOL    HW234890   4.027   0.627   7.363 -0.4946  0.1439 -1.8480
 7753SOL     OW34891   3.668   0.882   9.576 -0.3712  0.2299  0.6144
 7753SOL    HW134892   3.760   0.902   9.596  0.0339 -1.0622 -0.0161
 7753SOL    HW234893   3.618   0.944   9.630 -0.7691  1.0897 -0.7580
 7754SOL     OW34894   3.560   1.037   1.385 -0.6367  0.3825  0.2823
 7754SOL    HW134895   3.512   1.006   1.462  2.6595 -2.0811  1.3096
 7754SOL    HW234896   3.648   1.017   1.416 -0.6883  0.9769  0.8141
 7755SOL     OW34897   1.053   0.449   5.478 -0.0932  0.2856 -0.4344
 7755SOL    HW134898   1.060   0.423   5.386  0.3290  2.2015 -0.9596
 7755SOL    HW234899   0.968   0.492   5.474 -0.3292 -0.1104  0.6156
 7756SOL     OW34900   0.995   4.430  13.981  0.1488  0.4084  0.0618
 7756SOL    HW134901   1.005   4.475  14.065  1.7869  0.6153 -0.2572
 7756SOL    HW234902   0.971   4.340  14.007  0.1066 -0.0881 -1.7084
 7757SOL     OW34903   3.158   4.019  16.809 -0.5688 -0.0573 -0.0931
 7757SOL    HW134904   3.235   4.050  16.855 -0.9927  0.0455  0.5452
 7757SOL    HW234905   3.191   3.946  16.756  0.4090  0.9386 -0.8377
 7758SOL     OW34906   0.329   4.208   5.964  0.2576  0.1842  0.0295
 7758SOL    HW134907   0.264   4.194   6.033 -0.6411  0.3602 -0.7829
 7758SOL    HW234908   0.408   4.214   6.018  0.3807 -0.4863 -0.0728
 7759SOL     OW34909   3.425   3.801   6.032 -0.0074 -0.3847  0.3647
 7759SOL    HW134910   3.373   3.788   6.111 -2.0406 -2.0418 -1.2294
 7759SOL    HW234911   3.399   3.718   5.991 -0.4262 -0.1987  0.2483
 7760SOL     OW34912   2.864   2.772   1.498 -0.0484 -0.0657 -0.6755
 7760SOL    HW134913   2.788   2.831   1.490 -1.0821 -1.0688  1.7646
 7760SOL    HW234914   2.925   2.808   1.434 -0.2925  1.8088  0.1302
 7761SOL     OW34915   4.292   3.414   9.647 -0.2575 -0.0046  0.1107
 7761SOL    HW134916   4.230   3.448   9.712 -1.6737 -1.2796 -0.5625
 7761SOL    HW234917   4.333   3.493   9.612 -1.0407  0.4766  0.2769
 7762SOL     OW34918   3.354   4.682   9.952  0.9251  0.2295  0.0833
 7762SOL    HW134919   3.327   4.590   9.949 -1.4775  0.8793  1.4730
 7762SOL    HW234920   3.280   4.724   9.998  1.1215  0.2601  0.3714
 7763SOL     OW34921   0.956   4.175   9.173  0.1814 -0.0919 -0.3138
 7763SOL    HW134922   0.888   4.227   9.216  1.5476  0.4321  1.2321
 7763SOL    HW234923   1.027   4.161   9.236  2.3587  1.8107 -2.3720
 7764SOL     OW34924   3.641   3.120   1.941  0.4138 -0.0871  0.1661
 7764SOL    HW134925   3.643   3.073   1.857 -1.1971 -1.5911  0.9757
 7764SOL    HW234926   3.672   3.206   1.912 -0.1617  0.0416 -0.0753
 7765SOL     OW34927   4.593   4.735   4.664 -0.1940 -0.2143 -1.0731
 7765SOL    HW134928   4.671   4.732   4.609 -0.3003 -0.1519 -1.2273
 7765SOL    HW234929   4.549   4.658   4.628 -1.5286 -1.1479  2.6148
 7766SOL     OW34930   3.292   3.015   8.673 -0.0553 -0.3147  0.0795
 7766SOL    HW134931   3.216   2.992   8.728  0.5644 -1.1496  0.5913
 7766SOL    HW234932   3.343   2.940   8.703 -0.6380 -0.8235 -0.1981
 7767SOL     OW34933   0.408   1.760   7.361  0.7184  0.4420 -0.8620
 7767SOL    HW134934   0.403   1.847   7.402  0.9082  0.0420  0.0161
 7767SOL    HW234935   0.501   1.742   7.373  0.4309 -0.6056 -0.2105
 7768SOL     OW34936   4.174   2.155   5.008  0.0368  0.0675  0.2678
 7768SOL    HW134937   4.175   2.060   5.019  0.4807 -0.1054 -1.2012
 7768SOL    HW234938   4.138   2.174   4.921 -0.0548 -0.4396  0.1910
 7769SOL     OW34939   2.051   3.034   7.239  0.0909 -0.2511  0.3858
 7769SOL    HW134940   2.083   3.099   7.176  1.6330 -1.4760 -0.1003
 7769SOL    HW234941   2.050   3.081   7.322 -1.1493 -0.7960  0.6773
 7770SOL     OW34942   3.585   0.196   6.573 -0.3174  0.2017  0.2582
 7770SOL    HW134943   3.538   0.269   6.612 -0.1025  1.7636 -2.3456
 7770SOL    HW234944   3.603   0.246   6.493 -3.5344  1.6302  0.4352
 7771SOL     OW34945   0.924   3.160   0.312 -0.3822  0.1867  0.4874
 7771SOL    HW134946   0.965   3.176   0.398 -0.8988 -1.6119  1.0650
 7771SOL    HW234947   0.986   3.092   0.287 -0.3474  0.8967 -1.3333
 7772SOL     OW34948   0.435   4.536   7.804  0.2735 -0.0696 -0.1698
 7772SOL    HW134949   0.402   4.512   7.891 -0.8105  1.1842 -0.2462
 7772SOL    HW234950   0.486   4.612   7.829 -0.1118  1.4495 -3.9735
 7773SOL     OW34951   3.534   4.049   6.067 -0.1207  0.4783  0.5838
 7773SOL    HW134952   3.497   3.962   6.079 -0.7146  0.8337  1.3307
 7773SOL    HW234953   3.455   4.103   6.059 -1.2327 -0.9831  1.7273
 7774SOL     OW34954   0.822   4.033   7.024  0.9641 -0.0078  0.4288
 7774SOL    HW134955   0.918   4.041   7.023  0.8682  0.9677  0.1437
 7774SOL    HW234956   0.798   4.029   7.117  0.8112  1.1855  0.4305
 7775SOL     OW34957   2.736   4.531  10.933 -0.2304  0.0735  0.5721
 7775SOL    HW134958   2.812   4.577  10.972 -1.4987  2.3601  0.3578
 7775SOL    HW234959   2.661   4.586  10.956  1.0227  0.8599  2.8216
 7776SOL     OW34960   1.133   3.004   1.107  0.1769  0.1279  0.8040
 7776SOL    HW134961   1.139   2.948   1.185 -0.2785  0.1689  0.8684
 7776SOL    HW234962   1.155   2.944   1.035 -0.9787  0.1942  0.3893
 7777SOL     OW34963   1.371   2.820  15.239 -0.1025 -0.6807  0.2981
 7777SOL    HW134964   1.293   2.766  15.246 -0.6409  0.0384 -0.1794
 7777SOL    HW234965   1.434   2.751  15.220  1.0579  0.4594 -0.0155
 7778SOL     OW34966   1.284   2.339   5.088  0.2372  0.3918 -0.1292
 7778SOL    HW134967   1.299   2.429   5.119  0.6944  0.5957 -0.9566
 7778SOL    HW234968   1.315   2.290   5.165  1.5549 -1.9601 -2.1851
 7779SOL     OW34969   0.970   4.355   5.158  0.1458  0.4156  0.9403
 7779SOL    HW134970   1.008   4.313   5.081  0.2202 -0.0392  1.2300
 7779SOL    HW234971   0.889   4.399   5.132  0.6561  0.3388 -0.7463
 7780SOL     OW34972   2.820   2.848   7.573 -0.0091  0.0661 -0.3136
 7780SOL    HW134973   2.810   2.858   7.668 -0.8630 -1.4250 -0.2407
 7780SOL    HW234974   2.851   2.931   7.538 -0.5628  1.2839  2.0953
 7781SOL     OW34975   2.231   0.108   2.264 -1.0181 -0.2625 -0.7833
 7781SOL    HW134976   2.175   0.185   2.251  0.2751  0.5688 -1.4285
 7781SOL    HW234977   2.296   0.118   2.195  0.8544  1.8578  1.2764
 7782SOL     OW34978   3.316   3.506   4.944 -0.4836  0.1026 -0.5104
 7782SOL    HW134979   3.228   3.526   4.912 -0.1286  1.5182 -0.5732
 7782SOL    HW234980   3.368   3.562   4.887  0.0852  1.7585  1.6368
 7783SOL     OW34981   2.501   3.241   0.695 -0.2407 -0.6346  0.0973
 7783SOL    HW134982   2.417   3.278   0.669 -0.2163  0.0900  1.0372
 7783SOL    HW234983   2.489   3.215   0.787 -2.1135  0.7468  0.2349
 7784SOL     OW34984   3.060   2.415   3.494  0.3012 -0.0506 -0.5882
 7784SOL    HW134985   2.990   2.462   3.450  1.1079 -0.1734 -1.9924
 7784SOL    HW234986   3.127   2.484   3.492  1.0667 -0.7773 -0.1041
 7785SOL     OW34987   4.738   2.611   3.632 -0.1734 -0.0042  0.0625
 7785SOL    HW134988   4.720   2.530   3.585  0.4673 -0.7662  1.1465
 7785SOL    HW234989   4.647   2.641   3.633 -0.4987 -0.9760 -0.8212
 7786SOL     OW34990   0.492   2.188   9.665 -0.0527  0.4398  0.1287
 7786SOL    HW134991   0.464   2.096   9.669 -3.2067  1.3598 -0.7368
 7786SOL    HW234992   0.582   2.184   9.634  0.8676 -0.4225  2.9008
 7787SOL     OW34993   3.651   4.072   7.880  0.2543 -0.0826  0.1761
 7787SOL    HW134994   3.645   4.091   7.974  0.6509 -1.0317  0.3910
 7787SOL    HW234995   3.579   4.010   7.871 -1.1973  1.3439  1.9129
 7788SOL     OW34996   2.302   1.585  12.460 -0.0400  0.4566 -0.3440
 7788SOL    HW134997   2.366   1.652  12.483  2.0937 -1.0534 -1.9035
 7788SOL    HW234998   2.218   1.614  12.498 -1.3757 -2.2047 -1.2286
 7789SOL     OW34999   1.563   4.249   5.680  0.2862 -0.5845 -0.1345
 7789SOL    HW135000   1.644   4.300   5.690  0.2430 -0.5838  0.2334
 7789SOL    HW235001   1.540   4.235   5.772 -1.5831  1.6243 -0.2751
 7790SOL     OW35002   0.504   4.678   9.349 -0.5503  0.3696  0.3953
 7790SOL    HW135003   0.427   4.633   9.314 -0.5143  0.0492  0.7299
 7790SOL    HW235004   0.516   4.638   9.435 -0.5629  2.5264  1.4023
 7791SOL     OW35005   3.751   2.928   8.934 -0.2103 -0.3369 -0.4835
 7791SOL    HW135006   3.680   2.993   8.935  1.2399  1.2597 -0.1242
 7791SOL    HW235007   3.769   2.920   8.841 -0.7412  1.5165 -0.7526
 7792SOL     OW35008   3.095   1.118  14.216 -0.6353  0.0056  0.0723
 7792SOL    HW135009   3.029   1.149  14.154 -0.8899 -1.2897 -0.3112
 7792SOL    HW235010   3.094   1.022  14.213 -0.5624  0.0404 -0.9605
 7793SOL     OW35011   4.598   1.353   8.949 -0.1696  0.4316 -0.1000
 7793SOL    HW135012   4.689   1.374   8.973 -0.2425 -0.0611  0.6204
 7793SOL    HW235013   4.602   1.416   8.877  1.6377 -1.7635 -1.9215
 7794SOL     OW35014   0.665   3.978   1.150 -0.3099  0.1449 -0.2279
 7794SOL    HW135015   0.665   4.068   1.183 -0.6840  0.0471  0.0441
 7794SOL    HW235016   0.573   3.963   1.173 -0.4214  0.9672 -0.1516
 7795SOL     OW35017   3.898   3.363   9.744  0.5145 -0.5946  0.4774
 7795SOL    HW135018   3.957   3.303   9.698  1.8013  1.1700 -0.1914
 7795SOL    HW235019   3.902   3.317   9.828  0.6245  0.4868  1.0682
 7796SOL     OW35020   1.496   3.981  13.769 -0.4538  0.1009 -0.1795
 7796SOL    HW135021   1.571   3.928  13.797 -0.4489 -1.1050 -2.5052
 7796SOL    HW235022   1.435   3.987  13.842 -0.8177 -1.5861 -0.3485
 7797SOL     OW35023   1.511   4.623  13.925 -0.5857 -0.8241 -0.7268
 7797SOL    HW135024   1.438   4.675  13.960 -0.8645 -1.2853 -0.6198
 7797SOL    HW235025   1.462   4.553  13.882  1.0989 -1.5522 -1.4655
 7798SOL     OW35026   3.933   3.347   6.598  0.8295  0.0323 -0.3634
 7798SOL    HW135027   3.874   3.362   6.672 -0.2318  0.6591 -1.3573
 7798SOL    HW235028   3.906   3.419   6.541 -1.6836 -0.5009  0.1727
 7799SOL     OW35029   0.241   2.014  11.152 -0.1111 -0.0103 -0.2624
 7799SOL    HW135030   0.321   2.002  11.101  0.9725 -0.2831  1.5243
 7799SOL    HW235031   0.187   1.964  11.091  0.9389 -2.6379  0.9830
 7800SOL     OW35032   2.922   0.555   3.457  0.2825  0.0687 -0.6358
 7800SOL    HW135033   3.010   0.564   3.492  0.0802 -0.2598 -0.0384
 7800SOL    HW235034   2.882   0.508   3.530  2.9972 -1.6950 -0.3087
 7801SOL     OW35035   3.737   2.973   4.480 -0.1619 -0.1498 -0.1978
 7801SOL    HW135036   3.816   3.025   4.496  0.0904 -0.5108 -0.2698
 7801SOL    HW235037   3.718   3.012   4.394 -0.0354  2.2926  0.8670
 7802SOL     OW35038   0.600   3.877   7.175 -0.0154 -0.7870  0.5807
 7802SOL    HW135039   0.585   3.971   7.163 -0.9183 -0.6847  2.4526
 7802SOL    HW235040   0.518   3.837   7.203 -0.7396  0.2752 -0.0500
 7803SOL     OW35041   2.638   1.590   7.170  0.1474 -0.0949 -0.0930
 7803SOL    HW135042   2.566   1.598   7.233 -0.1753  1.7049 -0.6667
 7803SOL    HW235043   2.596   1.636   7.097  0.2946  0.3797  0.1241
 7804SOL     OW35044   0.679   2.790   6.761 -0.2844  0.3609  0.6806
 7804SOL    HW135045   0.729   2.821   6.686 -0.2636 -0.3664  0.3945
 7804SOL    HW235046   0.714   2.704   6.783 -0.9301  0.5015  2.3188
 7805SOL     OW35047   0.360   4.199   8.377  0.1541 -0.0702 -0.0615
 7805SOL    HW135048   0.455   4.190   8.368  0.0503 -2.4299  1.1301
 7805SOL    HW235049   0.353   4.142   8.454 -1.7987 -1.5077 -1.3056
 7806SOL     OW35050   2.386   0.114  11.251  0.9016  0.2764  0.7657
 7806SOL    HW135051   2.321   0.116  11.180 -0.7369  0.3215  2.2657
 7806SOL    HW235052   2.390   0.209  11.263  3.3274 -0.1644  3.2917
 7807SOL     OW35053   0.648   1.863   6.660 -0.5344 -0.5757 -0.1498
 7807SOL    HW135054   0.619   1.773   6.648 -0.8366 -0.4332 -0.4907
 7807SOL    HW235055   0.619   1.884   6.749 -4.0147  1.5401 -1.7961
 7808SOL     OW35056   1.659   1.023   4.760 -0.6035 -0.1664 -0.2526
 7808SOL    HW135057   1.708   0.945   4.735 -0.4880 -0.3618  0.5863
 7808SOL    HW235058   1.730   1.087   4.762 -1.5261  0.9285 -2.0614
 7809SOL     OW35059   1.155   2.044  17.582 -0.2078  0.4153 -0.1419
 7809SOL    HW135060   1.149   1.959  17.626 -0.7113  1.1167  1.1549
 7809SOL    HW235061   1.187   2.098  17.654  0.8242 -1.3915  0.7720
 7810SOL     OW35062   4.019   4.303  10.584 -0.1701 -0.4747 -0.0594
 7810SOL    HW135063   4.018   4.242  10.658 -0.7948  0.1028  0.4216
 7810SOL    HW235064   4.081   4.249  10.535 -0.7039 -0.9114 -0.2529
 7811SOL     OW35065   1.336   1.160   7.127  0.1612 -0.4296 -0.3586
 7811SOL    HW135066   1.266   1.098   7.147 -2.1636  1.5748 -2.2100
 7811SOL    HW235067   1.335   1.168   7.032 -1.3135  0.4848 -0.2803
 7812SOL     OW35068   4.240   3.933   4.803 -0.0753  0.1579 -0.1923
 7812SOL    HW135069   4.326   3.891   4.805 -1.2631 -2.2176  0.5349
 7812SOL    HW235070   4.262   4.020   4.836  0.9671  0.7149 -2.3272
 7813SOL     OW35071   3.237   1.263  10.799 -0.4446 -0.0413 -0.6732
 7813SOL    HW135072   3.206   1.225  10.881 -1.0712 -2.0895 -1.8605
 7813SOL    HW235073   3.249   1.189  10.739  4.2105 -0.2440  0.4499
 7814SOL     OW35074   0.152   1.943   8.308  0.5163  0.2596 -0.3374
 7814SOL    HW135075   0.113   1.991   8.382  1.7236  0.7211  0.0109
 7814SOL    HW235076   0.161   2.020   8.251  1.4754  2.0949  2.2296
 7815SOL     OW35077   0.906   0.758   3.956 -0.0423  0.0559  0.0091
 7815SOL    HW135078   0.896   0.781   4.048  1.3610  3.0883 -0.5954
 7815SOL    HW235079   0.825   0.792   3.919  0.2243 -0.1170 -0.7399
 7816SOL     OW35080   2.329   2.849   9.782  0.0743 -0.0922  0.3928
 7816SOL    HW135081   2.243   2.809   9.775  0.7452 -1.4621 -0.1207
 7816SOL    HW235082   2.384   2.811   9.713 -0.7318 -2.8331  1.2828
 7817SOL     OW35083   2.372   0.150  13.737 -0.0802 -0.4220  0.1345
 7817SOL    HW135084   2.293   0.137  13.684  0.4551  0.7682 -0.9556
 7817SOL    HW235085   2.353   0.240  13.761  2.5181 -0.3686  1.9772
 7818SOL     OW35086   0.689   3.364   7.150 -0.4995 -0.1700 -0.4055
 7818SOL    HW135087   0.623   3.330   7.090 -1.1357  1.5763 -0.6943
 7818SOL    HW235088   0.764   3.363   7.091 -1.1058 -0.9949 -1.1611
 7819SOL     OW35089   3.243   4.463   7.348 -0.0881 -0.3530  0.0477
 7819SOL    HW135090   3.303   4.479   7.276 -0.6459 -1.1278 -0.5870
 7819SOL    HW235091   3.240   4.368   7.336  1.1128 -0.3862  0.0201
 7820SOL     OW35092   1.591   3.642   7.888 -0.2748  0.3194  0.1158
 7820SOL    HW135093   1.668   3.585   7.879 -0.5753 -0.0165 -0.3502
 7820SOL    HW235094   1.548   3.604   7.812 -3.1579  0.5959  1.5980
 7821SOL     OW35095   3.499   3.378   7.256 -0.1694 -0.0981  0.1546
 7821SOL    HW135096   3.467   3.290   7.278  0.1553  0.5190  3.1536
 7821SOL    HW235097   3.535   3.409   7.339 -1.0588  0.5273  0.3065
 7822SOL     OW35098   4.147   3.152   2.710  0.5061  0.4552 -0.0260
 7822SOL    HW135099   4.095   3.231   2.696  0.5225  0.2259 -1.3356
 7822SOL    HW235100   4.107   3.090   2.650 -1.3891 -0.2266  1.9326
 7823SOL     OW35101   3.225   0.430   2.619  0.2595 -0.0497  0.0883
 7823SOL    HW135102   3.232   0.488   2.695 -1.3572 -0.3928  0.4894
 7823SOL    HW235103   3.315   0.399   2.611 -0.1521 -1.1592 -0.1373
 7824SOL     OW35104   1.466   4.722   0.996  0.1338  0.5154  0.3407
 7824SOL    HW135105   1.491   4.700   1.085 -1.4752  0.1834  0.7160
 7824SOL    HW235106   1.384   4.673   0.989  0.1230  0.0334  3.7442
 7825SOL     OW35107   0.957   2.372  12.091  0.6644 -0.1071  0.3002
 7825SOL    HW135108   0.957   2.400  11.999  0.8669  2.0309  0.9473
 7825SOL    HW235109   0.918   2.451  12.127  0.5075  0.3790 -0.9361
 7826SOL     OW35110   0.801   3.969   8.976  0.3667 -0.3504 -0.5003
 7826SOL    HW135111   0.754   3.957   8.894  0.3001 -1.4575 -0.3033
 7826SOL    HW235112   0.802   4.063   8.991  0.2328 -0.5857  0.9906
 7827SOL     OW35113   1.317   4.660   8.373 -0.0327  0.0790 -0.2156
 7827SOL    HW135114   1.301   4.660   8.279 -1.2066 -0.5370 -0.0168
 7827SOL    HW235115   1.371   4.737   8.389  1.5357 -1.2574  1.0333
 7828SOL     OW35116   2.701   4.242   4.581 -0.3337  0.0097  0.3250
 7828SOL    HW135117   2.719   4.265   4.673  0.5734 -2.3150  0.7381
 7828SOL    HW235118   2.616   4.201   4.594 -1.1855  2.1914  1.5816
 7829SOL     OW35119   1.018   3.377   4.151 -0.3785 -0.2714 -0.6429
 7829SOL    HW135120   0.986   3.326   4.225  0.7980  0.2901  0.2413
 7829SOL    HW235121   0.960   3.339   4.084 -1.4023 -1.1573  0.7475
 7830SOL     OW35122   2.462   0.737   2.894  0.4051 -0.5639 -0.2448
 7830SOL    HW135123   2.506   0.660   2.931  1.2382  0.5132  0.9698
 7830SOL    HW235124   2.526   0.752   2.824  0.8254 -0.0337  0.2542
 7831SOL     OW35125   0.753   2.836   7.852 -0.5129 -0.6914 -0.7179
 7831SOL    HW135126   0.755   2.903   7.784  2.0687 -1.2051 -1.1482
 7831SOL    HW235127   0.834   2.797   7.820  0.2733  0.4087 -0.0623
 7832SOL     OW35128   0.729   2.294  11.443  0.1550 -0.0818 -0.1023
 7832SOL    HW135129   0.726   2.384  11.409 -0.5596 -0.4699 -1.0547
 7832SOL    HW235130   0.718   2.241  11.363  0.3032  2.0315 -1.5345
 7833SOL     OW35131   4.007   3.111   4.487 -0.8816 -0.0284 -0.0887
 7833SOL    HW135132   4.095   3.096   4.452 -0.7217 -0.3054  0.4384
 7833SOL    HW235133   4.000   3.063   4.569  1.3819  1.0301  0.7194
 7834SOL     OW35134   2.436   3.211   2.401  0.1896  0.4188  0.1528
 7834SOL    HW135135   2.390   3.295   2.412  3.7512  2.5263 -1.3220
 7834SOL    HW235136   2.519   3.251   2.377  1.4353 -2.7739 -0.8667
 7835SOL     OW35137   3.723   0.048   5.946 -0.8104  0.1336 -0.0343
 7835SOL    HW135138   3.701   0.117   5.884 -0.8018  0.9473  0.8687
 7835SOL    HW235139   3.636   0.014   5.969 -1.6528  0.0763 -3.3835
 7836SOL     OW35140   2.375   0.012   4.632  0.4428 -0.4018 -0.1810
 7836SOL    HW135141   2.386   0.022   4.538  1.9456 -1.2444 -0.0919
 7836SOL    HW235142   2.287   0.049   4.640 -0.1334 -1.8090 -0.1129
 7837SOL     OW35143   0.388   0.613   9.315  0.4734  0.3291 -0.2367
 7837SOL    HW135144   0.404   0.670   9.240 -1.1588  2.9112  1.3934
 7837SOL    HW235145   0.390   0.678   9.385  1.2994 -0.6979  0.6994
 7838SOL     OW35146   3.665   2.937   6.922 -0.2423 -0.2103  0.0934
 7838SOL    HW135147   3.718   3.016   6.932  2.0382 -1.3055 -3.2095
 7838SOL    HW235148   3.658   2.937   6.826  2.3067 -3.0326 -0.0814
 7839SOL     OW35149   3.076   3.719  17.058 -0.6384 -0.2541 -0.0897
 7839SOL    HW135150   3.090   3.644  17.116 -1.1423 -0.3849 -0.1455
 7839SOL    HW235151   3.042   3.677  16.979 -1.3455  0.4210 -0.1347
 7840SOL     OW35152   4.112   2.914   5.408  0.1296 -0.1202 -0.3360
 7840SOL    HW135153   4.204   2.890   5.398  0.3279  0.6382 -0.3406
 7840SOL    HW235154   4.105   2.918   5.503 -1.2182 -0.4023 -0.4161
 7841SOL     OW35155   0.471   3.851   0.363  0.7310  0.3910  0.3508
 7841SOL    HW135156   0.540   3.788   0.344  1.3865 -0.0248  4.0491
 7841SOL    HW235157   0.470   3.867   0.457 -1.9887  2.1643  0.0236
 7842SOL     OW35158   2.736   0.307   6.200  0.3594  0.2154  0.2071
 7842SOL    HW135159   2.726   0.253   6.122  1.6285  2.5236 -1.5373
 7842SOL    HW235160   2.832   0.312   6.202  0.4042 -1.2970  1.5626
 7843SOL     OW35161   4.239   0.446  11.166  0.2402 -0.0318  0.3621
 7843SOL    HW135162   4.153   0.462  11.207  0.6811 -0.7397  1.5470
 7843SOL    HW235163   4.211   0.371  11.113  0.7560 -1.4866  2.1504
 7844SOL     OW35164   2.805   2.366  13.319  0.5102  0.3825  0.2082
 7844SOL    HW135165   2.794   2.454  13.356 -0.6928  0.2497  0.1831
 7844SOL    HW235166   2.846   2.317  13.389  1.1512  0.6132 -0.0095
 7845SOL     OW35167   0.112   0.226   7.961  0.7446  0.0451 -0.5708
 7845SOL    HW135168   0.086   0.151   7.907  1.5361  0.9886 -2.2616
 7845SOL    HW235169   0.032   0.226   8.014  0.4403 -1.3256 -1.0230
 7846SOL     OW35170   2.228   2.590   8.059  0.2428  0.0034  0.6651
 7846SOL    HW135171   2.223   2.674   8.014  0.0201 -0.0698  0.5495
 7846SOL    HW235172   2.266   2.532   7.993 -0.3709  1.2368 -0.7775
 7847SOL     OW35173   1.774   0.255   9.775  0.4027 -0.6333 -0.2981
 7847SOL    HW135174   1.820   0.180   9.814  0.2997 -0.2856  0.5012
 7847SOL    HW235175   1.767   0.226   9.684 -0.9576 -0.6859 -0.1743
 7848SOL     OW35176   2.784   3.889   8.174 -0.1721 -0.2176 -0.0620
 7848SOL    HW135177   2.741   3.963   8.131 -2.7531 -1.7526 -0.1798
 7848SOL    HW235178   2.872   3.895   8.138  0.0852 -0.4387  0.5193
 7849SOL     OW35179   1.871   1.804   6.098 -0.2717 -0.1176  0.7445
 7849SOL    HW135180   1.802   1.870   6.106  0.4721  0.6538  0.7894
 7849SOL    HW235181   1.921   1.844   6.027  0.9131 -1.0862  1.0357
 7850SOL     OW35182   3.670   3.660   9.253  0.1562 -0.2707  0.4782
 7850SOL    HW135183   3.625   3.624   9.329  2.3884  0.9463  2.3830
 7850SOL    HW235184   3.666   3.586   9.193  1.1032  1.1179 -1.3035
 7851SOL     OW35185   1.515   3.163   2.479  0.6312 -0.0338  0.2963
 7851SOL    HW135186   1.502   3.214   2.399  1.1508  1.1246  0.9498
 7851SOL    HW235187   1.534   3.228   2.546 -1.2125  0.8934 -0.0853
 7852SOL     OW35188   3.755   0.786   7.721  0.7265 -0.0166 -0.9009
 7852SOL    HW135189   3.841   0.744   7.712  2.1887  3.0170 -1.2247
 7852SOL    HW235190   3.745   0.775   7.816  0.5374  0.7780 -0.8263
 7853SOL     OW35191   4.435   0.172   7.794 -0.5688 -0.3145 -0.1099
 7853SOL    HW135192   4.515   0.180   7.743 -0.0373 -0.9824  0.6249
 7853SOL    HW235193   4.419   0.265   7.812 -0.8199 -0.1076 -1.3717
 7854SOL     OW35194   0.235   1.545   0.575 -0.1953 -0.3826  0.1006
 7854SOL    HW135195   0.248   1.601   0.651  0.2382 -0.7398  0.2840
 7854SOL    HW235196   0.327   1.533   0.553  0.3586  4.3210 -0.0949
 7855SOL     OW35197   2.162   4.673  15.955  0.1805 -0.7701  0.4891
 7855SOL    HW135198   2.218   4.612  16.004  1.3971  1.2198  1.5521
 7855SOL    HW235199   2.148   0.003  16.019 -0.0113 -1.4687  1.2147
 7856SOL     OW35200   0.932   0.872   7.062 -0.0818 -0.8765  0.5397
 7856SOL    HW135201   0.987   0.809   7.016  1.3134  0.1314  0.7939
 7856SOL    HW235202   0.910   0.941   6.999  1.7422 -1.8176 -1.1114
 7857SOL     OW35203   4.442   0.792   6.169 -0.2735 -0.4449 -0.5418
 7857SOL    HW135204   4.379   0.724   6.145  0.1001 -1.0510  0.1925
 7857SOL    HW235205   4.418   0.807   6.261  0.9942  2.8872 -0.7579
 7858SOL     OW35206   4.616   2.516   6.414 -0.0219  0.5314  0.0529
 7858SOL    HW135207   4.576   2.579   6.474  0.4164 -2.5723  3.6004
 7858SOL    HW235208   4.688   2.487   6.470 -1.1837 -0.7300  0.8999
 7859SOL     OW35209   1.443   3.618   7.557 -0.3935 -0.0649  0.0748
 7859SOL    HW135210   1.433   3.698   7.608 -1.1715 -0.9602  1.3433
 7859SOL    HW235211   1.370   3.628   7.496 -1.6194 -0.5309  1.4408
 7860SOL     OW35212   1.310   1.248   5.327 -0.0552 -0.2894 -0.3967
 7860SOL    HW135213   1.314   1.213   5.416 -2.0588 -2.2262 -1.0611
 7860SOL    HW235214   1.269   1.179   5.274  2.5321 -0.5555 -2.0792
 7861SOL     OW35215   4.020   1.687   3.173  0.4742 -0.4836 -0.3159
 7861SOL    HW135216   3.983   1.681   3.262 -0.1192  3.2113 -0.3063
 7861SOL    HW235217   3.995   1.777   3.149  1.7190  0.3097  1.3584
 7862SOL     OW35218   3.016   4.189   3.523 -0.0430  0.0026 -0.4969
 7862SOL    HW135219   3.036   4.096   3.509 -0.9530 -0.0552 -1.4772
 7862SOL    HW235220   3.039   4.217   3.434  0.0274  1.7327  0.0784
 7863SOL     OW35221   2.143   2.091   3.590  0.5547 -0.0967 -0.3310
 7863SOL    HW135222   2.084   2.077   3.664 -0.3175  1.4803 -0.7304
 7863SOL    HW235223   2.213   2.026   3.598  0.4751 -0.2591 -0.9277
 7864SOL     OW35224   2.942   4.421  16.579 -0.1821 -0.1055  0.1336
 7864SOL    HW135225   2.969   4.329  16.578 -1.9960 -0.5979 -2.1482
 7864SOL    HW235226   2.941   4.438  16.674 -2.5439 -0.7503  0.2047
 7865SOL     OW35227   1.562   1.004   6.148  0.5110  0.3113  0.4356
 7865SOL    HW135228   1.656   1.019   6.160  0.7207 -0.9166  0.3133
 7865SOL    HW235229   1.553   0.999   6.052  0.8229 -1.6132  0.4983
 7866SOL     OW35230   3.873   0.537   8.820  0.3032  0.7346 -0.0843
 7866SOL    HW135231   3.961   0.560   8.791 -0.4939  2.6496 -0.9518
 7866SOL    HW235232   3.864   0.456   8.769  0.7140  0.6957 -0.0959
 7867SOL     OW35233   0.878   1.209   4.629 -0.3753  0.3118 -0.4726
 7867SOL    HW135234   0.917   1.296   4.618 -0.1971  0.3744  0.6805
 7867SOL    HW235235   0.927   1.155   4.567  0.4708  1.6263 -0.9367
 7868SOL     OW35236   1.878   0.961   5.586  0.5282 -0.2989 -0.3525
 7868SOL    HW135237   1.912   1.005   5.663 -0.4604 -0.4266  0.1563
 7868SOL    HW235238   1.948   0.898   5.566  1.0010  0.5398 -1.3456
 7869SOL     OW35239   4.714   4.465   2.989  0.6102  0.5057 -0.1742
 7869SOL    HW135240   4.622   4.447   2.969  1.0016  0.4904 -1.8860
 7869SOL    HW235241   0.026   4.410   2.930  0.5953 -0.3781  0.6360
 7870SOL     OW35242   1.930   1.165   5.741  0.8875  0.4174  0.1278
 7870SOL    HW135243   1.862   1.224   5.707 -0.2489  0.0195  1.6592
 7870SOL    HW235244   1.945   1.209   5.825 -3.5480  0.9910  0.6458
 7871SOL     OW35245   3.703   1.842   2.738  0.0288  0.4369 -0.8880
 7871SOL    HW135246   3.660   1.794   2.667 -2.9819  0.9154  0.5866
 7871SOL    HW235247   3.638   1.848   2.808  0.0200 -0.5442 -0.8086
 7872SOL     OW35248   4.401   3.487   3.708  0.3802  0.5703  0.0052
 7872SOL    HW135249   4.471   3.518   3.650  1.3930 -2.0878 -0.2156
 7872SOL    HW235250   4.420   3.554   3.773 -0.1488  0.6599  0.0632
 7873SOL     OW35251   3.662   4.274   4.362 -0.0112 -0.0253 -0.5718
 7873SOL    HW135252   3.587   4.216   4.367 -1.2713  1.6873  0.3420
 7873SOL    HW235253   3.622   4.344   4.309 -0.1172  0.5356  0.2520
 7874SOL     OW35254   1.055   4.428   2.846 -0.4895 -0.3873 -0.1043
 7874SOL    HW135255   1.134   4.477   2.868 -0.2518 -0.5978 -0.4752
 7874SOL    HW235256   1.081   4.378   2.767 -1.1861 -0.1509 -0.4804
 7875SOL     OW35257   0.982   2.535   3.369  0.1187  0.2006  0.1201
 7875SOL    HW135258   1.057   2.531   3.310  0.8127 -0.5977  1.0460
 7875SOL    HW235259   0.962   2.442   3.383  1.4163  0.0370  0.8631
 7876SOL     OW35260   4.110   0.760  16.786 -0.2606  0.1579  0.3232
 7876SOL    HW135261   4.160   0.679  16.793  0.3818  0.7260  2.5129
 7876SOL    HW235262   4.027   0.737  16.829 -0.6038  1.1555  0.1846
 7877SOL     OW35263   2.163   4.053  14.943 -0.6816 -0.2783  0.1699
 7877SOL    HW135264   2.105   4.001  14.998  0.1006  1.8212  3.0066
 7877SOL    HW235265   2.164   4.004  14.861  0.7357 -1.4271  0.8751
 7878SOL     OW35266   2.722   4.214   6.769  0.7253 -0.3914  0.2314
 7878SOL    HW135267   2.695   4.234   6.859  2.1837  0.8846  0.3620
 7878SOL    HW235268   2.638   4.180   6.735  0.8862 -1.4401  0.8838
 7879SOL     OW35269   1.128   2.514   4.417 -0.5259 -0.0044 -0.4782
 7879SOL    HW135270   1.145   2.550   4.329 -0.5340  1.5308  0.1423
 7879SOL    HW235271   1.078   2.440   4.384  0.2214 -0.3769 -0.7816
 7880SOL     OW35272   1.320   2.194   7.472 -0.5094 -0.2780  0.4235
 7880SOL    HW135273   1.252   2.139   7.432 -0.4225  0.3906 -0.6488
 7880SOL    HW235274   1.405   2.155   7.449  0.0150 -0.2013  2.2919
 7881SOL     OW35275   0.779   1.215   7.380  0.4016  0.7117 -0.5700
 7881SOL    HW135276   0.760   1.145   7.443  0.3927  1.3642  0.1470
 7881SOL    HW235277   0.728   1.284   7.421 -0.1140 -0.6197  1.0357
 7882SOL     OW35278   2.304   0.276   8.578 -0.1219  0.2189  0.2876
 7882SOL    HW135279   2.232   0.225   8.541  0.6221 -0.3819 -0.3251
 7882SOL    HW235280   2.278   0.317   8.661  1.2120  0.3996  0.6196
 7883SOL     OW35281   2.131   2.692  13.636 -0.6487 -0.3784 -0.0260
 7883SOL    HW135282   2.205   2.737  13.677 -1.0690 -0.6531  1.0447
 7883SOL    HW235283   2.061   2.695  13.702 -0.7846 -0.2542 -0.1747
 7884SOL     OW35284   3.015   3.044  17.113  0.9474  0.5245  0.1566
 7884SOL    HW135285   2.935   3.087  17.083  0.9464  0.9100  0.7110
 7884SOL    HW235286   3.023   3.066  17.205  0.8107 -0.5369  0.4237
 7885SOL     OW35287   2.397   0.795  12.515 -0.3450  0.6176  0.2065
 7885SOL    HW135288   2.489   0.769  12.508 -0.3041  1.6245 -3.1930
 7885SOL    HW235289   2.374   0.830  12.429 -3.1075 -0.8564  0.3696
 7886SOL     OW35290   1.533   4.094   7.187  0.5693 -0.2625  0.0229
 7886SOL    HW135291   1.471   4.026   7.214  0.0726  0.6983  1.2686
 7886SOL    HW235292   1.467   4.143   7.137  1.0646 -0.2036 -0.5744
 7887SOL     OW35293   2.012   3.048   3.895 -0.3603 -0.0444 -0.2882
 7887SOL    HW135294   2.009   3.125   3.950  1.5861 -1.6589  2.0618
 7887SOL    HW235295   2.005   3.088   3.808  2.8256  1.1814  0.0031
 7888SOL     OW35296   0.310   1.518   6.295  0.3627 -0.6650 -0.0336
 7888SOL    HW135297   0.244   1.463   6.338 -0.0379  0.5969  0.9794
 7888SOL    HW235298   0.338   1.583   6.360 -0.2989  0.0332 -0.4335
 7889SOL     OW35299   2.968   1.742   4.996 -0.0198  0.6192 -0.0294
 7889SOL    HW135300   2.978   1.791   4.915 -0.3453 -1.3253 -1.2408
 7889SOL    HW235301   2.907   1.798   5.045 -0.0529  0.0053  0.6416
 7890SOL     OW35302   3.401   0.407   8.185  0.7054 -0.4026 -0.0357
 7890SOL    HW135303   3.322   0.404   8.239 -0.8564 -0.2808 -2.3168
 7890SOL    HW235304   3.452   0.472   8.232  1.3068 -0.4822 -0.5781
 7891SOL     OW35305   2.275   3.541  13.910  0.3275  0.6882  0.0486
 7891SOL    HW135306   2.262   3.569  13.820  1.0710  1.4594  0.1716
 7891SOL    HW235307   2.221   3.608  13.954  1.5061  1.1239  0.8419
 7892SOL     OW35308   4.357   4.006   2.586  0.0292 -0.1020  0.8370
 7892SOL    HW135309   4.279   3.957   2.563  0.2965  0.4268 -1.1789
 7892SOL    HW235310   4.335   4.095   2.557  0.2853  0.4023  2.1903
 7893SOL     OW35311   3.977   1.228  16.779  0.1821  0.5048 -0.2038
 7893SOL    HW135312   4.050   1.169  16.761  0.2686  0.2113  1.1676
 7893SOL    HW235313   3.905   1.165  16.776  0.8131 -0.2928  1.5460
 7894SOL     OW35314   0.938   3.937   7.928 -0.5037  0.1591 -0.2055
 7894SOL    HW135315   0.890   3.923   7.847  0.5533 -3.0895 -0.3046
 7894SOL    HW235316   0.898   4.012   7.971 -1.1859 -0.0269 -0.5275
 7895SOL     OW35317   4.660   0.968   9.627  0.8319  0.1820 -0.1457
 7895SOL    HW135318   4.636   0.890   9.578  1.2669  0.2871 -0.5282
 7895SOL    HW235319   4.659   1.031   9.555 -1.2893  0.3609  0.0405
 7896SOL     OW35320   3.647   4.312   6.371  0.1122 -0.1066  0.2882
 7896SOL    HW135321   3.655   4.339   6.280 -0.8912  0.3084  0.3164
 7896SOL    HW235322   3.569   4.358   6.403  1.9875  2.4970  1.1792
 7897SOL     OW35323   2.109   3.008   6.183 -0.4568 -0.0183  0.5708
 7897SOL    HW135324   2.202   2.992   6.194 -0.3668  1.5144  1.9778
 7897SOL    HW235325   2.072   3.029   6.269  0.1895  1.8001  0.4106
 7898SOL     OW35326   2.739   3.069   6.438 -0.1119 -0.5668 -0.2258
 7898SOL    HW135327   2.829   3.036   6.447  0.1182  0.3828  0.8818
 7898SOL    HW235328   2.693   2.988   6.416 -0.0713 -1.1587  1.8468
 7899SOL     OW35329   2.745   2.237   8.617  0.1767  0.3698  0.3975
 7899SOL    HW135330   2.653   2.261   8.624  0.0103  0.0772 -0.7743
 7899SOL    HW235331   2.774   2.329   8.621  0.6557  0.2190  0.3349
 7900SOL     OW35332   1.575   1.649  10.736  0.4125  0.3284  0.0489
 7900SOL    HW135333   1.661   1.689  10.753  0.0560  0.4588  1.5557
 7900SOL    HW235334   1.525   1.720  10.696  1.3070  1.4391  0.9107
 7901SOL     OW35335   2.591   0.448   2.114  0.4880 -0.2594  0.4225
 7901SOL    HW135336   2.641   0.383   2.066  2.8917  0.2210  2.2817
 7901SOL    HW235337   2.607   0.534   2.076 -0.2828 -0.6405 -0.7563
 7902SOL     OW35338   4.405   0.591   6.705  0.3524 -0.0781  0.2476
 7902SOL    HW135339   4.330   0.620   6.653  0.4466 -4.4879 -2.3091
 7902SOL    HW235340   4.478   0.646   6.678  0.0039  1.4072  2.3081
 7903SOL     OW35341   4.275   2.250  16.551 -0.4529  0.2387  0.5211
 7903SOL    HW135342   4.265   2.194  16.475 -1.4623  1.5510 -0.3114
 7903SOL    HW235343   4.351   2.305  16.534 -1.5720  0.9997 -2.1198
 7904SOL     OW35344   1.036   3.283  16.935  0.5996  0.2325 -0.0663
 7904SOL    HW135345   0.984   3.363  16.929 -0.3213 -0.2688  1.4213
 7904SOL    HW235346   0.985   3.231  16.873  1.8620  1.1578 -1.9034
 7905SOL     OW35347   2.688   2.724   0.307 -0.3240 -0.1434  0.1189
 7905SOL    HW135348   2.687   2.818   0.293 -1.2574 -0.5714 -2.6514
 7905SOL    HW235349   2.777   2.694   0.287 -1.5213 -2.2593 -2.0853
 7906SOL     OW35350   0.005   2.352   5.015 -0.2431 -0.2839 -0.2795
 7906SOL    HW135351   0.033   2.326   4.927 -0.6258  2.5854 -1.2512
 7906SOL    HW235352   0.024   2.271   5.061  0.7015 -0.1801 -0.4962
 7907SOL     OW35353   0.228   3.509  13.822 -0.1773  0.6555 -0.4953
 7907SOL    HW135354   0.235   3.462  13.739  1.4612 -0.8298  0.4916
 7907SOL    HW235355   0.211   3.597  13.790 -0.6524  1.1328  1.0939
 7908SOL     OW35356   4.201   0.431  10.425 -0.4441  0.6437 -0.2242
 7908SOL    HW135357   4.278   0.486  10.413 -0.3237  0.4496 -0.3326
 7908SOL    HW235358   4.164   0.462  10.508  0.5359 -0.8514  0.7652
 7909SOL     OW35359   3.592   3.855   0.964 -0.3850  0.5318  0.0873
 7909SOL    HW135360   3.622   3.766   0.980  1.7868  1.3730  0.6514
 7909SOL    HW235361   3.656   3.885   0.900  0.6844  0.7040  1.2448
 7910SOL     OW35362   2.740   1.507   1.699 -0.1031 -0.1004 -0.4599
 7910SOL    HW135363   2.802   1.435   1.711  0.2382  0.4833  1.2056
 7910SOL    HW235364   2.728   1.503   1.604 -3.1692  1.5766 -0.1500
 7911SOL     OW35365   2.210   0.114  11.027 -0.0173  0.4116 -0.7858
 7911SOL    HW135366   2.219   0.019  11.021  1.3767  0.6773 -2.8692
 7911SOL    HW235367   2.221   0.150  10.939  0.2692  0.7544 -0.6120
 7912SOL     OW35368   4.399   3.264   7.328 -0.8354 -0.4402  0.1196
 7912SOL    HW135369   4.335   3.205   7.288  1.8521 -3.6711  0.5830
 7912SOL    HW235370   4.366   3.283   7.415 -0.1598 -2.7474  0.8679
 7913SOL     OW35371   4.268   1.389   6.310 -1.1214 -0.1319 -0.3983
 7913SOL    HW135372   4.189   1.388   6.364 -0.0577 -1.4876  1.1052
 7913SOL    HW235373   4.301   1.479   6.308  0.0018 -0.5364 -0.0527
 7914SOL     OW35374   3.850   3.013   1.488 -0.0099 -0.4170 -0.2895
 7914SOL    HW135375   3.807   2.991   1.405  2.5463 -1.5366 -1.3451
 7914SOL    HW235376   3.934   2.968   1.474  0.2288 -0.0594 -0.0134
 7915SOL     OW35377   3.954   3.496  11.255 -0.4516  0.1616 -0.0337
 7915SOL    HW135378   4.003   3.565  11.300  1.2378 -0.5397 -0.7917
 7915SOL    HW235379   3.892   3.479  11.326 -0.2477  0.0174  0.1097
 7916SOL     OW35380   2.711   3.172  17.123  0.2695  0.3940  0.0033
 7916SOL    HW135381   2.616   3.174  17.114  0.1675 -0.2095  0.9919
 7916SOL    HW235382   2.729   3.255  17.080 -1.9348  0.1754 -1.3736
 7917SOL     OW35383   2.037   0.016   8.073  0.2105 -0.1449  0.7680
 7917SOL    HW135384   2.071   4.737   7.985 -0.1668 -0.9011  0.7836
 7917SOL    HW235385   2.033   4.664   8.102 -5.1738 -0.5711 -1.3795
 7918SOL     OW35386   4.287   2.181   3.434  0.2811 -0.2700 -0.4218
 7918SOL    HW135387   4.228   2.140   3.371  0.2255 -0.0416 -0.5172
 7918SOL    HW235388   4.315   2.255   3.381  1.6983  1.2667  2.4615
 7919SOL     OW35389   4.686   3.783   7.084  0.4032 -0.2597  0.4844
 7919SOL    HW135390   4.636   3.822   7.155  0.3004 -1.3858  1.0191
 7919SOL    HW235391   4.706   3.702   7.129  0.9758 -0.6773 -0.5236
 7920SOL     OW35392   3.138   1.126   2.730  0.1849  0.0555 -0.4945
 7920SOL    HW135393   3.086   1.140   2.809 -1.7477  0.2752 -1.7967
 7920SOL    HW235394   3.212   1.076   2.763 -0.3815 -0.8313 -0.5517
 7921SOL     OW35395   1.961   4.662   6.703  0.2255 -0.0949  0.0880
 7921SOL    HW135396   1.871   4.683   6.728 -0.1425 -3.9858  1.9324
 7921SOL    HW235397   1.992   4.658   6.793 -0.9111  1.6458  0.5567
 7922SOL     OW35398   3.244   0.673   8.670 -0.2174  0.1606 -0.7222
 7922SOL    HW135399   3.243   0.614   8.595  1.5619 -0.3113 -0.3868
 7922SOL    HW235400   3.315   0.731   8.643 -0.0151  0.0454 -0.4419
 7923SOL     OW35401   0.944   0.573   0.611 -0.7125 -0.0318 -0.3620
 7923SOL    HW135402   1.021   0.623   0.582 -0.1677 -0.5686  0.1401
 7923SOL    HW235403   0.943   0.610   0.700 -1.9591 -0.1653 -0.3271
 7924SOL     OW35404   1.572   3.476  16.348  0.7720 -0.1819 -0.1702
 7924SOL    HW135405   1.574   3.568  16.375  4.3837  0.0127 -1.0140
 7924SOL    HW235406   1.480   3.452  16.348  1.2836 -2.1663 -0.8210
 7925SOL     OW35407   2.116   3.739  14.021  0.0852 -0.3096 -0.2819
 7925SOL    HW135408   2.032   3.759  14.061  1.2647  0.7632  1.6749
 7925SOL    HW235409   2.110   3.814  13.963  0.6749  2.4396  3.2112
 7926SOL     OW35410   0.104   3.027   5.943  0.4930 -0.0541  0.0679
 7926SOL    HW135411   0.186   3.022   5.994  0.1000  0.0077  0.7093
 7926SOL    HW235412   0.119   2.968   5.870 -1.2021  0.3885 -0.6134
 7927SOL     OW35413   2.647   0.556   7.233  0.2989  0.8693 -0.0214
 7927SOL    HW135414   2.675   0.541   7.323  2.5971 -0.1055 -0.8831
 7927SOL    HW235415   2.558   0.589   7.245 -0.5434 -1.0016 -1.0358
 7928SOL     OW35416   4.229   2.713   5.924 -0.6628  0.4834 -0.2274
 7928SOL    HW135417   4.266   2.704   5.837 -1.5031 -0.9546 -0.4436
 7928SOL    HW235418   4.138   2.696   5.898 -0.9519  0.4058  0.8400
 7929SOL     OW35419   4.531   0.278   9.251  0.3703  0.4628 -0.0001
 7929SOL    HW135420   4.481   0.315   9.324 -0.2519 -0.4343  0.0226
 7929SOL    HW235421   4.558   0.200   9.300 -0.5096  0.7881  1.0044
 7930SOL     OW35422   1.331   0.713  11.888  0.0930 -0.2482 -0.0949
 7930SOL    HW135423   1.309   0.626  11.856  2.1106 -0.5947 -0.5388
 7930SOL    HW235424   1.283   0.767  11.825 -0.6307 -1.8444 -0.8963
 7931SOL     OW35425   2.250   0.917   6.559 -0.2004 -0.2775  0.0330
 7931SOL    HW135426   2.317   0.888   6.621 -2.0326 -1.8155  1.3018
 7931SOL    HW235427   2.192   0.977   6.606 -1.1881 -0.0165 -1.5176
 7932SOL     OW35428   4.604   0.965   7.601 -0.3445  0.4017 -0.1377
 7932SOL    HW135429   4.699   0.963   7.611 -0.4674  0.5176  1.0064
 7932SOL    HW235430   4.585   0.962   7.507  1.4960 -0.9918 -0.4703
 7933SOL     OW35431   2.421   0.034   4.336 -0.0376  0.2054 -0.2275
 7933SOL    HW135432   2.437   4.684   4.365 -0.3109  1.1150  2.7315
 7933SOL    HW235433   2.508   0.056   4.304 -1.2679  1.1093 -2.9554
 7934SOL     OW35434   4.263   2.503  11.994 -0.5143 -0.1926  0.3232
 7934SOL    HW135435   4.311   2.468  12.070  0.8642  2.5975  0.7502
 7934SOL    HW235436   4.336   2.539  11.944 -0.2311 -0.3106  0.6476
 7935SOL     OW35437   3.925   2.233   7.427  0.5258 -0.1662  0.0556
 7935SOL    HW135438   3.937   2.235   7.522 -1.9345 -0.8389  0.3734
 7935SOL    HW235439   3.938   2.324   7.399 -0.8390  0.2819  0.8922
 7936SOL     OW35440   4.127   2.939  11.615  0.2829  0.2143 -0.0134
 7936SOL    HW135441   4.093   3.028  11.618 -0.9035 -0.1036 -4.0013
 7936SOL    HW235442   4.057   2.889  11.657  0.7249 -1.6978 -1.5658
 7937SOL     OW35443   4.419   1.304   3.540 -0.1144  1.0706 -0.0193
 7937SOL    HW135444   4.416   1.210   3.522  1.6080  1.0443 -0.0958
 7937SOL    HW235445   4.370   1.313   3.622 -1.7892  1.2108 -1.0333
 7938SOL     OW35446   3.302   0.434   5.311 -0.2646 -0.5985  0.7244
 7938SOL    HW135447   3.207   0.433   5.326 -0.5072  1.0872 -0.6269
 7938SOL    HW235448   3.306   0.359   5.252 -1.8017  0.5280 -0.8480
 7939SOL     OW35449   1.285   2.959   4.812  0.3030  0.5881  0.0150
 7939SOL    HW135450   1.277   2.865   4.796 -0.1969  1.1951 -3.2115
 7939SOL    HW235451   1.294   2.961   4.907 -1.5212  0.6642  0.1793
 7940SOL     OW35452   2.532   3.972   7.717 -0.0523  0.5333 -0.0326
 7940SOL    HW135453   2.567   4.061   7.708 -2.0344  1.4848  1.7280
 7940SOL    HW235454   2.577   3.927   7.646  0.6593 -1.0854  1.4625
 7941SOL     OW35455   4.054   2.138   8.527  0.0702 -0.7477  0.2877
 7941SOL    HW135456   4.090   2.057   8.564  1.4313  0.4360  1.5674
 7941SOL    HW235457   4.046   2.186   8.610  2.3805 -2.5037  1.5282
 7942SOL     OW35458   4.062   1.852  16.538  0.3007 -0.2333  0.1347
 7942SOL    HW135459   4.071   1.788  16.468 -0.5278 -0.0027 -0.1855
 7942SOL    HW235460   4.024   1.927  16.493 -0.4966 -0.7330 -0.0312
 7943SOL     OW35461   0.654   2.523  15.430  0.2833 -0.5099 -1.1491
 7943SOL    HW135462   0.665   2.552  15.340  3.9283 -1.2169 -0.9194
 7943SOL    HW235463   0.562   2.500  15.438 -0.2245  1.3725 -1.5107
 7944SOL     OW35464   1.989   2.712   1.763 -0.5248 -0.2284 -0.6208
 7944SOL    HW135465   1.938   2.752   1.693  0.0873  0.0893 -0.8896
 7944SOL    HW235466   2.075   2.718   1.721  0.1887  0.0095  0.8795
 7945SOL     OW35467   2.304   2.055   7.427  0.1235  0.0129 -0.3678
 7945SOL    HW135468   2.267   2.042   7.340 -0.8188  0.3205 -0.0094
 7945SOL    HW235469   2.306   2.151   7.430  2.0496  0.0263 -1.6590
 7946SOL     OW35470   1.583   1.977   9.512 -0.4610 -0.0137 -0.5205
 7946SOL    HW135471   1.658   2.017   9.556 -1.6810  0.2488  1.2991
 7946SOL    HW235472   1.537   1.943   9.588  2.3334  0.4801  1.3943
 7947SOL     OW35473   1.627   1.076   7.230 -0.6570  0.5007  0.2251
 7947SOL    HW135474   1.535   1.054   7.217 -0.5699 -1.9115  3.5250
 7947SOL    HW235475   1.647   1.070   7.136 -0.2831  1.7177  0.2248
 7948SOL     OW35476   3.135   1.398   4.636 -0.3647  0.7347  0.2971
 7948SOL    HW135477   3.059   1.417   4.690 -0.4664  0.6322  0.1874
 7948SOL    HW235478   3.194   1.471   4.657  0.4813 -0.3637  1.7394
 7949SOL     OW35479   2.535   1.230  11.333  0.3279  0.5671  0.3341
 7949SOL    HW135480   2.480   1.156  11.305  0.7673  0.7039 -0.8772
 7949SOL    HW235481   2.545   1.208  11.426  1.3141  1.6610  0.4799
 7950SOL     OW35482   0.822   1.912   1.246 -0.2561  0.8183 -0.0166
 7950SOL    HW135483   0.777   1.829   1.232 -0.7020  1.0191  0.2154
 7950SOL    HW235484   0.794   1.938   1.334 -0.4964 -1.1211  0.4830
 7951SOL     OW35485   2.722   2.015   5.603 -0.5068 -0.1498  0.3504
 7951SOL    HW135486   2.741   2.027   5.696  0.9343  1.2994 -0.1269
 7951SOL    HW235487   2.808   1.995   5.566 -0.1781  0.4799  0.7574
 7952SOL     OW35488   2.071   1.877   6.316  0.0319 -0.5797 -0.1424
 7952SOL    HW135489   2.008   1.850   6.249 -2.0389  0.7804  1.2214
 7952SOL    HW235490   2.156   1.870   6.273 -0.2425  0.9595 -0.9255
 7953SOL     OW35491   3.322   2.774  15.275 -0.1912  0.8179 -0.2812
 7953SOL    HW135492   3.231   2.783  15.247 -0.5605 -4.1563 -0.6772
 7953SOL    HW235493   3.368   2.840  15.222  2.1146 -0.0707  0.5985
 7954SOL     OW35494   1.447   1.373  12.037  0.1355 -0.2937  0.0132
 7954SOL    HW135495   1.435   1.410  12.125 -0.1378 -1.3163  0.4033
 7954SOL    HW235496   1.539   1.397  12.029  0.3777 -0.8031  1.3626
 7955SOL     OW35497   4.591   0.142   4.327  0.1076 -0.3334  0.2839
 7955SOL    HW135498   4.606   0.088   4.405  0.9015  0.3296  0.5987
 7955SOL    HW235499   4.552   0.082   4.264  1.1859  1.5332 -2.1557
 7956SOL     OW35500   0.077   4.113  12.998  0.1673 -0.4731 -0.0080
 7956SOL    HW135501   0.025   4.035  13.019 -0.1167 -0.2405  0.1535
 7956SOL    HW235502   0.079   4.153  13.085  0.8258 -0.4730 -0.0255
 7957SOL     OW35503   1.097   1.834   2.511 -0.1253 -0.3827 -0.0154
 7957SOL    HW135504   1.160   1.885   2.560  0.9046 -0.6092 -1.1113
 7957SOL    HW235505   1.136   1.845   2.424  3.0446 -1.3155  1.2969
 7958SOL     OW35506   4.561   1.223   0.943  0.4625  0.3229  0.2045
 7958SOL    HW135507   4.592   1.173   1.019  1.1608  1.3610  0.5948
 7958SOL    HW235508   4.578   1.162   0.871  2.1820 -1.4084  2.0894
 7959SOL     OW35509   4.163   3.616   8.370 -0.0631  0.1338  0.6582
 7959SOL    HW135510   4.251   3.600   8.403  0.5865  0.1055 -1.1258
 7959SOL    HW235511   4.132   3.679   8.436  1.9225 -0.2552  1.9551
 7960SOL     OW35512   0.325   3.492   6.457  0.0778  0.5692 -0.2511
 7960SOL    HW135513   0.329   3.546   6.378  2.2708  1.9813  0.8425
 7960SOL    HW235514   0.420   3.483   6.466 -0.0679 -1.2658 -0.4494
 7961SOL     OW35515   2.536   0.285   2.354 -0.1561  0.1441 -0.6430
 7961SOL    HW135516   2.469   0.346   2.383 -2.1620 -0.6862 -3.5086
 7961SOL    HW235517   2.577   0.337   2.284 -0.7406 -0.6851 -1.6020
 7962SOL     OW35518   4.648   3.776  17.148 -0.0667 -0.2217  0.4389
 7962SOL    HW135519   4.694   3.797  17.067 -1.8004 -0.8444 -0.6987
 7962SOL    HW235520   4.717   3.798  17.211 -0.2617  0.0506  0.5611
 7963SOL     OW35521   0.016   3.512   7.542  0.2539  0.0674  0.3100
 7963SOL    HW135522   0.053   3.438   7.589 -0.9837  0.2625  1.5785
 7963SOL    HW235523   0.008   3.468   7.457 -1.1768  0.8292  0.0414
 7964SOL     OW35524   4.246   0.252  13.200  0.2413  0.0419  0.6097
 7964SOL    HW135525   4.247   0.156  13.200  0.6383  0.0510  0.1040
 7964SOL    HW235526   4.154   0.273  13.218 -0.3579 -1.4863 -0.6231
 7965SOL     OW35527   0.738   4.716  15.006  0.0175  0.0845 -0.8008
 7965SOL    HW135528   0.690   4.635  15.024 -1.0763  0.4096 -2.2680
 7965SOL    HW235529   0.829   4.692  14.988  0.7985  0.3563  2.8639
 7966SOL     OW35530   1.716   0.458  11.528  0.0730  0.0223  0.2921
 7966SOL    HW135531   1.685   0.428  11.443 -0.8783  3.3250 -0.5165
 7966SOL    HW235532   1.800   0.495  11.499 -0.0824 -0.3089 -0.5631
 7967SOL     OW35533   2.999   1.560   4.095  0.5386  0.1995  0.1656
 7967SOL    HW135534   3.029   1.559   4.186 -2.6906  1.2896  1.2777
 7967SOL    HW235535   2.956   1.646   4.091 -1.9002 -0.9960  0.8356
 7968SOL     OW35536   4.131   4.057   9.025  0.2011 -0.0667 -0.3945
 7968SOL    HW135537   4.041   4.069   8.995 -0.1606  1.4528  1.2254
 7968SOL    HW235538   4.144   4.130   9.086 -0.8195 -1.1079  1.0702
 7969SOL     OW35539   3.624   0.750   1.544 -0.0125  0.0813 -0.3562
 7969SOL    HW135540   3.534   0.741   1.513 -0.8830 -1.1755  2.5129
 7969SOL    HW235541   3.621   0.683   1.613  1.9003  3.8934  3.3992
 7970SOL     OW35542   2.328   0.288   3.400  0.1462  0.2856  0.2570
 7970SOL    HW135543   2.247   0.318   3.358  0.7427 -0.8977 -1.7362
 7970SOL    HW235544   2.370   0.374   3.394 -0.7730  0.6696 -0.6511
 7971SOL     OW35545   3.892   3.675   3.012  0.2649  0.1284  0.1742
 7971SOL    HW135546   3.845   3.623   2.946 -1.3631  2.6127 -0.6239
 7971SOL    HW235547   3.966   3.702   2.958 -0.5806 -3.4901 -2.7807
 7972SOL     OW35548   1.675   1.663   7.521  0.2222  0.3899 -0.0304
 7972SOL    HW135549   1.735   1.734   7.544 -0.5141  1.1399 -0.4332
 7972SOL    HW235550   1.646   1.703   7.440 -1.0314 -1.6065 -0.5731
 7973SOL     OW35551   1.067   4.640  10.358  0.0497  0.0406  0.0671
 7973SOL    HW135552   1.078   4.558  10.310  2.5884  0.6059 -0.3386
 7973SOL    HW235553   1.033   4.614  10.444  0.5141  1.4780  0.6900
 7974SOL     OW35554   0.606   4.428  13.234 -0.4578  1.1766  0.3170
 7974SOL    HW135555   0.623   4.474  13.152 -2.2546  0.0390 -0.6743
 7974SOL    HW235556   0.637   4.342  13.206 -2.7722 -0.2600  2.1448
 7975SOL     OW35557   2.000   3.625   4.732  0.3064 -0.0581 -0.2546
 7975SOL    HW135558   2.031   3.633   4.822 -1.1805  0.7709  0.1822
 7975SOL    HW235559   2.083   3.633   4.684 -0.7137  1.7914 -1.7008
 7976SOL     OW35560   1.060   0.088   5.122 -0.1478  0.4442  0.2525
 7976SOL    HW135561   0.969   0.057   5.130 -0.0800 -0.0642 -1.0286
 7976SOL    HW235562   1.075   0.073   5.216 -0.5061 -1.3475  0.0147
 7977SOL     OW35563   1.003   0.519   2.758  0.0115 -1.1530 -0.0592
 7977SOL    HW135564   1.009   0.432   2.797  0.6595 -1.0032  0.1734
 7977SOL    HW235565   0.909   0.527   2.741  0.5054 -0.1918 -2.3048
 7978SOL     OW35566   4.354   2.110   1.441 -0.4070 -0.5294 -0.3042
 7978SOL    HW135567   4.388   2.144   1.358 -2.7558 -1.2151 -1.5389
 7978SOL    HW235568   4.431   2.080   1.489 -0.5004  1.4434  1.0738
 7979SOL     OW35569   3.556   0.540   0.556 -0.0112 -0.1707 -0.2145
 7979SOL    HW135570   3.544   0.461   0.607  0.0407 -1.1254 -1.6768
 7979SOL    HW235571   3.521   0.606   0.616 -1.4800 -0.4374 -0.7993
 7980SOL     OW35572   1.814   0.682  17.055  0.3205 -0.0458 -0.0996
 7980SOL    HW135573   1.751   0.622  17.095 -0.6509  1.4434  0.6326
 7980SOL    HW235574   1.880   0.622  17.020 -0.7035 -1.2035 -0.0127
 7981SOL     OW35575   3.299   3.607  10.980 -0.3213  0.0840 -0.8496
 7981SOL    HW135576   3.374   3.595  11.040 -0.2233  0.5172 -0.8886
 7981SOL    HW235577   3.296   3.523  10.933 -1.6657  1.3130 -2.9480
 7982SOL     OW35578   2.968   4.052  14.975  0.2488 -0.3237 -0.5101
 7982SOL    HW135579   2.872   4.050  14.969  0.2860  0.5712 -1.5789
 7982SOL    HW235580   2.986   3.963  15.004 -0.7792 -0.3388  0.0735
 7983SOL     OW35581   1.391   0.050   5.732 -0.2004 -0.2664 -0.3079
 7983SOL    HW135582   1.459   0.103   5.689 -0.0033 -0.4787 -0.2574
 7983SOL    HW235583   1.317   0.066   5.673  1.1545  0.1720 -1.8960
 7984SOL     OW35584   1.842   4.664   8.339 -0.0209 -0.4275  0.1353
 7984SOL    HW135585   1.827   4.572   8.319  2.5097 -0.3100 -2.3284
 7984SOL    HW235586   1.790   4.721   8.282  0.2429  2.5969  2.9522
 7985SOL     OW35587   0.644   1.584   5.830 -0.3156 -0.4265  0.4685
 7985SOL    HW135588   0.621   1.671   5.797 -0.2229 -0.7087 -0.3179
 7985SOL    HW235589   0.687   1.550   5.752 -0.2950 -1.6239  1.0106
 7986SOL     OW35590   1.334   2.067   3.275  0.0963  0.2798 -0.2994
 7986SOL    HW135591   1.343   2.002   3.345  1.0226  1.1218  0.3538
 7986SOL    HW235592   1.425   2.067   3.248  0.9242 -0.3089  2.4634
 7987SOL     OW35593   3.883   2.292   2.916  0.5781 -0.7523  0.0463
 7987SOL    HW135594   3.796   2.264   2.946 -0.2746  0.6559 -1.0779
 7987SOL    HW235595   3.880   2.259   2.826 -2.1061  3.1538 -1.2871
 7988SOL     OW35596   4.479   3.898   7.557 -0.1128 -0.0844  0.4981
 7988SOL    HW135597   4.392   3.916   7.522  0.6793  4.0959  0.6387
 7988SOL    HW235598   4.538   3.899   7.482 -1.0374 -0.7425 -0.2260
 7989SOL     OW35599   3.848   1.972   6.183 -0.0332 -0.0619 -0.0486
 7989SOL    HW135600   3.936   2.007   6.196 -0.9505  2.8682 -1.9245
 7989SOL    HW235601   3.839   1.925   6.266  0.9490 -1.4272 -0.7108
 7990SOL     OW35602   2.123   0.795   3.600 -0.1489  0.3793  0.2566
 7990SOL    HW135603   2.137   0.761   3.511  0.1861 -0.6965  0.7227
 7990SOL    HW235604   2.096   0.884   3.577 -1.6871 -0.1771 -0.0715
 7991SOL     OW35605   1.564   1.880  12.290  0.4842  0.2544  0.2042
 7991SOL    HW135606   1.565   1.828  12.371  0.6081 -2.8696 -1.8243
 7991SOL    HW235607   1.579   1.812  12.224  1.3707  1.8484 -1.2172
 7992SOL     OW35608   2.653   2.146   6.479 -0.1991  0.2405 -0.2644
 7992SOL    HW135609   2.615   2.232   6.497 -0.1388 -0.0399  1.2142
 7992SOL    HW235610   2.744   2.167   6.461 -0.0578 -1.6361 -1.7340
 7993SOL     OW35611   3.755   0.318   1.430  0.2296  0.2252 -0.3596
 7993SOL    HW135612   3.713   0.233   1.438 -1.9648  1.0670 -2.9716
 7993SOL    HW235613   3.787   0.319   1.340  0.9826  2.1677 -0.0703
 7994SOL     OW35614   3.888   0.705   2.393  0.0714  0.4039 -0.0610
 7994SOL    HW135615   3.946   0.735   2.463  0.2997 -0.3835  0.0873
 7994SOL    HW235616   3.803   0.745   2.408  0.3618  1.1045 -0.2696
 7995SOL     OW35617   2.885   3.859   0.953  0.8990 -0.1611  0.0752
 7995SOL    HW135618   2.877   3.954   0.949  0.2824 -0.2745 -1.1598
 7995SOL    HW235619   2.962   3.854   0.896  0.0642 -0.6056 -1.0145
 7996SOL     OW35620   0.926   3.130  16.749 -0.3437 -0.1294 -0.3811
 7996SOL    HW135621   0.956   3.188  16.679  0.3972 -1.9255 -1.5622
 7996SOL    HW235622   0.903   3.055  16.695  4.2260 -0.3586 -2.0203
 7997SOL     OW35623   4.597   2.966   6.871 -0.3745 -0.0661  0.1580
 7997SOL    HW135624   4.687   2.941   6.853  0.4129  1.3786  2.0820
 7997SOL    HW235625   4.612   2.961   6.965 -0.5802 -0.4292  0.1696
 7998SOL     OW35626   1.855   1.371   4.904 -0.0156  0.3610 -0.3666
 7998SOL    HW135627   1.871   1.312   4.830  0.5485  0.1324 -0.0563
 7998SOL    HW235628   1.938   1.358   4.949 -0.9638  1.3665  1.6683
 7999SOL     OW35629   0.666   3.083   9.365 -0.3705 -0.4845 -0.6770
 7999SOL    HW135630   0.670   3.179   9.363  1.8551 -0.5570  0.3349
 7999SOL    HW235631   0.703   3.070   9.452 -0.6630 -0.1045 -0.4916
 8000SOL     OW35632   4.008   3.528   9.045  1.2147  0.0461  0.3001
 8000SOL    HW135633   4.015   3.621   9.066  0.2093 -0.3607  2.4545
 8000SOL    HW235634   3.919   3.504   9.071  1.7660 -2.7885 -0.4511
 8001SOL     OW35635   2.098   2.062  11.983  0.0392  0.1221 -0.0215
 8001SOL    HW135636   2.052   2.039  11.903 -0.0014 -0.8538  0.2838
 8001SOL    HW235637   2.154   1.987  12.005  2.1087  2.0232  1.1609
 8002SOL     OW35638   4.064   4.164   3.613  0.2397 -0.6840 -0.2912
 8002SOL    HW135639   4.117   4.197   3.540 -0.8551  0.8831 -0.3606
 8002SOL    HW235640   4.017   4.092   3.571 -2.0900  0.2658  0.6775
 8003SOL     OW35641   2.461   2.170   2.818 -0.3110 -0.1547 -0.2372
 8003SOL    HW135642   2.374   2.136   2.834 -0.7795 -0.0919 -2.7210
 8003SOL    HW235643   2.442   2.262   2.800  1.1867  0.2476  0.1971
 8004SOL     OW35644   3.952   3.061  14.124 -0.4447  0.1296  0.0638
 8004SOL    HW135645   3.955   3.032  14.215 -0.7524  0.9122  0.3254
 8004SOL    HW235646   3.927   3.153  14.131 -1.0457 -0.0040 -0.3863
 8005SOL     OW35647   4.306   1.166   5.062 -0.2046  0.0879  0.4067
 8005SOL    HW135648   4.219   1.125   5.062 -0.2372  0.1579  0.2448
 8005SOL    HW235649   4.327   1.176   5.155  2.3537 -1.7023  0.0157
 8006SOL     OW35650   2.220   3.363   5.341 -0.7067  0.0182 -0.3119
 8006SOL    HW135651   2.220   3.361   5.437  2.4330 -1.8468 -0.3392
 8006SOL    HW235652   2.244   3.452   5.315  1.0680 -0.3288  0.0853
 8007SOL     OW35653   3.916   3.603   6.169  0.6634  0.6270  0.4945
 8007SOL    HW135654   4.007   3.630   6.156  0.5769  0.0991 -1.2538
 8007SOL    HW235655   3.919   3.535   6.101  0.4714  1.5377 -0.4263
 8008SOL     OW35656   1.358   0.915   3.667 -0.0727 -0.2459 -0.0668
 8008SOL    HW135657   1.299   0.948   3.735  0.4649 -0.2560  0.4128
 8008SOL    HW235658   1.442   0.958   3.685 -1.4141  2.1099  0.5753
 8009SOL     OW35659   2.474   4.301   5.565  0.4214 -0.0023 -0.3288
 8009SOL    HW135660   2.498   4.224   5.513  0.5747 -0.5566  0.5717
 8009SOL    HW235661   2.502   4.377   5.513 -0.7923  1.9251  1.8338
 8010SOL     OW35662   3.877   1.090   1.916  0.3538 -0.0440 -0.4851
 8010SOL    HW135663   3.876   0.995   1.927  2.3094 -0.1034 -0.7328
 8010SOL    HW235664   3.800   1.094   1.860  0.2051 -0.0603 -0.2851
 8011SOL     OW35665   2.777   4.287  12.943  0.3668 -0.9423  0.4573
 8011SOL    HW135666   2.822   4.334  12.873  2.6433 -0.1976  2.4361
 8011SOL    HW235667   2.806   4.322  13.028 -0.3161 -0.2402  0.3917
 8012SOL     OW35668   4.564   2.131   2.414  0.6822  0.5838  0.0193
 8012SOL    HW135669   4.507   2.157   2.485  1.2086 -0.7588  0.9333
 8012SOL    HW235670   4.639   2.177   2.453  3.2305 -1.4709 -2.3993
 8013SOL     OW35671   3.991   0.345  17.659  0.2823  0.3318  0.0895
 8013SOL    HW135672   3.917   0.323  17.715  0.8454  0.3138  0.8281
 8013SOL    HW235673   3.941   0.389  17.591  0.0533 -1.8841 -1.2055
 8014SOL     OW35674   0.587   3.336   9.983 -0.1024 -0.5194  0.3274
 8014SOL    HW135675   0.626   3.329  10.070 -1.5660 -0.6777  0.9859
 8014SOL    HW235676   0.495   3.344  10.009 -0.0343  0.8100  0.1213
 8015SOL     OW35677   3.710   4.447   3.673 -0.0638  0.1744  0.0279
 8015SOL    HW135678   3.739   4.473   3.585 -0.1618  1.5139  0.3973
 8015SOL    HW235679   3.690   4.354   3.661 -0.2573  0.1203  0.7926
 8016SOL     OW35680   0.059   1.331   2.329 -0.7631  0.5925 -0.2161
 8016SOL    HW135681   0.011   1.355   2.250 -1.8644  2.9341  1.1455
 8016SOL    HW235682   0.114   1.409   2.319 -2.1933  1.6270 -0.0021
 8017SOL     OW35683   1.713   0.287  13.576  1.2547 -0.3305 -0.0002
 8017SOL    HW135684   1.781   0.353  13.592  0.9113  0.2401 -0.9330
 8017SOL    HW235685   1.657   0.340  13.520  1.5960 -1.7434 -1.6777
 8018SOL     OW35686   1.950   0.024   2.388 -0.7780  0.3484 -0.6265
 8018SOL    HW135687   2.040   4.739   2.410 -1.6823 -2.6172 -0.2111
 8018SOL    HW235688   1.951   0.054   2.297  0.8258 -3.7601 -1.9750
 8019SOL     OW35689   3.180   3.142   6.527 -0.1846 -0.2025  0.3140
 8019SOL    HW135690   3.267   3.179   6.514 -0.7873  1.9704  2.4189
 8019SOL    HW235691   3.206   3.051   6.518  1.6534  0.2897  0.7313
 8020SOL     OW35692   2.408   0.087   2.998  0.2605  0.2385  0.0297
 8020SOL    HW135693   2.375   0.101   2.909  1.4631 -0.7594 -0.5925
 8020SOL    HW235694   2.502   0.085   2.976  0.9166 -4.1298  3.2872
 8021SOL     OW35695   0.287   3.034   6.152 -0.0313 -0.0187 -0.1273
 8021SOL    HW135696   0.262   3.095   6.222 -1.4679 -0.7560  0.0001
 8021SOL    HW235697   0.297   2.948   6.192 -0.8737 -0.6988 -1.3840
 8022SOL     OW35698   4.178   4.141   2.840  0.0287 -0.3182  0.2760
 8022SOL    HW135699   4.127   4.162   2.918 -2.2458 -3.5824 -0.3508
 8022SOL    HW235700   4.125   4.083   2.784 -0.0642 -1.6123  1.7025
 8023SOL     OW35701   2.913   4.617   9.679  0.2497  0.1950  0.0546
 8023SOL    HW135702   2.822   4.645   9.690  0.2831  0.6981 -0.9793
 8023SOL    HW235703   2.951   4.701   9.653 -0.2591 -0.0768 -1.5134
 8024SOL     OW35704   4.513   2.813   3.092  0.1442 -0.1124 -0.2529
 8024SOL    HW135705   4.549   2.729   3.119 -1.9200 -0.7093  0.6305
 8024SOL    HW235706   4.519   2.808   2.996  2.0183 -1.5681 -0.0603
 8025SOL     OW35707   4.629   4.243   8.652  0.7704  0.1766  0.6348
 8025SOL    HW135708   4.610   4.322   8.701  1.9322  1.1008 -0.4133
 8025SOL    HW235709   4.725   4.251   8.654  0.7965 -0.3476  1.7263
 8026SOL     OW35710   4.607   2.469  17.210 -0.4325  0.1535 -0.4215
 8026SOL    HW135711   4.599   2.374  17.209 -2.0238  0.2892  1.6376
 8026SOL    HW235712   4.658   2.490  17.288  0.5876  2.7055 -1.7438
 8027SOL     OW35713   2.043   3.504  10.605  0.1197  0.2137  0.2581
 8027SOL    HW135714   2.038   3.561  10.529  1.9759  0.2768  0.1785
 8027SOL    HW235715   2.109   3.553  10.655 -2.7640  1.4903  2.7675
 8028SOL     OW35716   3.715   1.207   7.764  0.0247 -0.2283 -0.0637
 8028SOL    HW135717   3.730   1.142   7.832  2.8869  2.7206  2.1169
 8028SOL    HW235718   3.719   1.286   7.818  0.3824 -0.1846 -0.1565
 8029SOL     OW35719   4.523   0.259   2.877  0.1789  0.3529 -0.3384
 8029SOL    HW135720   4.528   0.166   2.896 -0.7744  0.1294 -1.1808
 8029SOL    HW235721   4.568   0.269   2.792  2.6176  0.2613  0.9438
 8030SOL     OW35722   2.204   0.096   9.280 -0.2962  0.1584 -0.0879
 8030SOL    HW135723   2.298   0.082   9.272 -0.5166  0.0503 -2.4130
 8030SOL    HW235724   2.188   0.189   9.292 -1.4480  0.1151 -1.2745
 8031SOL     OW35725   3.796   2.151   5.573  0.4112  0.0010  0.0286
 8031SOL    HW135726   3.891   2.161   5.578  0.4653  0.3480 -1.8295
 8031SOL    HW235727   3.780   2.174   5.481  2.1887  1.2889  0.0390
 8032SOL     OW35728   1.893   2.219   2.041  0.1212  0.0435  0.4892
 8032SOL    HW135729   1.907   2.280   1.969 -1.1892  0.5579  0.6635
 8032SOL    HW235730   1.895   2.290   2.105 -1.1246  1.5823 -1.1886
 8033SOL     OW35731   2.470   3.040   1.870  0.0858 -0.2605 -0.3539
 8033SOL    HW135732   2.414   3.099   1.920  1.5735  0.4311  0.4749
 8033SOL    HW235733   2.426   2.956   1.884 -1.9304  0.9881  0.6924
 8034SOL     OW35734   4.275   1.741  15.443 -0.0269 -1.0457  0.2117
 8034SOL    HW135735   4.216   1.666  15.445 -1.1096 -0.1257  1.8115
 8034SOL    HW235736   4.254   1.792  15.520  1.6403 -0.0674  0.0110
 8035SOL     OW35737   4.727   2.722   8.892  0.0859  0.1130 -0.2978
 8035SOL    HW135738   0.023   2.756   8.810  0.0838  1.3380  0.2030
 8035SOL    HW235739   0.013   2.795   8.949  0.7929 -0.8422  0.6059
 8036SOL     OW35740   1.120   3.953  13.917  0.0568  0.0120 -0.1454
 8036SOL    HW135741   1.109   3.894  13.842  0.1987 -1.3685  0.9287
 8036SOL    HW235742   1.173   3.900  13.977  0.0047 -1.5269 -1.4653
 8037SOL     OW35743   4.598   1.216   1.599  0.2453  0.0823 -0.2768
 8037SOL    HW135744   4.567   1.257   1.518  1.7234 -2.8220 -2.3248
 8037SOL    HW235745   4.668   1.273   1.632 -0.2291  1.4903 -1.6649
 8038SOL     OW35746   1.331   3.521   6.305 -0.1566  0.2898  0.2451
 8038SOL    HW135747   1.290   3.569   6.377  0.9316  0.7443  0.5613
 8038SOL    HW235748   1.353   3.438   6.346 -1.0897 -0.6130 -1.0752
 8039SOL     OW35749   0.685   4.516   7.452  0.1994  0.7024 -0.1717
 8039SOL    HW135750   0.757   4.453   7.444 -0.6653 -0.3775  0.5745
 8039SOL    HW235751   0.738   4.585   7.492  1.3696 -0.8834  1.0029
 8040SOL     OW35752   4.412   0.861   6.589 -0.8057  0.3656  0.4333
 8040SOL    HW135753   4.318   0.850   6.573 -0.2973 -1.6468 -1.0789
 8040SOL    HW235754   4.416   0.876   6.684  0.9106  1.5033  0.1740
 8041SOL     OW35755   0.719   4.714  15.812  0.0658 -0.6328 -0.2117
 8041SOL    HW135756   0.710   0.067  15.833 -0.9490 -0.8500  0.3392
 8041SOL    HW235757   0.804   4.716  15.768  0.6446 -0.0243  0.9419
 8042SOL     OW35758   4.360   3.613  12.425  0.0840  0.0199 -0.2158
 8042SOL    HW135759   4.414   3.655  12.358  0.1969  0.0114 -0.1300
 8042SOL    HW235760   4.350   3.526  12.384 -2.7039 -0.6656  1.9081
 8043SOL     OW35761   1.065   4.004  15.378 -0.1819  0.1101 -0.0802
 8043SOL    HW135762   1.150   3.961  15.371 -0.0321  0.3972 -0.0482
 8043SOL    HW235763   1.012   3.940  15.425 -1.1172 -0.0096 -1.2801
 8044SOL     OW35764   1.892   3.564   2.244 -0.2152  0.0298  0.2787
 8044SOL    HW135765   1.946   3.588   2.319 -0.1616  0.5367  0.0764
 8044SOL    HW235766   1.810   3.531   2.281 -0.7439 -0.4668 -1.3232
 8045SOL     OW35767   0.120   3.546   9.223 -0.0139  0.2804 -0.3275
 8045SOL    HW135768   0.110   3.605   9.148  1.9436 -1.7812 -2.2277
 8045SOL    HW235769   0.035   3.504   9.212  0.5841 -0.9059 -0.4998
 8046SOL     OW35770   1.822   0.024   4.686 -0.1150  0.1678  0.6514
 8046SOL    HW135771   1.800   4.715   4.607 -0.5128  0.2081  0.7414
 8046SOL    HW235772   1.740   0.015   4.734 -1.3087  2.8394 -0.8525
 8047SOL     OW35773   2.789   0.480   8.414  0.2839  0.0831 -0.1088
 8047SOL    HW135774   2.751   0.564   8.437 -1.1371 -0.0291 -2.0804
 8047SOL    HW235775   2.731   0.440   8.350  2.0247 -2.3390 -0.1904
 8048SOL     OW35776   2.996   2.096   8.618  0.4178  0.1290  0.3029
 8048SOL    HW135777   3.027   2.076   8.706 -1.2405  0.3912  0.9446
 8048SOL    HW235778   2.902   2.114   8.629  0.6028  1.6392 -0.5660
 8049SOL     OW35779   1.277   3.031   8.818  0.1377  0.0482  0.3346
 8049SOL    HW135780   1.365   2.999   8.837  1.3007  3.0464 -0.1558
 8049SOL    HW235781   1.282   3.125   8.835 -2.5060 -0.1169  2.0956
 8050SOL     OW35782   0.639   2.355  14.857  0.1448  0.0602  0.3934
 8050SOL    HW135783   0.641   2.284  14.921 -1.4200 -1.4347 -1.2457
 8050SOL    HW235784   0.718   2.328  14.810  0.9356  0.4284  1.4919
 8051SOL     OW35785   4.484   0.486   6.114 -0.0911 -0.0332  0.0434
 8051SOL    HW135786   4.404   0.505   6.065  0.7951  1.6353 -0.7490
 8051SOL    HW235787   4.497   0.397   6.082 -0.2027  1.0835 -3.0777
 8052SOL     OW35788   3.204   1.460   0.635  0.1524 -0.3154 -0.1282
 8052SOL    HW135789   3.203   1.367   0.657  0.2585 -0.1236  0.6941
 8052SOL    HW235790   3.230   1.464   0.543  0.8521  0.0869  0.0881
 8053SOL     OW35791   0.329   0.724   7.196  0.3013 -0.0303 -0.4848
 8053SOL    HW135792   0.407   0.715   7.252 -0.1602 -1.1232 -0.0238
 8053SOL    HW235793   0.354   0.803   7.149  0.0795  0.6543  0.5459
 8054SOL     OW35794   4.188   1.578  16.780  0.0873 -0.2811  0.5287
 8054SOL    HW135795   4.174   1.672  16.794  0.4533 -0.2582  0.7555
 8054SOL    HW235796   4.234   1.575  16.696 -3.1984 -1.4060 -1.1900
 8055SOL     OW35797   1.890   3.416   2.507  0.0678 -0.3503  0.0112
 8055SOL    HW135798   1.941   3.472   2.566  0.3288 -1.7840  1.1242
 8055SOL    HW235799   1.803   3.419   2.547 -0.1193  3.6691 -0.6449
 8056SOL     OW35800   4.541   4.342   7.890 -0.0460 -0.4859 -0.1093
 8056SOL    HW135801   4.513   4.279   7.956 -1.1002 -0.9466 -1.0071
 8056SOL    HW235802   4.458   4.387   7.875 -0.0427 -1.2088 -2.3502
 8057SOL     OW35803   1.145   1.969   4.882  0.5593 -0.0938  0.3424
 8057SOL    HW135804   1.156   2.055   4.841  1.5273 -0.8066 -0.9030
 8057SOL    HW235805   1.088   1.987   4.956 -1.0721  0.2766 -1.0052
 8058SOL     OW35806   3.835   0.443   9.955 -0.0789  0.6568 -0.2535
 8058SOL    HW135807   3.767   0.380   9.929  0.2806 -0.2933  1.1371
 8058SOL    HW235808   3.769   0.501   9.993 -1.3445  0.3587 -1.9933
 8059SOL     OW35809   1.052   2.842   7.803 -0.4075 -0.0735 -0.3410
 8059SOL    HW135810   1.078   2.805   7.718  0.1261 -0.7736  0.1260
 8059SOL    HW235811   1.083   2.767   7.853 -1.3615  0.5384  1.1514
 8060SOL     OW35812   2.012   1.855   5.269 -0.0825  0.2459  0.0415
 8060SOL    HW135813   2.086   1.842   5.210  0.1279  0.8725  0.1682
 8060SOL    HW235814   1.942   1.825   5.210 -0.6662  0.6042  0.5566
 8061SOL     OW35815   2.445   1.300   9.932 -0.2781 -0.4697 -0.2745
 8061SOL    HW135816   2.489   1.378   9.967  0.0521 -1.2643  1.0794
 8061SOL    HW235817   2.470   1.227   9.989  2.2340  0.5398 -0.0611
 8062SOL     OW35818   3.416   4.693   6.664 -0.5981 -0.1124  0.0972
 8062SOL    HW135819   3.431   0.044   6.638 -0.3916 -0.2610 -0.3082
 8062SOL    HW235820   3.456   4.635   6.599  1.0603  1.3426 -0.1979
 8063SOL     OW35821   0.582   3.119   3.737  0.2054  0.3799 -0.0109
 8063SOL    HW135822   0.491   3.104   3.714 -0.3027 -1.4851  3.2047
 8063SOL    HW235823   0.592   3.048   3.801 -0.5508 -0.8117 -1.2417
 8064SOL     OW35824   3.111   2.627   5.109  0.5988  0.3926 -0.2085
 8064SOL    HW135825   3.122   2.708   5.059 -0.5859 -0.5779 -2.0476
 8064SOL    HW235826   3.194   2.620   5.155  0.3745 -2.9223 -0.3199
 8065SOL     OW35827   1.965   0.793  11.316  0.3812  0.6274 -0.1287
 8065SOL    HW135828   2.019   0.754  11.385  0.3771  1.5474  0.3899
 8065SOL    HW235829   1.899   0.823  11.379  0.3222 -0.6000  0.4140
 8066SOL     OW35830   0.259   4.270   5.053  0.1950 -0.0557  0.2329
 8066SOL    HW135831   0.270   4.351   5.102 -1.2880 -0.6086  1.4784
 8066SOL    HW235832   0.225   4.304   4.970 -0.8051  0.3004  0.8001
 8067SOL     OW35833   0.300   1.989   5.991  0.2311  0.3099 -0.3880
 8067SOL    HW135834   0.381   2.019   5.948  0.3541 -1.2150 -1.2493
 8067SOL    HW235835   0.261   1.961   5.908 -0.2842  3.7806 -1.2887
 8068SOL     OW35836   2.996   1.251   3.229 -0.3126  0.3437 -0.7373
 8068SOL    HW135837   2.941   1.216   3.159 -0.4547 -3.0028  1.0232
 8068SOL    HW235838   3.026   1.330   3.185  1.4746  0.6015  0.9223
 8069SOL     OW35839   3.117   3.082   1.656 -0.3509  0.0812  0.9977
 8069SOL    HW135840   3.129   2.997   1.612  0.1508  0.8419 -0.3268
 8069SOL    HW235841   3.151   3.062   1.743  2.0869  0.1786  0.0772
 8070SOL     OW35842   3.887   3.596   5.251  1.4131  0.5129 -0.3041
 8070SOL    HW135843   3.817   3.576   5.188  0.5378  2.3906  0.0586
 8070SOL    HW235844   3.912   3.684   5.223  0.3328  0.6040 -1.0122
 8071SOL     OW35845   0.057   4.712  12.863  0.2486 -0.3222 -0.0689
 8071SOL    HW135846   0.071   4.631  12.912  3.0801  1.5656  2.2278
 8071SOL    HW235847   0.063   4.697  12.769  5.7036  1.2837  0.0158
 8072SOL     OW35848   0.864   2.991   5.016 -0.1581  0.0899 -0.1185
 8072SOL    HW135849   0.827   3.040   5.089 -0.7840 -0.4119 -0.0885
 8072SOL    HW235850   0.921   3.054   4.973 -1.3238  1.6700  0.6359
 8073SOL     OW35851   1.249   1.068   3.269  0.0652  0.3192  0.5694
 8073SOL    HW135852   1.195   1.096   3.195  1.1170  1.0847  0.1033
 8073SOL    HW235853   1.192   0.998   3.302  0.1665  0.1677  0.4217
 8074SOL     OW35854   0.757   2.427  13.610 -1.3167 -0.1866  0.4397
 8074SOL    HW135855   0.666   2.398  13.614 -0.2440 -3.4602  1.4968
 8074SOL    HW235856   0.767   2.450  13.703 -1.3915 -3.9284  1.4085
 8075SOL     OW35857   1.843   1.768  12.700 -0.3611 -0.3288 -0.5503
 8075SOL    HW135858   1.913   1.826  12.728 -2.1557  0.5580  2.1558
 8075SOL    HW235859   1.875   1.679  12.711  2.3224  0.5439 -1.2837
 8076SOL     OW35860   2.772   0.049   9.176 -0.1148 -0.4894 -0.0326
 8076SOL    HW135861   2.702   0.107   9.206 -1.0460 -2.5531  1.8284
 8076SOL    HW235862   2.759   4.734   9.254  0.0375 -2.1181 -1.1485
 8077SOL     OW35863   1.295   1.239   6.083 -0.7903  0.1835 -0.2407
 8077SOL    HW135864   1.308   1.220   5.990  1.6166  0.9623 -0.0850
 8077SOL    HW235865   1.259   1.328   6.081 -1.7652 -0.2428 -1.6803
 8078SOL     OW35866   4.002   3.965   6.308 -0.2908 -0.4201  0.0672
 8078SOL    HW135867   3.978   4.056   6.327 -0.3526 -0.5824  0.7566
 8078SOL    HW235868   4.056   3.976   6.230  0.6929  1.5427  1.0293
 8079SOL     OW35869   1.624   2.243  11.777 -0.4614 -0.1424  0.1172
 8079SOL    HW135870   1.708   2.283  11.756  0.2795 -1.6553  0.2132
 8079SOL    HW235871   1.604   2.188  11.702 -1.8576  0.8933 -0.2905
 8080SOL     OW35872   4.280   2.112   9.596  0.2968 -0.4904  0.3737
 8080SOL    HW135873   4.220   2.075   9.532  0.5558 -0.4728  0.1211
 8080SOL    HW235874   4.300   2.037   9.652  0.7181 -1.2913 -0.8574
 8081SOL     OW35875   0.806   2.493   3.997  0.6524 -0.1027 -0.2094
 8081SOL    HW135876   0.807   2.408   3.954 -1.4484 -1.2445  2.0122
 8081SOL    HW235877   0.831   2.561   3.934  0.4214 -1.1202 -1.3949
 8082SOL     OW35878   1.938   2.093   3.779  0.2424 -0.1645 -0.5550
 8082SOL    HW135879   1.959   2.147   3.855 -1.6589 -0.0325 -0.1282
 8082SOL    HW235880   1.890   2.027   3.829 -1.2274  1.5807  0.3351
 8083SOL     OW35881   0.948   2.290   6.408  0.3948  0.5060  0.1521
 8083SOL    HW135882   1.005   2.342   6.352  0.1389  0.3850 -0.2237
 8083SOL    HW235883   0.978   2.306   6.497  0.4052  0.0145  0.2400
 8084SOL     OW35884   3.903   0.242   3.744  0.4654 -0.0266 -0.0568
 8084SOL    HW135885   3.912   0.153   3.779 -2.4456 -0.9073 -1.4697
 8084SOL    HW235886   3.991   0.278   3.756 -0.2239  0.4778  3.3405
 8085SOL     OW35887   2.137   0.883  16.198  0.4866  0.3345 -0.8631
 8085SOL    HW135888   2.074   0.947  16.166  1.0597  1.6044  0.5391
 8085SOL    HW235889   2.125   0.899  16.292  0.4851  0.9929 -0.9767
 8086SOL     OW35890   1.181   3.984   4.261  0.1927 -0.1017  0.1297
 8086SOL    HW135891   1.109   4.018   4.207  1.0136  1.7248  0.2161
 8086SOL    HW235892   1.150   4.009   4.348  1.9837 -0.5250  0.8827
 8087SOL     OW35893   1.194   3.750  11.469 -0.3876 -0.4661  0.4185
 8087SOL    HW135894   1.147   3.697  11.404 -0.3200  0.4223 -0.3485
 8087SOL    HW235895   1.239   3.678  11.514  2.2538  0.2651 -1.0797
 8088SOL     OW35896   3.862   1.378   4.259 -0.2400  0.0921 -0.1005
 8088SOL    HW135897   3.903   1.327   4.189  1.9677  0.2241  1.1031
 8088SOL    HW235898   3.895   1.329   4.334  0.3321  1.5769  0.6195
 8089SOL     OW35899   0.675   1.292   2.796 -0.0744  0.0980  0.3454
 8089SOL    HW135900   0.770   1.293   2.779 -0.3317 -2.7720 -1.3145
 8089SOL    HW235901   0.641   1.240   2.723 -0.9764 -0.4816  1.1788
 8090SOL     OW35902   1.291   2.906  17.587  0.6004  0.8428  0.5758
 8090SOL    HW135903   1.346   2.829  17.573  0.7632  1.2730 -1.0861
 8090SOL    HW235904   1.219   2.873  17.642  0.8776 -3.6451 -1.6997
 8091SOL     OW35905   4.134   3.141  16.016  0.4077  0.2316  0.2078
 8091SOL    HW135906   4.081   3.093  15.953  1.1386  1.3791 -1.2844
 8091SOL    HW235907   4.223   3.144  15.981 -0.3123 -1.2302 -1.7699
 8092SOL     OW35908   1.235   3.131   2.363  1.1012  0.0373 -1.0500
 8092SOL    HW135909   1.181   3.210   2.353 -1.9078 -1.8658 -0.0273
 8092SOL    HW235910   1.236   3.138   2.459 -0.9972 -1.0202 -0.9372
 8093SOL     OW35911   2.325   4.547  13.497 -0.5000 -0.3946 -0.3446
 8093SOL    HW135912   2.256   4.504  13.548 -0.7223 -0.8737 -1.0499
 8093SOL    HW235913   2.398   4.497  13.534  1.2488  1.1264 -1.7504
 8094SOL     OW35914   1.958   1.516   9.920  0.4234  0.1817 -0.4569
 8094SOL    HW135915   2.025   1.463   9.962 -0.1208  1.0756  1.5405
 8094SOL    HW235916   1.876   1.498   9.966  0.7740  0.1619  0.1528
 8095SOL     OW35917   0.918   3.975  10.550  0.0355 -0.5590 -0.2525
 8095SOL    HW135918   0.866   3.894  10.552  0.5373 -0.9434 -2.1825
 8095SOL    HW235919   0.861   4.036  10.503  1.3823  1.4975  0.8023
 8096SOL     OW35920   1.614   0.035   7.510  0.0572 -0.3828  0.0368
 8096SOL    HW135921   1.528   0.001   7.531 -0.8669  1.9325  0.0631
 8096SOL    HW235922   1.664   0.038   7.592  1.3144  1.3995 -0.7627
 8097SOL     OW35923   0.033   4.083   2.623 -0.0138 -0.4801 -0.4376
 8097SOL    HW135924   0.008   4.156   2.566 -0.5629  1.1645  1.8978
 8097SOL    HW235925   4.689   4.042   2.599 -0.0837 -1.0031  0.7495
 8098SOL     OW35926   3.270   3.662   5.706 -0.1285 -0.0471 -0.2105
 8098SOL    HW135927   3.359   3.691   5.686 -0.9496  3.4973  1.3972
 8098SOL    HW235928   3.270   3.669   5.801 -0.0076 -2.3862 -0.0417
 8099SOL     OW35929   0.797   1.483   1.573  0.1051  0.4268 -0.0720
 8099SOL    HW135930   0.750   1.406   1.542  0.3921 -0.6028  2.0554
 8099SOL    HW235931   0.876   1.437   1.601 -0.1680 -0.2717 -0.4384
 8100SOL     OW35932   2.731   4.078   3.164 -0.7296  0.3956 -0.4992
 8100SOL    HW135933   2.812   4.088   3.115  1.0485  1.7063  2.7291
 8100SOL    HW235934   2.679   4.152   3.133 -0.8721  0.1937 -0.7388
 8101SOL     OW35935   1.554   0.661   1.576  0.2378  0.0164 -0.2262
 8101SOL    HW135936   1.460   0.678   1.573  0.4389  1.3456  0.7868
 8101SOL    HW235937   1.545   0.566   1.568 -3.1000  0.2362  0.8820
 8102SOL     OW35938   3.150   4.253  11.340 -0.0167 -0.3020 -0.2427
 8102SOL    HW135939   3.107   4.169  11.357 -0.4609  0.1347  0.7987
 8102SOL    HW235940   3.088   4.292  11.278 -0.9575 -2.6569 -0.7637
 8103SOL     OW35941   0.226   1.619   6.087  0.2127  0.3276  0.0841
 8103SOL    HW135942   0.310   1.630   6.041  0.2441  0.7370  0.2400
 8103SOL    HW235943   0.248   1.584   6.173  0.1033  4.4172  1.7807
 8104SOL     OW35944   1.004   4.190   1.250 -0.2130 -0.1453  0.1649
 8104SOL    HW135945   0.916   4.218   1.276 -0.4747  0.7105 -1.6650
 8104SOL    HW235946   0.992   4.156   1.161  0.4893 -0.0515  0.0336
 8105SOL     OW35947   4.594   0.438   1.409 -0.3473  0.6016  0.0229
 8105SOL    HW135948   4.663   0.404   1.466 -0.4589 -0.0730 -0.2431
 8105SOL    HW235949   4.598   0.377   1.336 -1.9119  1.7508 -1.0227
 8106SOL     OW35950   2.000   1.512   4.615  0.7371  0.2644 -0.4684
 8106SOL    HW135951   1.993   1.449   4.544  0.6966  2.2649 -2.2470
 8106SOL    HW235952   2.081   1.493   4.663  0.0118  1.6804  1.3240
 8107SOL     OW35953   3.761   4.493  10.995 -0.3448 -0.1767  0.0239
 8107SOL    HW135954   3.714   4.411  10.980  0.5404 -0.4945 -1.0501
 8107SOL    HW235955   3.838   4.472  11.047 -0.5537 -2.1918 -0.4928
 8108SOL     OW35956   0.263   3.467   1.748  0.2204  0.5983 -0.6868
 8108SOL    HW135957   0.309   3.383   1.748  0.4485  0.7237  1.0988
 8108SOL    HW235958   0.331   3.529   1.774  0.9885 -1.3439  1.9097
 8109SOL     OW35959   3.219   4.673  10.630 -0.5680  0.0096  0.3687
 8109SOL    HW135960   3.309   4.699  10.607 -0.0886  0.3738  2.6626
 8109SOL    HW235961   3.240   4.588  10.669  0.8054  0.2020  0.0527
 8110SOL     OW35962   3.211   0.423   8.359 -0.1704 -0.7859 -0.0032
 8110SOL    HW135963   3.151   0.483   8.403 -0.1017 -0.2828 -0.5974
 8110SOL    HW235964   3.208   0.346   8.416 -1.6509 -1.6990 -1.3216
 8111SOL     OW35965   3.818   2.482   0.773 -1.1439  0.4907 -0.4292
 8111SOL    HW135966   3.794   2.575   0.779  0.3402  0.8852 -0.7421
 8111SOL    HW235967   3.745   2.450   0.826  1.0720 -0.0046  2.3526
 8112SOL     OW35968   1.157   4.465   9.384 -0.0099  0.5170  0.2895
 8112SOL    HW135969   1.127   4.442   9.295  1.8186  1.9166 -0.6778
 8112SOL    HW235970   1.085   4.436   9.440 -0.5281  1.3256  0.0312
 8113SOL     OW35971   1.370   3.335   7.277 -0.3159 -0.2483  0.5298
 8113SOL    HW135972   1.398   3.275   7.346 -1.0552 -1.4208 -0.1985
 8113SOL    HW235973   1.441   3.343   7.214  1.1074 -0.3691  2.1213
 8114SOL     OW35974   1.237   3.221  17.093  0.1026  0.1688  0.1071
 8114SOL    HW135975   1.213   3.286  17.159 -1.0339 -0.7629  0.6230
 8114SOL    HW235976   1.164   3.239  17.033  0.7859  0.1103 -0.7400
 8115SOL     OW35977   2.369   4.642   5.977  0.3497  0.2715 -0.1948
 8115SOL    HW135978   2.328   4.702   6.038 -0.3033  0.1328 -0.5007
 8115SOL    HW235979   2.350   4.557   6.017  0.0855 -0.3537 -1.6480
 8116SOL     OW35980   3.577   2.607   3.764  0.4837  0.0707  0.2098
 8116SOL    HW135981   3.549   2.679   3.708 -3.8057  0.0005  2.2623
 8116SOL    HW235982   3.640   2.646   3.825  0.6457  0.3196 -0.1131
 8117SOL     OW35983   0.325   2.281   8.460 -0.1099  0.6913 -0.1465
 8117SOL    HW135984   0.383   2.357   8.455 -0.4043  0.8825 -0.6148
 8117SOL    HW235985   0.294   2.270   8.370  0.0809  2.3962 -0.4135
 8118SOL     OW35986   1.674   3.589   5.088 -0.4594  0.1750  0.2837
 8118SOL    HW135987   1.659   3.684   5.080  0.0959  0.4209  2.0436
 8118SOL    HW235988   1.600   3.564   5.143 -1.6031  1.3768 -0.6906
 8119SOL     OW35989   4.091   3.808   8.579 -0.2854  0.0667  0.1186
 8119SOL    HW135990   4.062   3.752   8.651 -0.3806  0.6540  0.5332
 8119SOL    HW235991   4.041   3.884   8.608 -0.6771 -0.7401  1.5408
 8120SOL     OW35992   1.157   3.551   1.587  0.2780 -0.0629 -0.5284
 8120SOL    HW135993   1.245   3.523   1.560  1.5341  0.8049  2.7062
 8120SOL    HW235994   1.140   3.627   1.531  0.6110  1.4344  1.3969
 8121SOL     OW35995   3.766   4.217   3.202  0.4826  0.3409 -0.4180
 8121SOL    HW135996   3.718   4.173   3.131  1.8464 -0.6125 -0.7561
 8121SOL    HW235997   3.732   4.174   3.280  0.6826 -0.0310 -0.5384
 8122SOL     OW35998   3.956   0.803   6.225 -0.4398 -0.1957 -0.0176
 8122SOL    HW135999   3.935   0.877   6.283 -1.5434  0.0052 -0.6602
 8122SOL    HW236000   4.011   0.857   6.168 -1.8498 -0.3924 -1.5635
 8123SOL     OW36001   3.193   4.005  11.620 -0.5866 -0.5427 -0.1487
 8123SOL    HW136002   3.112   4.022  11.669  1.3470  1.4509  2.3153
 8123SOL    HW236003   3.153   4.001  11.533 -2.3470 -0.3758  0.6427
 8124SOL     OW36004   3.125   0.475   0.835  0.5864  0.7721 -0.3968
 8124SOL    HW136005   3.035   0.443   0.823  0.3172  1.0283  0.9784
 8124SOL    HW236006   3.111   0.569   0.827 -1.3591  0.4581 -0.7604
 8125SOL     OW36007   2.582   1.748   4.237  0.4079  0.0234 -0.1472
 8125SOL    HW136008   2.557   1.709   4.321  0.5408  0.0940 -0.0755
 8125SOL    HW236009   2.649   1.813   4.258 -0.2569  0.4610  0.6017
 8126SOL     OW36010   0.043   3.380   4.808  0.1962 -0.4213  0.7733
 8126SOL    HW136011   4.722   3.449   4.835 -0.1189  0.0216 -1.0932
 8126SOL    HW236012   0.018   3.312   4.870  1.0587  1.1634  2.8783
 8127SOL     OW36013   0.708   2.969   5.395  0.1704  0.3252  0.4686
 8127SOL    HW136014   0.765   2.976   5.471  0.4659  1.3107  0.1566
 8127SOL    HW236015   0.687   2.876   5.390 -0.9470  0.5522  0.9659
 8128SOL     OW36016   1.440   3.274   5.147  0.0820  0.8096  0.9383
 8128SOL    HW136017   1.381   3.220   5.200  2.6250 -2.4202  0.4282
 8128SOL    HW236018   1.522   3.244   5.184 -0.1749 -1.5080 -0.3549
 8129SOL     OW36019   3.428   2.666   5.149  0.2387 -0.2195  0.1178
 8129SOL    HW136020   3.372   2.606   5.198 -1.9623 -1.0456 -3.4197
 8129SOL    HW236021   3.505   2.677   5.205  0.2511  0.5464 -0.0479
 8130SOL     OW36022   0.919   1.159   2.523  0.1190 -0.0185 -0.6972
 8130SOL    HW136023   0.957   1.185   2.439 -1.4817  2.3929 -0.6799
 8130SOL    HW236024   0.923   1.066   2.501 -0.7330 -0.1191 -0.4172
 8131SOL     OW36025   0.574   2.633  10.379 -0.1973 -0.0986 -0.5360
 8131SOL    HW136026   0.652   2.579  10.394  0.4356  0.8087 -0.5713
 8131SOL    HW236027   0.598   2.675  10.296 -1.7931  0.1954 -0.8426
 8132SOL     OW36028   3.499   1.105   3.340  0.3155  0.6229  0.1040
 8132SOL    HW136029   3.508   1.161   3.418 -1.3590  0.4511  0.4129
 8132SOL    HW236030   3.407   1.115   3.316  0.0424 -1.7840  0.2122
 8133SOL     OW36031   2.565   3.524   9.011 -0.2811 -0.8505  0.7200
 8133SOL    HW136032   2.553   3.586   9.084 -0.5972 -1.9112  1.5739
 8133SOL    HW236033   2.656   3.498   9.025 -0.0435 -0.1271  0.5061
 8134SOL     OW36034   1.956   3.791   7.953 -0.3617 -0.2194 -0.3609
 8134SOL    HW136035   1.936   3.716   8.009 -0.8975  2.2501  2.7153
 8134SOL    HW236036   1.989   3.860   8.011 -3.2886  0.0167  1.0002
 8135SOL     OW36037   3.703   4.361   2.928 -0.2564 -0.3333 -0.0549
 8135SOL    HW136038   3.635   4.296   2.945  0.3267 -0.5478  1.3803
 8135SOL    HW236039   3.663   4.422   2.866  2.1757  0.9817 -0.3571
 8136SOL     OW36040   2.671   0.428   9.177  0.2441 -0.1492 -0.0885
 8136SOL    HW136041   2.678   0.482   9.256  0.3247 -2.0923  1.2385
 8136SOL    HW236042   2.682   0.493   9.107 -2.6311  0.9394  0.5086
 8137SOL     OW36043   4.669   1.688   7.745  0.2375 -0.0448  0.7486
 8137SOL    HW136044   4.649   1.688   7.651 -0.9399 -1.5269  1.0054
 8137SOL    HW236045   4.626   1.760   7.791 -0.3273 -0.1977  0.4533
 8138SOL     OW36046   1.397   2.913   7.177  0.2080  0.0735  0.4082
 8138SOL    HW136047   1.389   2.967   7.099 -1.3391  0.8092  1.0750
 8138SOL    HW236048   1.367   2.828   7.145 -1.1452  1.2726 -1.4855
 8139SOL     OW36049   0.494   4.716   3.562 -0.2055 -0.0809 -0.0705
 8139SOL    HW136050   0.518   4.623   3.554  0.1176  0.1183 -1.3910
 8139SOL    HW236051   0.422   4.708   3.625  0.4771  1.4318  0.9041
 8140SOL     OW36052   2.868   3.976   3.758  0.2968  0.8641 -0.3586
 8140SOL    HW136053   2.784   4.012   3.785 -0.8140 -1.7595 -0.3856
 8140SOL    HW236054   2.933   4.035   3.799 -0.0260  0.1511  1.1856
 8141SOL     OW36055   4.218   3.836   3.635  0.2253 -0.1709  0.0103
 8141SOL    HW136056   4.138   3.867   3.678  1.4656  0.7191  1.6511
 8141SOL    HW236057   4.211   3.874   3.548  2.2837 -0.2673 -0.2017
 8142SOL     OW36058   3.489   0.155   4.036  0.1506 -0.4470  0.6598
 8142SOL    HW136059   3.520   0.135   3.948  0.5685 -0.1576  0.7443
 8142SOL    HW236060   3.533   0.237   4.055 -0.2066 -0.3834  1.2051
 8143SOL     OW36061   0.332   1.823   2.806 -0.1194  0.3626 -0.1706
 8143SOL    HW136062   0.401   1.783   2.860  1.4301  0.1824 -2.3147
 8143SOL    HW236063   0.264   1.818   2.874  0.1344 -0.1238  0.0441
 8144SOL     OW36064   1.834   4.026   8.827  0.1355 -0.0492 -0.0831
 8144SOL    HW136065   1.805   3.997   8.913  2.1488 -2.0030 -0.0444
 8144SOL    HW236066   1.894   4.095   8.856  0.1970 -0.7268  1.3977
 8145SOL     OW36067   1.714   3.287  10.213  1.0944  0.0720 -0.2559
 8145SOL    HW136068   1.713   3.294  10.118 -0.7923  1.0670 -0.1488
 8145SOL    HW236069   1.704   3.192  10.218  1.0020  0.2200  2.2570
 8146SOL     OW36070   2.483   3.474  15.262 -0.0741 -0.1179 -0.4602
 8146SOL    HW136071   2.441   3.454  15.178  2.0787 -0.3947 -1.4940
 8146SOL    HW236072   2.543   3.400  15.271  1.2607  0.7726 -2.0109
 8147SOL     OW36073   4.603   1.753   9.767 -0.1988  0.2321 -0.3267
 8147SOL    HW136074   4.538   1.712   9.824 -0.2552  2.6915  1.3494
 8147SOL    HW236075   4.551   1.734   9.688  0.9424 -2.1027 -0.5182
 8148SOL     OW36076   4.032   3.263   9.997 -0.0936 -0.1266 -0.1378
 8148SOL    HW136077   3.968   3.192   9.992 -1.0428  0.6339  1.1788
 8148SOL    HW236078   4.061   3.230  10.082 -1.7862  2.0989  1.3204
 8149SOL     OW36079   0.543   1.831   2.164  0.3016  0.1800 -0.3783
 8149SOL    HW136080   0.490   1.900   2.202  0.8373  0.1148  0.4826
 8149SOL    HW236081   0.622   1.880   2.139 -0.2956  0.3915 -1.8111
 8150SOL     OW36082   0.570   3.805   6.575  0.5203 -0.0712  0.3735
 8150SOL    HW136083   0.610   3.824   6.660  1.1401 -3.0959  0.7255
 8150SOL    HW236084   0.479   3.810   6.605  0.7329 -0.4252  1.0507
 8151SOL     OW36085   1.784   1.542   8.100 -0.1940 -0.1330 -0.2400
 8151SOL    HW136086   1.749   1.454   8.089  1.1088 -0.5225 -1.3022
 8151SOL    HW236087   1.877   1.520   8.088 -0.0238  1.0399 -1.1069
 8152SOL     OW36088   0.041   2.646   9.685 -0.3021 -0.0625  0.4071
 8152SOL    HW136089   0.088   2.696   9.618  0.1894  0.3689  1.0759
 8152SOL    HW236090   0.093   2.567   9.697 -0.2806  0.1664  1.8199
 8153SOL     OW36091   3.542   3.544   9.464  0.2899  0.5340  0.1314
 8153SOL    HW136092   3.590   3.476   9.511 -0.0107  0.0203 -0.3049
 8153SOL    HW236093   3.460   3.539   9.513  0.2996 -0.1512  0.0798
 8154SOL     OW36094   4.445   1.752   8.613 -0.1303  0.2872  0.6044
 8154SOL    HW136095   4.533   1.715   8.607 -0.1539  0.7268 -2.3117
 8154SOL    HW236096   4.472   1.843   8.624  0.2106  0.0657  1.6238
 8155SOL     OW36097   1.395   3.336   2.096 -0.1358  0.4311  0.1963
 8155SOL    HW136098   1.442   3.269   2.046 -0.6104  0.8886 -0.8825
 8155SOL    HW236099   1.467   3.355   2.155  0.2212 -0.2608 -0.0169
 8156SOL     OW36100   0.173   2.882   2.424  0.2622  0.0921 -0.5778
 8156SOL    HW136101   0.078   2.876   2.420  0.1932 -1.2920  2.9539
 8156SOL    HW236102   0.180   2.937   2.346  2.2299 -0.1869 -0.5987
 8157SOL     OW36103   2.147   3.028   8.109 -0.3571 -0.3504  0.1094
 8157SOL    HW136104   2.122   2.952   8.161 -0.6323 -0.9792 -0.9564
 8157SOL    HW236105   2.229   2.994   8.073 -0.4013 -0.9499  0.5684
 8158SOL     OW36106   1.564   2.706   9.771 -0.3601  0.1409  0.3016
 8158SOL    HW136107   1.504   2.636   9.795 -1.1391  0.5284 -0.5402
 8158SOL    HW236108   1.644   2.653   9.773 -1.2232 -1.1996 -1.0558
 8159SOL     OW36109   4.673   1.810   6.813  0.0493 -0.2834 -0.3234
 8159SOL    HW136110   4.648   1.885   6.867  0.4706  0.1776 -0.7718
 8159SOL    HW236111   4.603   1.814   6.749 -0.7648  0.8569  0.6406
 8160SOL     OW36112   1.620   3.112   7.217  0.6176 -0.6958  0.2384
 8160SOL    HW136113   1.547   3.051   7.212  1.7546 -1.9224 -1.2419
 8160SOL    HW236114   1.693   3.079   7.165  0.7099  1.0709 -0.7512
 8161SOL     OW36115   3.520   2.000  15.338 -0.8421 -0.6650  0.0934
 8161SOL    HW136116   3.561   1.922  15.376  1.0328  0.0392 -0.4790
 8161SOL    HW236117   3.510   1.987  15.243 -1.9799 -1.1268  0.2834
 8162SOL     OW36118   1.045   2.279   7.086 -0.0577 -0.4440  0.0626
 8162SOL    HW136119   1.061   2.372   7.103 -0.2564 -0.3431 -0.3058
 8162SOL    HW236120   1.064   2.279   6.992 -3.2601  0.4161 -0.6026
 8163SOL     OW36121   3.812   2.411   8.258  0.2536 -0.3268  0.2580
 8163SOL    HW136122   3.717   2.417   8.257  0.3240  1.3133  1.6746
 8163SOL    HW236123   3.844   2.501   8.270  2.4114 -0.8555 -1.4538
 8164SOL     OW36124   1.528   3.895   3.631 -0.1998  0.2980  0.1090
 8164SOL    HW136125   1.577   3.858   3.705 -2.6026 -0.7780  1.1683
 8164SOL    HW236126   1.460   3.829   3.616 -0.2821  0.5226 -0.4843
 8165SOL     OW36127   3.801   4.106   2.392  0.0511 -0.4486  0.0698
 8165SOL    HW136128   3.759   4.039   2.445  0.1568 -2.9712 -3.0718
 8165SOL    HW236129   3.880   4.128   2.443 -0.2983 -1.6922  1.1277
 8166SOL     OW36130   1.432   2.476   5.936  0.2920  0.6158  0.0314
 8166SOL    HW136131   1.435   2.500   6.028 -0.0116  0.3759  0.1005
 8166SOL    HW236132   1.492   2.545   5.908  1.1865  0.1287  0.7435
 8167SOL     OW36133   0.598   4.711  13.348  0.0488 -0.1092  0.2451
 8167SOL    HW136134   0.626   4.620  13.364 -0.5750  0.1676  2.9602
 8167SOL    HW236135   0.543   4.697  13.271  0.1289  1.0497 -0.0105
 8168SOL     OW36136   0.485   1.897   4.506  0.4632  0.1228 -0.2254
 8168SOL    HW136137   0.563   1.949   4.527  0.1160  0.7055 -0.3592
 8168SOL    HW236138   0.436   1.919   4.586 -1.7377  0.5262 -1.6974
 8169SOL     OW36139   4.113   0.221   3.167  0.9329 -0.2277  0.5511
 8169SOL    HW136140   4.179   0.259   3.110 -0.0916  0.4825 -0.1626
 8169SOL    HW236141   4.071   0.292   3.215 -1.2005 -1.7183  0.9076
 8170SOL     OW36142   4.306   2.808  14.873 -0.4812 -0.2427 -0.1504
 8170SOL    HW136143   4.399   2.826  14.880 -1.1917  2.7333  1.6979
 8170SOL    HW236144   4.260   2.867  14.814 -0.6535 -1.7673 -1.5500
 8171SOL     OW36145   1.420   3.262   3.346  0.0280  0.0007  0.2488
 8171SOL    HW136146   1.425   3.332   3.282 -0.1545 -1.4969 -1.4264
 8171SOL    HW236147   1.324   3.254   3.351  0.3785 -3.2012  1.8804
 8172SOL     OW36148   0.092   3.618   8.772 -0.3394  0.0285  0.6334
 8172SOL    HW136149   4.738   3.600   8.766 -0.3455 -0.4776  2.2782
 8172SOL    HW236150   0.117   3.534   8.811 -1.1625 -1.4704 -2.0520
 8173SOL     OW36151   4.580   0.037  11.155 -0.1457 -0.5016 -0.0802
 8173SOL    HW136152   4.609   0.086  11.232  0.6671  1.4957 -1.6566
 8173SOL    HW236153   4.530   0.102  11.105 -0.0844  0.9626  1.7799
 8174SOL     OW36154   2.995   0.379   6.168  0.0999 -0.5046  0.1296
 8174SOL    HW136155   2.994   0.473   6.149 -2.8799 -0.1715  1.9501
 8174SOL    HW236156   3.051   0.382   6.245 -0.7739 -0.6881  0.7745
 8175SOL     OW36157   0.697   1.491  10.029 -0.4192 -0.7678  0.1090
 8175SOL    HW136158   0.717   1.502  10.122 -1.7579  0.9148  0.2020
 8175SOL    HW236159   0.777   1.448   9.999 -0.1141  0.0141 -0.1953
 8176SOL     OW36160   3.481   1.870   2.342 -0.2693 -0.2991 -0.2655
 8176SOL    HW136161   3.392   1.889   2.372  0.6781 -0.1065  2.4134
 8176SOL    HW236162   3.463   1.805   2.275  0.7847 -1.0398  0.1820
 8177SOL     OW36163   0.285   4.513   5.189  0.2171 -0.4949 -0.2786
 8177SOL    HW136164   0.379   4.511   5.170  0.0735 -3.8923 -0.6725
 8177SOL    HW236165   0.275   4.594   5.238  0.2231 -0.6754  0.0234
 8178SOL     OW36166   2.329   3.467   8.593  0.0578 -0.7506  0.1356
 8178SOL    HW136167   2.391   3.451   8.665  0.7870 -1.6408 -0.6833
 8178SOL    HW236168   2.340   3.387   8.541  0.2806 -0.4523 -0.2774
 8179SOL     OW36169   3.715   3.672   2.528  0.3801 -0.4453 -0.3037
 8179SOL    HW136170   3.662   3.640   2.455  0.0694  0.1813 -0.3487
 8179SOL    HW236171   3.800   3.630   2.512  0.5157  0.1272 -1.0552
 8180SOL     OW36172   4.212   3.759   3.095  0.0475 -0.1444  0.0071
 8180SOL    HW136173   4.220   3.843   3.140  2.2520 -1.7563  2.5879
 8180SOL    HW236174   4.304   3.746   3.074  0.5276  1.6476  0.9714
 8181SOL     OW36175   0.352   1.311  10.679 -0.5498 -0.0203 -0.0203
 8181SOL    HW136176   0.422   1.353  10.629 -0.6333  0.9274  0.6602
 8181SOL    HW236177   0.277   1.326  10.621 -1.2881 -1.0298  0.6766
 8182SOL     OW36178   4.691   4.000   4.829 -0.0960 -0.2839 -0.3397
 8182SOL    HW136179   4.640   4.046   4.762  0.5186 -0.5240 -0.9783
 8182SOL    HW236180   0.025   3.970   4.774 -0.3410  1.3071 -1.5340
 8183SOL     OW36181   2.217   2.076   4.206 -0.6974  0.4953  0.4938
 8183SOL    HW136182   2.295   2.124   4.177 -1.2306  0.1023 -1.5576
 8183SOL    HW236183   2.220   1.991   4.164 -0.7765  0.6990  0.0814
 8184SOL     OW36184   2.675   4.002   7.075 -0.0156  0.0158 -0.1801
 8184SOL    HW136185   2.748   4.030   7.130 -0.7293  0.7434  0.4089
 8184SOL    HW236186   2.626   4.085   7.072 -0.0110  0.0291  0.1530
 8185SOL     OW36187   2.448   4.670  14.190  0.0622  0.5371  0.1347
 8185SOL    HW136188   2.415   0.014  14.224 -0.2522  1.0781 -1.4898
 8185SOL    HW236189   2.365   4.624  14.175  0.6302 -0.5702  0.4053
 8186SOL     OW36190   0.089   2.349   8.576  0.0766 -0.1150 -0.1495
 8186SOL    HW136191   0.063   2.395   8.496  1.2260 -0.4114 -0.6904
 8186SOL    HW236192   0.184   2.347   8.566  0.1333 -0.3894  0.4493
 8187SOL     OW36193   3.591   0.201  13.817  0.2469  0.2189 -0.5740
 8187SOL    HW136194   3.558   0.186  13.729  2.8039 -2.1273 -1.1380
 8187SOL    HW236195   3.644   0.123  13.834  0.4505  0.3651 -0.5320
 8188SOL     OW36196   4.589   2.384   4.703 -0.6064  0.2147  0.1773
 8188SOL    HW136197   4.565   2.453   4.765  0.4310  0.9495 -0.2336
 8188SOL    HW236198   4.591   2.424   4.616  0.4875  0.6697  0.4094
 8189SOL     OW36199   2.091   2.421   1.648  0.0552  0.2051  0.1382
 8189SOL    HW136200   2.162   2.485   1.645 -0.6230  0.9078 -0.6059
 8189SOL    HW236201   2.058   2.421   1.559  0.1811  0.4251  0.0923
 8190SOL     OW36202   1.350   4.576   3.211 -0.8695  0.0454 -0.6048
 8190SOL    HW136203   1.302   4.556   3.292 -1.3788  3.0048 -0.1649
 8190SOL    HW236204   1.406   4.649   3.237 -0.6065 -0.2614 -0.3088
 8191SOL     OW36205   0.567   0.401   8.782 -0.0018  0.7175  1.0824
 8191SOL    HW136206   0.620   0.339   8.732 -1.3124  0.3857  0.1302
 8191SOL    HW236207   0.496   0.352   8.823 -1.2466  2.4258  0.9339
 8192SOL     OW36208   0.846   0.748   6.071  0.1402 -0.0123 -0.2050
 8192SOL    HW136209   0.847   0.839   6.102 -0.5613 -0.0606 -0.0459
 8192SOL    HW236210   0.934   0.747   6.032 -0.8579  3.7286 -2.6043
 8193SOL     OW36211   0.371   3.068   4.175  0.4527  0.3254 -0.2903
 8193SOL    HW136212   0.364   3.021   4.258 -1.3297  2.0423  0.5619
 8193SOL    HW236213   0.430   3.140   4.197 -1.3243  1.2513  1.5328
 8194SOL     OW36214   3.873   3.263   5.724  0.3929  0.5563  0.3227
 8194SOL    HW136215   3.855   3.235   5.634 -1.5091 -0.6753  1.1032
 8194SOL    HW236216   3.958   3.302   5.700 -0.3232  1.2586 -1.1259
 8195SOL     OW36217   1.601   4.298   8.451 -0.4658  0.5270  0.7084
 8195SOL    HW136218   1.572   4.208   8.471  1.5540 -0.7843 -2.2759
 8195SOL    HW236219   1.547   4.307   8.373 -1.9418  1.8022  1.8582
 8196SOL     OW36220   4.131   0.748   7.886  0.3364 -0.0037 -0.3429
 8196SOL    HW136221   4.202   0.810   7.904  0.8924 -0.5122 -0.7981
 8196SOL    HW236222   4.093   0.743   7.973 -1.4359  1.7282 -1.0199
 8197SOL     OW36223   3.933   3.244   7.467  0.2267  0.3843  0.5454
 8197SOL    HW136224   3.851   3.231   7.419  1.7031  0.0854 -1.8876
 8197SOL    HW236225   3.939   3.339   7.471 -0.6212  0.3385  2.7358
 8198SOL     OW36226   3.968   3.339   3.129  0.5567 -0.5731  0.3834
 8198SOL    HW136227   3.997   3.428   3.113 -0.3612 -0.1223  1.2104
 8198SOL    HW236228   3.953   3.340   3.224 -0.5900 -0.5702  0.2056
 8199SOL     OW36229   4.625   2.160   7.558  0.4135  0.4621  0.0671
 8199SOL    HW136230   4.542   2.189   7.595 -0.4008  1.4046 -2.5056
 8199SOL    HW236231   4.659   2.114   7.634  0.7984  2.8037  1.3340
 8200SOL     OW36232   3.054   0.321   7.246  0.5927 -0.0081 -0.2875
 8200SOL    HW136233   3.079   0.228   7.239 -1.4331 -0.6211  0.6923
 8200SOL    HW236234   2.960   0.318   7.266  0.5272 -1.2918 -0.7417
 8201SOL     OW36235   1.781   1.128   9.182  0.0840  0.0664 -0.2678
 8201SOL    HW136236   1.704   1.071   9.172 -0.4880  0.5017  1.4589
 8201SOL    HW236237   1.796   1.160   9.094  0.6472 -2.3138 -1.0439
 8202SOL     OW36238   0.245   1.127  16.139  0.0192  0.1328 -0.1921
 8202SOL    HW136239   0.215   1.195  16.079  1.7967 -2.0043 -3.5170
 8202SOL    HW236240   0.169   1.123  16.197  0.3781  1.5947  0.3903
 8203SOL     OW36241   4.275   0.971   3.279 -0.6038  1.3348 -0.5381
 8203SOL    HW136242   4.230   1.055   3.275 -1.2109  1.0476  0.3472
 8203SOL    HW236243   4.323   0.974   3.195  2.1140 -2.6953  0.8595
 8204SOL     OW36244   2.075   4.608   8.683 -0.2017  0.1707 -0.9172
 8204SOL    HW136245   2.062   4.689   8.634 -0.8050 -0.3218 -1.5742
 8204SOL    HW236246   2.000   4.610   8.742  1.5659 -0.7654  1.3231
 8205SOL     OW36247   1.195   3.287  12.402  0.5393 -0.6471 -0.5961
 8205SOL    HW136248   1.123   3.230  12.375 -2.8546  3.2707  0.2679
 8205SOL    HW236249   1.237   3.221  12.457  1.5654  0.5124  0.0054
 8206SOL     OW36250   2.354   4.193   3.244 -0.4355 -0.6951 -0.0579
 8206SOL    HW136251   2.438   4.216   3.204 -1.1590  3.7410  0.9841
 8206SOL    HW236252   2.310   4.275   3.266  3.9089  1.7849 -0.7267
 8207SOL     OW36253   3.340   3.243  14.770 -0.0981  0.0105  0.4192
 8207SOL    HW136254   3.422   3.203  14.741 -1.2675 -1.8855 -0.2741
 8207SOL    HW236255   3.347   3.267  14.862  1.3293  0.8044  0.1111
 8208SOL     OW36256   0.586   2.231   3.117 -0.2755 -0.0645 -0.0668
 8208SOL    HW136257   0.516   2.203   3.058 -1.2200  0.2664  0.9026
 8208SOL    HW236258   0.654   2.170   3.087  1.2612  1.8365 -0.4916
 8209SOL     OW36259   2.863   2.387   2.557  0.4026 -0.0033 -0.2192
 8209SOL    HW136260   2.818   2.468   2.580 -0.0949 -0.5613  0.8040
 8209SOL    HW236261   2.792   2.334   2.520 -1.7241  1.8685  1.1810
 8210SOL     OW36262   4.595   2.000   6.998  0.1868 -0.3894  0.7524
 8210SOL    HW136263   4.623   2.090   6.983  1.8181 -0.9918  0.1181
 8210SOL    HW236264   4.529   2.005   7.067 -1.0261 -1.2549 -0.3354
 8211SOL     OW36265   3.019   0.758   6.754 -0.4752 -0.6331  0.6112
 8211SOL    HW136266   2.962   0.832   6.734  0.9212  0.2414 -0.1306
 8211SOL    HW236267   3.089   0.787   6.812  0.3741 -0.6313 -0.3982
 8212SOL     OW36268   2.705   4.708   9.461  0.0870 -0.2257 -0.1522
 8212SOL    HW136269   2.714   0.059   9.491  0.9867 -0.5009  0.4015
 8212SOL    HW236270   2.690   4.659   9.542  1.0680 -0.9890 -0.4415
 8213SOL     OW36271   1.330   2.670   7.068 -0.5525 -0.5041  0.2674
 8213SOL    HW136272   1.305   2.661   6.976  1.2578  0.3287 -0.3166
 8213SOL    HW236273   1.408   2.614   7.069  0.5433  1.0680  2.5373
 8214SOL     OW36274   3.592   0.211   3.121 -0.3753 -0.0463  0.6620
 8214SOL    HW136275   3.664   0.199   3.184  0.9324  0.1861 -0.7672
 8214SOL    HW236276   3.561   0.122   3.107 -0.2154 -0.6218  4.0402
 8215SOL     OW36277   0.902   2.569   5.280 -0.0073 -0.6713  0.3394
 8215SOL    HW136278   0.868   2.531   5.199  1.1017  0.9450 -0.8816
 8215SOL    HW236279   0.821   2.612   5.306 -0.8554 -0.6866 -2.2719
 8216SOL     OW36280   0.309   2.526   9.218 -0.8333  0.3908 -0.1220
 8216SOL    HW136281   0.318   2.446   9.271 -2.1218 -0.9394 -1.9301
 8216SOL    HW236282   0.322   2.599   9.279  1.2225  0.5840 -0.8046
 8217SOL     OW36283   3.398   4.029  13.771  0.0362  0.4316 -0.3548
 8217SOL    HW136284   3.454   4.066  13.840  0.0752 -0.2957  0.0006
 8217SOL    HW236285   3.398   4.088  13.696  0.1354 -0.6469 -1.2051
 8218SOL     OW36286   1.438   3.596   5.901  0.2003  0.0696  0.0247
 8218SOL    HW136287   1.517   3.592   5.847  1.5562 -1.1172  2.0983
 8218SOL    HW236288   1.458   3.667   5.962 -0.7852  0.2781  0.1088
 8219SOL     OW36289   2.076   0.466   2.169  0.4991  0.3085 -0.0851
 8219SOL    HW136290   2.090   0.557   2.142  1.1797 -0.8668 -3.7145
 8219SOL    HW236291   2.027   0.475   2.251 -0.1775  1.2174 -0.5886
 8220SOL     OW36292   3.066   1.152   9.916  0.2268  0.0731 -0.2825
 8220SOL    HW136293   3.071   1.058   9.934 -1.8834  0.0729  0.2812
 8220SOL    HW236294   3.033   1.185   9.999  0.6081  0.6100 -0.3469
 8221SOL     OW36295   2.436   1.270   5.646  0.2050 -0.2305  0.1876
 8221SOL    HW136296   2.445   1.299   5.736 -0.1983  2.6510 -0.6908
 8221SOL    HW236297   2.459   1.177   5.652 -3.0126 -0.9899  0.7798
 8222SOL     OW36298   3.107   0.319   6.446 -0.4500  0.2437 -0.6055
 8222SOL    HW136299   3.093   0.234   6.489 -0.5502  1.2279  1.3443
 8222SOL    HW236300   3.049   0.363   6.509 -0.8758 -1.7890  0.4316
 8223SOL     OW36301   1.512   4.477  12.949  0.4057  0.5204  0.7169
 8223SOL    HW136302   1.550   4.453  13.034 -0.8693  1.5333  1.5766
 8223SOL    HW236303   1.422   4.445  12.955  0.9088 -1.1326 -0.7069
 8224SOL     OW36304   3.193   3.687   9.416  0.3861 -0.1712 -0.3547
 8224SOL    HW136305   3.178   3.767   9.465 -0.3314 -1.4159  1.4675
 8224SOL    HW236306   3.227   3.637   9.490  0.7079  1.6732  0.7133
 8225SOL     OW36307   0.368   1.497   9.485  0.8387  0.1733 -0.6432
 8225SOL    HW136308   0.313   1.492   9.564  0.5438 -0.1887 -0.8714
 8225SOL    HW236309   0.337   1.581   9.450  1.2127  0.2961 -0.6828
 8226SOL     OW36310   2.540   2.066   3.573  0.6139 -0.3585 -0.0890
 8226SOL    HW136311   2.636   2.067   3.574  0.5879 -0.0268  1.6118
 8226SOL    HW236312   2.526   2.007   3.647 -0.3682 -1.9035 -1.5047
 8227SOL     OW36313   4.730   3.505  12.180  0.2550 -0.1484  0.5009
 8227SOL    HW136314   0.086   3.511  12.175 -0.0975  3.7379 -0.8566
 8227SOL    HW236315   4.734   3.446  12.255 -0.7494 -2.2372 -1.0910
 8228SOL     OW36316   3.202   4.004   4.879 -0.4315 -0.0603  0.0364
 8228SOL    HW136317   3.113   4.002   4.842 -0.5609  0.0787  0.3339
 8228SOL    HW236318   3.203   4.090   4.921 -1.0419 -0.0449  0.0219
 8229SOL     OW36319   3.927   0.822   1.916 -0.5947 -0.0877 -0.1041
 8229SOL    HW136320   3.997   0.761   1.942  0.0812 -0.0823 -1.9146
 8229SOL    HW236321   3.857   0.773   1.958  0.8143 -1.6807  0.3682
 8230SOL     OW36322   0.112   0.112   2.860  0.2569 -0.2492 -0.3644
 8230SOL    HW136323   0.115   0.206   2.842 -1.1639 -0.1086  0.1820
 8230SOL    HW236324   0.196   0.085   2.822  0.2780  1.3011 -1.3863
 8231SOL     OW36325   1.740   2.625  10.138  0.2832 -0.8379  0.1754
 8231SOL    HW136326   1.819   2.618  10.192  0.3353  0.1925  0.2344
 8231SOL    HW236327   1.749   2.541  10.094 -0.4688 -0.9403  0.2336
 8232SOL     OW36328   1.799   3.136   4.723 -0.4320 -0.1751 -0.3736
 8232SOL    HW136329   1.704   3.122   4.720 -0.0764 -3.0818  2.0114
 8232SOL    HW236330   1.808   3.046   4.754 -2.1227  0.1822  1.1389
 8233SOL     OW36331   2.499   0.348  10.099 -0.2549  0.1693  0.0756
 8233SOL    HW136332   2.421   0.343  10.044  1.2229  0.0258 -1.9901
 8233SOL    HW236333   2.485   0.284  10.169  2.2408 -4.3157 -3.5054
 8234SOL     OW36334   3.312   2.760   8.287 -0.0959  0.0077 -0.2672
 8234SOL    HW136335   3.324   2.712   8.369 -0.9674  0.1908 -0.0293
 8234SOL    HW236336   3.305   2.852   8.310  2.9199  0.4965 -1.3319
 8235SOL     OW36337   2.517   1.725   6.936  0.2075 -0.3808 -0.3725
 8235SOL    HW136338   2.513   1.818   6.956 -1.2671 -0.2746 -1.1553
 8235SOL    HW236339   2.424   1.710   6.953 -0.0580  0.5713 -0.9969
 8236SOL     OW36340   0.277   0.610   2.263  0.5729  0.5597 -0.4102
 8236SOL    HW136341   0.311   0.563   2.187 -0.6768 -2.7383  1.0506
 8236SOL    HW236342   0.315   0.697   2.250 -3.3715  2.4037  0.2961
 8237SOL     OW36343   1.928   1.579   2.505  0.3939 -0.0769  0.2670
 8237SOL    HW136344   1.871   1.511   2.469  0.9774  0.1613 -1.0749
 8237SOL    HW236345   1.997   1.590   2.441 -1.8516  0.6296 -2.0222
 8238SOL     OW36346   1.894   1.117   9.966 -0.0917 -0.3109  0.3089
 8238SOL    HW136347   1.875   1.206   9.936  0.1588 -0.6892 -0.9303
 8238SOL    HW236348   1.805   1.083   9.957 -0.3315 -0.3106  2.5563
 8239SOL     OW36349   2.323   2.354   2.182  1.1254 -0.1492  0.4407
 8239SOL    HW136350   2.304   2.378   2.272  0.5290  1.8289 -0.2055
 8239SOL    HW236351   2.333   2.442   2.146 -2.0446  0.2860  0.6970
 8240SOL     OW36352   3.669   2.563   9.252  0.0426 -0.0919 -0.1093
 8240SOL    HW136353   3.712   2.582   9.336  0.4698  0.7561 -0.5223
 8240SOL    HW236354   3.726   2.607   9.189  0.3482 -1.4303 -0.7661
 8241SOL     OW36355   4.630   4.342   4.792  0.1007  0.5583  0.0440
 8241SOL    HW136356   4.673   4.302   4.868 -2.1569 -1.6664  0.1772
 8241SOL    HW236357   4.553   4.380   4.835  1.0347 -2.0352  4.0991
 8242SOL     OW36358   2.595   2.073  15.349  0.3489  0.3404  0.1842
 8242SOL    HW136359   2.650   2.013  15.399  0.4955 -0.0551 -0.4577
 8242SOL    HW236360   2.586   2.029  15.264  0.7496  0.0287  0.3051
 8243SOL     OW36361   2.365   3.068   5.899  0.2307  0.6967  0.8289
 8243SOL    HW136362   2.356   3.129   5.972 -0.1545  0.4542  0.9824
 8243SOL    HW236363   2.416   3.120   5.836  2.3979 -2.2891  0.1658
 8244SOL     OW36364   1.830   4.122   7.716 -0.3263 -0.0268  0.4258
 8244SOL    HW136365   1.771   4.051   7.692 -1.4796  0.1613  2.7290
 8244SOL    HW236366   1.890   4.129   7.641 -0.0462  0.3211  0.6808
 8245SOL     OW36367   0.624   4.586   9.096 -0.2084  0.1922  0.4603
 8245SOL    HW136368   0.553   4.523   9.082  0.2976 -0.2353 -0.1758
 8245SOL    HW236369   0.575   4.663   9.126  0.1264  0.2034  0.9855
 8246SOL     OW36370   3.537   0.412  17.411  0.0883 -0.7394 -0.2572
 8246SOL    HW136371   3.568   0.466  17.484 -0.1850  0.1098 -0.7666
 8246SOL    HW236372   3.443   0.415  17.428 -0.1645  1.5720 -2.0207
 8247SOL     OW36373   0.176   4.281  17.093  0.1101  0.0199 -0.3873
 8247SOL    HW136374   0.254   4.335  17.078  1.8046 -2.1738  0.5308
 8247SOL    HW236375   0.106   4.345  17.108  0.8290  0.8746 -0.6236
 8248SOL     OW36376   0.348   2.617   7.388  0.0460 -0.7708  0.2874
 8248SOL    HW136377   0.377   2.556   7.320  0.5477  2.0565 -2.0540
 8248SOL    HW236378   0.369   2.567   7.467  0.3503 -0.5936  0.3181
 8249SOL     OW36379   2.163   0.690   2.371  0.7127 -0.4580 -0.8427
 8249SOL    HW136380   2.244   0.740   2.374  1.0528 -1.1006  0.5165
 8249SOL    HW236381   2.142   0.707   2.279 -0.8168  0.4100 -0.3412
 8250SOL     OW36382   3.725   2.513   2.179  0.1209 -0.5310 -0.2307
 8250SOL    HW136383   3.695   2.543   2.264  1.8745  1.2118 -0.2195
 8250SOL    HW236384   3.772   2.430   2.192  1.6767  0.5846  1.2385
 8251SOL     OW36385   3.321   4.077  17.225  0.0068 -0.0748 -0.4089
 8251SOL    HW136386   3.357   4.163  17.250  1.4797 -0.2789 -1.8120
 8251SOL    HW236387   3.337   4.084  17.131  0.4361  1.3812 -0.2318
 8252SOL     OW36388   4.538   3.626  15.059 -0.1000  0.0144  0.2887
 8252SOL    HW136389   4.631   3.651  15.054 -1.0442  3.3220 -0.6362
 8252SOL    HW236390   4.519   3.643  15.152 -1.2460  1.7389 -0.2695
 8253SOL     OW36391   3.675   0.437   4.995 -0.2224  0.2321  1.2058
 8253SOL    HW136392   3.731   0.497   4.946  0.3575 -0.1068  1.4525
 8253SOL    HW236393   3.652   0.493   5.069  1.6928  1.7097  0.6868
 8254SOL     OW36394   4.642   1.837  16.842 -0.2636 -0.2102 -0.0135
 8254SOL    HW136395   4.554   1.822  16.809 -0.0539  0.2771 -0.7990
 8254SOL    HW236396   4.670   1.921  16.807 -2.9243  0.6367 -0.0277
 8255SOL     OW36397   1.303   3.828   8.427  0.6782 -0.2448 -0.5344
 8255SOL    HW136398   1.257   3.804   8.507 -1.7189  0.0178 -1.8164
 8255SOL    HW236399   1.379   3.772   8.443  0.1489 -1.0572 -0.8873
 8256SOL     OW36400   2.650   3.737   2.946  0.0376 -0.1295  0.1897
 8256SOL    HW136401   2.741   3.740   2.974  0.1473 -3.3550  0.1495
 8256SOL    HW236402   2.654   3.662   2.886 -0.4277 -0.5314  0.6650
 8257SOL     OW36403   0.558   2.606   9.367 -0.4416 -0.3091 -0.2600
 8257SOL    HW136404   0.512   2.634   9.446 -0.3664  3.0501 -1.4112
 8257SOL    HW236405   0.602   2.689   9.348  0.6352 -0.4441  1.6982
 8258SOL     OW36406   3.171   4.059   4.287 -0.7171  0.4344  0.0090
 8258SOL    HW136407   3.146   4.109   4.209 -0.7118  1.4289  0.6605
 8258SOL    HW236408   3.104   4.091   4.347 -0.1336  2.3262 -0.3732
 8259SOL     OW36409   2.113   4.676  11.653  0.4407 -0.7873 -0.4893
 8259SOL    HW136410   2.148   4.684  11.564 -0.3050 -2.2230 -0.9173
 8259SOL    HW236411   2.091   0.027  11.676  0.0179 -1.2876  1.1078
 8260SOL     OW36412   2.607   4.257   9.012 -0.3827  0.1352 -0.7056
 8260SOL    HW136413   2.651   4.254   8.927  0.5921 -0.6599 -0.1746
 8260SOL    HW236414   2.534   4.316   8.995 -1.2184 -1.0880 -1.3115
 8261SOL     OW36415   4.527   3.616   6.449 -0.1528  0.0414 -0.5164
 8261SOL    HW136416   4.621   3.600   6.444 -0.2677 -0.2371 -2.0278
 8261SOL    HW236417   4.535   3.705   6.483  1.8110  0.0865 -1.1362
 8262SOL     OW36418   0.829   4.038   4.913 -0.5732 -0.1236  0.4600
 8262SOL    HW136419   0.839   3.979   4.988 -0.0599  0.2775  0.7086
 8262SOL    HW236420   0.740   4.071   4.913 -0.9657 -1.1997 -0.2707
 8263SOL     OW36421   2.753   3.690  13.828  0.3574 -0.0916  0.1435
 8263SOL    HW136422   2.695   3.640  13.886 -1.1801  1.1978 -0.2652
 8263SOL    HW236423   2.733   3.643  13.748  1.5291  1.0394 -0.8056
 8264SOL     OW36424   0.959   0.879  13.823 -0.4374  0.2400 -0.0102
 8264SOL    HW136425   1.049   0.904  13.803  0.0329 -0.4993  1.2465
 8264SOL    HW236426   0.973   0.792  13.860  1.4561  0.7153  0.3735
 8265SOL     OW36427   1.606   1.307   3.271  0.0674  0.6238  0.7249
 8265SOL    HW136428   1.629   1.356   3.192 -1.1054  0.3479  0.2033
 8265SOL    HW236429   1.511   1.319   3.278  0.1565  0.5339  2.1195
 8266SOL     OW36430   3.715   0.694   2.057 -0.3951 -0.1416 -0.2240
 8266SOL    HW136431   3.727   0.726   2.147  1.5563  1.1503 -0.9469
 8266SOL    HW236432   3.733   0.600   2.055 -0.7284 -0.2149  0.2113
 8267SOL     OW36433   2.163   4.376  12.687  0.0648 -0.0858  0.3784
 8267SOL    HW136434   2.108   4.454  12.680  1.2950  0.8716  1.3581
 8267SOL    HW236435   2.252   4.406  12.707 -0.0360  0.1873  0.4071
 8268SOL     OW36436   2.704   2.464   0.394 -0.2366 -0.1784  0.6136
 8268SOL    HW136437   2.794   2.494   0.376  0.0562 -1.3786  0.0940
 8268SOL    HW236438   2.658   2.548   0.391  0.5379  0.2229 -0.3232
 8269SOL     OW36439   1.429   3.098   9.166 -0.1369  0.1751 -0.4564
 8269SOL    HW136440   1.356   3.042   9.139 -1.4462  1.6672  0.0066
 8269SOL    HW236441   1.494   3.032   9.192  0.7134  1.7101  1.2941
 8270SOL     OW36442   4.560   0.534   2.620 -0.1517 -0.3933 -0.1924
 8270SOL    HW136443   4.603   0.451   2.636  2.4136  1.1337  0.8761
 8270SOL    HW236444   4.507   0.513   2.543 -0.9601 -1.4175  0.6376
 8271SOL     OW36445   2.748   1.279   8.320  0.0149 -0.2536 -0.4721
 8271SOL    HW136446   2.676   1.292   8.381  2.2365  1.3132  1.7894
 8271SOL    HW236447   2.710   1.218   8.257  0.2396  2.0145 -2.7936
 8272SOL     OW36448   0.235   1.050   8.528  0.0319 -0.1145  0.2524
 8272SOL    HW136449   0.158   1.016   8.483  1.1707  0.4522 -2.0953
 8272SOL    HW236450   0.204   1.121   8.584 -0.0273  0.6416 -0.7596
 8273SOL     OW36451   0.511   0.740  16.297 -0.0101 -0.1451  0.4944
 8273SOL    HW136452   0.449   0.812  16.303  3.0444  2.2738  2.8876
 8273SOL    HW236453   0.542   0.731  16.387  0.0496 -0.9974  0.3949
 8274SOL     OW36454   2.143   4.295   4.724  0.1932 -0.8777  0.1167
 8274SOL    HW136455   2.204   4.368   4.717 -2.9368  1.4630 -3.0955
 8274SOL    HW236456   2.071   4.346   4.761  1.3123  0.5099  0.3695
 8275SOL     OW36457   1.972   1.859  14.865 -0.5946  0.7245  0.1343
 8275SOL    HW136458   1.949   1.860  14.772  1.5276  0.7092 -0.4118
 8275SOL    HW236459   1.887   1.834  14.899 -0.6964  0.1730 -0.5235
 8276SOL     OW36460   0.998   3.493   7.344  0.5671 -0.4962  0.4328
 8276SOL    HW136461   0.970   3.401   7.338  1.3855 -0.9084  3.2516
 8276SOL    HW236462   0.979   3.516   7.253 -1.0410 -1.0844  0.6221
 8277SOL     OW36463   1.538   0.270   9.092 -0.1409  0.2850 -0.2655
 8277SOL    HW136464   1.465   0.321   9.127  0.2790  1.0501 -0.4976
 8277SOL    HW236465   1.561   0.314   9.010  1.4677  0.5511  0.3399
 8278SOL     OW36466   2.010   2.664   3.657 -0.8305  0.8495  0.3274
 8278SOL    HW136467   2.036   2.746   3.615 -1.6398  0.4282 -1.0125
 8278SOL    HW236468   1.920   2.663   3.623 -1.0308 -1.1617  0.8697
 8279SOL     OW36469   2.540   1.541   5.174  0.0083  0.5958 -0.0630
 8279SOL    HW136470   2.597   1.600   5.222  1.2264  0.6916 -1.6166
 8279SOL    HW236471   2.540   1.460   5.224  1.6577  0.7710  0.2058
 8280SOL     OW36472   3.001   3.235   6.699  0.0070 -0.4993  0.2581
 8280SOL    HW136473   3.063   3.199   6.636  0.2776  1.4082 -0.5653
 8280SOL    HW236474   2.947   3.157   6.713 -0.9273  0.5495  2.4822
 8281SOL     OW36475   0.797   1.491   8.365 -0.1925  0.3068 -0.1282
 8281SOL    HW136476   0.745   1.571   8.374 -1.7373 -0.6742 -0.3250
 8281SOL    HW236477   0.877   1.538   8.340 -0.1142  0.6103  0.6898
 8282SOL     OW36478   0.042   4.267   3.393 -0.0859 -0.0365  0.4407
 8282SOL    HW136479   0.132   4.284   3.365  0.1214 -1.9288 -0.0526
 8282SOL    HW236480   0.053   4.249   3.487 -0.3477 -1.1643  0.2545
 8283SOL     OW36481   2.333   2.309  11.909  0.5366  0.0007  1.0014
 8283SOL    HW136482   2.342   2.218  11.880  1.6616  0.3810  0.1817
 8283SOL    HW236483   2.242   2.311  11.941  0.8769 -1.2283  2.0627
 8284SOL     OW36484   2.861   3.168   2.975  0.4884 -0.6036 -0.0035
 8284SOL    HW136485   2.824   3.104   3.036 -0.2978  2.0201  2.3164
 8284SOL    HW236486   2.948   3.131   2.968  1.1272  0.9297 -0.1446
 8285SOL     OW36487   1.051   2.783   6.712  0.2280  0.2626 -0.1023
 8285SOL    HW136488   1.090   2.802   6.798 -1.0218 -0.6746  0.6777
 8285SOL    HW236489   1.128   2.780   6.656  1.0772 -2.7798  1.2262
 8286SOL     OW36490   4.464   1.971   5.118  0.6208 -0.3353  0.0537
 8286SOL    HW136491   4.486   2.055   5.078 -2.0399  0.0524 -0.5420
 8286SOL    HW236492   4.533   1.915   5.080  0.1741  0.2983 -1.6902
 8287SOL     OW36493   3.168   0.533   9.244 -0.2396 -0.6057  0.3793
 8287SOL    HW136494   3.170   0.600   9.312 -1.3440  1.4326 -1.5839
 8287SOL    HW236495   3.259   0.537   9.213 -0.6572 -1.4644 -0.9544
 8288SOL     OW36496   0.351   3.287   7.925  0.1424  0.1980 -0.4014
 8288SOL    HW136497   0.356   3.231   7.847  1.8431  2.4225 -1.8952
 8288SOL    HW236498   0.355   3.374   7.886  0.4260 -0.1009 -1.0503
 8289SOL     OW36499   2.408   3.109   6.631 -0.1131 -0.2185  0.7895
 8289SOL    HW136500   2.480   3.143   6.684 -0.4846  1.0529  0.4778
 8289SOL    HW236501   2.384   3.194   6.596 -0.1305 -0.2885  0.6276
 8290SOL     OW36502   1.520   2.779  10.110  0.2605 -0.3434  0.3074
 8290SOL    HW136503   1.461   2.703  10.108  1.7173 -1.5448  2.3703
 8290SOL    HW236504   1.597   2.722  10.112 -0.9499 -2.1192 -2.3084
 8291SOL     OW36505   2.704   1.162   4.317  0.1023 -0.2748  0.2317
 8291SOL    HW136506   2.719   1.074   4.281 -1.4343 -0.6471  0.5015
 8291SOL    HW236507   2.734   1.214   4.243  1.8331  0.3883  1.3819
 8292SOL     OW36508   2.436   2.271   8.908  0.6905  0.3423 -0.2948
 8292SOL    HW136509   2.516   2.227   8.933  0.9067 -0.7396 -2.9063
 8292SOL    HW236510   2.419   2.337   8.976  0.3519 -0.2769  0.2166
 8293SOL     OW36511   1.576   3.420   7.720 -0.2131  0.6698  0.3884
 8293SOL    HW136512   1.575   3.329   7.690 -2.2303  1.2285 -1.2285
 8293SOL    HW236513   1.498   3.459   7.682 -2.0028 -2.5587  0.7371
 8294SOL     OW36514   1.556   1.489   8.979 -0.2579 -0.6679 -0.5480
 8294SOL    HW136515   1.614   1.509   9.051 -0.9371  0.2034 -0.2482
 8294SOL    HW236516   1.523   1.577   8.961 -0.6510 -0.6370  0.3341
 8295SOL     OW36517   1.580   0.792   6.778  0.3710 -0.0055  0.0222
 8295SOL    HW136518   1.520   0.802   6.704  0.3800  0.8111  0.1300
 8295SOL    HW236519   1.571   0.698   6.793 -0.3689  0.2253  1.0223
 8296SOL     OW36520   2.063   4.090  13.348  0.1355 -0.1409  0.5438
 8296SOL    HW136521   2.002   4.161  13.365  0.4495  0.3764 -0.4277
 8296SOL    HW236522   2.005   4.030  13.301 -0.4613 -0.3129  1.5075
 8297SOL     OW36523   4.476   1.810   0.509  0.4834 -0.7142  0.1633
 8297SOL    HW136524   4.562   1.807   0.551  0.2322 -2.8996  0.5008
 8297SOL    HW236525   4.437   1.737   0.556  1.9069 -1.7341 -0.2472
 8298SOL     OW36526   3.886   1.462   4.905 -0.1627  0.1016  0.3262
 8298SOL    HW136527   3.979   1.469   4.928 -0.6779  0.0012  2.4649
 8298SOL    HW236528   3.854   1.551   4.924 -0.1324 -0.5017  3.1977
 8299SOL     OW36529   3.475   2.866   2.510 -0.0079 -0.0280  0.2769
 8299SOL    HW136530   3.482   2.960   2.525 -2.4828  0.1355  0.4877
 8299SOL    HW236531   3.422   2.869   2.430 -1.1237  1.0840  1.0465
 8300SOL     OW36532   0.101   1.594   3.902 -0.2050  0.6427 -0.0760
 8300SOL    HW136533   0.133   1.527   3.841 -1.7356  0.0969 -0.2830
 8300SOL    HW236534   0.145   1.577   3.985  0.3077 -0.8873 -0.6513
 8301SOL     OW36535   0.485   1.569  15.986  0.4906  0.3479 -0.8698
 8301SOL    HW136536   0.561   1.585  15.930  1.9073  1.1754  1.3056
 8301SOL    HW236537   0.509   1.610  16.069 -1.1722  1.1849 -0.8056
 8302SOL     OW36538   1.394   4.093   4.575  0.6453  0.0647 -0.4697
 8302SOL    HW136539   1.300   4.108   4.564  0.5200 -0.2520  0.1628
 8302SOL    HW236540   1.400   4.001   4.599  1.4357  0.5529  1.1711
 8303SOL     OW36541   0.878   0.065   5.524  0.4607 -0.1515 -0.1353
 8303SOL    HW136542   0.862   0.129   5.594 -0.5783 -0.0693 -0.4513
 8303SOL    HW236543   0.952   0.109   5.482 -0.0999  0.7741 -0.1323
 8304SOL     OW36544   2.301   3.932   5.182  0.1293  0.5856  0.3144
 8304SOL    HW136545   2.340   3.855   5.224 -3.1226 -1.2569 -0.0291
 8304SOL    HW236546   2.293   3.922   5.088 -0.6954  3.6581  0.0513
 8305SOL     OW36547   2.234   1.633   3.684  0.0845 -0.2082 -0.4340
 8305SOL    HW136548   2.275   1.660   3.767  0.9503 -1.4078 -0.4739
 8305SOL    HW236549   2.270   1.546   3.668  1.4108 -0.0369  1.5890
 8306SOL     OW36550   0.947   4.190   8.083  0.4253 -0.0289  0.2166
 8306SOL    HW136551   1.007   4.252   8.125  2.7826 -1.4168 -1.1330
 8306SOL    HW236552   0.869   4.240   8.104  0.0142 -1.7768  2.8925
 8307SOL     OW36553   0.333   3.669   4.900  0.1999  0.2195  0.1219
 8307SOL    HW136554   0.309   3.734   4.966 -1.5420  1.3156 -1.5679
 8307SOL    HW236555   0.259   3.655   4.841  0.8261 -1.4894 -0.2536
 8308SOL     OW36556   0.155   0.117   6.885 -0.1163 -0.1904 -0.1712
 8308SOL    HW136557   0.224   0.118   6.952 -1.5824 -3.2623  1.4277
 8308SOL    HW236558   0.087   0.182   6.904  0.3679  0.6199 -1.2468
 8309SOL     OW36559   3.897   4.603   3.281 -0.7089  0.1837  0.3340
 8309SOL    HW136560   3.856   4.618   3.196  1.6443  0.1804 -0.8024
 8309SOL    HW236561   3.935   4.690   3.288  0.0596 -0.2049  1.0044
 8310SOL     OW36562   2.232   3.538   7.027 -0.1687  0.1403  0.3209
 8310SOL    HW136563   2.241   3.461   6.970  0.4967 -0.2092  0.9049
 8310SOL    HW236564   2.289   3.507   7.097  1.8679  1.3708 -0.7945
 8311SOL     OW36565   1.251   1.185   5.826  0.2598  0.2098 -0.2605
 8311SOL    HW136566   1.268   1.169   5.733  1.1846 -3.3103  0.5316
 8311SOL    HW236567   1.204   1.268   5.822  0.9045  0.5068 -1.6710
 8312SOL     OW36568   0.753   2.357   8.011 -0.3357 -0.3373  0.4368
 8312SOL    HW136569   0.762   2.313   8.096  1.2751 -0.2636  0.2979
 8312SOL    HW236570   0.797   2.288   7.961  0.9768  2.3132 -1.9947
 8313SOL     OW36571   1.630   0.432   7.934  0.7531  0.5393 -0.1034
 8313SOL    HW136572   1.577   0.396   7.863  0.8324 -0.3144  0.2589
 8313SOL    HW236573   1.565   0.480   7.985 -0.3051 -2.0979  1.0690
 8314SOL     OW36574   4.346   4.557   4.366  0.5354 -0.2470  0.1597
 8314SOL    HW136575   4.418   4.570   4.305 -1.5425  0.6307 -2.1022
 8314SOL    HW236576   4.385   4.538   4.451  0.8545 -0.0803  0.0499
 8315SOL     OW36577   1.454   3.833  10.100 -0.0324 -0.4587 -0.2395
 8315SOL    HW136578   1.387   3.766  10.105  0.2788 -0.7600 -0.0815
 8315SOL    HW236579   1.508   3.813  10.023 -1.8998 -1.2074 -1.3525
 8316SOL     OW36580   1.396   3.697   3.896 -0.1195 -0.0800 -0.4610
 8316SOL    HW136581   1.479   3.739   3.916  0.8440 -2.3573  0.3138
 8316SOL    HW236582   1.414   3.605   3.917  0.8706 -0.5147 -3.1799
 8317SOL     OW36583   4.531   2.888   8.015  0.3268 -0.5549  0.1901
 8317SOL    HW136584   4.522   2.833   8.093 -1.0117  0.3236  0.6537
 8317SOL    HW236585   4.626   2.879   8.011  0.5173  3.2871 -3.1494
 8318SOL     OW36586   2.997   3.592   7.097 -0.0437  0.6971  0.0995
 8318SOL    HW136587   2.971   3.520   7.039  1.5501  0.5436 -0.4326
 8318SOL    HW236588   2.919   3.582   7.152  0.5857 -1.8527  0.5570
 8319SOL     OW36589   1.293   3.184   1.313 -0.0307  0.1429  0.3924
 8319SOL    HW136590   1.248   3.148   1.236 -0.4582  1.1967  0.1556
 8319SOL    HW236591   1.376   3.139   1.299 -0.9192 -1.0732 -1.0198
 8320SOL     OW36592   0.410   4.032   1.211 -0.5676  0.0171 -0.0778
 8320SOL    HW136593   0.351   4.051   1.284 -0.0823  2.1794 -0.2554
 8320SOL    HW236594   0.432   4.120   1.182  0.2443  0.6449  2.4263
 8321SOL     OW36595   2.498   1.013   5.598  0.3208  0.0977 -1.1492
 8321SOL    HW136596   2.586   0.990   5.630 -1.0974 -2.0309  1.2051
 8321SOL    HW236597   2.447   0.948   5.646  1.4597 -0.2860 -0.4487
 8322SOL     OW36598   2.561   3.115   1.616  0.2591  0.7638 -0.3650
 8322SOL    HW136599   2.551   3.080   1.705  0.0251  1.0531 -0.2785
 8322SOL    HW236600   2.556   3.209   1.629 -2.9268  0.5113  0.3803
 8323SOL     OW36601   3.543   4.555   5.622  0.2175  0.5837  0.2311
 8323SOL    HW136602   3.547   4.613   5.546  1.2543  1.1016  0.6837
 8323SOL    HW236603   3.611   4.494   5.597 -0.7028 -1.4635  2.7675
 8324SOL     OW36604   3.663   0.163   2.552  0.6383 -0.1117 -0.0356
 8324SOL    HW136605   3.751   0.168   2.512  1.7222 -0.7145  2.2857
 8324SOL    HW236606   3.631   0.091   2.498  0.8447 -1.1419  1.2187
 8325SOL     OW36607   2.229   2.016   7.156  0.9259  0.2735 -0.0035
 8325SOL    HW136608   2.157   2.049   7.103  0.3305  1.9336  1.8202
 8325SOL    HW236609   2.231   1.924   7.129  1.4957 -0.6240  2.9893
 8326SOL     OW36610   3.538   1.292   0.690  0.2683  0.2269 -0.2031
 8326SOL    HW136611   3.544   1.386   0.709  3.6173 -0.5640  2.8039
 8326SOL    HW236612   3.617   1.260   0.735 -0.4015 -2.6110 -1.0221
 8327SOL     OW36613   4.401   3.542   4.047  0.5199  0.5485  0.0870
 8327SOL    HW136614   4.399   3.624   3.996  1.3560  1.2908  1.2499
 8327SOL    HW236615   4.493   3.537   4.073 -0.1129  1.0193  2.4360
 8328SOL     OW36616   4.121   3.241   1.389 -0.2872  0.1260 -0.1049
 8328SOL    HW136617   4.089   3.205   1.472  0.0345 -0.4867 -0.2445
 8328SOL    HW236618   4.204   3.193   1.381 -0.9253 -1.0879  0.5530
 8329SOL     OW36619   1.526   1.584   1.842 -0.3208  0.2657  0.0393
 8329SOL    HW136620   1.592   1.602   1.776 -1.6233  0.3182 -1.2591
 8329SOL    HW236621   1.572   1.525   1.903 -0.4920 -0.0079 -0.0976
 8330SOL     OW36622   3.418   0.037  16.120 -0.2273  0.1023  0.6599
 8330SOL    HW136623   3.342   0.076  16.077  0.5095  0.8485  0.0384
 8330SOL    HW236624   3.486   0.067  16.060 -0.3447  0.6686  0.8016
 8331SOL     OW36625   3.712   3.009  16.056  0.4018 -0.7085  0.0315
 8331SOL    HW136626   3.766   2.982  16.131  1.4199  0.9265 -0.0972
 8331SOL    HW236627   3.644   2.943  16.069  0.7794 -0.7617  1.8168
 8332SOL     OW36628   3.007   4.723  15.625  0.3222 -0.4520 -0.3137
 8332SOL    HW136629   3.050   0.014  15.705  0.6601 -1.1625 -0.2218
 8332SOL    HW236630   3.048   0.029  15.551  0.2204  0.3020  0.0903
 8333SOL     OW36631   3.066   3.796   7.365  0.6232 -0.0097 -0.6710
 8333SOL    HW136632   3.101   3.754   7.285  0.5508  0.6848 -1.0632
 8333SOL    HW236633   3.036   3.722   7.418  0.1574 -1.0476 -2.3615
 8334SOL     OW36634   0.002   3.264   1.230 -0.0080  0.5693  0.1694
 8334SOL    HW136635   0.064   3.274   1.303 -0.1217 -1.2627  0.5169
 8334SOL    HW236636   4.705   3.177   1.242  1.2116  0.2053  1.2995
 8335SOL     OW36637   1.365   1.113  15.675  0.5875 -0.1024 -0.3081
 8335SOL    HW136638   1.314   1.111  15.594  1.0775 -0.8444 -0.5999
 8335SOL    HW236639   1.446   1.065  15.659  0.4792  0.1570 -1.6592
 8336SOL     OW36640   2.739   3.160   1.256 -0.6598 -0.0364  0.2442
 8336SOL    HW136641   2.713   3.224   1.190  0.4103 -0.3690 -0.4930
 8336SOL    HW236642   2.823   3.194   1.287 -0.5686 -0.5227  0.5468
 8337SOL     OW36643   3.500   1.936   4.461 -0.2965  0.1134  0.1648
 8337SOL    HW136644   3.503   1.981   4.376  1.1594  0.0711  0.2005
 8337SOL    HW236645   3.584   1.891   4.464 -0.0673  0.4852 -0.6645
 8338SOL     OW36646   1.002   2.205  14.005  0.3187 -0.4086  0.5232
 8338SOL    HW136647   1.014   2.142  14.076 -1.0832 -1.1286  0.1119
 8338SOL    HW236648   1.088   2.246  14.010 -0.1219  0.7020 -0.8865
 8339SOL     OW36649   3.868   4.175   6.471  0.2673 -0.0728  0.1197
 8339SOL    HW136650   3.877   4.214   6.559 -0.1708  1.6984 -0.6163
 8339SOL    HW236651   3.806   4.238   6.435 -0.1084 -0.3304  0.3276
 8340SOL     OW36652   1.940   4.006   1.833 -0.7444 -0.4476 -0.2423
 8340SOL    HW136653   1.937   4.030   1.926  1.0850 -0.0853 -0.2613
 8340SOL    HW236654   1.848   4.021   1.813 -0.8690 -1.1683 -0.2194
 8341SOL     OW36655   1.785   4.541   3.524 -0.5726 -0.2082 -0.3231
 8341SOL    HW136656   1.737   4.463   3.496 -2.2406  0.0147  1.9353
 8341SOL    HW236657   1.748   4.573   3.606  0.6146 -0.3057  0.2591
 8342SOL     OW36658   3.612   4.599  12.684 -0.3193  0.0010  0.3910
 8342SOL    HW136659   3.537   4.624  12.630  1.2073  1.0310 -1.2546
 8342SOL    HW236660   3.615   4.505  12.665  1.1074  0.3269 -0.9303
 8343SOL     OW36661   2.948   0.231   4.672 -0.2703  0.3233 -0.1559
 8343SOL    HW136662   3.031   0.254   4.714  0.6911 -2.4382 -0.5572
 8343SOL    HW236663   2.881   0.239   4.739 -2.1089 -2.5956 -1.6614
 8344SOL     OW36664   0.155   4.347  10.519  0.8217 -0.8010 -0.5357
 8344SOL    HW136665   0.121   4.435  10.533 -0.4928 -1.7243  2.0564
 8344SOL    HW236666   0.142   4.321  10.611  1.2519  0.9753  0.0177
 8345SOL     OW36667   4.242   4.367   4.773 -0.3948 -0.3033  0.2604
 8345SOL    HW136668   4.158   4.323   4.786  0.4173 -1.8631  0.2478
 8345SOL    HW236669   4.208   4.455   4.760  0.5941  0.1511  0.7213
 8346SOL     OW36670   0.614   2.909   4.956 -0.3145 -0.6066  0.1651
 8346SOL    HW136671   0.700   2.912   4.997  0.0537 -1.1229 -0.5593
 8346SOL    HW236672   0.562   2.867   5.024 -0.7163 -0.6357 -0.1603
 8347SOL     OW36673   0.627   2.445   2.327  0.1589 -0.0353  0.5754
 8347SOL    HW136674   0.667   2.362   2.353  0.7233  0.3269  0.8722
 8347SOL    HW236675   0.537   2.426   2.353  0.6049  0.1066  2.1873
 8348SOL     OW36676   0.059   0.246   8.399 -0.2034  0.0929  0.4623
 8348SOL    HW136677   0.026   0.300   8.470 -1.6017  0.9862 -0.8612
 8348SOL    HW236678   0.055   0.160   8.439 -0.2298  0.2678  0.8329
 8349SOL     OW36679   0.988   2.575   7.383 -0.3206  0.7421 -0.2481
 8349SOL    HW136680   0.920   2.586   7.317 -1.4507  2.6824  1.2616
 8349SOL    HW236681   1.052   2.517   7.340 -0.1611  0.0328  0.9438
 8350SOL     OW36682   3.924   1.634  15.254  0.4589  0.5606  0.0907
 8350SOL    HW136683   3.974   1.716  15.257  0.8051  0.3797 -0.7395
 8350SOL    HW236684   3.999   1.580  15.279 -1.0408 -1.2315  0.6955
 8351SOL     OW36685   0.965   1.802   6.367 -0.0190  0.2080 -0.0045
 8351SOL    HW136686   0.915   1.746   6.427  1.5556 -0.1780  0.9512
 8351SOL    HW236687   1.053   1.781   6.396  0.3497  1.4818 -0.1943
 8352SOL     OW36688   2.010   2.106   7.386 -0.0954 -0.6257 -0.4887
 8352SOL    HW136689   2.043   2.151   7.464 -0.9819 -1.0601  0.1441
 8352SOL    HW236690   2.040   2.163   7.316  0.3101 -3.0141 -2.2668
 8353SOL     OW36691   0.999   2.991  15.004 -0.0428  0.0433 -0.7348
 8353SOL    HW136692   1.048   2.954  14.930  1.4869 -1.8953  1.2506
 8353SOL    HW236693   0.988   2.909  15.052 -2.5410  2.2978  2.4316
 8354SOL     OW36694   1.094   1.449   4.594  0.0325  0.3185  0.2389
 8354SOL    HW136695   1.084   1.506   4.518  2.7928 -0.5463 -0.7918
 8354SOL    HW236696   1.154   1.385   4.554  0.7641  1.7832 -1.0112
 8355SOL     OW36697   4.026   0.551   7.750  0.1697  0.1170  0.0708
 8355SOL    HW136698   3.997   0.501   7.827  2.1744  0.6907  1.1931
 8355SOL    HW236699   4.063   0.624   7.798 -1.9986  0.4170  1.3036
 8356SOL     OW36700   3.324   2.115   7.263  0.2988  0.4792  0.2079
 8356SOL    HW136701   3.237   2.121   7.224  0.1610  0.6875  0.5418
 8356SOL    HW236702   3.348   2.026   7.239  1.2127  0.9374 -0.5982
 8357SOL     OW36703   3.290   2.063   1.911 -0.2747  0.1780 -0.1085
 8357SOL    HW136704   3.237   2.071   1.990  0.6695  0.5168  0.4872
 8357SOL    HW236705   3.240   2.002   1.857  1.1147 -0.1423 -1.0471
 8358SOL     OW36706   1.942   2.964   8.796 -0.0529 -0.0358 -0.1182
 8358SOL    HW136707   1.878   3.035   8.800 -1.2050 -1.2076  2.1678
 8358SOL    HW236708   1.937   2.942   8.889 -0.4054  1.0823  0.1290
 8359SOL     OW36709   0.705   0.868   3.818  0.4962  0.5085  0.0482
 8359SOL    HW136710   0.680   0.889   3.728  0.1854 -0.1552 -0.0237
 8359SOL    HW236711   0.691   0.952   3.860  0.7773  0.0347  1.0949
 8360SOL     OW36712   4.018   1.779   1.228 -0.4947  0.6666 -0.1671
 8360SOL    HW136713   3.987   1.689   1.218 -0.8183  0.9630 -1.9082
 8360SOL    HW236714   4.113   1.771   1.236 -0.6237  2.8142  3.1671
 8361SOL     OW36715   1.935   4.217   3.704 -0.3716  0.7987 -0.4582
 8361SOL    HW136716   1.856   4.179   3.667  0.7626  0.4049 -2.4287
 8361SOL    HW236717   1.996   4.189   3.636  1.0257  0.3123  0.9989
 8362SOL     OW36718   4.072   2.328   3.289  0.1534  0.1366 -0.5024
 8362SOL    HW136719   4.027   2.413   3.294 -0.1137 -0.1144  1.3356
 8362SOL    HW236720   4.041   2.287   3.370  2.4337  0.5194  0.5519
 8363SOL     OW36721   2.956   0.645   8.749  0.0851 -0.2773  0.7183
 8363SOL    HW136722   3.032   0.654   8.806 -0.3333  0.8059  1.1042
 8363SOL    HW236723   2.894   0.615   8.816 -1.0684 -0.3592 -0.3834
 8364SOL     OW36724   4.491   0.085   3.228 -0.2312 -0.5813 -1.4443
 8364SOL    HW136725   4.507   0.087   3.134 -0.6226  2.2899 -1.4440
 8364SOL    HW236726   4.562   0.146   3.248 -1.0668  0.0360 -0.3494
 8365SOL     OW36727   2.746   3.516   8.107 -0.0211 -0.2776  0.5994
 8365SOL    HW136728   2.728   3.584   8.042  0.2926  0.9331  1.7818
 8365SOL    HW236729   2.799   3.561   8.172  0.0749  0.8908 -0.3023
 8366SOL     OW36730   1.239   1.795  13.086  0.1764  0.4825  0.6043
 8366SOL    HW136731   1.251   1.853  13.161 -0.3291  0.0326  1.0328
 8366SOL    HW236732   1.328   1.784  13.052 -0.0065  1.7541 -0.3062
 8367SOL     OW36733   4.426   4.136  15.414 -0.1801 -0.2283 -0.0361
 8367SOL    HW136734   4.395   4.070  15.476 -0.9857  1.4746  1.3933
 8367SOL    HW236735   4.500   4.086  15.381  0.4507 -0.4727  1.7274
 8368SOL     OW36736   4.368   1.623   0.662 -0.2728 -0.0754  0.1038
 8368SOL    HW136737   4.406   1.570   0.732  1.7469 -0.9439 -1.6199
 8368SOL    HW236738   4.277   1.608   0.686  0.2726 -0.9505  1.6433
 8369SOL     OW36739   0.954   3.458  15.184 -0.3187  0.6940 -0.2371
 8369SOL    HW136740   0.879   3.403  15.206 -0.0138  0.6239  0.6492
 8369SOL    HW236741   0.913   3.539  15.154 -1.2972  0.6703  1.0478
 8370SOL     OW36742   1.532   1.283   7.751 -0.2159 -0.7895  0.1001
 8370SOL    HW136743   1.588   1.267   7.675  0.8824  3.1726  0.0761
 8370SOL    HW236744   1.587   1.342   7.803  2.1612 -2.7269 -0.2407
 8371SOL     OW36745   2.392   2.286   4.006  0.0825 -0.0866  0.1073
 8371SOL    HW136746   2.381   2.360   4.065 -0.4723 -1.2834  1.4941
 8371SOL    HW236747   2.487   2.281   3.996 -0.0911 -1.1979 -1.0374
 8372SOL     OW36748   1.598   2.593   2.688 -0.3086  0.3680 -0.1736
 8372SOL    HW136749   1.564   2.572   2.775  2.5137  2.1616  1.3294
 8372SOL    HW236750   1.645   2.675   2.699  0.4999 -0.2128  0.7402
 8373SOL     OW36751   4.572   4.571   1.642 -0.0693 -0.4255  0.1952
 8373SOL    HW136752   4.541   4.651   1.599  0.1202 -1.6026 -2.1500
 8373SOL    HW236753   4.662   4.568   1.610 -0.3064  0.8619 -0.5945
 8374SOL     OW36754   3.003   2.043  17.214 -0.1156  0.3310 -0.3787
 8374SOL    HW136755   2.935   1.976  17.223  1.0623 -0.9059 -0.7261
 8374SOL    HW236756   2.952   2.123  17.227  0.0118  0.2862  0.4164
 8375SOL     OW36757   1.733   2.038   4.662 -0.4857  0.7285  0.2936
 8375SOL    HW136758   1.640   2.037   4.642 -0.5806 -2.5839  0.8545
 8375SOL    HW236759   1.738   2.050   4.757 -1.0735  2.5871  0.0791
 8376SOL     OW36760   2.671   2.800   6.811  0.2239  0.0828 -0.1039
 8376SOL    HW136761   2.577   2.799   6.828  0.3567  0.4074  0.6303
 8376SOL    HW236762   2.705   2.783   6.899 -0.2205  0.7374  0.1931
 8377SOL     OW36763   1.644   4.032   2.169  0.1678 -0.1830 -0.0514
 8377SOL    HW136764   1.588   3.967   2.213 -1.5033  2.0066  1.0292
 8377SOL    HW236765   1.694   3.966   2.119 -0.4803 -0.3940 -0.4204
 8378SOL     OW36766   4.569   0.467   8.282 -0.2347  0.2517 -0.0032
 8378SOL    HW136767   4.586   0.397   8.344  0.6134 -1.4285 -2.1134
 8378SOL    HW236768   4.551   0.538   8.343 -0.2459  0.7293 -0.5535
 8379SOL     OW36769   1.796   3.193   0.249 -0.3692 -0.7952  0.2103
 8379SOL    HW136770   1.735   3.220   0.181  0.4579  3.3159  1.1283
 8379SOL    HW236771   1.804   3.270   0.304  0.8051 -1.2417  0.6853
 8380SOL     OW36772   0.790   3.069   7.001  0.2673 -0.6499 -0.6648
 8380SOL    HW136773   0.717   3.070   6.939  1.3359  1.0057 -1.8887
 8380SOL    HW236774   0.825   3.156   6.985 -1.5194  0.4860  1.6531
 8381SOL     OW36775   2.649   4.070   8.025  0.5075  0.0383  0.1948
 8381SOL    HW136776   2.634   4.081   7.931 -1.2842 -0.5900  0.3984
 8381SOL    HW236777   2.567   4.023   8.041  0.0464  0.7876  0.0065
 8382SOL     OW36778   0.613   1.251   3.315 -0.1033  0.5618 -0.0676
 8382SOL    HW136779   0.537   1.196   3.297 -0.2410  1.0621 -1.0203
 8382SOL    HW236780   0.656   1.237   3.230 -0.1750 -1.1768  0.1905
 8383SOL     OW36781   4.458   2.016   3.571 -0.0270 -0.5439  0.0523
 8383SOL    HW136782   4.406   1.936   3.562  1.6603 -1.4014 -2.1075
 8383SOL    HW236783   4.404   2.080   3.524  0.9830  0.6994  0.5866
 8384SOL     OW36784   3.577   2.751   1.025 -0.6193 -0.2049 -0.0288
 8384SOL    HW136785   3.647   2.720   0.968 -0.9939 -0.7817 -0.1799
 8384SOL    HW236786   3.502   2.742   0.966  0.5066 -0.8390 -1.3610
 8385SOL     OW36787   1.779   3.688  10.447 -0.2176  0.1296 -0.1399
 8385SOL    HW136788   1.739   3.601  10.447  0.6648 -0.2750 -0.0629
 8385SOL    HW236789   1.763   3.724  10.534 -0.6650  0.0810 -0.1992
 8386SOL     OW36790   1.403   2.867   5.087  0.3869 -0.4967 -0.4283
 8386SOL    HW136791   1.372   2.789   5.133  1.2715 -1.5440 -1.6113
 8386SOL    HW236792   1.387   2.942   5.145 -3.3666 -0.6358 -1.2347
 8387SOL     OW36793   0.911   4.142  13.965 -0.5949 -0.4776  0.3277
 8387SOL    HW136794   0.837   4.097  14.006 -2.1090  0.0987 -1.7910
 8387SOL    HW236795   0.977   4.073  13.977 -1.7885 -1.2043  2.7835
 8388SOL     OW36796   0.140   2.370  11.780 -0.4701  0.1132  0.6924
 8388SOL    HW136797   0.230   2.340  11.794 -0.1622  1.7663  2.2459
 8388SOL    HW236798   0.109   2.284  11.754 -0.7991  0.8961 -1.5556
 8389SOL     OW36799   0.574   0.178   3.124  0.6591  0.1580 -0.4634
 8389SOL    HW136800   0.511   0.106   3.117  1.8046 -0.9658  0.7631
 8389SOL    HW236801   0.580   0.175   3.220  2.1024 -1.6620 -0.6000
 8390SOL     OW36802   3.511   3.542   1.902  0.0003  0.1197 -0.2568
 8390SOL    HW136803   3.530   3.609   1.967  2.2557 -1.4188  0.6663
 8390SOL    HW236804   3.492   3.585   1.818 -2.2898  1.8055  1.1335
 8391SOL     OW36805   4.353   2.281   9.101  0.2709  0.3656  0.3306
 8391SOL    HW136806   4.338   2.203   9.047  1.8494 -0.1653  0.6529
 8391SOL    HW236807   4.449   2.290   9.105  0.3097  1.0429 -2.1667
 8392SOL     OW36808   1.523   1.967   7.685 -0.1794 -0.1416 -0.0743
 8392SOL    HW136809   1.565   1.992   7.602 -1.7757  1.6659 -0.3328
 8392SOL    HW236810   1.463   2.042   7.688  2.1676  1.7614 -0.4328
 8393SOL     OW36811   4.264   4.320   2.083 -0.1444  0.3614  0.0456
 8393SOL    HW136812   4.233   4.239   2.043  0.9390 -0.9868  1.9646
 8393SOL    HW236813   4.202   4.389   2.060  1.4902  1.6901 -0.3986
 8394SOL     OW36814   2.097   2.873  13.148 -0.0115  0.0764 -0.1067
 8394SOL    HW136815   2.112   2.911  13.234  1.5963 -0.3568 -0.1933
 8394SOL    HW236816   2.179   2.885  13.100  0.8318  1.1015  1.6110
 8395SOL     OW36817   2.943   1.316   1.727 -0.0730 -0.0889  0.1935
 8395SOL    HW136818   2.887   1.245   1.756 -0.7826  1.2446  2.0811
 8395SOL    HW236819   3.022   1.263   1.716 -1.2333 -1.9339  0.9491
 8396SOL     OW36820   3.090   0.454   8.029  0.6009 -0.2589  0.0400
 8396SOL    HW136821   2.997   0.439   8.046  0.4544  0.8458  0.1943
 8396SOL    HW236822   3.103   0.548   8.040  3.5805 -0.6824  0.3023
 8397SOL     OW36823   4.142   0.856   6.531  0.4767  0.0168 -0.3881
 8397SOL    HW136824   4.128   0.944   6.497 -1.0399 -1.3158 -3.2688
 8397SOL    HW236825   4.054   0.837   6.566  0.9574  0.2455  0.9311
 8398SOL     OW36826   1.826   0.849   9.039 -0.4259 -0.7333 -0.4797
 8398SOL    HW136827   1.749   0.892   9.078 -0.7739 -2.6747  0.9387
 8398SOL    HW236828   1.880   0.820   9.112 -1.1599  0.5348  0.5767
 8399SOL     OW36829   2.217   4.194   9.115  0.2751 -0.2220 -0.5079
 8399SOL    HW136830   2.290   4.134   9.099  1.8035  1.4018  0.3377
 8399SOL    HW236831   2.269   4.274   9.121  0.7712 -0.6749  1.5516
 8400SOL     OW36832   1.189   3.842   9.172 -0.4009  0.3953  0.5421
 8400SOL    HW136833   1.231   3.862   9.256 -1.1988  1.4045  0.7002
 8400SOL    HW236834   1.258   3.880   9.118  0.7383 -1.7792  0.4855
 8401SOL     OW36835   1.936   3.057   6.400 -0.0705  0.0551  0.1831
 8401SOL    HW136836   1.900   2.979   6.357  1.2209  0.4703 -1.6719
 8401SOL    HW236837   1.869   3.120   6.375  0.4122  0.8632  0.9307
 8402SOL     OW36838   2.045   3.166   3.405 -0.1736 -0.1979 -0.9796
 8402SOL    HW136839   2.124   3.179   3.352  1.3079  0.6984  1.4235
 8402SOL    HW236840   2.003   3.251   3.396  3.9253  2.0776  1.4778
 8403SOL     OW36841   3.938   3.660   3.793 -0.5314  0.0797  0.2544
 8403SOL    HW136842   3.849   3.638   3.763 -0.5979 -0.4547  0.8490
 8403SOL    HW236843   3.986   3.611   3.726 -0.4350 -0.2505  0.5678
 8404SOL     OW36844   1.659   1.033   9.826  0.6473  0.8581 -0.4462
 8404SOL    HW136845   1.658   1.042   9.731  1.0514  0.0995 -0.5234
 8404SOL    HW236846   1.693   0.944   9.833 -0.3077  0.5038 -0.2575
 8405SOL     OW36847   1.989   0.593   3.744  0.1630  0.1212  0.2008
 8405SOL    HW136848   2.011   0.645   3.666 -0.2444  1.8429  1.2548
 8405SOL    HW236849   1.970   0.667   3.801  1.9935  1.3937 -0.8257
 8406SOL     OW36850   0.374   0.791   4.054  0.1727 -0.0699 -0.6047
 8406SOL    HW136851   0.331   0.724   4.108 -1.1412  0.7414 -0.6395
 8406SOL    HW236852   0.399   0.734   3.982  0.5138 -1.4530  0.6107
 8407SOL     OW36853   3.541   4.697   2.398 -0.0627 -0.1320 -0.2678
 8407SOL    HW136854   3.509   4.609   2.416  0.1755 -0.1672 -0.0151
 8407SOL    HW236855   3.481   4.714   2.326  0.8463  0.7956 -0.8049
 8408SOL     OW36856   1.054   2.284   6.003 -0.8372  0.6857  0.2026
 8408SOL    HW136857   1.088   2.348   6.065 -0.5100 -0.3160  1.0639
 8408SOL    HW236858   1.095   2.199   6.016 -1.1587  0.5585  0.3813
 8409SOL     OW36859   4.062   1.124   5.323 -0.7870  0.0518  0.2626
 8409SOL    HW136860   4.062   1.211   5.284 -1.9389  0.4908  1.2234
 8409SOL    HW236861   4.059   1.160   5.412  2.8774 -4.2151  2.0825
 8410SOL     OW36862   1.721   0.671   5.625  0.5150  0.2414 -0.5939
 8410SOL    HW136863   1.725   0.682   5.530 -0.6199 -0.0025 -0.6700
 8410SOL    HW236864   1.628   0.686   5.637  0.2650 -0.2369 -1.9616
 8411SOL     OW36865   1.030   2.395   5.475  0.6219  0.0871 -0.7328
 8411SOL    HW136866   0.998   2.318   5.427 -0.3418 -0.1391  0.2690
 8411SOL    HW236867   0.995   2.465   5.419 -1.0144 -0.4824 -0.4266
 8412SOL     OW36868   0.982   4.520   6.266  0.1538 -0.0779  0.5725
 8412SOL    HW136869   0.932   4.555   6.339  0.0482  2.3829 -0.6840
 8412SOL    HW236870   0.927   4.445   6.242 -0.6034  1.6856 -3.0865
 8413SOL     OW36871   2.800   4.094   1.677  0.4810  0.1041 -0.4978
 8413SOL    HW136872   2.830   4.008   1.645  1.9818 -0.1126  1.5031
 8413SOL    HW236873   2.845   4.105   1.761 -0.5227  1.1376 -0.1050
 8414SOL     OW36874   0.800   1.899  15.781 -0.1800  0.0806  0.1453
 8414SOL    HW136875   0.788   1.805  15.771 -0.0696 -0.0737  1.4719
 8414SOL    HW236876   0.780   1.924  15.690  0.0379 -1.0535 -0.2122
 8415SOL     OW36877   0.109   0.251   4.117  0.8413 -0.1466 -0.2678
 8415SOL    HW136878   0.049   0.220   4.050  1.5180 -0.0749 -0.9068
 8415SOL    HW236879   0.038   0.266   4.180  0.7767  0.8003 -0.5762
 8416SOL     OW36880   3.683   3.020  17.084 -0.5673  0.1304  0.5764
 8416SOL    HW136881   3.685   2.936  17.039 -0.9863 -0.0656  0.9168
 8416SOL    HW236882   3.687   3.085  17.015  0.8191  0.6798  1.1744
 8417SOL     OW36883   2.322   4.719   5.712  0.0686 -0.1315  0.3096
 8417SOL    HW136884   2.318   4.723   5.808  0.2670 -0.5206  0.3348
 8417SOL    HW236885   2.244   0.027   5.683  2.1305  0.5578 -4.0308
 8418SOL     OW36886   2.848   0.271   4.921 -0.3340 -0.7430 -0.1304
 8418SOL    HW136887   2.782   0.202   4.922 -1.2290  0.1016  0.5385
 8418SOL    HW236888   2.912   0.231   4.980  2.5298  1.2672 -1.8659
 8419SOL     OW36889   0.575   4.129   6.576 -0.6456 -0.2458 -0.3851
 8419SOL    HW136890   0.507   4.175   6.625 -0.2703  0.1404 -0.2281
 8419SOL    HW236891   0.649   4.126   6.636  0.3128 -3.1457 -1.7152
 8420SOL     OW36892   4.158   1.085   4.670  0.3850 -0.5773  0.1477
 8420SOL    HW136893   4.087   1.126   4.719  0.7261  0.5319 -0.2720
 8420SOL    HW236894   4.225   1.150   4.649  1.7711 -2.3288 -0.8545
 8421SOL     OW36895   1.664   2.791   7.913 -0.1931 -0.3070 -0.7222
 8421SOL    HW136896   1.628   2.866   7.867  1.4024 -0.3428 -2.0470
 8421SOL    HW236897   1.589   2.765   7.967 -1.2312  0.1377 -1.9679
 8422SOL     OW36898   1.847   2.598   0.127  0.2442 -0.4618  0.1074
 8422SOL    HW136899   1.818   2.541   0.056 -0.9620 -0.1929  0.3857
 8422SOL    HW236900   1.929   2.550   0.141  0.9086  0.7089  0.2428
 8423SOL     OW36901   0.211   3.559  15.901  0.2250 -0.1834 -0.0854
 8423SOL    HW136902   0.239   3.605  15.822  2.4663 -0.1616  0.7326
 8423SOL    HW236903   0.161   3.488  15.861  0.4300  0.5314 -1.6071
 8424SOL     OW36904   3.927   2.254  17.229  0.0398 -0.4282 -0.2578
 8424SOL    HW136905   3.857   2.189  17.225 -1.0476  0.8148 -1.3821
 8424SOL    HW236906   3.968   2.241  17.144 -0.8369 -0.5126 -0.6641
 8425SOL     OW36907   4.707   3.057  15.070  0.2037  0.0501 -0.1059
 8425SOL    HW136908   4.728   3.139  15.115  2.5222 -1.8065  2.1564
 8425SOL    HW236909   4.699   3.003  15.148 -0.3190 -0.4784 -0.5266
 8426SOL     OW36910   2.452   2.783   5.309  0.8553 -0.2136 -0.3225
 8426SOL    HW136911   2.379   2.778   5.247 -0.4270  2.9842  0.8847
 8426SOL    HW236912   2.491   2.697   5.323 -0.5587 -0.8461 -0.2883
 8427SOL     OW36913   4.725   0.858  11.213 -0.5169 -0.0039  0.3646
 8427SOL    HW136914   0.010   0.950  11.218 -0.9995  0.2282 -1.5381
 8427SOL    HW236915   0.021   0.834  11.128 -0.1899  1.6496  0.0448
 8428SOL     OW36916   1.797   4.020  17.429  0.4815 -0.3791 -0.7770
 8428SOL    HW136917   1.815   3.967  17.506 -2.5481 -0.4403 -0.1085
 8428SOL    HW236918   1.744   3.961  17.375 -0.2938 -1.2789  0.9757
 8429SOL     OW36919   1.076   1.768   7.197  0.3850 -0.0594 -0.2501
 8429SOL    HW136920   1.103   1.859   7.190 -0.1443  0.3510  2.9030
 8429SOL    HW236921   1.059   1.742   7.107 -0.6934  0.9450 -0.3345
 8430SOL     OW36922   1.658   1.828   1.808  0.1360 -0.0564  0.4204
 8430SOL    HW136923   1.680   1.776   1.885 -0.6189 -1.1175 -0.0828
 8430SOL    HW236924   1.563   1.836   1.816 -0.1307 -1.8713 -1.0837
 8431SOL     OW36925   0.721   1.464   4.394  0.2009  0.4510 -0.0001
 8431SOL    HW136926   0.747   1.519   4.467  0.9267  0.1015  0.0040
 8431SOL    HW236927   0.665   1.525   4.345  1.9687  2.4291  0.4698
 8432SOL     OW36928   3.679   0.268   7.591 -0.4411 -0.6535  0.0819
 8432SOL    HW136929   3.756   0.319   7.567  0.5865 -0.3046  4.0148
 8432SOL    HW236930   3.675   0.292   7.684  0.5542 -0.0076 -0.0398
 8433SOL     OW36931   0.083   1.825   6.547  0.0318 -0.0505  0.4123
 8433SOL    HW136932   0.075   1.914   6.513  1.0330 -0.1465 -0.0494
 8433SOL    HW236933   0.104   1.839   6.639  3.4943  0.4214 -0.4812
 8434SOL     OW36934   3.435   0.811  12.315 -0.4083 -0.1658  0.6596
 8434SOL    HW136935   3.441   0.893  12.268  2.0658 -0.5626  0.2912
 8434SOL    HW236936   3.509   0.805  12.376 -1.9415  0.5136  2.5901
 8435SOL     OW36937   1.309   0.774   4.198  0.2845 -0.0960  0.7759
 8435SOL    HW136938   1.244   0.806   4.135 -2.4072  1.4611  4.3530
 8435SOL    HW236939   1.351   0.701   4.153 -1.7547 -0.7708 -0.0561
 8436SOL     OW36940   1.587   4.003   6.545 -0.0361  0.2427  0.3464
 8436SOL    HW136941   1.644   4.075   6.571 -0.0078  0.1213  0.6213
 8436SOL    HW236942   1.523   3.993   6.616 -0.9155 -0.8775 -0.5891
 8437SOL     OW36943   2.575   1.203   7.718  0.0209 -0.0606  0.2539
 8437SOL    HW136944   2.669   1.191   7.732 -0.1525  0.7196  2.1038
 8437SOL    HW236945   2.541   1.176   7.803  2.0995 -0.0902  1.0552
 8438SOL     OW36946   1.782   2.423   6.161  0.1045  0.2695 -0.4159
 8438SOL    HW136947   1.742   2.510   6.163 -0.4031  0.0169  0.5562
 8438SOL    HW236948   1.840   2.435   6.237 -1.4082  0.6989  0.6847
 8439SOL     OW36949   1.772   0.196   9.497  0.4020  0.3366 -0.4694
 8439SOL    HW136950   1.818   0.265   9.449 -1.8374  1.7815 -0.5399
 8439SOL    HW236951   1.713   0.156   9.434 -0.8018  0.8752  0.3135
 8440SOL     OW36952   2.978   0.709  12.889 -0.1884  0.5763 -0.5169
 8440SOL    HW136953   3.025   0.785  12.922  0.2266 -0.0182  0.2693
 8440SOL    HW236954   3.012   0.690  12.802  2.2254  1.1284  0.3282
 8441SOL     OW36955   0.797   1.258  12.535 -0.3194 -0.0750 -0.1012
 8441SOL    HW136956   0.744   1.337  12.521 -3.0711 -1.7704  0.7281
 8441SOL    HW236957   0.742   1.202  12.590 -0.9664 -0.6097 -1.2917
 8442SOL     OW36958   4.089   4.152   9.594 -0.4984  0.3096 -0.3417
 8442SOL    HW136959   4.022   4.201   9.640 -0.1306 -0.0347  0.5606
 8442SOL    HW236960   4.068   4.060   9.609  1.0661 -0.0392 -0.2298
 8443SOL     OW36961   3.218   4.464   8.970  0.3318  0.3228  0.2438
 8443SOL    HW136962   3.260   4.380   8.987  0.2545  0.1249 -0.5524
 8443SOL    HW236963   3.220   4.499   9.059  2.7931 -0.4365  0.4927
 8444SOL     OW36964   4.474   1.340  17.092  0.4040  0.5022  0.5421
 8444SOL    HW136965   4.466   1.432  17.064 -0.3544  1.3955  3.5877
 8444SOL    HW236966   4.391   1.314  17.051  1.4866  0.9058 -1.9020
 8445SOL     OW36967   1.171   1.779   3.708 -0.4219  0.4652 -0.3392
 8445SOL    HW136968   1.261   1.807   3.694 -0.6969  2.1500  1.2744
 8445SOL    HW236969   1.181   1.776   3.803  1.2528  2.5938 -0.4540
 8446SOL     OW36970   0.059   2.798   8.017  0.2918 -0.1471  0.0147
 8446SOL    HW136971   0.034   2.708   8.039 -1.5975 -0.0789 -1.7579
 8446SOL    HW236972   0.100   2.814   8.101 -0.5643  0.8015  0.2534
 8447SOL     OW36973   2.658   2.134   4.231  0.0032 -0.2713  0.2156
 8447SOL    HW136974   2.684   2.207   4.174  0.5509 -0.0912  0.6875
 8447SOL    HW236975   2.569   2.160   4.255 -0.7377 -1.0308 -1.7713
 8448SOL     OW36976   1.747   2.919  15.001 -0.2052 -0.2805  0.5193
 8448SOL    HW136977   1.767   2.833  14.963  1.5456 -0.3173  1.5438
 8448SOL    HW236978   1.827   2.946  15.046 -0.2354 -1.6749  1.4097
 8449SOL     OW36979   2.569   0.912   4.471  0.0292  0.2128 -0.2355
 8449SOL    HW136980   2.648   0.933   4.421  0.1297 -1.7488 -0.8941
 8449SOL    HW236981   2.613   0.887   4.552 -0.2421  2.6359  0.6748
 8450SOL     OW36982   0.576   3.441   5.264  0.2662  0.3068  0.3711
 8450SOL    HW136983   0.608   3.377   5.327  0.3052  0.1985  0.2426
 8450SOL    HW236984   0.591   3.523   5.311  1.1137  1.9948 -2.8292
 8451SOL     OW36985   3.661   3.320   9.591  0.4866 -0.3601 -0.5440
 8451SOL    HW136986   3.725   3.269   9.640 -2.8212 -0.6475  3.4601
 8451SOL    HW236987   3.618   3.256   9.534 -0.7343 -1.1965  1.3079
 8452SOL     OW36988   0.246   1.622   2.983  0.4351 -0.4957  0.1391
 8452SOL    HW136989   0.207   1.543   2.946  1.4795 -0.3136 -1.3431
 8452SOL    HW236990   0.276   1.579   3.063 -0.2566 -2.3082 -0.5709
 8453SOL     OW36991   3.742   4.603  17.346  0.5788 -0.1957  0.0022
 8453SOL    HW136992   3.775   4.693  17.345  0.5351 -0.1807 -0.0733
 8453SOL    HW236993   3.801   4.553  17.289 -1.8521 -1.2614 -1.5806
 8454SOL     OW36994   0.352   0.968  10.743 -0.2647  0.1368 -0.7927
 8454SOL    HW136995   0.431   1.022  10.752  0.1479 -0.7959  1.1129
 8454SOL    HW236996   0.321   0.973  10.833 -1.2466 -0.0332 -1.1233
 8455SOL     OW36997   3.365   3.461  11.584 -0.5406 -0.1234  0.0516
 8455SOL    HW136998   3.426   3.404  11.631 -0.5979  0.2042  0.5148
 8455SOL    HW236999   3.419   3.537  11.562  0.1855 -0.6337  0.0770
 8456SOL     OW37000   1.167   2.290   6.845  0.2368  0.5146 -0.1252
 8456SOL    HW137001   1.098   2.324   6.788  0.4188  0.8721 -0.1316
 8456SOL    HW237002   1.167   2.201   6.809 -0.3727  0.8723 -1.0048
 8457SOL     OW37003   0.797   1.026   4.817 -0.0663 -0.1173 -0.1997
 8457SOL    HW137004   0.730   1.050   4.753 -0.1385 -0.5900 -0.3022
 8457SOL    HW237005   0.877   1.057   4.774  0.9088 -0.2022  1.5588
 8458SOL     OW37006   2.731   2.335   5.031  0.1556 -0.2761  0.2569
 8458SOL    HW137007   2.766   2.402   5.091 -0.4629 -2.0049  2.5323
 8458SOL    HW237008   2.803   2.328   4.968 -0.5465 -1.9454 -0.3466
 8459SOL     OW37009   3.145   4.202   7.743  0.2706  0.5037  0.0606
 8459SOL    HW137010   3.164   4.296   7.742 -5.6073  1.7425  1.8135
 8459SOL    HW237011   3.056   4.216   7.711  0.8676  1.8653 -1.0031
 8460SOL     OW37012   0.730   4.535  16.889 -0.1439  1.3889  0.3008
 8460SOL    HW137013   0.775   4.613  16.924 -0.4873  0.8093  2.0292
 8460SOL    HW237014   0.731   4.566  16.798  2.3752  0.9489  0.1602
 8461SOL     OW37015   1.145   2.435   6.265 -0.2241 -0.1061 -0.3397
 8461SOL    HW137016   1.233   2.436   6.228 -0.4851  3.9283 -0.9622
 8461SOL    HW237017   1.130   2.528   6.285 -0.2829 -0.2544  0.3028
 8462SOL     OW37018   1.532   3.916   4.340  0.0587  0.3203 -0.2160
 8462SOL    HW137019   1.611   3.879   4.379 -1.3383 -2.3045  0.1490
 8462SOL    HW237020   1.485   3.955   4.414  1.7596 -0.4385  1.2704
 8463SOL     OW37021   3.745   4.066   9.326 -0.5573  0.2995 -0.3458
 8463SOL    HW137022   3.723   4.094   9.237  2.3877  0.1289 -1.1245
 8463SOL    HW237023   3.684   3.994   9.342  0.6081 -0.2970  1.2844
 8464SOL     OW37024   1.506   3.752  16.352  0.0986 -0.4996 -0.0093
 8464SOL    HW137025   1.439   3.704  16.402 -1.2429  0.2828 -1.0496
 8464SOL    HW237026   1.491   3.843  16.375 -0.5189 -0.3254 -1.1039
 8465SOL     OW37027   3.843   2.759   4.625 -0.3646 -0.1557 -0.2512
 8465SOL    HW137028   3.776   2.731   4.687  0.4570  0.3430  0.8595
 8465SOL    HW237029   3.808   2.842   4.594 -2.2725 -0.6942  0.4342
 8466SOL     OW37030   2.530   1.790   0.423  0.5781 -0.3908 -0.2635
 8466SOL    HW137031   2.582   1.783   0.504  0.8184  2.0759 -0.1842
 8466SOL    HW237032   2.561   1.877   0.398  0.5938 -0.3141  0.0208
 8467SOL     OW37033   1.732   3.893   3.182  0.1262  0.4802  0.9389
 8467SOL    HW137034   1.708   3.804   3.210  0.5414 -0.3641 -1.4472
 8467SOL    HW237035   1.826   3.891   3.199 -0.0918  0.4866  2.1500
 8468SOL     OW37036   1.147   2.262   4.856 -0.4203 -0.6045 -0.2383
 8468SOL    HW137037   1.169   2.333   4.796 -0.4402  1.0116  1.6629
 8468SOL    HW237038   1.194   2.285   4.937 -1.0857  2.5330 -0.7455
 8469SOL     OW37039   4.246   2.545  14.959 -0.0271 -0.0384  0.1038
 8469SOL    HW137040   4.249   2.631  14.916 -1.0283  0.2553  0.6015
 8469SOL    HW237041   4.332   2.531  14.998 -0.3076 -0.8072  0.4399
 8470SOL     OW37042   2.117   3.600   6.755  0.8429 -0.6418 -0.3837
 8470SOL    HW137043   2.172   3.660   6.703  2.8187 -0.7409  1.5940
 8470SOL    HW237044   2.072   3.664   6.811 -0.0758 -0.2969 -1.5191
 8471SOL     OW37045   3.335   4.522   2.753 -0.2173 -0.1759  0.6389
 8471SOL    HW137046   3.330   4.430   2.780  1.6316 -0.4798 -0.0752
 8471SOL    HW237047   3.268   4.526   2.684 -0.8984 -1.8191  1.1944
 8472SOL     OW37048   2.343   0.369   2.088 -0.0253  0.3474 -0.0493
 8472SOL    HW137049   2.434   0.397   2.097  0.4093 -1.9146  2.7431
 8472SOL    HW237050   2.296   0.443   2.126 -0.7605 -0.1063 -0.0672
 8473SOL     OW37051   3.677   2.777   5.328 -0.2076  0.3687  0.4623
 8473SOL    HW137052   3.703   2.807   5.241 -3.0765  2.3672  0.2936
 8473SOL    HW237053   3.763   2.775   5.369 -1.6787 -1.3320  3.4463
 8474SOL     OW37054   4.585   1.067   9.019  0.2056  0.4025  0.1558
 8474SOL    HW137055   4.599   1.148   8.971  1.6614  1.1984  1.9249
 8474SOL    HW237056   4.672   1.027   9.013 -0.6204 -1.4007  0.1184
 8475SOL     OW37057   3.337   3.288   4.166  0.1696  0.1695  0.3370
 8475SOL    HW137058   3.307   3.287   4.257 -1.0656 -0.4380 -0.0807
 8475SOL    HW237059   3.254   3.320   4.132  0.0354 -1.4920 -0.8954
 8476SOL     OW37060   0.375   4.447   3.873 -0.8964  0.2776 -0.2775
 8476SOL    HW137061   0.392   4.530   3.829 -1.1748  1.1433  1.2640
 8476SOL    HW237062   0.305   4.465   3.935  0.6834 -1.1413  1.9384
 8477SOL     OW37063   3.005   0.804   6.381  0.3334  0.3183 -0.2184
 8477SOL    HW137064   2.947   0.768   6.448 -0.8530  0.9548 -0.9029
 8477SOL    HW237065   2.940   0.827   6.314 -1.3345 -3.1751  0.1815
 8478SOL     OW37066   3.258   4.115  15.591  0.0916 -0.1397  0.1233
 8478SOL    HW137067   3.232   4.193  15.543  0.0100  0.4729  1.1611
 8478SOL    HW237068   3.174   4.091  15.632  0.2042  1.2989  1.1745
 8479SOL     OW37069   2.025   3.742  14.474  0.0377  0.4298  0.1087
 8479SOL    HW137070   2.097   3.701  14.521  0.7524  2.0417  0.4307
 8479SOL    HW237071   1.992   3.680  14.409  2.4239 -1.2274  0.5231
 8480SOL     OW37072   2.290   3.941   3.374 -0.4595  0.0320  0.2906
 8480SOL    HW137073   2.305   3.966   3.283  0.8695  1.5200  0.9045
 8480SOL    HW237074   2.367   3.975   3.420 -1.3861  3.4483 -0.6449
 8481SOL     OW37075   0.867   3.842   5.563 -0.3021 -0.0874 -0.2921
 8481SOL    HW137076   0.941   3.793   5.597 -0.7847 -2.4612 -2.7180
 8481SOL    HW237077   0.895   3.932   5.582 -4.1293  0.7234  1.7268
 8482SOL     OW37078   1.517   0.820   3.925  0.0771 -0.1796  0.2699
 8482SOL    HW137079   1.582   0.750   3.932  0.2263 -0.0615  0.1018
 8482SOL    HW237080   1.482   0.801   3.838 -3.9967 -0.8640  2.0755
 8483SOL     OW37081   2.958   2.817   8.443 -0.4137  0.1831  0.1388
 8483SOL    HW137082   2.945   2.891   8.385 -0.4240 -0.6192 -0.8742
 8483SOL    HW237083   2.976   2.747   8.380  0.3366  0.0686  0.4678
 8484SOL     OW37084   1.885   1.187   3.782  0.3988  0.0714  0.4371
 8484SOL    HW137085   1.855   1.183   3.872  1.8510  0.2544  0.9317
 8484SOL    HW237086   1.979   1.204   3.794  0.5438  0.7879 -1.6628
 8485SOL     OW37087   0.224   0.764   2.601  0.1250  0.0191 -0.2801
 8485SOL    HW137088   0.286   0.690   2.596  0.5835  0.3429  0.5474
 8485SOL    HW237089   0.284   0.831   2.569  0.4639  0.6798  1.7249
 8486SOL     OW37090   4.435   2.034   9.274 -0.0239 -0.9262  0.6455
 8486SOL    HW137091   4.392   2.075   9.349  0.3563  1.1367 -0.2829
 8486SOL    HW237092   4.432   2.109   9.215  0.4704 -0.1420  1.6177
 8487SOL     OW37093   2.162   0.383   4.947 -0.2465  0.2242 -0.2484
 8487SOL    HW137094   2.104   0.459   4.956  2.2287  2.2117 -0.9182
 8487SOL    HW237095   2.109   0.327   4.890 -1.5555  0.2489  0.9486
 8488SOL     OW37096   2.636   4.114  10.584  0.5498 -0.0378 -0.5535
 8488SOL    HW137097   2.666   4.182  10.645 -0.7800 -1.1356  1.3360
 8488SOL    HW237098   2.666   4.033  10.626  3.7601  1.2839 -0.2979
 8489SOL     OW37099   4.721   0.350   9.578 -0.1666 -0.7632 -0.3665
 8489SOL    HW137100   0.049   0.351   9.510  0.1226  0.9735 -0.0593
 8489SOL    HW237101   4.705   0.444   9.582  2.3026 -0.3950  1.1013
 8490SOL     OW37102   1.558   2.985  13.592 -0.5757 -0.5326 -0.4330
 8490SOL    HW137103   1.505   2.908  13.612 -2.0857  1.4291  3.0392
 8490SOL    HW237104   1.645   2.954  13.617 -1.2146 -1.3817  0.7312
 8491SOL     OW37105   0.724   0.960   2.098  0.6968 -0.2731 -0.2717
 8491SOL    HW137106   0.756   0.972   2.008  0.3086 -0.1226 -0.3920
 8491SOL    HW237107   0.635   0.992   2.085  0.6701 -1.6184 -3.3669
 8492SOL     OW37108   2.421   3.710   1.975 -0.0015  0.7585  0.2439
 8492SOL    HW137109   2.484   3.773   1.942  0.1094  0.2191 -0.5635
 8492SOL    HW237110   2.420   3.708   2.071 -0.9149  2.5452  0.2756
 8493SOL     OW37111   3.702   0.663   7.961 -0.6177 -0.1660  0.4615
 8493SOL    HW137112   3.615   0.623   7.953 -0.0188 -1.0593 -1.6368
 8493SOL    HW237113   3.713   0.673   8.055 -0.8834 -0.5890  0.5380
 8494SOL     OW37114   0.515   3.640   8.050  0.4531  0.1896 -0.1331
 8494SOL    HW137115   0.485   3.670   7.964  0.4358  0.7662  0.0700
 8494SOL    HW237116   0.525   3.728   8.088 -0.0387  0.1124  0.1686
 8495SOL     OW37117   4.270   3.057   6.650 -0.1140 -0.4465 -0.1996
 8495SOL    HW137118   4.301   3.128   6.706 -0.5424  1.3597 -2.2505
 8495SOL    HW237119   4.306   2.986   6.703  0.3443 -0.2709 -0.2826
 8496SOL     OW37120   1.616   3.816   8.796 -0.5014 -0.5917 -0.2617
 8496SOL    HW137121   1.683   3.866   8.749 -1.0965 -0.9717 -1.5115
 8496SOL    HW237122   1.629   3.837   8.889 -2.0724  2.0007 -0.6259
 8497SOL     OW37123   3.456   1.394   8.585  0.4140 -1.1628 -0.2438
 8497SOL    HW137124   3.508   1.371   8.508  1.8896  3.5734 -0.6810
 8497SOL    HW237125   3.405   1.468   8.553  1.3019 -0.6143 -0.3744
 8498SOL     OW37126   1.240   2.132   9.130  0.2893 -0.1731  0.4046
 8498SOL    HW137127   1.265   2.068   9.197  0.6015  0.5259  0.9628
 8498SOL    HW237128   1.323   2.133   9.081 -0.3320  1.3837 -0.6173
 8499SOL     OW37129   1.395   3.703  15.635  0.0099  0.3567  0.5111
 8499SOL    HW137130   1.397   3.703  15.731  0.5824  0.5252  0.5017
 8499SOL    HW237131   1.313   3.664  15.606 -0.0147 -0.8232  2.1854
 8500SOL     OW37132   2.286   4.260  13.344 -0.6963  0.0838  0.0357
 8500SOL    HW137133   2.210   4.203  13.355 -1.6190  1.4803  0.8104
 8500SOL    HW237134   2.238   4.340  13.326 -0.6267  0.3426  1.0273
 8501SOL     OW37135   3.949   4.318   6.739  0.1607 -0.1966 -0.1772
 8501SOL    HW137136   3.903   4.328   6.822  0.6393 -3.6409  0.4872
 8501SOL    HW237137   4.037   4.285   6.757  0.0291  1.0438  2.6613
 8502SOL     OW37138   4.015   4.140   0.450 -0.0775  0.4944  0.0094
 8502SOL    HW137139   3.996   4.114   0.541 -2.2288  0.7591 -0.3639
 8502SOL    HW237140   3.989   4.232   0.453 -2.3841 -0.1046 -1.4166
 8503SOL     OW37141   2.376   3.596  11.897 -0.2373 -0.1183 -0.1000
 8503SOL    HW137142   2.317   3.669  11.912 -0.3152 -0.2331  0.1607
 8503SOL    HW237143   2.321   3.523  11.869 -1.5173  1.3304 -1.3245
 8504SOL     OW37144   4.076   3.742   7.853 -0.2228  0.2793  0.7146
 8504SOL    HW137145   4.074   3.694   7.935 -0.6087 -0.9429 -0.0062
 8504SOL    HW237146   4.110   3.826   7.884  2.4043  0.1440 -1.8101
 8505SOL     OW37147   2.010   4.208   8.931  0.1337 -0.4389 -0.6372
 8505SOL    HW137148   2.084   4.188   8.989 -0.6468 -0.7613  0.2513
 8505SOL    HW237149   2.050   4.259   8.861 -0.6667  0.9505 -0.0733
 8506SOL     OW37150   4.493   3.581   8.060 -0.2919  0.3617  0.4303
 8506SOL    HW137151   4.562   3.638   8.027 -0.1925 -0.0428 -0.0582
 8506SOL    HW237152   4.437   3.572   7.982 -0.6673  0.3752  0.6971
 8507SOL     OW37153   3.836   2.547  17.347 -0.1892  0.0055 -0.3965
 8507SOL    HW137154   3.776   2.496  17.402  2.2100 -0.2492  2.0024
 8507SOL    HW237155   3.815   2.524  17.257  1.9273 -1.7123 -0.4411
 8508SOL     OW37156   2.629   0.812   5.052 -0.2700  0.8845  0.1482
 8508SOL    HW137157   2.689   0.760   4.998 -0.5447 -0.5323  1.1782
 8508SOL    HW237158   2.685   0.841   5.125  1.2345  0.6691 -0.9093
 8509SOL     OW37159   0.438   0.768   9.103 -0.1397  0.1043 -0.5147
 8509SOL    HW137160   0.373   0.807   9.044  3.1957 -0.4802 -4.5214
 8509SOL    HW237161   0.513   0.827   9.094  1.8082 -2.0769  1.2477
 8510SOL     OW37162   3.698   0.322   3.561  0.2210 -0.0441  0.0665
 8510SOL    HW137163   3.632   0.332   3.630 -1.0754  1.3325 -1.3540
 8510SOL    HW237164   3.774   0.290   3.609  1.7799 -2.3987 -3.9677
 8511SOL     OW37165   1.340   3.981   3.398 -0.2575  0.3514 -0.4843
 8511SOL    HW137166   1.309   4.046   3.461 -0.4527 -0.1800 -0.0332
 8511SOL    HW237167   1.313   3.895   3.429  1.0249  0.2397  0.3342
 8512SOL     OW37168   1.449   1.753   8.936  0.3424 -0.0907 -0.1349
 8512SOL    HW137169   1.464   1.731   8.844  1.0243 -0.2986  0.0274
 8512SOL    HW237170   1.513   1.824   8.943 -0.4091  0.5938 -0.1832
 8513SOL     OW37171   2.618   3.545   9.471 -0.2527  0.5684  1.2958
 8513SOL    HW137172   2.656   3.622   9.512  1.4418 -0.3361  1.4078
 8513SOL    HW237173   2.672   3.536   9.393 -0.1658  0.7645  1.3337
 8514SOL     OW37174   3.552   0.893   9.279 -0.2312 -0.2160  0.7645
 8514SOL    HW137175   3.456   0.894   9.280 -0.2504 -0.1174 -1.6094
 8514SOL    HW237176   3.565   0.854   9.365 -1.6553 -1.0375  0.6087
 8515SOL     OW37177   3.418   1.244   6.828 -0.6965  0.6007 -0.7603
 8515SOL    HW137178   3.439   1.164   6.781 -1.1434 -0.7317  1.3250
 8515SOL    HW237179   3.326   1.254   6.805 -0.1028 -0.6686 -3.6932
 8516SOL     OW37180   4.420   3.655  15.590  0.3726 -0.4391  0.1952
 8516SOL    HW137181   4.491   3.591  15.595  0.1215 -0.7602 -0.4975
 8516SOL    HW237182   4.372   3.613  15.661 -0.6712 -4.8463 -3.1787
 8517SOL     OW37183   4.255   2.312   6.551 -0.3657 -0.2963  0.3870
 8517SOL    HW137184   4.317   2.329   6.480 -1.5755 -0.5497 -0.7282
 8517SOL    HW237185   4.186   2.379   6.543  0.1114  0.2347  0.7140
 8518SOL     OW37186   2.192   2.882   5.752 -0.5087 -0.3198  0.0748
 8518SOL    HW137187   2.281   2.915   5.743 -0.2257 -1.3005 -0.7873
 8518SOL    HW237188   2.152   2.929   5.825  2.1025  2.8121 -0.4967
 8519SOL     OW37189   3.337   4.257   8.607 -0.6950 -0.1219 -0.3715
 8519SOL    HW137190   3.392   4.274   8.530 -2.4374  0.4073 -1.4872
 8519SOL    HW237191   3.361   4.337   8.655  1.1226 -0.1578 -1.2091
 8520SOL     OW37192   0.697   3.793   1.871 -0.0033 -0.3496  0.1428
 8520SOL    HW137193   0.634   3.795   1.800  2.0753  1.2403 -1.6549
 8520SOL    HW237194   0.647   3.836   1.940 -1.9432 -1.5102 -0.5413
 8521SOL     OW37195   3.651   4.025   3.862 -0.4190  0.1295 -0.7135
 8521SOL    HW137196   3.620   4.105   3.905  0.0831 -0.2525  0.3638
 8521SOL    HW237197   3.657   3.970   3.940  0.0540  0.8408 -0.2476
 8522SOL     OW37198   3.605   0.759   2.346  0.4545 -0.6541 -0.0275
 8522SOL    HW137199   3.591   0.853   2.337  2.3217 -0.6783 -2.8984
 8522SOL    HW237200   3.594   0.745   2.440  2.3534  0.8643  0.3984
 8523SOL     OW37201   0.056   3.760   9.061  0.4643  0.4074 -0.1206
 8523SOL    HW137202   0.010   3.802   8.989 -1.3920 -1.8049 -0.2395
 8523SOL    HW237203   0.133   3.815   9.074 -0.3516  1.4610  0.2446
 8524SOL     OW37204   4.082   1.838   4.711  0.0826 -0.5225  0.2052
 8524SOL    HW137205   4.112   1.899   4.643 -0.3714 -1.3176 -0.7116
 8524SOL    HW237206   3.996   1.879   4.721  0.1260 -0.1491 -0.9507
 8525SOL     OW37207   3.247   1.886  16.317 -0.1757 -0.4469 -0.2099
 8525SOL    HW137208   3.334   1.926  16.318  0.3998 -1.6657 -0.7104
 8525SOL    HW237209   3.189   1.958  16.296  2.1118  1.3200 -0.4253
 8526SOL     OW37210   2.018   0.820   5.840  0.4700 -0.1893 -0.1442
 8526SOL    HW137211   2.026   0.748   5.903  0.9273  1.2256  1.4030
 8526SOL    HW237212   1.927   0.848   5.855  0.0851 -1.9744  0.7894
 8527SOL     OW37213   1.390   0.543   3.811  0.0832  0.0748  0.1394
 8527SOL    HW137214   1.453   0.578   3.749 -1.1913 -0.5185 -1.4955
 8527SOL    HW237215   1.305   0.552   3.766 -0.5148  0.1466  1.2814
 8528SOL     OW37216   1.211   0.361  10.633 -0.1723 -0.2190  0.0105
 8528SOL    HW137217   1.136   0.418  10.650 -0.1704 -0.7749  1.8060
 8528SOL    HW237218   1.165   0.278  10.646 -2.0282  0.5945 -1.1843
 8529SOL     OW37219   1.042   3.934   9.437 -0.3214  0.0360 -0.3285
 8529SOL    HW137220   1.127   3.960   9.400 -0.9874  0.0353 -1.8600
 8529SOL    HW237221   1.063   3.937   9.530  0.3419  0.5975 -0.4971
 8530SOL     OW37222   4.165   1.417   3.729  0.2215 -0.3414 -0.1114
 8530SOL    HW137223   4.242   1.401   3.784  1.6208 -0.5584 -2.1597
 8530SOL    HW237224   4.156   1.328   3.696  2.8627 -0.0760 -1.5787
 8531SOL     OW37225   0.622   0.955   9.093  0.2617  0.0354  0.2912
 8531SOL    HW137226   0.614   1.019   9.163  1.9035 -0.0430  0.5296
 8531SOL    HW237227   0.630   1.012   9.017  1.9682 -1.7146 -0.8451
 8532SOL     OW37228   3.005   1.490   7.602  0.5034  0.8366  0.9021
 8532SOL    HW137229   2.946   1.440   7.546  0.3294 -0.3476  2.1263
 8532SOL    HW237230   3.014   1.426   7.674 -0.5148 -0.5608 -0.2129
 8533SOL     OW37231   4.360   0.678   0.739 -0.4061 -0.2489 -0.3038
 8533SOL    HW137232   4.338   0.618   0.668  0.1742 -1.6981  0.7650
 8533SOL    HW237233   4.274   0.717   0.753 -0.6063 -1.0019  0.5339
 8534SOL     OW37234   1.096   1.741   5.175  0.0735  0.0741 -0.2461
 8534SOL    HW137235   1.081   1.814   5.114  0.6365 -0.5001 -1.0809
 8534SOL    HW237236   1.179   1.707   5.142  0.7625 -0.0082  1.5936
 8535SOL     OW37237   0.108   1.806  12.492  0.5427 -0.4316  0.6535
 8535SOL    HW137238   0.202   1.789  12.494  1.1029  2.5054 -0.6707
 8535SOL    HW237239   0.106   1.901  12.501 -0.4196 -0.1148 -2.7585
 8536SOL     OW37240   4.274   0.493   5.960 -0.1773  0.2439  0.3531
 8536SOL    HW137241   4.181   0.512   5.973 -0.4794 -1.2097  0.2898
 8536SOL    HW237242   4.269   0.414   5.907  1.0036  0.4537 -0.0649
 8537SOL     OW37243   1.473   0.004   7.084  0.1783 -0.0800 -0.1126
 8537SOL    HW137244   1.507   0.069   7.145 -2.2443  0.7257  0.3724
 8537SOL    HW237245   1.499   4.664   7.129 -0.4322  0.4403  1.1723
 8538SOL     OW37246   3.280   0.632   4.682 -0.2852  0.1279  0.5325
 8538SOL    HW137247   3.361   0.676   4.656  0.1180 -1.5319 -1.0202
 8538SOL    HW237248   3.315   0.594   4.762 -0.0303 -1.5070 -0.3677
 8539SOL     OW37249   1.574   0.962   9.149 -0.2858 -0.4327 -0.1648
 8539SOL    HW137250   1.492   0.912   9.146 -1.3664  1.2589  0.8122
 8539SOL    HW237251   1.549   1.028   9.084  1.1169 -0.8715 -1.1457
 8540SOL     OW37252   1.270   1.206   6.605 -0.5286 -0.3208  0.3402
 8540SOL    HW137253   1.329   1.145   6.562 -1.2874 -0.2518 -0.7957
 8540SOL    HW237254   1.200   1.208   6.539  0.1961 -1.2555 -0.4551
 8541SOL     OW37255   3.897   3.683   6.797 -0.8520  0.7215 -0.2720
 8541SOL    HW137256   3.895   3.779   6.790  2.2275  0.7272 -1.1484
 8541SOL    HW237257   3.806   3.656   6.788 -1.1046  1.3155  0.4970
 8542SOL     OW37258   2.495   0.757  16.746 -0.4668 -0.0930  0.1873
 8542SOL    HW137259   2.565   0.726  16.688 -0.4617 -1.9661  1.1879
 8542SOL    HW237260   2.491   0.849  16.720  0.4992  0.4559  2.0399
 8543SOL     OW37261   4.236   3.963   1.962 -0.4266 -0.7169 -0.2430
 8543SOL    HW137262   4.237   4.048   1.917 -2.6960 -0.1737  0.7430
 8543SOL    HW237263   4.170   3.918   1.909 -1.3689  1.3991 -0.8772
 8544SOL     OW37264   2.063   4.512   3.396 -0.1048  0.5949 -0.5610
 8544SOL    HW137265   2.021   4.489   3.313  0.5273  2.9158 -1.5319
 8544SOL    HW237266   1.988   4.518   3.455  0.7874 -0.4784  0.6561
 8545SOL     OW37267   4.629   2.913   7.133  0.8259  0.1050 -0.1110
 8545SOL    HW137268   4.721   2.914   7.160  0.2200  3.8714  1.7549
 8545SOL    HW237269   4.600   2.960   7.211  0.5013  1.3657 -0.9887
 8546SOL     OW37270   2.779   3.294   1.537  0.0187  0.5058 -0.2783
 8546SOL    HW137271   2.813   3.249   1.614  0.7995 -2.0824 -2.1302
 8546SOL    HW237272   2.703   3.333   1.579 -0.6336 -1.1297  0.0557
 8547SOL     OW37273   0.457   0.497   9.593  0.1050 -0.1460  0.0123
 8547SOL    HW137274   0.415   0.412   9.602  0.0063 -0.2037 -1.0275
 8547SOL    HW237275   0.545   0.461   9.586  0.0871 -0.3911  1.0081
 8548SOL     OW37276   3.844   4.393  11.858  0.0702 -0.3093 -0.1615
 8548SOL    HW137277   3.887   4.385  11.772 -0.5265 -2.2352 -0.2706
 8548SOL    HW237278   3.873   4.315  11.904 -0.9191 -1.2683 -1.1713
 8549SOL     OW37279   1.326   1.240   7.943  0.2178  0.0309  0.4487
 8549SOL    HW137280   1.325   1.313   8.005  3.1293 -1.2904  2.0574
 8549SOL    HW237281   1.409   1.254   7.896  0.3643 -1.4367  0.2803
 8550SOL     OW37282   2.479   4.268  10.985 -0.3268  0.5418  0.1235
 8550SOL    HW137283   2.407   4.231  11.037 -0.4487  0.0636 -0.3831
 8550SOL    HW237284   2.530   4.317  11.050 -0.4854 -1.1779  1.5341
 8551SOL     OW37285   1.811   0.019  11.572  0.6953  0.4539  0.3698
 8551SOL    HW137286   1.841   4.675  11.536  1.3041  0.7718  0.1484
 8551SOL    HW237287   1.776   4.727  11.656  0.8392 -1.3190 -0.2239
 8552SOL     OW37288   2.019   1.105   6.151  0.4131 -0.0012 -0.5780
 8552SOL    HW137289   1.991   1.169   6.217  0.1802 -0.0312 -0.6475
 8552SOL    HW237290   1.977   1.028   6.190 -0.6950  1.4803  1.1553
 8553SOL     OW37291   3.583   2.136   0.830 -0.6526 -0.3817 -0.0166
 8553SOL    HW137292   3.642   2.070   0.866 -1.2092 -1.5826 -1.3310
 8553SOL    HW237293   3.534   2.084   0.767 -1.0816  1.0387 -0.8568
 8554SOL     OW37294   3.498   2.313   6.888  0.9921  0.0578 -0.3084
 8554SOL    HW137295   3.422   2.330   6.944 -0.9218 -1.8560 -2.3455
 8554SOL    HW237296   3.574   2.358   6.925  0.0578 -0.6285  2.4462
 8555SOL     OW37297   2.623   2.072   0.397  0.3125  0.2252  0.1756
 8555SOL    HW137298   2.601   2.098   0.307 -2.1171  0.8802  0.9570
 8555SOL    HW237299   2.596   2.155   0.437 -1.4819 -0.1945 -0.1710
 8556SOL     OW37300   2.716   1.660   0.245  0.1695 -0.6317  0.4454
 8556SOL    HW137301   2.660   1.719   0.296  0.3169  2.0772 -2.5573
 8556SOL    HW237302   2.775   1.725   0.208  0.6048 -2.3960 -1.9558
 8557SOL     OW37303   2.367   1.853   9.376 -0.2420 -0.2409 -0.0738
 8557SOL    HW137304   2.280   1.815   9.364  0.0479 -1.0108  0.2964
 8557SOL    HW237305   2.405   1.787   9.434  0.6962 -1.0661 -1.6160
 8558SOL     OW37306   3.748   0.912   3.078  0.7181  0.1953 -0.0748
 8558SOL    HW137307   3.803   0.833   3.078 -0.2770 -0.5000 -2.3748
 8558SOL    HW237308   3.767   0.939   2.988  0.6722 -0.4060 -0.2684
 8559SOL     OW37309   3.260   2.067   4.977  0.2452 -0.1513  0.4427
 8559SOL    HW137310   3.274   1.978   5.011  1.1401  0.4889  1.7344
 8559SOL    HW237311   3.284   2.059   4.884  0.3551  4.5642  0.0679
 8560SOL     OW37312   3.554   2.585   1.531 -0.0756 -0.0413 -0.0583
 8560SOL    HW137313   3.634   2.535   1.546 -1.7221 -1.7872  2.9995
 8560SOL    HW237314   3.563   2.589   1.436  1.8868 -1.1308  0.0862
 8561SOL     OW37315   3.397   4.460   2.287  0.4110 -0.1659 -0.0344
 8561SOL    HW137316   3.432   4.371   2.284  1.1641  0.1128  0.8672
 8561SOL    HW237317   3.416   4.512   2.209  1.8521  4.0163  3.0995
 8562SOL     OW37318   0.588   4.106  11.650  0.1508 -0.8280  0.1488
 8562SOL    HW137319   0.554   4.032  11.700  1.9678 -1.7436  0.0209
 8562SOL    HW237320   0.667   4.072  11.607  1.7813  3.0619  0.1020
 8563SOL     OW37321   4.464   0.971   1.603 -0.3195  0.3216  0.2067
 8563SOL    HW137322   4.504   1.058   1.593  0.4139  0.0721  0.9386
 8563SOL    HW237323   4.535   0.913   1.576  0.3750  0.6987  1.2352
 8564SOL     OW37324   3.227   3.675   2.585  0.5047  0.4513  0.2263
 8564SOL    HW137325   3.304   3.617   2.584  0.5427  0.4982  0.5066
 8564SOL    HW237326   3.177   3.638   2.657  0.0263  2.4001  0.8937
 8565SOL     OW37327   3.472   2.002  12.825 -0.0084 -0.3991 -0.4830
 8565SOL    HW137328   3.389   1.955  12.835 -1.5151  2.6229  1.2692
 8565SOL    HW237329   3.457   2.027  12.734 -2.9367 -2.2512 -0.5131
 8566SOL     OW37330   2.503   2.097  13.575 -0.0250  0.0531 -0.1395
 8566SOL    HW137331   2.420   2.142  13.560  0.3870 -0.3506 -3.4946
 8566SOL    HW237332   2.545   2.136  13.498  2.0544 -2.9698 -0.5315
 8567SOL     OW37333   2.028   0.065   8.481 -0.0490  0.4578 -0.3186
 8567SOL    HW137334   1.957   0.018   8.436  0.9044  0.9672 -2.3450
 8567SOL    HW237335   2.080   0.092   8.406 -0.0673  2.2263  0.3142
 8568SOL     OW37336   0.149   1.385   3.740 -0.2931 -0.8237  0.8559
 8568SOL    HW137337   0.078   1.337   3.698  0.2149 -0.4314 -0.4376
 8568SOL    HW237338   0.209   1.312   3.755  3.2470  1.5204 -1.8166
 8569SOL     OW37339   4.414   4.396   1.791 -0.5567 -0.0077 -0.3719
 8569SOL    HW137340   4.421   4.476   1.843 -0.9100 -1.0017  1.2040
 8569SOL    HW237341   4.456   4.428   1.711  1.7048 -2.9525 -0.3813
 8570SOL     OW37342   1.920   4.481   9.072  0.2610 -0.3429 -0.2986
 8570SOL    HW137343   1.909   4.524   8.988 -1.2916  0.2541  0.2227
 8570SOL    HW237344   1.912   4.392   9.039  2.1450 -0.2649 -0.9553
 8571SOL     OW37345   1.302   1.823   3.112 -0.1939 -0.0055 -0.5077
 8571SOL    HW137346   1.338   1.760   3.175  0.3946 -0.1158 -0.9499
 8571SOL    HW237347   1.342   1.903   3.146  0.5891 -0.3338 -0.6657
 8572SOL     OW37348   3.205   3.076  16.632 -0.2919 -0.8926  0.3466
 8572SOL    HW137349   3.234   3.057  16.542 -0.9364 -1.0875  0.1795
 8572SOL    HW237350   3.256   3.016  16.686  0.7648 -0.9029 -0.6658
 8573SOL     OW37351   0.660   2.118   9.035  0.0789  0.7703 -0.1954
 8573SOL    HW137352   0.605   2.149   8.963  1.1963  1.4584 -0.7542
 8573SOL    HW237353   0.667   2.023   9.024 -2.5068  0.5448  0.0336
 8574SOL     OW37354   4.196   1.817   9.502 -0.0822 -0.4588  0.3714
 8574SOL    HW137355   4.243   1.766   9.436  0.5252 -0.1775  0.5847
 8574SOL    HW237356   4.245   1.786   9.578  1.5013 -0.4093 -0.6071
 8575SOL     OW37357   3.338   0.750   3.342  0.2663  0.3267 -0.6900
 8575SOL    HW137358   3.417   0.734   3.290  0.8048  1.7639 -0.3185
 8575SOL    HW237359   3.269   0.735   3.277 -0.4409 -0.5419  0.2695
 8576SOL     OW37360   1.815   3.018   5.301 -0.2753  0.2095 -0.4017
 8576SOL    HW137361   1.847   3.108   5.301  0.2750  0.0128  0.0779
 8576SOL    HW237362   1.776   3.015   5.388 -0.1552  1.4694 -0.3043
 8577SOL     OW37363   3.097   0.415   3.194  0.1503 -0.3458 -0.1253
 8577SOL    HW137364   3.152   0.389   3.267 -0.0321  3.4662  1.3342
 8577SOL    HW237365   3.128   0.352   3.129  1.1801  0.2576 -0.2004
 8578SOL     OW37366   3.277   3.679   4.661  0.5849  0.1739  0.2379
 8578SOL    HW137367   3.353   3.715   4.708 -0.2633  0.2609  1.5085
 8578SOL    HW237368   3.320   3.660   4.577 -0.4517  0.1194 -0.2757
 8579SOL     OW37369   4.083   1.417   8.640 -0.4836 -0.6238  0.3269
 8579SOL    HW137370   4.121   1.332   8.617  1.4873 -0.4438  2.9691
 8579SOL    HW237371   4.089   1.415   8.735  1.0168  0.9591  0.2608
 8580SOL     OW37372   4.108   2.000  12.883 -0.0846  0.0389  0.8046
 8580SOL    HW137373   4.175   2.035  12.825  1.3392 -1.1677  1.6837
 8580SOL    HW237374   4.071   1.923  12.839 -0.2854  0.5953  0.0157
 8581SOL     OW37375   0.417   4.484  16.790 -0.0475  0.0473  0.4121
 8581SOL    HW137376   0.487   4.487  16.724 -2.9224  2.8182 -2.5536
 8581SOL    HW237377   0.341   4.495  16.733 -0.0421 -0.4517  0.3066
 8582SOL     OW37378   4.025   4.514   2.143  0.4002  0.1598 -0.4038
 8582SOL    HW137379   3.948   4.537   2.195  0.0598 -2.1946  0.1271
 8582SOL    HW237380   4.083   4.520   2.219  1.6920  1.4979 -1.5095
 8583SOL     OW37381   3.832   4.124   5.203  0.5826  0.0587 -0.1248
 8583SOL    HW137382   3.771   4.084   5.141  0.9327  0.6872 -0.8880
 8583SOL    HW237383   3.860   4.199   5.149 -0.3112 -1.3979 -2.6211
 8584SOL     OW37384   3.694   0.736   7.287  0.7433 -0.2004 -0.2295
 8584SOL    HW137385   3.691   0.824   7.323  1.7380 -1.0661  1.9723
 8584SOL    HW237386   3.778   0.710   7.324  0.3739 -1.7143 -0.4366
 8585SOL     OW37387   2.913   3.065   4.211  0.3647  0.3601 -0.6168
 8585SOL    HW137388   2.987   3.004   4.219 -1.0482 -0.9860  2.1202
 8585SOL    HW237389   2.930   3.094   4.122  1.9791  1.4692  0.0568
 8586SOL     OW37390   3.288   3.879   1.582 -0.4589 -0.0546  0.3116
 8586SOL    HW137391   3.255   3.821   1.513 -0.6977  0.2473  0.1756
 8586SOL    HW237392   3.363   3.916   1.535 -1.4013  2.1387  0.5653
 8587SOL     OW37393   3.453   1.628   9.450  0.3884  0.0193 -0.0276
 8587SOL    HW137394   3.396   1.699   9.479 -0.9008 -0.2144 -1.9375
 8587SOL    HW237395   3.413   1.626   9.363  0.7937  0.7767 -0.2296
 8588SOL     OW37396   1.581   0.235   4.332  0.3372  0.3736 -0.6042
 8588SOL    HW137397   1.486   0.227   4.322  0.6706 -1.0606 -2.6571
 8588SOL    HW237398   1.602   0.249   4.240  0.1804 -3.8636 -1.3047
 8589SOL     OW37399   1.371   1.423   7.507 -0.8332  0.1110  0.9217
 8589SOL    HW137400   1.440   1.386   7.562 -0.1481 -0.0668 -0.0570
 8589SOL    HW237401   1.330   1.499   7.550 -1.0627 -1.3848  3.3747
 8590SOL     OW37402   2.257   0.662   6.781 -0.3402 -0.6745  0.1049
 8590SOL    HW137403   2.336   0.661   6.835  1.1259 -0.8451 -2.0611
 8590SOL    HW237404   2.301   0.689   6.701 -1.2201  1.9692  0.5172
 8591SOL     OW37405   4.225   1.210   8.530  0.2204  0.4715 -0.1142
 8591SOL    HW137406   4.248   1.197   8.438  1.0949  0.9920  0.0330
 8591SOL    HW237407   4.138   1.168   8.528  0.6527 -0.3812 -0.8445
 8592SOL     OW37408   2.850   0.300   8.085  0.0841 -0.5907 -0.0720
 8592SOL    HW137409   2.837   0.251   8.166 -2.1336 -1.0087 -0.7007
 8592SOL    HW237410   2.898   0.235   8.033  0.3764  0.4988 -1.1767
 8593SOL     OW37411   0.812   0.680   6.553  0.7304 -0.4731 -0.3801
 8593SOL    HW137412   0.742   0.680   6.488  0.3547 -0.2076  0.0229
 8593SOL    HW237413   0.871   0.717   6.487 -0.2455  0.1342 -0.9192
 8594SOL     OW37414   4.663   2.518   7.797 -0.0122 -0.0310  0.3444
 8594SOL    HW137415   4.667   2.612   7.815  0.7336 -0.2405  1.2498
 8594SOL    HW237416   4.589   2.488   7.851 -0.6337 -0.1036 -0.5484
 8595SOL     OW37417   0.376   2.697   8.698 -0.0843  0.5722 -0.0308
 8595SOL    HW137418   0.461   2.732   8.725  0.1935  0.5354 -0.8402
 8595SOL    HW237419   0.382   2.701   8.602 -2.8214  0.8040 -0.1889
 8596SOL     OW37420   0.007   2.620   4.212 -0.0891 -0.6424  0.2546
 8596SOL    HW137421   0.092   2.633   4.171  0.2332  0.4696  1.2664
 8596SOL    HW237422   4.716   2.705   4.244  2.6090  0.7000 -0.7811
 8597SOL     OW37423   2.173   2.572  11.759 -0.0361 -0.7427 -0.6269
 8597SOL    HW137424   2.149   2.565  11.667 -1.3509 -1.4171 -0.2383
 8597SOL    HW237425   2.179   2.480  11.786  2.3291  0.1449  1.8966
 8598SOL     OW37426   1.300   4.037   8.716 -0.5764 -0.6454  0.2701
 8598SOL    HW137427   1.259   4.093   8.781  2.4533  0.0980  1.5395
 8598SOL    HW237428   1.355   3.993   8.781  1.0044 -0.5824 -1.0104
 8599SOL     OW37429   0.386   3.780  17.543 -0.3347  0.0723 -0.3287
 8599SOL    HW137430   0.435   3.835  17.482  0.6466  1.6463  1.8802
 8599SOL    HW237431   0.406   3.820  17.627 -0.0409  0.8588 -0.7721
 8600SOL     OW37432   0.341   3.950  15.232 -0.4831  0.6238 -0.6603
 8600SOL    HW137433   0.425   3.951  15.185 -0.8764 -0.0877 -1.3799
 8600SOL    HW237434   0.294   3.897  15.167  0.1751  0.9481 -1.3975
 8601SOL     OW37435   4.148   4.227   3.369 -0.1207 -0.0610 -0.6178
 8601SOL    HW137436   4.180   4.317   3.374  1.4014 -0.5562 -1.4181
 8601SOL    HW237437   4.056   4.233   3.342  0.0355  2.6009 -0.4979
 8602SOL     OW37438   1.450   0.823   3.440  0.1054  0.4907 -0.6066
 8602SOL    HW137439   1.393   0.875   3.497 -1.3627 -0.7711 -0.9244
 8602SOL    HW237440   1.509   0.884   3.396 -1.7950  1.7348 -1.4387
 8603SOL     OW37441   3.201   3.526   0.885 -0.2835  0.1721  0.2867
 8603SOL    HW137442   3.147   3.562   0.815 -1.3194  0.1292  1.0491
 8603SOL    HW237443   3.133   3.470   0.923 -1.7269  1.8111  0.1018
 8604SOL     OW37444   0.764   3.138   2.119  0.3318  0.2481 -0.5259
 8604SOL    HW137445   0.851   3.104   2.139 -0.0685  0.9529  2.4226
 8604SOL    HW237446   0.713   3.058   2.105 -0.7915  0.9802 -0.6173
 8605SOL     OW37447   0.507   2.877   9.101  0.2586  0.0300  0.4568
 8605SOL    HW137448   0.476   2.964   9.128 -0.4095 -0.5386  1.5206
 8605SOL    HW237449   0.578   2.867   9.163 -0.3159 -1.6223  0.8438
 8606SOL     OW37450   4.082   2.544   3.794  0.3447  0.2401  0.3810
 8606SOL    HW137451   4.161   2.593   3.817  1.0472 -1.1935  1.0214
 8606SOL    HW237452   4.123   2.466   3.756  0.6974  0.3787  0.4697
 8607SOL     OW37453   3.054   0.187  17.143 -0.3211  0.2362  0.0738
 8607SOL    HW137454   3.101   0.269  17.128  0.2145 -0.1186 -0.1931
 8607SOL    HW237455   3.028   0.189  17.235  2.4539  0.6160  0.8527
 8608SOL     OW37456   3.727   4.614   7.007  0.1659 -0.4069 -0.2248
 8608SOL    HW137457   3.671   4.647   6.936  0.8762  1.1274 -0.0720
 8608SOL    HW237458   3.699   4.684   7.067 -0.5281  0.4424 -1.5337
 8609SOL     OW37459   3.907   3.627  12.552 -0.0023  0.2127 -0.5283
 8609SOL    HW137460   3.854   3.576  12.613  1.0999  0.5002  0.6665
 8609SOL    HW237461   3.993   3.608  12.590 -0.3935  0.3453  0.4239
 8610SOL     OW37462   0.389   2.837  14.022 -0.6885 -0.3573 -0.3177
 8610SOL    HW137463   0.313   2.895  14.021 -1.1609 -0.9881 -1.8313
 8610SOL    HW237464   0.342   2.767  14.066  2.1115 -0.1617  3.0081
 8611SOL     OW37465   1.205   1.392   9.988  0.3723  0.0198  0.1244
 8611SOL    HW137466   1.221   1.322   9.924  1.7674  2.9967 -2.7399
 8611SOL    HW237467   1.224   1.339  10.066  0.0256  0.5796  0.5812
 8612SOL     OW37468   1.597   1.751   4.733 -0.0670  0.1953 -0.1371
 8612SOL    HW137469   1.576   1.825   4.790 -1.4435 -0.9157  0.7699
 8612SOL    HW237470   1.678   1.708   4.761  0.6891  0.1412 -2.4080
 8613SOL     OW37471   1.223   3.461  17.509  0.4969 -0.1092  0.1546
 8613SOL    HW137472   1.158   3.407  17.554  1.1091 -1.3649 -0.4551
 8613SOL    HW237473   1.196   3.441  17.419  1.5652 -1.1522  0.0627
 8614SOL     OW37474   0.761   0.206   4.296  0.3778  0.0817  0.3568
 8614SOL    HW137475   0.832   0.258   4.259 -0.6672  1.1650 -0.0951
 8614SOL    HW237476   0.708   0.273   4.338 -0.3001 -0.6596  0.6693
 8615SOL     OW37477   1.310   2.912   6.209  0.3040 -0.3388 -0.2137
 8615SOL    HW137478   1.380   2.886   6.149  1.4328  1.2477  0.4109
 8615SOL    HW237479   1.305   3.004   6.184  0.4768 -0.0441  0.8510
 8616SOL     OW37480   4.438   1.030   3.505  0.4277 -0.7798  0.1403
 8616SOL    HW137481   4.458   0.990   3.420 -1.2696 -1.6368  0.1569
 8616SOL    HW237482   4.374   0.963   3.530 -1.7948  1.4446  0.3311
 8617SOL     OW37483   2.262   3.601  15.382 -0.5153 -0.0112 -0.3449
 8617SOL    HW137484   2.356   3.585  15.369 -0.1663  1.3527  0.4305
 8617SOL    HW237485   2.238   3.650  15.303 -1.1613  2.9165  1.6535
 8618SOL     OW37486   4.485   4.197  13.920 -0.1607 -0.1367 -0.1713
 8618SOL    HW137487   4.499   4.283  13.879  0.0173  0.7719  1.8055
 8618SOL    HW237488   4.559   4.196  13.981 -0.9320 -1.0549  0.7436
 8619SOL     OW37489   1.117   2.918   8.584  0.0108  0.2950 -0.3155
 8619SOL    HW137490   1.170   2.974   8.640 -0.8281 -1.9139  2.6843
 8619SOL    HW237491   1.100   2.967   8.503  0.1456  0.4128 -0.2713
 8620SOL     OW37492   3.279   3.873  16.379  0.8584  0.2616 -0.7959
 8620SOL    HW137493   3.289   3.869  16.474 -1.1477 -2.1009 -0.6920
 8620SOL    HW237494   3.216   3.943  16.363  0.1958 -0.1503  0.0246
 8621SOL     OW37495   3.128   2.179   5.486 -0.2753  0.5894 -0.3589
 8621SOL    HW137496   3.214   2.195   5.526  0.1927  0.7904 -1.4454
 8621SOL    HW237497   3.084   2.240   5.545  0.7374  1.3259 -0.3609
 8622SOL     OW37498   2.897   1.046   4.823 -0.6926  0.4744 -0.2786
 8622SOL    HW137499   2.877   1.043   4.730 -0.3848 -0.9647 -0.2923
 8622SOL    HW237500   2.808   1.060   4.855  0.2110  0.2920  2.2924
 8623SOL     OW37501   3.783   3.307   3.613 -0.1970  0.1096  0.9420
 8623SOL    HW137502   3.850   3.255   3.656 -0.4524 -0.4605  0.6478
 8623SOL    HW237503   3.704   3.262   3.641 -0.1133 -0.2186  0.6456
 8624SOL     OW37504   1.018   1.585   2.845  0.1130 -0.2823 -0.4419
 8624SOL    HW137505   1.026   1.551   2.934  0.2876 -1.2197 -0.8195
 8624SOL    HW237506   0.932   1.627   2.850  0.2561 -0.0774  0.2538
 8625SOL     OW37507   0.910   3.201   7.333 -0.1961  0.1319  0.1903
 8625SOL    HW137508   0.915   3.139   7.406 -0.1857  0.8181  0.7715
 8625SOL    HW237509   0.823   3.187   7.295  0.0837  2.2907 -1.2633
 8626SOL     OW37510   4.652   3.909   3.786 -0.0724 -0.1283  0.5873
 8626SOL    HW137511   4.682   3.819   3.799  0.1632  0.0152  1.0440
 8626SOL    HW237512   4.701   3.941   3.710 -1.0837 -1.1696 -0.4989
 8627SOL     OW37513   4.673   4.588  17.308  0.0799 -0.1533  0.2482
 8627SOL    HW137514   0.011   4.620  17.261 -0.5487  0.5406 -0.3047
 8627SOL    HW237515   4.715   4.531  17.372  0.9843 -0.4198 -0.5771
 8628SOL     OW37516   2.273   4.431   9.621 -0.0989  0.6309 -0.0516
 8628SOL    HW137517   2.263   4.471   9.707 -3.8182 -0.6815  0.1316
 8628SOL    HW237518   2.246   4.505   9.566  0.2478  2.4192  2.1644
 8629SOL     OW37519   1.698   3.570  13.313 -0.0676  0.1101 -0.3204
 8629SOL    HW137520   1.760   3.595  13.245  1.0394 -0.0701  0.6182
 8629SOL    HW237521   1.722   3.479  13.330  2.4576  0.5201 -1.7812
 8630SOL     OW37522   3.472   3.044   4.240  0.1200  0.2154  0.0821
 8630SOL    HW137523   3.520   3.105   4.295  1.9502 -0.0692 -1.1912
 8630SOL    HW237524   3.426   3.095   4.173 -1.0224  0.5765  1.1510
 8631SOL     OW37525   4.216   3.411   6.639  0.2633 -0.0753  0.5840
 8631SOL    HW137526   4.270   3.415   6.560  0.6946  1.3789  0.9701
 8631SOL    HW237527   4.126   3.397   6.607  0.2170  1.5334  0.0334
 8632SOL     OW37528   0.581   2.063   5.902  0.2730  0.2058 -0.2853
 8632SOL    HW137529   0.599   2.132   5.839 -0.2593  0.3181 -0.3174
 8632SOL    HW237530   0.623   2.097   5.981 -0.4616  1.6500 -0.5145
 8633SOL     OW37531   4.137   1.629   7.840 -0.2203 -0.5480 -0.5177
 8633SOL    HW137532   4.126   1.610   7.747 -0.1254 -0.1137 -0.6167
 8633SOL    HW237533   4.086   1.708   7.854  1.2199  0.2084  0.5115
 8634SOL     OW37534   3.117   3.431   8.529  0.0491  0.5669 -0.0790
 8634SOL    HW137535   3.158   3.346   8.512  0.6585  1.2046 -1.9122
 8634SOL    HW237536   3.022   3.419   8.521  0.0782 -0.1305  0.7335
 8635SOL     OW37537   0.787   1.891   8.113  0.0327  0.1990  0.2895
 8635SOL    HW137538   0.771   1.797   8.106  1.4454 -0.0054 -0.3591
 8635SOL    HW237539   0.719   1.928   8.057 -2.4579 -4.8428 -0.0109
 8636SOL     OW37540   0.289   0.967   3.835  0.0629 -0.5323  0.8718
 8636SOL    HW137541   0.321   0.891   3.885  0.3955 -0.1405  1.2629
 8636SOL    HW237542   0.268   1.026   3.907 -1.3239 -0.5353  0.4615
 8637SOL     OW37543   0.822   3.454   4.395 -0.4434  0.3048 -0.5370
 8637SOL    HW137544   0.860   3.535   4.427  0.2194  1.0499 -3.1983
 8637SOL    HW237545   0.888   3.386   4.407 -1.7908 -1.0192 -0.5270
 8638SOL     OW37546   4.704   1.017   8.422 -0.1513 -0.3787  0.1671
 8638SOL    HW137547   4.715   1.008   8.516 -1.1480  0.7700  0.3894
 8638SOL    HW237548   4.615   0.982   8.413  0.3891 -1.4150 -1.3399
 8639SOL     OW37549   3.098   1.261   7.760 -0.2812 -0.2095 -0.6191
 8639SOL    HW137550   3.173   1.209   7.789  0.7200  1.9984  0.7016
 8639SOL    HW237551   3.056   1.276   7.845  1.1065  1.9236 -0.3367
 8640SOL     OW37552   4.403   3.261   5.987  1.0278 -0.1115 -0.1033
 8640SOL    HW137553   4.417   3.292   6.077  0.6699  1.2564 -0.5252
 8640SOL    HW237554   4.352   3.333   5.951  2.1635 -0.0362 -1.5562
 8641SOL     OW37555   4.588   3.940   6.092  0.2959  0.4972  0.1281
 8641SOL    HW137556   4.524   3.953   6.022  1.1674 -0.9556 -0.9083
 8641SOL    HW237557   4.567   4.019   6.142  1.0270  0.5359  0.3720
 8642SOL     OW37558   0.420   2.097   9.287 -0.0198  0.0323 -0.4103
 8642SOL    HW137559   0.359   2.157   9.330 -0.0659  0.1229 -0.6017
 8642SOL    HW237560   0.501   2.128   9.327 -1.3509  2.0765  0.6966
 8643SOL     OW37561   4.633   1.798   1.433 -0.0369  0.1495 -0.1542
 8643SOL    HW137562   4.729   1.802   1.433 -0.0914  1.4912  0.4436
 8643SOL    HW237563   4.621   1.707   1.407  0.0611 -0.4461  1.8916
 8644SOL     OW37564   0.419   2.161   2.863 -0.5321  0.0392  0.0690
 8644SOL    HW137565   0.389   2.252   2.854 -0.2261 -0.0032 -1.4254
 8644SOL    HW237566   0.345   2.107   2.836 -0.9507  0.5397  0.2214
 8645SOL     OW37567   1.668   2.787  12.117  0.5554  0.0740  0.0733
 8645SOL    HW137568   1.590   2.817  12.070  0.5712  0.9548  0.6217
 8645SOL    HW237569   1.664   2.832  12.201  0.9122 -1.2683  0.8145
 8646SOL     OW37570   4.203   0.130   6.098 -0.7044 -0.2223 -0.6754
 8646SOL    HW137571   4.119   0.110   6.138 -0.9305  0.2429 -0.9220
 8646SOL    HW237572   4.174   0.197   6.037 -2.1569  0.9866  1.3658
 8647SOL     OW37573   0.658   0.496   3.252  0.0306 -0.1449 -0.3040
 8647SOL    HW137574   0.746   0.463   3.271 -0.3382 -0.7232  0.3801
 8647SOL    HW237575   0.630   0.471   3.164 -0.1025 -0.5218 -0.1557
 8648SOL     OW37576   2.305   2.606   2.098  0.1089  0.1105 -0.2806
 8648SOL    HW137577   2.213   2.609   2.126 -0.1230 -1.0636 -0.9003
 8648SOL    HW237578   2.351   2.655   2.166  0.2744 -1.1519  0.5182
 8649SOL     OW37579   1.582   0.186   5.239  0.0986  0.5633  0.0041
 8649SOL    HW137580   1.529   0.256   5.277 -0.5191  0.0170  0.1491
 8649SOL    HW237581   1.522   0.162   5.168 -0.7136  1.0995  0.5076
 8650SOL     OW37582   0.987   3.426   5.655 -0.0841  0.0950  0.0274
 8650SOL    HW137583   1.050   3.402   5.724 -0.5910 -2.5333 -0.4231
 8650SOL    HW237584   0.993   3.520   5.638  1.0649  0.3721  1.8984
 8651SOL     OW37585   4.102   0.235   7.484  0.3700  0.1003  0.0663
 8651SOL    HW137586   4.133   0.181   7.556  1.1127 -1.4443 -1.4104
 8651SOL    HW237587   4.038   0.171   7.453 -0.0068  1.3207 -1.6739
 8652SOL     OW37588   4.089   2.662   9.025  0.2545  0.5758 -0.0307
 8652SOL    HW137589   4.181   2.657   9.052  0.5505 -0.0419 -1.1605
 8652SOL    HW237590   4.089   2.741   8.970  0.9265  0.6214  0.0377
 8653SOL     OW37591   1.656   1.908   1.497  0.0307 -0.2528  0.0678
 8653SOL    HW137592   1.575   1.861   1.519 -0.7267 -0.1979 -2.6028
 8653SOL    HW237593   1.716   1.900   1.571  0.4543  2.0782 -0.0292
 8654SOL     OW37594   3.590   1.939   9.284  0.4722 -0.3188  0.1944
 8654SOL    HW137595   3.505   1.908   9.253 -0.1884  0.7391  0.9501
 8654SOL    HW237596   3.648   1.865   9.268  2.2825  1.1953 -0.2390
 8655SOL     OW37597   1.397   1.842   5.512 -0.2274 -0.0458  0.5399
 8655SOL    HW137598   1.426   1.815   5.425 -1.5463 -3.5829  1.1990
 8655SOL    HW237599   1.476   1.892   5.534  0.6636 -0.9496 -0.6389
 8656SOL     OW37600   3.426   1.483   8.840 -0.8068 -0.5117  0.1080
 8656SOL    HW137601   3.417   1.414   8.774  0.9507 -0.4023 -0.2681
 8656SOL    HW237602   3.334   1.504   8.852 -1.0950 -0.2459 -2.4043
 8657SOL     OW37603   2.458   2.238   9.393 -0.0761  0.1398 -0.0122
 8657SOL    HW137604   2.525   2.180   9.429 -1.1540 -0.0730  1.6330
 8657SOL    HW237605   2.413   2.262   9.474  1.4352  0.6381  0.6796
 8658SOL     OW37606   4.440   0.493   6.394 -0.4156  0.5351  0.1511
 8658SOL    HW137607   4.447   0.498   6.299  1.2252  2.6036  0.3707
 8658SOL    HW237608   4.529   0.478   6.425 -0.4981  0.3049  0.2772
 8659SOL     OW37609   3.548   3.820   9.472 -0.3456  0.1597  0.0333
 8659SOL    HW137610   3.526   3.727   9.475  0.0095  0.1035  1.0504
 8659SOL    HW237611   3.643   3.817   9.470 -0.3295 -0.4865  1.7526
 8660SOL     OW37612   3.490   1.562   0.785 -0.7027 -0.5939 -0.3168
 8660SOL    HW137613   3.526   1.647   0.761 -0.7429 -0.2999  0.6545
 8660SOL    HW237614   3.401   1.593   0.800  0.5612  2.7975  0.0228
 8661SOL     OW37615   0.199   0.370   2.381  0.4066 -0.0623  0.2414
 8661SOL    HW137616   0.191   0.379   2.476  1.8042 -1.4918  0.4850
 8661SOL    HW237617   0.215   0.460   2.354  2.1836 -0.5790 -0.3792
 8662SOL     OW37618   4.334   0.911   8.010  0.2433 -0.7672 -0.1192
 8662SOL    HW137619   4.377   0.903   7.925  0.1773  1.3317 -0.3577
 8662SOL    HW237620   4.281   0.990   8.000  1.4436 -0.0751 -1.1853
 8663SOL     OW37621   2.836   0.404   1.262 -0.1501 -0.2206 -0.2195
 8663SOL    HW137622   2.914   0.428   1.211 -1.4868  0.3791 -1.9718
 8663SOL    HW237623   2.852   0.318   1.301  0.6371 -0.0274 -0.1230
 8664SOL     OW37624   4.249   3.162  17.205 -0.1097  0.3636  0.3158
 8664SOL    HW137625   4.212   3.087  17.251 -0.2849 -0.0134 -0.4246
 8664SOL    HW237626   4.180   3.222  17.233 -1.5008 -1.1200  0.0711
 8665SOL     OW37627   1.383   3.081  17.390 -0.1981  0.4897 -0.1742
 8665SOL    HW137628   1.352   3.014  17.451  1.1946  1.3446  1.4769
 8665SOL    HW237629   1.466   3.052  17.351  0.5387 -0.5489  2.2090
 8666SOL     OW37630   1.445   3.814   2.895 -0.1785 -0.3354 -0.1364
 8666SOL    HW137631   1.474   3.739   2.947 -0.2377  0.3655  0.8947
 8666SOL    HW237632   1.428   3.878   2.963  1.3620  1.1699 -1.1752
 8667SOL     OW37633   1.938   0.952   2.757 -0.3549  0.2571  0.1621
 8667SOL    HW137634   1.905   0.884   2.814 -1.5262  1.2012  0.6188
 8667SOL    HW237635   1.979   0.899   2.688  0.3065 -0.0727  0.8183
 8668SOL     OW37636   4.452   0.575  11.570  0.4316  0.6652  0.0294
 8668SOL    HW137637   4.464   0.565  11.475  0.3356 -0.7119  0.1723
 8668SOL    HW237638   4.446   0.671  11.574 -1.7129  0.5006  0.3895
 8669SOL     OW37639   1.048   2.662  10.022 -0.0783 -0.0547  0.4088
 8669SOL    HW137640   1.135   2.625  10.029  1.1303  2.8292  0.5045
 8669SOL    HW237641   1.066   2.755  10.011 -1.2101 -0.0477 -1.4481
 8670SOL     OW37642   2.859   2.145   3.868 -0.5425 -0.5578  0.5289
 8670SOL    HW137643   2.915   2.213   3.830  0.4694 -1.2879  0.7290
 8670SOL    HW237644   2.911   2.105   3.938 -2.4027 -3.7083  0.1374
 8671SOL     OW37645   4.377   2.962   5.058  0.3090  0.1013  0.0126
 8671SOL    HW137646   4.458   2.948   5.107  1.4113  0.2706 -1.7790
 8671SOL    HW237647   4.392   3.054   5.037  0.6528  0.2235  0.7745
 8672SOL     OW37648   1.496   4.021  17.210  0.1390 -0.0459 -0.4603
 8672SOL    HW137649   1.461   4.036  17.122  1.2965 -0.9258 -1.0658
 8672SOL    HW237650   1.416   3.985  17.248  0.8494 -0.2475  0.8477
 8673SOL     OW37651   0.124   4.160   5.469 -0.7559 -0.7327 -0.2014
 8673SOL    HW137652   0.106   4.113   5.550  0.9161 -0.2323  0.4639
 8673SOL    HW237653   0.037   4.166   5.429 -0.1690 -1.2476 -1.5745
 8674SOL     OW37654   0.681   2.768   4.295 -0.1993 -0.1261 -0.3148
 8674SOL    HW137655   0.723   2.683   4.306  0.0095 -0.0775 -0.7311
 8674SOL    HW237656   0.654   2.774   4.203  0.1696 -0.0988 -0.4237
 8675SOL     OW37657   1.267   2.493   5.526 -0.5057 -0.3768 -0.0781
 8675SOL    HW137658   1.190   2.448   5.491 -0.9428  0.6978 -0.5062
 8675SOL    HW237659   1.322   2.414   5.524  0.2305  0.1822 -1.6763
 8676SOL     OW37660   1.162   2.172   8.045  0.0856 -0.2962 -0.1448
 8676SOL    HW137661   1.112   2.206   7.971  2.1645  1.6318 -0.6600
 8676SOL    HW237662   1.141   2.237   8.112 -0.8575 -0.2768 -0.4720
 8677SOL     OW37663   0.017   0.834  16.406 -0.2356 -0.2830  0.1633
 8677SOL    HW137664   0.058   0.914  16.375  1.4042 -1.0449  0.3789
 8677SOL    HW237665   0.008   0.780  16.327  1.2039 -0.6940  0.2809
 8678SOL     OW37666   2.270   1.847   4.406 -0.7542 -0.0441 -0.1738
 8678SOL    HW137667   2.264   1.863   4.312 -0.5883 -1.6291 -0.4502
 8678SOL    HW237668   2.181   1.814   4.419 -0.0345 -1.7587  0.2675
 8679SOL     OW37669   0.769   2.011  13.454  0.0471  0.7583  0.3336
 8679SOL    HW137670   0.834   1.949  13.423 -0.5962  0.0396  0.4249
 8679SOL    HW237671   0.699   1.948  13.470  1.7397 -1.3659 -0.7000
 8680SOL     OW37672   0.699   2.410   6.006  0.3060  0.5205  0.5542
 8680SOL    HW137673   0.658   2.333   6.045  3.4067 -0.6029  1.6379
 8680SOL    HW237674   0.793   2.391   6.010  0.1360 -0.2171  1.0392
 8681SOL     OW37675   4.250   2.660   0.810  0.6367 -0.1429 -0.0067
 8681SOL    HW137676   4.202   2.608   0.746 -0.5220 -0.5154  1.1801
 8681SOL    HW237677   4.178   2.695   0.861  1.4574 -0.6213  1.4818
 8682SOL     OW37678   2.245   0.187   3.821  0.1569 -0.5197 -0.1838
 8682SOL    HW137679   2.255   0.282   3.826  0.8122 -0.6137  0.2886
 8682SOL    HW237680   2.153   0.186   3.849  0.1214  0.3423 -0.2465
 8683SOL     OW37681   1.717   3.723  11.044 -0.2877  0.0511  0.1171
 8683SOL    HW137682   1.783   3.661  11.012  0.5156  0.2989  1.2977
 8683SOL    HW237683   1.711   3.699  11.136  1.2641 -0.3571  0.1142
 8684SOL     OW37684   0.818   0.746   7.968  0.2151 -0.0993 -0.0642
 8684SOL    HW137685   0.890   0.740   8.031 -0.7396 -0.2377  1.0218
 8684SOL    HW237686   0.858   0.765   7.884  1.2309 -0.6441  0.2890
 8685SOL     OW37687   3.394   3.130   7.287  0.0701 -0.1280  0.7253
 8685SOL    HW137688   3.421   3.062   7.225  0.7612 -0.4378  1.3721
 8685SOL    HW237689   3.437   3.110   7.370  0.8390 -0.6327  0.2097
 8686SOL     OW37690   3.026   2.158   4.387  0.4593 -0.8706  0.4116
 8686SOL    HW137691   3.119   2.162   4.409  0.2132 -2.8298  1.9170
 8686SOL    HW237692   2.980   2.146   4.470  0.5259  2.4397  0.9131
 8687SOL     OW37693   2.910   0.597   7.168  0.2508 -0.0543 -0.1521
 8687SOL    HW137694   2.923   0.516   7.217  0.8590 -1.2884 -2.3695
 8687SOL    HW237695   2.815   0.602   7.172  0.2076 -0.9906  0.0112
 8688SOL     OW37696   3.265   0.169   3.093  0.3113  0.2053 -0.3428
 8688SOL    HW137697   3.290   0.092   3.041  0.2529  1.6962 -2.6013
 8688SOL    HW237698   3.217   0.135   3.168 -0.2542  1.0484 -0.3187
 8689SOL     OW37699   2.032   4.366   1.924  0.7162  0.2726  0.5094
 8689SOL    HW137700   1.942   4.386   1.899  0.8944 -0.7097 -0.8513
 8689SOL    HW237701   2.085   4.445   1.914  1.3990 -0.3661 -0.9023
 8690SOL     OW37702   1.448   3.650   4.884  0.3391 -0.3882  0.1998
 8690SOL    HW137703   1.405   3.566   4.865 -2.1014  0.8105  0.3675
 8690SOL    HW237704   1.523   3.640   4.826 -0.1820 -3.1709 -0.0028
 8691SOL     OW37705   0.384   2.269   7.961  0.3328 -0.6117  0.0083
 8691SOL    HW137706   0.346   2.230   7.882  0.3209  1.9953 -1.2666
 8691SOL    HW237707   0.418   2.347   7.917 -0.0807 -0.8491 -0.7382
 8692SOL     OW37708   2.692   2.820   5.112 -0.0687 -0.1951  0.0007
 8692SOL    HW137709   2.625   2.801   5.178 -1.4077  1.0479 -0.9923
 8692SOL    HW237710   2.726   2.899   5.154 -4.1358  1.7176 -0.2243
 8693SOL     OW37711   4.515   0.072  12.643  0.1991  0.4421  0.0009
 8693SOL    HW137712   4.585   0.022  12.601 -2.3558 -2.0259 -1.2871
 8693SOL    HW237713   4.499   0.029  12.727 -0.9540  0.8308 -0.0257
 8694SOL     OW37714   4.429   0.739   3.384  0.4679 -0.0670  0.2001
 8694SOL    HW137715   4.363   0.807   3.373  0.2520 -0.3512 -0.2336
 8694SOL    HW237716   4.383   0.689   3.451 -0.2217  0.5539  0.1906
 8695SOL     OW37717   1.624   3.008  14.513 -0.1936 -0.0601 -0.4611
 8695SOL    HW137718   1.639   3.035  14.603 -1.3482  0.4599 -0.4187
 8695SOL    HW237719   1.534   3.042  14.515 -0.2760 -0.2712 -0.5613
 8696SOL     OW37720   2.124   1.054   6.746  0.7998 -0.3486 -0.1657
 8696SOL    HW137721   2.040   1.078   6.784  0.6772 -3.9149  1.8783
 8696SOL    HW237722   2.169   1.019   6.823 -1.3191  0.9450  1.6544
 8697SOL     OW37723   3.953   0.762  15.364 -0.6687  0.1367  0.0839
 8697SOL    HW137724   4.035   0.789  15.407 -0.7927 -0.8898  0.9727
 8697SOL    HW237725   4.003   0.712  15.300 -0.5632 -0.6496  0.7849
 8698SOL     OW37726   4.099   2.478  16.068 -0.0433 -0.2925 -0.1449
 8698SOL    HW137727   4.041   2.548  16.096  0.6228 -0.6302  2.1118
 8698SOL    HW237728   4.063   2.463  15.981  0.7702  1.3137 -0.7698
 8699SOL     OW37729   4.645   4.434   6.837 -0.3038  0.4259  0.5785
 8699SOL    HW137730   4.628   4.382   6.915  1.6256 -0.4032  0.4529
 8699SOL    HW237731   4.611   4.519   6.864  1.4319  1.2668  0.1150
 8700SOL     OW37732   3.905   2.386   9.808  0.0833  0.5044  0.0193
 8700SOL    HW137733   3.988   2.383   9.761  0.4323  0.3208  0.6452
 8700SOL    HW237734   3.852   2.429   9.741  1.5580  0.9677 -0.8541
 8701SOL     OW37735   3.375   1.810   6.440 -0.3270 -0.2190  0.5836
 8701SOL    HW137736   3.319   1.886   6.456 -0.9306 -0.1624 -1.7920
 8701SOL    HW237737   3.449   1.840   6.494 -0.6914  0.8533  0.4884
 8702SOL     OW37738   4.019   3.719   7.358 -0.2592  0.1359 -0.5879
 8702SOL    HW137739   4.091   3.779   7.377 -1.2259  1.4783 -1.1905
 8702SOL    HW237740   3.992   3.703   7.448  1.2447 -1.0963 -0.3388
 8703SOL     OW37741   2.457   0.483   3.576  0.0067 -0.6216 -0.2130
 8703SOL    HW137742   2.382   0.473   3.635 -0.0421 -0.7788 -0.3011
 8703SOL    HW237743   2.470   0.578   3.570 -1.9158 -0.4439 -1.4145
 8704SOL     OW37744   2.619   0.221   3.267 -0.1428 -0.4141 -0.1628
 8704SOL    HW137745   2.622   0.273   3.347  2.0807  1.2388 -1.2916
 8704SOL    HW237746   2.580   0.138   3.295 -1.2047  0.0795 -0.1580
 8705SOL     OW37747   3.107   0.873   9.953 -0.7011  0.2227 -0.1578
 8705SOL    HW137748   3.038   0.815   9.983  0.3047 -1.3392 -0.8725
 8705SOL    HW237749   3.175   0.885  10.019 -1.1544 -2.2627  0.7396
 8706SOL     OW37750   4.535   3.363  15.000  0.0839 -1.1598  0.1487
 8706SOL    HW137751   4.521   3.456  14.980  0.6181 -1.1380 -0.1300
 8706SOL    HW237752   4.628   3.364  15.022 -0.0807  0.5152  0.8034
 8707SOL     OW37753   1.134   4.203   4.541 -0.3208  0.3490  0.2608
 8707SOL    HW137754   1.073   4.129   4.540  1.2888 -1.0186  2.3462
 8707SOL    HW237755   1.098   4.260   4.609 -1.0051  0.4375 -0.1735
 8708SOL     OW37756   3.273   0.061   8.229  0.1450  0.3565  0.0573
 8708SOL    HW137757   3.327   0.106   8.164 -3.2094  0.7596 -2.4857
 8708SOL    HW237758   3.261   4.715   8.188 -1.7983  0.7849 -0.2702
 8709SOL     OW37759   1.342   1.978   8.203  0.4669  0.6158  0.2665
 8709SOL    HW137760   1.272   2.021   8.153  0.0039 -0.5039 -0.0590
 8709SOL    HW237761   1.293   1.955   8.282 -1.2381 -0.9878 -1.2630
 8710SOL     OW37762   4.016   4.169   4.854  0.1625  0.5389  0.2091
 8710SOL    HW137763   3.969   4.224   4.917  0.8493  1.5864 -0.1924
 8710SOL    HW237764   4.032   4.095   4.911 -0.4992  0.8568  0.8059
 8711SOL     OW37765   3.364   0.779  10.630  0.4320 -0.1094  0.2658
 8711SOL    HW137766   3.330   0.721  10.699 -2.0984  0.0336 -0.8641
 8711SOL    HW237767   3.397   0.848  10.686  0.6405  0.2391 -0.2880
 8712SOL     OW37768   2.880   0.521   6.896  0.9907  0.2372  0.1432
 8712SOL    HW137769   2.901   0.556   6.982 -0.5915 -0.6375  0.8938
 8712SOL    HW237770   2.910   0.602   6.854  2.1661 -1.1539 -1.7287
 8713SOL     OW37771   4.372   1.128   6.383  0.2948  0.7667  0.2171
 8713SOL    HW137772   4.466   1.112   6.385 -0.4545 -3.6488  1.5931
 8713SOL    HW237773   4.364   1.210   6.334  0.0821  0.3014 -0.5215
 8714SOL     OW37774   2.412   3.932   8.057 -0.2655  0.0163 -0.3278
 8714SOL    HW137775   2.382   3.856   8.108 -0.2901 -0.2761 -0.7787
 8714SOL    HW237776   2.363   3.929   7.975  0.3596  2.0161 -0.7722
 8715SOL     OW37777   2.071   1.400   5.417  0.2073 -0.0743 -0.6665
 8715SOL    HW137778   2.129   1.335   5.456  0.6061  0.2976 -0.6393
 8715SOL    HW237779   2.046   1.361   5.333 -2.3849  0.8463 -0.3243
 8716SOL     OW37780   4.159   0.881  11.074  0.0391  0.0040  0.0772
 8716SOL    HW137781   4.218   0.954  11.093 -1.6994  1.7076 -1.0735
 8716SOL    HW237782   4.115   0.904  10.992  2.3429 -2.0107 -1.7121
 8717SOL     OW37783   0.543   3.732  13.192  0.6357  0.0098  0.4704
 8717SOL    HW137784   0.461   3.782  13.192 -0.4866 -1.8289  3.1808
 8717SOL    HW237785   0.588   3.782  13.124 -1.1887 -0.7928 -1.3164
 8718SOL     OW37786   1.155   3.806   7.211  0.3906 -0.1013  0.1598
 8718SOL    HW137787   1.066   3.770   7.219  0.1595  0.8983  2.0435
 8718SOL    HW237788   1.212   3.737   7.245  1.5003 -1.1434 -3.8134
 8719SOL     OW37789   0.685   0.383   5.914  0.2831  0.2994 -0.3187
 8719SOL    HW137790   0.698   0.467   5.870 -0.5134 -0.1331 -1.3827
 8719SOL    HW237791   0.711   0.404   6.004  0.0193 -1.3927  0.1511
 8720SOL     OW37792   3.368   3.879   7.648  0.5232  0.2551 -0.4331
 8720SOL    HW137793   3.459   3.878   7.618  0.8394 -0.0979  0.5357
 8720SOL    HW237794   3.348   3.786   7.664  0.6844  0.5603  1.5020
 8721SOL     OW37795   1.174   1.430  17.430  0.0188  0.1596  0.2738
 8721SOL    HW137796   1.204   1.505  17.378  0.0155 -0.5946 -0.8185
 8721SOL    HW237797   1.199   1.467  17.515 -1.8849 -0.4153  1.0807
 8722SOL     OW37798   2.518   1.580   9.186 -0.3915 -0.0949  0.3371
 8722SOL    HW137799   2.577   1.508   9.164  0.9436  0.6168  1.5544
 8722SOL    HW237800   2.581   1.646   9.216 -1.0782 -0.4885  2.6160
 8723SOL     OW37801   0.521   3.464  12.317 -0.1882 -0.0192 -0.5126
 8723SOL    HW137802   0.602   3.420  12.291  1.1868  1.5448  1.1058
 8723SOL    HW237803   0.538   3.484  12.409  2.0779  0.2540 -0.9871
 8724SOL     OW37804   1.082   0.595  14.251  0.0174  0.1258  0.2387
 8724SOL    HW137805   0.991   0.569  14.266 -0.4370  0.7398 -1.5346
 8724SOL    HW237806   1.098   0.657  14.323 -2.5826  0.9851  0.0778
 8725SOL     OW37807   3.955   4.294  11.623  0.3433 -0.1105 -0.7352
 8725SOL    HW137808   4.028   4.236  11.641  0.4015  0.2217  0.0963
 8725SOL    HW237809   3.999   4.379  11.612 -2.2929  1.4300  0.5346
 8726SOL     OW37810   2.763   2.453   2.268 -0.6001  0.1923  0.1228
 8726SOL    HW137811   2.724   2.396   2.334  2.0154  0.5164  1.9509
 8726SOL    HW237812   2.855   2.435   2.285  0.1504  3.4193 -0.4681
 8727SOL     OW37813   4.647   1.818   5.537 -0.2534  0.0935 -0.1522
 8727SOL    HW137814   4.641   1.912   5.520  1.8901  0.1999 -0.2787
 8727SOL    HW237815   4.666   1.783   5.449  1.1524  1.1977 -0.2797
 8728SOL     OW37816   3.404   2.106   3.056 -0.0939  0.2033  0.2346
 8728SOL    HW137817   3.402   2.071   3.146  0.7255  2.4243  1.1127
 8728SOL    HW237818   3.313   2.102   3.025 -0.6864  2.9510  1.6250
 8729SOL     OW37819   2.667   1.004  10.488 -0.1562  0.2881  0.5889
 8729SOL    HW137820   2.731   0.971  10.425 -0.2941  1.7259 -0.3042
 8729SOL    HW237821   2.584   0.959  10.471 -0.4136  0.1921  2.0785
 8730SOL     OW37822   1.867   2.156   4.208 -0.1385  0.1281 -0.1568
 8730SOL    HW137823   1.893   2.064   4.219  1.5413  0.6292 -0.0334
 8730SOL    HW237824   1.917   2.196   4.279 -0.5853 -1.0677  0.8373
 8731SOL     OW37825   2.366   2.583   8.700  0.2178 -0.1713 -0.3948
 8731SOL    HW137826   2.388   2.495   8.670  0.8205 -0.3767  0.6660
 8731SOL    HW237827   2.446   2.593   8.751  0.9137 -0.4437 -1.4383
 8732SOL     OW37828   2.057   4.035   4.732  0.0272  0.3758  0.4207
 8732SOL    HW137829   1.962   4.039   4.723  0.1082  1.7080  0.1355
 8732SOL    HW237830   2.074   4.129   4.742  2.9751  0.2173 -2.8665
 8733SOL     OW37831   4.643   2.710   2.576 -0.6392 -0.2516  1.1623
 8733SOL    HW137832   4.732   2.716   2.610 -0.0948 -1.6377 -0.0132
 8733SOL    HW237833   4.648   2.769   2.501 -0.0563 -1.3580  0.3296
 8734SOL     OW37834   1.378   2.865   7.820  0.5220 -0.1242 -0.7565
 8734SOL    HW137835   1.346   2.794   7.765  4.4927 -2.1406 -0.4525
 8734SOL    HW237836   1.392   2.817   7.901  0.9940 -1.5332 -1.6637
 8735SOL     OW37837   2.679   0.421  15.141 -0.1918  0.5257  0.2655
 8735SOL    HW137838   2.632   0.371  15.074 -0.0971 -1.9660  2.0487
 8735SOL    HW237839   2.767   0.421  15.104 -0.0033 -1.3499  0.6916
 8736SOL     OW37840   3.656   0.050   5.499  0.0169 -0.1891  0.3173
 8736SOL    HW137841   3.718   0.123   5.495 -1.2408  0.8097 -1.0817
 8736SOL    HW237842   3.577   0.085   5.458 -0.7735 -0.7314  1.3738
 8737SOL     OW37843   3.997   0.645   5.242 -0.6438  0.4252  0.3714
 8737SOL    HW137844   3.934   0.646   5.314 -0.4927  0.9537  0.4972
 8737SOL    HW237845   4.049   0.722   5.262 -1.6073  0.8163  1.3748
 8738SOL     OW37846   1.205   0.542   8.300  0.1279  0.1472 -0.8962
 8738SOL    HW137847   1.208   0.616   8.360 -0.3044 -0.8044  0.3098
 8738SOL    HW237848   1.239   0.475   8.359  0.4055  0.3534 -0.8231
 8739SOL     OW37849   2.078   0.023   9.039  0.5975  0.0271 -0.2345
 8739SOL    HW137850   1.996   0.016   9.087  0.3773 -0.3785 -0.6767
 8739SOL    HW237851   2.132   0.036   9.118 -2.3274 -0.3746  1.8380
 8740SOL     OW37852   4.313   0.693   8.950 -0.1615  0.4223 -0.3397
 8740SOL    HW137853   4.385   0.657   9.001  0.9001  2.0268 -0.7085
 8740SOL    HW237854   4.240   0.669   9.008  0.1192 -2.1492 -1.0564
 8741SOL     OW37855   2.046   3.369   8.688  0.2173  0.6123  0.3379
 8741SOL    HW137856   2.127   3.389   8.735  0.1679 -0.3785  0.8498
 8741SOL    HW237857   1.977   3.380   8.753 -0.6129  0.4341 -0.5011
 8742SOL     OW37858   4.227   0.758  15.451  0.0321  0.2706 -0.1087
 8742SOL    HW137859   4.251   0.667  15.470 -0.6776  0.5114  1.9846
 8742SOL    HW237860   4.281   0.773  15.374 -0.5923 -1.8018 -0.9499
 8743SOL     OW37861   2.769   2.614   1.913  0.0637  0.2553  0.9613
 8743SOL    HW137862   2.790   2.522   1.925 -0.4987  0.0527  0.4196
 8743SOL    HW237863   2.836   2.649   1.854 -1.7670  1.4452 -0.4537
 8744SOL     OW37864   3.786   0.368   2.722 -0.1085 -0.1134  0.1568
 8744SOL    HW137865   3.846   0.333   2.656 -1.8291 -1.6799 -0.5790
 8744SOL    HW237866   3.697   0.360   2.688  0.3870 -0.1031 -1.1401
 8745SOL     OW37867   2.097   0.674  10.941 -0.3247  0.4541  0.2164
 8745SOL    HW137868   2.149   0.647  10.865  0.7868 -0.7232  1.4105
 8745SOL    HW237869   2.058   0.752  10.901 -0.0393  1.7002  2.4045
 8746SOL     OW37870   3.793   2.184   5.293  0.0123 -0.0712 -0.5276
 8746SOL    HW137871   3.845   2.167   5.214 -1.0432  1.2550 -1.5213
 8746SOL    HW237872   3.771   2.276   5.277  1.4426  0.3319 -0.1817
 8747SOL     OW37873   2.278   1.749   7.089 -0.1384  0.4613 -0.2714
 8747SOL    HW137874   2.221   1.704   7.026  0.8087  0.7755 -1.3595
 8747SOL    HW237875   2.253   1.701   7.168 -2.5311  0.0289 -1.2824
 8748SOL     OW37876   1.190   1.548  13.052 -0.6209  0.0741 -0.5548
 8748SOL    HW137877   1.193   1.640  13.077 -0.4950  0.1112 -0.7002
 8748SOL    HW237878   1.270   1.516  13.095  0.6009  4.1925  0.2455
 8749SOL     OW37879   0.926   2.159   8.743 -0.8052  0.7979  0.3397
 8749SOL    HW137880   1.015   2.156   8.707 -0.4138  0.3750  1.3223
 8749SOL    HW237881   0.948   2.166   8.836 -2.2271  0.7434  0.6711
 8750SOL     OW37882   3.672   1.147   1.747  0.4593 -0.1919 -0.3001
 8750SOL    HW137883   3.590   1.188   1.774  1.1471  1.1817 -0.3144
 8750SOL    HW237884   3.633   1.062   1.725  0.2226  0.2576 -1.5976
 8751SOL     OW37885   1.762   2.666   8.690 -0.3057  0.0606  0.2961
 8751SOL    HW137886   1.852   2.698   8.694  0.4875 -2.3479  1.7373
 8751SOL    HW237887   1.748   2.648   8.783 -1.8119  0.0492  0.0600
 8752SOL     OW37888   3.004   0.203   8.918 -0.3080 -0.1847  0.5761
 8752SOL    HW137889   3.051   0.123   8.895 -0.8547 -0.5946  0.8784
 8752SOL    HW237890   2.997   0.248   8.834 -1.9479 -0.7870  0.3983
 8753SOL     OW37891   4.705   1.447   4.957 -0.0487  0.4486  0.0518
 8753SOL    HW137892   4.654   1.398   4.891 -0.1827  1.1819 -0.3929
 8753SOL    HW237893   4.670   1.401   5.033 -1.3365 -1.2951 -1.5795
 8754SOL     OW37894   4.034   1.587   9.251  0.4095 -0.3145 -0.5268
 8754SOL    HW137895   4.049   1.529   9.177  0.6659 -0.3765 -0.4264
 8754SOL    HW237896   4.026   1.519   9.318 -0.4196  1.8012  1.5570
 8755SOL     OW37897   4.043   0.621  17.290 -0.3264 -0.2779  0.4833
 8755SOL    HW137898   4.049   0.578  17.204  0.2663  1.4831 -0.3559
 8755SOL    HW237899   4.047   0.713  17.266 -2.4422  0.2699  2.3044
 8756SOL     OW37900   4.435   1.237   3.147  0.2199  0.3154  0.2624
 8756SOL    HW137901   4.491   1.308   3.116 -0.0784 -0.4100 -1.9559
 8756SOL    HW237902   4.504   1.186   3.191  2.7908  0.5175 -3.5355
 8757SOL     OW37903   3.167   1.511   8.844 -0.1971  0.8081  0.4821
 8757SOL    HW137904   3.124   1.513   8.758  0.4397 -1.2513  0.1234
 8757SOL    HW237905   3.099   1.505   8.911 -0.5782  0.8430  0.0973
 8758SOL     OW37906   2.859   1.142   9.194  0.5373 -0.1687  0.1187
 8758SOL    HW137907   2.826   1.101   9.114  0.0881  0.6568 -0.1246
 8758SOL    HW237908   2.810   1.224   9.193  0.8008 -0.0076  0.5160
 8759SOL     OW37909   3.198   2.498   8.818  0.1319  0.7062  0.2156
 8759SOL    HW137910   3.283   2.500   8.862  0.5904  0.1007 -0.6614
 8759SOL    HW237911   3.206   2.573   8.760 -0.9856 -0.1659 -1.0679
 8760SOL     OW37912   3.987   3.292   3.996  0.4337  0.0835 -0.7392
 8760SOL    HW137913   3.995   3.243   3.914 -2.2918  0.6678 -1.3543
 8760SOL    HW237914   4.081   3.310   4.006 -0.0225  0.7943  2.1774
 8761SOL     OW37915   3.872   0.123   1.880 -0.2298 -0.0658 -0.4265
 8761SOL    HW137916   3.885   0.049   1.820  0.4662  0.3341 -0.7672
 8761SOL    HW237917   3.874   0.192   1.814  2.3980  0.0506 -0.2137
 8762SOL     OW37918   3.923   1.520   1.910 -0.8776  0.5408 -0.5349
 8762SOL    HW137919   3.954   1.523   1.820  0.9635  1.3407  0.1228
 8762SOL    HW237920   3.979   1.588   1.948  1.4983 -0.5699 -2.0636
 8763SOL     OW37921   0.067   1.615   1.796 -0.0198 -0.1667  0.2075
 8763SOL    HW137922   4.717   1.631   1.764 -1.0157 -2.9319  1.6197
 8763SOL    HW237923   0.083   1.698   1.842  0.9608 -0.1506 -0.1760
 8764SOL     OW37924   2.410   2.163   1.399 -0.0869 -1.5027  0.3902
 8764SOL    HW137925   2.435   2.098   1.465 -0.1503 -1.3326  0.5848
 8764SOL    HW237926   2.427   2.110   1.322  1.6407 -1.0185  0.4389
 8765SOL     OW37927   0.698   1.760  14.418  0.4813 -0.3533  0.4936
 8765SOL    HW137928   0.604   1.769  14.404  0.3618 -2.0176  0.2302
 8765SOL    HW237929   0.723   1.842  14.375  2.6827 -0.0589  2.3724
 8766SOL     OW37930   4.647   0.421   5.695  0.2629  0.0679  0.1237
 8766SOL    HW137931   4.691   0.346   5.737  1.4108  0.6278 -0.0778
 8766SOL    HW237932   4.616   0.373   5.618 -0.0933 -3.5713  2.5252
 8767SOL     OW37933   1.267   3.426   3.976 -0.4647 -0.2956 -0.1948
 8767SOL    HW137934   1.276   3.342   3.931  0.4021 -0.0501 -0.4772
 8767SOL    HW237935   1.186   3.408   4.023  0.5027  1.5539  2.1526
 8768SOL     OW37936   3.833   4.437   8.514  0.0153  0.1475 -0.0777
 8768SOL    HW137937   3.819   4.411   8.605 -0.4219  0.0278 -0.1778
 8768SOL    HW237938   3.761   4.499   8.501 -0.6045 -0.6533 -0.4253
 8769SOL     OW37939   1.935   3.530   5.187  0.0645 -0.4755 -0.3615
 8769SOL    HW137940   1.923   3.605   5.246 -0.4517 -0.7254 -0.1454
 8769SOL    HW237941   1.850   3.525   5.143 -0.6506 -1.5479  1.1419
 8770SOL     OW37942   0.595   3.771   8.516 -0.4881  0.3962  0.3549
 8770SOL    HW137943   0.581   3.679   8.541  0.0341  0.0515 -0.6246
 8770SOL    HW237944   0.630   3.762   8.428  2.5411 -2.2744  1.8427
 8771SOL     OW37945   2.089   2.619   4.622 -0.1845 -0.0813  0.2477
 8771SOL    HW137946   2.099   2.647   4.712  0.8707 -1.0215  0.4219
 8771SOL    HW237947   2.168   2.570   4.599  0.6149  2.0094 -1.4010
 8772SOL     OW37948   2.705   0.156   6.469  0.0718  0.1230 -0.4037
 8772SOL    HW137949   2.751   0.219   6.524  0.4793 -0.3677 -0.1798
 8772SOL    HW237950   2.689   0.202   6.387 -0.0180 -1.9119 -1.5504
 8773SOL     OW37951   0.907   2.608  15.528 -0.0677  0.3560 -0.1005
 8773SOL    HW137952   0.832   2.552  15.507  0.0163 -0.1194  0.8999
 8773SOL    HW237953   0.878   2.675  15.466  0.7816  0.8512  0.0314
 8774SOL     OW37954   3.924   0.146   2.991 -0.1478 -0.3462  0.4150
 8774SOL    HW137955   3.944   0.193   2.909 -0.2852  2.0187  1.7249
 8774SOL    HW237956   3.987   0.185   3.052  1.3073  0.7022 -1.7455
 8775SOL     OW37957   3.541   3.683  10.063 -0.0272 -0.2003 -0.4283
 8775SOL    HW137958   3.620   3.648  10.023  0.1868  0.6791 -0.7611
 8775SOL    HW237959   3.559   3.776  10.049  1.2010 -0.9175 -3.4221
 8776SOL     OW37960   0.037   3.742   7.754 -0.4722  0.3716  1.2349
 8776SOL    HW137961   4.704   3.699   7.710  1.3449 -1.2016 -0.2477
 8776SOL    HW237962   0.106   3.709   7.695 -1.7660  1.6265 -0.9783
 8777SOL     OW37963   4.546   0.706   5.419 -0.2310  0.6098  0.0221
 8777SOL    HW137964   4.491   0.721   5.495  0.6584  0.1409  0.7541
 8777SOL    HW237965   4.585   0.624   5.448  0.0653  0.7941  0.1408
 8778SOL     OW37966   0.352   1.440   8.851  0.7746 -0.4443  0.0841
 8778SOL    HW137967   0.406   1.511   8.815 -0.7382  0.1002 -1.1628
 8778SOL    HW237968   0.349   1.374   8.781 -0.1520 -2.0777  1.6683
 8779SOL     OW37969   4.285   1.417   9.623 -0.2420  0.4296  0.1351
 8779SOL    HW137970   4.268   1.388   9.713  2.0538  0.0100  0.4460
 8779SOL    HW237971   4.377   1.391   9.623 -0.9815 -2.2002  0.1585
 8780SOL     OW37972   2.754   0.563   5.356  0.5771 -0.9062  0.6120
 8780SOL    HW137973   2.758   0.552   5.451 -2.9714  0.0748  0.8640
 8780SOL    HW237974   2.673   0.516   5.334  0.4085 -0.1782 -0.3100
 8781SOL     OW37975   1.835   0.785   2.967  0.1230 -0.1745  0.2612
 8781SOL    HW137976   1.904   0.731   3.005 -0.0443  0.9339  2.1666
 8781SOL    HW237977   1.774   0.789   3.041  0.4273 -1.2809  0.5690
 8782SOL     OW37978   4.572   0.828   9.402  0.1037  0.3968  0.7281
 8782SOL    HW137979   4.534   0.885   9.335 -0.2556  1.1165  1.5502
 8782SOL    HW237980   4.657   0.810   9.361 -0.3085  0.8705 -0.3395
 8783SOL     OW37981   2.611   2.002   3.961  0.1739  0.0783  0.5532
 8783SOL    HW137982   2.692   1.983   3.914  0.2909  1.8218  0.0363
 8783SOL    HW237983   2.648   2.027   4.046 -1.4451  0.2480  1.2051
 8784SOL     OW37984   2.333   3.760   9.078 -0.3464 -0.4027 -0.3045
 8784SOL    HW137985   2.332   3.818   9.154  1.5752 -1.1160  0.2469
 8784SOL    HW237986   2.265   3.695   9.094  0.2724 -1.0473 -0.3160
 8785SOL     OW37987   2.056   0.541   8.095  0.5199 -0.4751 -0.6801
 8785SOL    HW137988   2.120   0.595   8.049  1.7429 -0.8214  0.6109
 8785SOL    HW237989   1.998   0.607   8.133  0.0051 -1.4954  0.3121
 8786SOL     OW37990   0.537   1.463  14.993  0.0463  0.4873  0.1077
 8786SOL    HW137991   0.477   1.434  14.924  2.8610 -1.3958 -1.5707
 8786SOL    HW237992   0.498   1.538  15.038  1.4609  1.2618  0.0362
 8787SOL     OW37993   1.054   3.971  15.112 -0.3523 -0.0057 -0.2303
 8787SOL    HW137994   0.961   3.963  15.089 -0.1211 -0.1631 -1.1122
 8787SOL    HW237995   1.047   4.005  15.201  0.5163  1.8109 -0.8530
 8788SOL     OW37996   0.228   3.339   4.326  0.0060 -0.2284  0.5050
 8788SOL    HW137997   0.268   3.388   4.254  0.1041  0.4304  1.0118
 8788SOL    HW237998   0.292   3.271   4.350  0.6343  0.8817  1.9075
 8789SOL     OW37999   1.242   1.111   2.529  0.0858  0.3425 -0.3005
 8789SOL    HW138000   1.254   1.192   2.480 -2.2135 -0.1338 -1.6667
 8789SOL    HW238001   1.271   1.053   2.458  0.1256 -1.9261  1.5476
 8790SOL     OW38002   2.963   3.385   2.820  0.3101 -0.5581  0.0411
 8790SOL    HW138003   2.920   3.303   2.844  1.9607 -2.2761 -2.8321
 8790SOL    HW238004   3.053   3.356   2.839  0.4811  0.0584  0.1784
 8791SOL     OW38005   0.792   1.081  15.728 -0.0814 -0.2149  0.3108
 8791SOL    HW138006   0.809   1.102  15.820  0.8235  1.7622 -0.3246
 8791SOL    HW238007   0.882   1.090  15.696 -0.3433 -0.7962 -0.5778
 8792SOL     OW38008   4.444   3.373   5.552 -0.0424 -0.3378  0.3407
 8792SOL    HW138009   4.537   3.392   5.541 -0.4568  2.2727  1.2452
 8792SOL    HW238010   4.407   3.461   5.554 -1.6148 -1.0324  1.3822
 8793SOL     OW38011   3.719   0.988   6.067 -0.7199 -0.4222 -0.0708
 8793SOL    HW138012   3.769   1.029   6.137 -3.3620  0.2456  1.4443
 8793SOL    HW238013   3.789   0.963   6.008  0.4086 -2.0575  1.9422
 8794SOL     OW38014   1.598   1.033   8.087 -0.0371  0.5287 -0.0940
 8794SOL    HW138015   1.680   0.984   8.085 -0.6078 -0.5798  2.9471
 8794SOL    HW238016   1.560   0.997   8.168 -2.7363 -0.0732 -1.6217
 8795SOL     OW38017   0.262   0.208   7.349  0.3634  0.7098  0.4051
 8795SOL    HW138018   0.226   0.127   7.314 -0.9714  1.7636 -0.6211
 8795SOL    HW238019   0.328   0.232   7.284  1.0481 -0.0426  0.8162
 8796SOL     OW38020   3.106   1.667   7.874 -0.3800  0.1269 -0.1257
 8796SOL    HW138021   3.132   1.663   7.782 -1.8681  0.6351 -0.5684
 8796SOL    HW238022   3.025   1.614   7.877  0.6553 -1.4095  0.8121
 8797SOL     OW38023   4.371   1.724   4.650  0.1894 -0.6096  0.4356
 8797SOL    HW138024   4.319   1.657   4.604  0.2788  0.5038 -1.2886
 8797SOL    HW238025   4.311   1.795   4.626 -1.1461 -0.7469  3.3525
 8798SOL     OW38026   4.332   1.154   7.548 -0.0308 -0.4172 -0.2425
 8798SOL    HW138027   4.422   1.131   7.521  0.7325 -0.7354  2.5719
 8798SOL    HW238028   4.327   1.103   7.629  1.9051 -0.8529 -0.3806
 8799SOL     OW38029   1.162   3.265   6.931  0.3687 -0.3194 -0.5618
 8799SOL    HW138030   1.207   3.313   6.861  0.4738  0.8043  0.2778
 8799SOL    HW238031   1.237   3.253   6.989  0.3212  2.5984  0.0934
 8800SOL     OW38032   2.097   3.352  17.471 -0.4278 -0.2547 -0.5517
 8800SOL    HW138033   2.128   3.321  17.556 -2.1473 -1.0255 -0.2045
 8800SOL    HW238034   2.002   3.349  17.485 -0.3624 -1.0140 -0.2547
 8801SOL     OW38035   0.425   1.128   8.782  0.4519 -0.3811  0.0048
 8801SOL    HW138036   0.505   1.179   8.795  0.2579 -0.6126  2.0287
 8801SOL    HW238037   0.397   1.159   8.696 -0.0581  0.3806  0.4453
 8802SOL     OW38038   2.162   0.635   0.219  0.0201  0.2759 -0.4824
 8802SOL    HW138039   2.193   0.593   0.139  0.4990 -0.0516 -0.1222
 8802SOL    HW238040   2.142   0.557   0.269 -1.3231 -0.2373 -1.7960
 8803SOL     OW38041   1.915   0.037   3.756 -0.2141 -0.0399 -0.0838
 8803SOL    HW138042   1.821   0.018   3.757 -0.6426  1.9794 -1.0523
 8803SOL    HW238043   1.935   0.048   3.663 -0.9395  1.0763 -0.1025
 8804SOL     OW38044   2.494   4.130   4.712  0.1566 -0.2448  0.6623
 8804SOL    HW138045   2.453   4.156   4.794 -0.6643 -0.4436  0.3141
 8804SOL    HW238046   2.419   4.099   4.660 -0.4123  1.1298  0.6613
 8805SOL     OW38047   2.637   2.449  14.248 -0.6004  0.1229  0.2971
 8805SOL    HW138048   2.656   2.449  14.154  0.4663 -2.0312  0.5276
 8805SOL    HW238049   2.589   2.532  14.255 -2.7467 -1.1085  0.1625
 8806SOL     OW38050   2.930   4.095   8.620 -0.2586 -0.2823 -0.4157
 8806SOL    HW138051   2.869   4.117   8.549 -1.3606  0.3285  0.7085
 8806SOL    HW238052   3.013   4.073   8.579 -1.4801 -0.9818 -2.5316
 8807SOL     OW38053   1.118   1.005   8.217 -0.3197  0.0587  0.2967
 8807SOL    HW138054   1.032   0.984   8.252  0.2444  0.6674  2.0387
 8807SOL    HW238055   1.102   0.987   8.124  1.1246  1.5592 -0.2458
 8808SOL     OW38056   1.338   2.210   0.285  0.2137 -0.4224 -0.7253
 8808SOL    HW138057   1.406   2.200   0.352 -0.4376 -1.1059 -0.1581
 8808SOL    HW238058   1.288   2.281   0.325  1.7461 -0.1925  0.8202
 8809SOL     OW38059   2.286   3.386   5.603 -0.2638 -0.0333  1.1322
 8809SOL    HW138060   2.273   3.397   5.697  0.8319  0.3110  1.2470
 8809SOL    HW238061   2.358   3.323   5.600  0.6635  1.0455  0.7072
 8810SOL     OW38062   2.372   2.991   3.657  0.2557 -0.0380  0.1308
 8810SOL    HW138063   2.383   3.062   3.720 -0.0693  1.7326 -1.7798
 8810SOL    HW238064   2.337   2.924   3.715  0.5434  0.3014  0.6912
 8811SOL     OW38065   1.249   4.488   5.557 -0.0018  0.1104  0.1126
 8811SOL    HW138066   1.272   4.462   5.646  1.7653  1.5281  0.0772
 8811SOL    HW238067   1.341   4.492   5.530 -0.1394 -0.9477 -0.5359
 8812SOL     OW38068   2.703   1.906   8.365 -0.0812  0.1132  0.4996
 8812SOL    HW138069   2.773   1.844   8.385  0.6749  0.7231 -0.2500
 8812SOL    HW238070   2.621   1.858   8.355 -0.3435  0.9308 -1.1760
 8813SOL     OW38071   1.477   1.288   6.281 -0.5711 -0.2834  0.3270
 8813SOL    HW138072   1.478   1.205   6.328 -2.9141  0.2990  1.3985
 8813SOL    HW238073   1.440   1.262   6.197  2.4346  0.8446 -1.3657
 8814SOL     OW38074   4.248   2.458   2.026 -0.2260  0.0688  0.1800
 8814SOL    HW138075   4.280   2.393   2.088  0.5862 -0.7944 -1.1517
 8814SOL    HW238076   4.220   2.408   1.949 -1.0656 -1.3824  1.4337
 8815SOL     OW38077   3.116   2.235   6.298  0.3054 -0.1298 -0.2356
 8815SOL    HW138078   3.201   2.212   6.259 -0.0128 -0.6717 -0.6061
 8815SOL    HW238079   3.090   2.314   6.252 -2.8768 -0.4618  1.0398
 8816SOL     OW38080   2.297   1.101  11.731  0.0961 -0.5467 -0.0018
 8816SOL    HW138081   2.249   1.047  11.794 -0.0964  0.1692  0.4592
 8816SOL    HW238082   2.270   1.189  11.758  1.8036 -0.4474  1.4089
 8817SOL     OW38083   1.158   3.695  15.196  0.3691  0.2428 -0.0561
 8817SOL    HW138084   1.217   3.743  15.255  1.6565  0.8478 -1.8505
 8817SOL    HW238085   1.120   3.766  15.144  2.4685  1.0522 -0.4814
 8818SOL     OW38086   3.252   4.194  14.510 -0.0859 -0.4517  0.1372
 8818SOL    HW138087   3.243   4.110  14.555  0.5627 -0.0067  1.0854
 8818SOL    HW238088   3.320   4.177  14.446  0.6944  0.9031  0.6030
 8819SOL     OW38089   0.769   3.267   1.217 -0.0454 -0.1497  0.3793
 8819SOL    HW138090   0.687   3.250   1.171  1.5551  1.2960 -3.0023
 8819SOL    HW238091   0.757   3.361   1.232 -2.3348 -0.2628 -0.6886
 8820SOL     OW38092   0.560   2.335   9.354 -0.4013  1.0680 -0.1427
 8820SOL    HW138093   0.577   2.429   9.352  1.4646  0.7664  1.9417
 8820SOL    HW238094   0.575   2.322   9.447 -0.0608 -1.3011 -0.5252
 8821SOL     OW38095   1.822   1.476   0.412  0.1232 -0.0232  0.4259
 8821SOL    HW138096   1.826   1.511   0.501 -2.4119 -1.0161  0.9478
 8821SOL    HW238097   1.843   1.385   0.433  0.8207 -0.5751 -2.6647
 8822SOL     OW38098   1.004   0.276   2.863 -0.0230  0.4200  0.4284
 8822SOL    HW138099   0.935   0.235   2.915 -1.4748  0.4004 -1.5286
 8822SOL    HW238100   1.043   0.200   2.818 -0.4857  0.2704  0.2812
 8823SOL     OW38101   0.265   4.031   2.314 -0.3431  0.3373  1.0610
 8823SOL    HW138102   0.215   4.108   2.286 -0.9665 -0.6907 -0.6421
 8823SOL    HW238103   0.353   4.067   2.325 -0.6747  1.5926 -0.3731
 8824SOL     OW38104   2.826   1.387   6.373  0.4993 -0.2144 -0.4635
 8824SOL    HW138105   2.764   1.334   6.322  1.3087  0.1671 -1.8393
 8824SOL    HW238106   2.762   1.447   6.411 -0.9949 -2.1222  0.0504
 8825SOL     OW38107   1.059   1.616   8.591  0.5556  0.0351  0.1242
 8825SOL    HW138108   1.056   1.610   8.495 -0.7991 -0.0988  0.1750
 8825SOL    HW238109   1.057   1.711   8.600 -1.1386 -0.1569  1.7574
 8826SOL     OW38110   1.857   4.514   2.483 -0.0227  0.0539  0.0497
 8826SOL    HW138111   1.856   4.493   2.389 -1.2283  1.3749 -0.2561
 8826SOL    HW238112   1.862   4.610   2.492  0.7930  0.0432 -0.3327
 8827SOL     OW38113   0.385   1.113   3.012  0.5541 -1.0984  0.4842
 8827SOL    HW138114   0.362   1.026   3.046 -1.2334 -1.1845 -0.9655
 8827SOL    HW238115   0.312   1.162   3.051 -0.3887 -2.2209  0.1463
 8828SOL     OW38116   2.733   2.830   3.343 -0.8905 -0.5986 -0.0886
 8828SOL    HW138117   2.648   2.871   3.329  0.2546  1.6354 -0.5523
 8828SOL    HW238118   2.793   2.895   3.306 -1.6577  0.0512 -0.1795
 8829SOL     OW38119   0.884   3.320   2.841  0.2008  0.1389 -0.0400
 8829SOL    HW138120   0.919   3.230   2.841 -0.9949 -0.3298  0.2847
 8829SOL    HW238121   0.894   3.345   2.750  1.7870 -2.9696 -0.7244
 8830SOL     OW38122   4.094   0.323   0.503  0.5218 -0.0483  0.0688
 8830SOL    HW138123   4.098   0.385   0.430 -2.1908  0.0453  0.0167
 8830SOL    HW238124   4.004   0.326   0.535  1.2687 -1.3507  2.2541
 8831SOL     OW38125   3.685   2.336  10.982 -0.4327  0.0329  0.3158
 8831SOL    HW138126   3.748   2.397  10.942 -0.0356 -0.1271  0.6879
 8831SOL    HW238127   3.721   2.256  10.945 -0.2533  0.4739 -0.4732
 8832SOL     OW38128   1.831   1.925   3.523  0.0269  0.0184  0.0501
 8832SOL    HW138129   1.904   1.983   3.546 -1.2514  1.2404  0.9889
 8832SOL    HW238130   1.876   1.842   3.537  2.1970  0.9337 -1.4169
 8833SOL     OW38131   2.753   4.549   4.123  0.5345 -0.0691 -0.3214
 8833SOL    HW138132   2.735   4.493   4.199 -1.1504  2.2517  1.0003
 8833SOL    HW238133   2.830   4.596   4.154  0.9469 -1.6427  1.0757
 8834SOL     OW38134   2.206   0.997  13.841 -0.1804 -0.0627  0.5911
 8834SOL    HW138135   2.128   0.994  13.896 -0.1776  0.2397  0.6066
 8834SOL    HW238136   2.225   1.090  13.841 -0.8134  0.0673 -0.2860
 8835SOL     OW38137   1.660   3.801   9.940  0.5749  0.0686  0.3307
 8835SOL    HW138138   1.732   3.862   9.922 -1.8628  2.6201 -0.7039
 8835SOL    HW238139   1.640   3.767   9.853  1.2553 -2.3450  1.1248
 8836SOL     OW38140   4.378   4.635   9.267 -0.2264  0.8954 -0.1797
 8836SOL    HW138141   4.442   4.685   9.316  0.9423  0.0724 -0.8745
 8836SOL    HW238142   4.295   4.667   9.303 -1.5450 -0.0185 -2.3788
 8837SOL     OW38143   1.218   0.192   8.309 -0.0241  0.5247  0.2397
 8837SOL    HW138144   1.291   0.251   8.289 -0.3295 -0.4217 -3.7056
 8837SOL    HW238145   1.188   0.218   8.396  0.1226 -2.2517  1.1147
 8838SOL     OW38146   1.156   4.369   4.001 -0.1326 -0.5223 -0.0106
 8838SOL    HW138147   1.161   4.361   4.096 -1.9847 -1.6215 -0.0117
 8838SOL    HW238148   1.177   4.462   3.990  0.9085 -0.5533  1.6231
 8839SOL     OW38149   0.704   0.590   7.593  0.4005 -1.0148  0.3735
 8839SOL    HW138150   0.758   0.663   7.564 -0.5839 -0.8030 -0.9275
 8839SOL    HW238151   0.626   0.601   7.540  1.4420  0.2351 -0.8691
 8840SOL     OW38152   1.661   0.886   7.421 -0.3208  0.4741  0.0449
 8840SOL    HW138153   1.603   0.902   7.495 -1.8885 -2.0183 -0.5999
 8840SOL    HW238154   1.650   0.964   7.367  1.2538 -1.1427 -2.6506
 8841SOL     OW38155   3.995   0.530   6.257 -0.1150  0.0720 -0.4086
 8841SOL    HW138156   4.047   0.556   6.333 -0.9916 -1.7771  0.8118
 8841SOL    HW238157   3.937   0.606   6.247  1.1940  1.0569 -0.6298
 8842SOL     OW38158   3.959   0.529   6.921  0.3488  0.4228  0.0299
 8842SOL    HW138159   3.913   0.447   6.939 -0.5341  1.0208  0.4727
 8842SOL    HW238160   3.953   0.519   6.826 -0.0054  0.7044  0.0255
 8843SOL     OW38161   0.942   1.887   6.722  0.1460  0.0505 -0.4949
 8843SOL    HW138162   0.861   1.866   6.675 -0.1296  0.1113 -0.0569
 8843SOL    HW238163   0.963   1.811   6.777  0.5993  1.1435  0.8581
 8844SOL     OW38164   1.733   1.198   3.993 -0.0927 -0.1834  0.1029
 8844SOL    HW138165   1.661   1.136   4.005 -1.3403  1.2686  0.1436
 8844SOL    HW238166   1.694   1.280   3.962 -0.8850 -0.1611  1.1461
 8845SOL     OW38167   3.384   0.186   0.544 -0.1558 -0.3965  0.4239
 8845SOL    HW138168   3.304   0.238   0.550  0.1206  0.2294 -1.3868
 8845SOL    HW238169   3.414   0.206   0.455 -1.4055  2.5732  0.6707
 8846SOL     OW38170   2.616   1.235   6.224 -0.1433 -0.4614  0.1599
 8846SOL    HW138171   2.643   1.236   6.133 -0.0699 -0.4745  0.1815
 8846SOL    HW238172   2.596   1.142   6.237 -1.5475 -0.1846 -0.0046
 8847SOL     OW38173   2.389   4.499   8.042 -0.0317 -0.1354  0.2871
 8847SOL    HW138174   2.342   4.503   8.126 -0.1464  1.7225  0.1152
 8847SOL    HW238175   2.342   4.430   7.995  0.1123  0.3643 -0.5806
 8848SOL     OW38176   2.202   4.064  13.050 -0.1160 -0.2698 -0.3064
 8848SOL    HW138177   2.193   4.072  13.145  1.4830  3.0363 -0.4335
 8848SOL    HW238178   2.181   4.154  13.021  0.7797 -0.8131 -2.6596
 8849SOL     OW38179   3.563   4.730   4.258  0.0291  0.4882  0.2317
 8849SOL    HW138180   3.509   0.034   4.192  0.0628  1.2183  0.6825
 8849SOL    HW238181   3.654   0.002   4.233 -0.1318  1.5737  0.1332
 8850SOL     OW38182   3.656   2.962   1.677  0.3747 -0.3735 -0.5705
 8850SOL    HW138183   3.734   3.003   1.640 -0.3441  0.5979 -1.0214
 8850SOL    HW238184   3.677   2.871   1.697  0.9262  0.2478  1.5555
 8851SOL     OW38185   1.777   1.131  16.656 -0.1116 -0.2070  0.0196
 8851SOL    HW138186   1.785   1.224  16.636  1.2076 -0.3749 -0.1927
 8851SOL    HW238187   1.837   1.131  16.731  2.3169  0.1386 -1.9412
 8852SOL     OW38188   3.857   0.774   4.461  0.2317 -0.0727 -0.2566
 8852SOL    HW138189   3.826   0.818   4.540 -0.0716 -2.6348  1.0282
 8852SOL    HW238190   3.922   0.840   4.436 -1.2315  0.3827 -2.9059
 8853SOL     OW38191   2.823   3.510   6.396 -0.2933  0.4034 -0.0024
 8853SOL    HW138192   2.876   3.450   6.344  0.9742 -0.9959  2.8901
 8853SOL    HW238193   2.762   3.450   6.440 -2.3303  3.2252  1.0396
 8854SOL     OW38194   1.268   4.685   8.097  0.1737  0.2649 -0.0092
 8854SOL    HW138195   1.248   4.605   8.047 -0.2528  1.3316 -1.5491
 8854SOL    HW238196   1.193   4.734   8.063  0.9527  2.0207  0.8000
 8855SOL     OW38197   3.645   4.504  17.585 -0.2186  0.0381  0.5188
 8855SOL    HW138198   3.675   4.534  17.499 -3.1558 -1.1524 -0.9103
 8855SOL    HW238199   3.702   4.559  17.639 -1.9787 -0.8929  3.3552
 8856SOL     OW38200   0.990   1.955   0.203  0.2208  0.1717 -0.5405
 8856SOL    HW138201   1.066   2.004   0.171 -0.2214 -0.1578 -2.0994
 8856SOL    HW238202   0.932   1.940   0.128 -0.0062  1.5450 -0.6460
 8857SOL     OW38203   2.841   0.813  13.871  0.0266  0.0085  0.4097
 8857SOL    HW138204   2.838   0.729  13.825  1.3418 -1.0797  2.3310
 8857SOL    HW238205   2.850   0.868  13.793  1.3252  0.4033  0.8395
 8858SOL     OW38206   2.467   1.453   7.956  0.8461 -0.7977 -0.3351
 8858SOL    HW138207   2.489   1.545   7.964 -1.1681 -0.4255  1.1752
 8858SOL    HW238208   2.477   1.415   8.044 -1.1160 -0.4626  0.0406
 8859SOL     OW38209   3.876   4.158   4.237 -0.5980 -0.5944 -0.3642
 8859SOL    HW138210   3.872   4.064   4.254  1.6520 -0.9193 -1.5642
 8859SOL    HW238211   3.805   4.203   4.283  0.8325  0.2020  1.0556
 8860SOL     OW38212   1.492   4.199   8.218  0.2079 -0.0856 -0.2478
 8860SOL    HW138213   1.490   4.128   8.282  0.5045 -0.0078 -0.1519
 8860SOL    HW238214   1.546   4.157   8.152  0.2595  0.6111 -0.6501
 8861SOL     OW38215   1.798   0.016  17.135  0.3826  0.9662 -0.2477
 8861SOL    HW138216   1.722   0.057  17.175 -0.0259  0.9241 -0.9908
 8861SOL    HW238217   1.787   4.661  17.148  0.1612  0.7999 -1.7193
 8862SOL     OW38218   1.461   3.988  14.047  0.5037 -0.0753 -0.1150
 8862SOL    HW138219   1.451   4.083  14.035 -1.8694 -0.1000  1.5265
 8862SOL    HW238220   1.550   3.982  14.082  1.4181 -0.3584 -2.5275
 8863SOL     OW38221   1.229   2.983   5.848  0.0307  0.4584 -0.0050
 8863SOL    HW138222   1.260   3.008   5.935  0.3726 -1.9735  0.5732
 8863SOL    HW238223   1.318   2.971   5.816  0.8660  0.6039  2.2864
 8864SOL     OW38224   4.023   3.014   2.510 -0.1271  0.0626  0.4204
 8864SOL    HW138225   3.940   3.061   2.499 -0.1434  0.0434  0.4620
 8864SOL    HW238226   4.005   2.936   2.458 -0.0899 -0.7457  1.6218
 8865SOL     OW38227   1.613   2.134  16.145 -0.3674 -0.8467 -0.3373
 8865SOL    HW138228   1.682   2.092  16.195  0.5696  0.4953 -0.5090
 8865SOL    HW238229   1.558   2.139  16.223 -1.4993 -3.0688 -1.0026
 8866SOL     OW38230   2.109   0.993  13.376 -0.0749  0.4790  0.4592
 8866SOL    HW138231   2.164   1.027  13.446 -0.1837  1.0590  0.2655
 8866SOL    HW238232   2.025   1.036  13.390 -0.6130 -0.3628 -0.2116
 8867SOL     OW38233   4.707   1.305   5.808  0.7249  0.1250  0.1767
 8867SOL    HW138234   4.684   1.375   5.747  1.9161 -0.4337 -0.9040
 8867SOL    HW238235   4.706   1.235   5.743 -0.7816  0.1857  0.1278
 8868SOL     OW38236   1.280   4.375   9.075  0.0982  0.3270  0.1390
 8868SOL    HW138237   1.215   4.402   9.011 -0.8890  1.6143  1.6848
 8868SOL    HW238238   1.355   4.349   9.022  1.1991  1.2973  1.2062
 8869SOL     OW38239   0.939   3.838   2.977 -0.7295  0.1120  0.3858
 8869SOL    HW138240   0.929   3.922   3.021 -2.1215  0.8303 -1.3049
 8869SOL    HW238241   0.858   3.823   2.928 -0.4343 -1.3089  0.3338
 8870SOL     OW38242   2.619   2.217   7.766 -0.4362 -0.2801 -0.4039
 8870SOL    HW138243   2.660   2.259   7.841 -3.8314 -1.5096  2.1135
 8870SOL    HW238244   2.687   2.233   7.700  0.5833 -0.7053  0.5560
 8871SOL     OW38245   0.423   0.608  15.370  0.1178  0.4802 -0.5160
 8871SOL    HW138246   0.434   0.702  15.388 -0.9782  0.2256  1.5097
 8871SOL    HW238247   0.429   0.568  15.457 -2.7851  1.1971 -0.0061
 8872SOL     OW38248   3.970   0.876  11.271 -0.1553  0.2864 -0.5450
 8872SOL    HW138249   4.043   0.860  11.212  1.3662 -0.6302  1.5571
 8872SOL    HW238250   4.010   0.922  11.344 -1.0749 -0.4473  0.4362
 8873SOL     OW38251   4.365   2.414  16.185 -0.0655 -0.4212 -0.1025
 8873SOL    HW138252   4.337   2.329  16.218  1.5389 -0.3310  1.4803
 8873SOL    HW238253   4.307   2.409  16.109 -0.1461 -2.6315  0.0884
 8874SOL     OW38254   3.644   1.299   3.076 -0.3771  0.3841  0.0321
 8874SOL    HW138255   3.738   1.310   3.090 -0.6014  1.3896  0.7568
 8874SOL    HW238256   3.605   1.384   3.093 -2.5351 -0.7674  0.8720
 8875SOL     OW38257   0.839   4.481  16.226  0.0387 -0.0742  0.1611
 8875SOL    HW138258   0.851   4.388  16.244  0.3427  0.1557  1.1482
 8875SOL    HW238259   0.931   4.510  16.225 -0.6897  2.3358  1.6624
 8876SOL     OW38260   4.266   3.293   4.022  0.2988  0.3041 -0.2498
 8876SOL    HW138261   4.260   3.262   4.113 -1.2105 -0.9520 -0.7715
 8876SOL    HW238262   4.302   3.380   4.041  1.0168  0.4263 -2.2210
 8877SOL     OW38263   0.142   3.316  12.374  0.2262 -0.0771 -0.2143
 8877SOL    HW138264   0.202   3.339  12.302 -0.4386 -0.8519 -1.0106
 8877SOL    HW238265   0.187   3.362  12.445  1.3302  1.7383 -2.0805
 8878SOL     OW38266   3.285   2.711  16.149 -0.2402  0.0752  0.5526
 8878SOL    HW138267   3.283   2.666  16.065 -0.6495  2.8189 -0.9010
 8878SOL    HW238268   3.282   2.804  16.125  1.2579 -0.6155 -2.2730
 8879SOL     OW38269   1.929   1.210   7.430  0.0520 -0.0226 -0.5313
 8879SOL    HW138270   1.864   1.154   7.387 -0.2085 -0.6476  0.6530
 8879SOL    HW238271   1.901   1.205   7.521  1.1825 -0.5453 -0.2138
 8880SOL     OW38272   1.577   3.670   9.167  0.0433  0.2909  0.2569
 8880SOL    HW138273   1.668   3.648   9.146 -0.0445  0.8450 -0.7441
 8880SOL    HW238274   1.561   3.676   9.261 -1.0269  0.0311  0.0948
 8881SOL     OW38275   1.139   1.589   1.454  0.4554 -0.3288  0.5416
 8881SOL    HW138276   1.170   1.532   1.384  2.6361  0.8257  0.5706
 8881SOL    HW238277   1.189   1.557   1.529  3.0280 -0.2796 -1.1295
 8882SOL     OW38278   0.174   4.599   6.527  0.2338 -0.1482 -0.1807
 8882SOL    HW138279   0.134   4.681   6.497 -2.5742 -0.6161  2.2063
 8882SOL    HW238280   0.246   4.595   6.464  0.0102  1.8612 -0.5636
 8883SOL     OW38281   2.483   2.929   3.234 -0.6836  0.3902  0.1453
 8883SOL    HW138282   2.423   2.993   3.273  1.3281  1.2336  1.8834
 8883SOL    HW238283   2.422   2.857   3.219 -1.0379  1.1874 -2.1994
 8884SOL     OW38284   3.085   3.385   5.921 -0.3132  0.4785 -0.0315
 8884SOL    HW138285   3.110   3.319   5.987  1.1059  0.2292 -0.8178
 8884SOL    HW238286   2.990   3.384   5.931 -0.0723  0.2762  2.3293
 8885SOL     OW38287   4.724   2.376  15.739 -0.2080 -0.2711  0.6121
 8885SOL    HW138288   0.040   2.443  15.701 -1.1394 -0.0242 -0.3148
 8885SOL    HW238289   4.643   2.424  15.759  0.0131  0.5312 -0.4483
 8886SOL     OW38290   4.403   2.789   4.691  0.3733 -0.0859  0.1383
 8886SOL    HW138291   4.405   2.752   4.603  2.7440 -0.3403  0.3193
 8886SOL    HW238292   4.458   2.868   4.686  0.8696 -0.4012  0.6295
 8887SOL     OW38293   1.778   1.276  12.791 -0.9492  0.6909  0.2241
 8887SOL    HW138294   1.873   1.286  12.800 -0.6650 -0.9703 -1.0622
 8887SOL    HW238295   1.768   1.189  12.753  0.3346  1.0239 -0.9018
 8888SOL     OW38296   3.336   0.351   5.601  0.4215  0.1713  0.5904
 8888SOL    HW138297   3.294   0.437   5.606  3.2142  1.3467  3.7487
 8888SOL    HW238298   3.349   0.339   5.507  0.8157 -0.2819  0.7018
 8889SOL     OW38299   4.016   0.746   9.635  0.3327 -0.6917 -0.1892
 8889SOL    HW138300   4.099   0.702   9.655  1.3065  0.5743 -1.4732
 8889SOL    HW238301   3.961   0.716   9.707  0.4007  1.4868  0.7831
 8890SOL     OW38302   4.016   1.507  12.883  0.6833  0.2292  0.0794
 8890SOL    HW138303   4.013   1.413  12.867  1.6275  0.1662  0.2525
 8890SOL    HW238304   4.012   1.508  12.979  1.2647 -1.5977  0.1248
 8891SOL     OW38305   3.142   3.455   9.256  0.1448 -0.4901  0.0035
 8891SOL    HW138306   3.140   3.489   9.166 -2.4917  0.5792  0.4684
 8891SOL    HW238307   3.177   3.531   9.302 -2.1344  0.9775 -0.7015
 8892SOL     OW38308   2.613   3.714   4.269 -0.5397  1.6006  0.0953
 8892SOL    HW138309   2.591   3.788   4.212 -1.0090  1.3822 -0.0070
 8892SOL    HW238310   2.701   3.744   4.291  0.5828 -0.6144 -1.3563
 8893SOL     OW38311   3.107   1.828   4.449 -0.3007 -0.4729  0.3443
 8893SOL    HW138312   3.044   1.756   4.459  1.3284 -1.8777  0.5183
 8893SOL    HW238313   3.039   1.895   4.441  0.6628  0.7285  2.1731
 8894SOL     OW38314   4.508   1.468  17.359 -0.2988 -0.0032 -0.0914
 8894SOL    HW138315   4.455   1.499  17.286  1.3769 -0.2613 -1.4054
 8894SOL    HW238316   4.544   1.550  17.395  0.8224  0.6329 -2.6767
 8895SOL     OW38317   3.823   0.313   8.647  0.6054 -0.4481  0.3339
 8895SOL    HW138318   3.864   0.233   8.679 -0.8063 -0.8020  1.2514
 8895SOL    HW238319   3.743   0.282   8.604  1.8265 -0.6671 -1.7463
 8896SOL     OW38320   0.383   0.298   6.149 -0.4676  0.3364  0.0913
 8896SOL    HW138321   0.478   0.292   6.138 -0.5076  0.7257 -0.4789
 8896SOL    HW238322   0.343   0.236   6.087  1.1764 -1.5772  0.9503
 8897SOL     OW38323   3.709   0.061   2.148  0.4607 -0.2218 -0.4488
 8897SOL    HW138324   3.773   0.076   2.217 -1.6774 -0.8607  1.6496
 8897SOL    HW238325   3.758   0.087   2.070 -0.4476  0.7718 -0.6853
 8898SOL     OW38326   4.006   1.281   4.470 -0.3524  0.4360  0.4240
 8898SOL    HW138327   4.088   1.297   4.422 -1.6137  1.7408 -1.2702
 8898SOL    HW238328   4.012   1.349   4.537  0.1139  1.6534 -0.8372
 8899SOL     OW38329   1.569   0.896   5.245  0.4249 -0.0649  0.1180
 8899SOL    HW138330   1.625   0.952   5.298  0.8910 -0.2062 -0.2233
 8899SOL    HW238331   1.524   0.958   5.187  0.3758 -1.5131 -1.4102
 8900SOL     OW38332   1.219   3.662   8.170 -0.1745  0.1060  0.5263
 8900SOL    HW138333   1.171   3.653   8.088  0.3590 -0.5125  0.2813
 8900SOL    HW238334   1.163   3.659   8.247 -0.3018  0.7668  0.4672
 8901SOL     OW38335   0.397   3.000   7.766  0.2894  0.0524 -0.0383
 8901SOL    HW138336   0.302   2.994   7.776  0.1680  0.3576 -0.9704
 8901SOL    HW238337   0.408   2.923   7.711 -1.6877 -1.0965  1.1776
 8902SOL     OW38338   2.206   1.741  14.232  0.1240 -0.2231  0.3275
 8902SOL    HW138339   2.293   1.780  14.228  0.7861 -1.8492 -1.1235
 8902SOL    HW238340   2.226   1.654  14.196 -3.0128 -0.0629 -1.8524
 8903SOL     OW38341   3.728   1.988   3.351  0.3376  0.4854 -0.0713
 8903SOL    HW138342   3.675   1.969   3.429  0.3929 -0.5023 -0.2763
 8903SOL    HW238343   3.767   1.903   3.331 -0.8906 -0.3919  1.1880
 8904SOL     OW38344   3.177   1.701  15.447  0.1077 -0.3964 -0.4196
 8904SOL    HW138345   3.217   1.712  15.360  2.2971  1.0228  0.7433
 8904SOL    HW238346   3.252   1.670  15.498  1.6199  2.0146 -1.1523
 8905SOL     OW38347   2.507   2.017   1.863 -0.1455 -0.3057 -0.3654
 8905SOL    HW138348   2.571   1.996   1.931 -1.4236 -1.3037  0.5482
 8905SOL    HW238349   2.438   2.063   1.911 -0.1425 -0.0045 -0.6564
 8906SOL     OW38350   4.725   3.453   5.854  0.3582 -0.1538  0.2450
 8906SOL    HW138351   0.075   3.432   5.826  0.1576  0.5797 -0.9852
 8906SOL    HW238352   4.722   3.418   5.942 -1.8826 -1.7671 -0.4893
 8907SOL     OW38353   4.054   2.671   6.326 -0.0475  0.1175  0.1677
 8907SOL    HW138354   3.971   2.704   6.291  0.4821 -0.3427 -1.4920
 8907SOL    HW238355   4.099   2.747   6.364  2.3043 -0.9276 -0.5686
 8908SOL     OW38356   0.762   4.606   7.827 -0.6613 -0.0705  0.0485
 8908SOL    HW138357   0.707   4.653   7.764  0.5358 -1.4784 -2.0561
 8908SOL    HW238358   0.848   4.648   7.820  0.2982 -1.8158  1.2812
 8909SOL     OW38359   2.666   3.660   8.731 -0.4211  0.3182 -0.3086
 8909SOL    HW138360   2.586   3.664   8.784  1.0771  0.8135  1.8733
 8909SOL    HW238361   2.638   3.677   8.641  3.9652  1.1548 -1.5058
 8910SOL     OW38362   3.224   4.511  13.723 -0.3890 -0.0926 -0.3609
 8910SOL    HW138363   3.212   4.547  13.811 -0.3210 -0.0173 -0.3818
 8910SOL    HW238364   3.306   4.553  13.695  1.2240 -2.5553  0.6935
 8911SOL     OW38365   0.658   3.850   2.307 -0.3199  0.1786 -0.1463
 8911SOL    HW138366   0.735   3.866   2.361 -0.6455  2.2582 -0.3158
 8911SOL    HW238367   0.596   3.913   2.345 -0.2847 -0.0558  0.2952
 8912SOL     OW38368   1.469   2.256  17.080 -0.0999  0.1860 -0.0225
 8912SOL    HW138369   1.461   2.164  17.105  2.1126  0.0917  0.2764
 8912SOL    HW238370   1.522   2.300  17.146  0.3145 -0.4037  0.0397
 8913SOL     OW38371   1.536   3.015   4.699  0.5673  0.6411  0.2415
 8913SOL    HW138372   1.548   2.955   4.626  1.7792  1.4531 -0.2312
 8913SOL    HW238373   1.451   2.989   4.736 -0.4273  1.4777 -1.4604
 8914SOL     OW38374   3.393   4.321  14.697  0.2775 -0.0672  0.1741
 8914SOL    HW138375   3.337   4.286  14.627  0.8835 -2.2793  0.7908
 8914SOL    HW238376   3.361   4.274  14.774  1.5387  0.0218  0.7528
 8915SOL     OW38377   2.392   3.158   3.881  0.6692 -0.4390  0.6950
 8915SOL    HW138378   2.348   3.186   3.961  0.1882  2.3568 -0.5200
 8915SOL    HW238379   2.480   3.179   3.911  1.6005 -3.7941  0.2308
 8916SOL     OW38380   1.188   0.161   6.177 -0.2798 -0.1326  0.1521
 8916SOL    HW138381   1.208   0.073   6.145  0.3218  0.9393 -2.3877
 8916SOL    HW238382   1.165   0.133   6.266 -2.8065 -3.7844 -1.6400
 8917SOL     OW38383   3.274   3.825  16.648 -0.0888  0.6198 -0.2491
 8917SOL    HW138384   3.342   3.796  16.710 -0.9164 -0.6257  0.0812
 8917SOL    HW238385   3.220   3.746  16.656  1.4418 -0.2437  1.5993
 8918SOL     OW38386   3.184   1.861  15.083 -0.5173  0.0183  0.1278
 8918SOL    HW138387   3.099   1.846  15.042 -0.2840 -3.4412  0.8769
 8918SOL    HW238388   3.152   1.909  15.159  2.7181 -0.2157  1.6282
 8919SOL     OW38389   4.704   2.728   6.696 -0.0405 -0.3328 -0.5054
 8919SOL    HW138390   0.015   2.725   6.615 -3.4560  2.4382 -2.7259
 8919SOL    HW238391   4.692   2.821   6.713  0.9067 -0.3803  0.4064
 8920SOL     OW38392   0.710   1.506   5.102  0.4193  0.2921  0.3226
 8920SOL    HW138393   0.740   1.518   5.193 -0.2288  0.3924  0.5198
 8920SOL    HW238394   0.618   1.529   5.104  0.7205  1.5918 -0.8709
 8921SOL     OW38395   2.662   1.676   3.978  0.1364  0.1329 -0.3028
 8921SOL    HW138396   2.752   1.666   4.009  0.3522 -0.2700 -1.0608
 8921SOL    HW238397   2.615   1.708   4.055 -1.3429  0.2763 -1.2665
 8922SOL     OW38398   3.327   0.162  17.417 -0.3484  0.0483 -0.1875
 8922SOL    HW138399   3.330   0.258  17.424 -0.9311  0.1409 -1.2864
 8922SOL    HW238400   3.317   0.134  17.508 -0.2495 -4.1350 -1.4827
 8923SOL     OW38401   1.818   3.514   8.088 -0.2079  0.1418 -0.3484
 8923SOL    HW138402   1.726   3.491   8.105  0.9138 -4.7785 -0.8551
 8923SOL    HW238403   1.846   3.564   8.164  0.3549  1.2911 -1.3254
 8924SOL     OW38404   4.359   0.044   7.341 -0.3038 -0.4204 -0.4324
 8924SOL    HW138405   4.291   4.738   7.292 -0.3018  0.0533 -0.8717
 8924SOL    HW238406   4.392   4.716   7.400 -0.6479 -0.8180 -0.7036
 8925SOL     OW38407   3.986   0.243   4.812 -0.0319  0.0714  0.3039
 8925SOL    HW138408   3.975   0.193   4.893  0.2989 -0.5472 -0.0333
 8925SOL    HW238409   3.931   0.199   4.747  0.6726 -0.8994  0.3583
 8926SOL     OW38410   4.525   0.352   4.694  0.3797  0.7362 -0.5954
 8926SOL    HW138411   4.443   0.393   4.666  0.1159 -0.4444 -1.5437
 8926SOL    HW238412   4.578   0.358   4.615  3.0849 -0.5017  1.1087
 8927SOL     OW38413   3.877   1.964   2.559 -0.2417 -0.3459  0.9524
 8927SOL    HW138414   3.821   2.000   2.490 -1.5354 -3.3620  0.4239
 8927SOL    HW238415   3.812   1.920   2.614  0.4383 -1.9060  0.5016
 8928SOL     OW38416   2.483   3.398   2.871 -0.4834  0.4526 -0.1626
 8928SOL    HW138417   2.562   3.433   2.829  0.0248  0.2257  0.6068
 8928SOL    HW238418   2.419   3.433   2.809 -2.1322 -1.5365  0.4127
 8929SOL     OW38419   0.989   2.492   0.839  0.1552  0.1374 -0.2806
 8929SOL    HW138420   1.073   2.447   0.838  1.2159  2.0815  1.0837
 8929SOL    HW238421   0.953   2.474   0.926  3.0749  0.5697  0.9943
 8930SOL     OW38422   3.932   1.185   4.805 -0.0667  0.0358 -0.6960
 8930SOL    HW138423   3.845   1.148   4.818  1.3471 -2.5328  1.4784
 8930SOL    HW238424   3.922   1.279   4.823 -1.3908 -0.1999 -0.1734
 8931SOL     OW38425   0.416   3.643   2.150  1.1417  0.9795 -0.1571
 8931SOL    HW138426   0.497   3.606   2.185  0.5120  0.0694  0.3453
 8931SOL    HW238427   0.378   3.668   2.234  1.4153 -1.4592  0.6825
 8932SOL     OW38428   2.670   0.802  12.593  0.1893  0.7353 -0.2752
 8932SOL    HW138429   2.701   0.891  12.578 -2.0176  1.6282  0.4677
 8932SOL    HW238430   2.751   0.755  12.572 -0.2903  0.1720 -0.8926
 8933SOL     OW38431   1.806   4.431  13.998  0.2707 -0.1142 -0.0546
 8933SOL    HW138432   1.824   4.507  13.942 -1.5096  1.2799  1.2844
 8933SOL    HW238433   1.751   4.390  13.931  0.6210 -2.0738  0.8789
 8934SOL     OW38434   0.440   1.475   5.458 -0.4528 -0.5116  0.3193
 8934SOL    HW138435   0.527   1.438   5.470  0.8097  2.1673 -0.5877
 8934SOL    HW238436   0.453   1.537   5.387  2.1393 -1.5035 -0.0806
 8935SOL     OW38437   2.777   3.823   9.615  0.1959  0.4486  0.2841
 8935SOL    HW138438   2.749   3.909   9.647  1.9272  1.9400 -2.2015
 8935SOL    HW238439   2.735   3.813   9.530 -0.6781  2.1882  0.5102
 8936SOL     OW38440   3.662   2.291   2.528 -0.0691  0.1808  0.7894
 8936SOL    HW138441   3.599   2.287   2.600 -1.7510  0.0834 -0.6983
 8936SOL    HW238442   3.646   2.217   2.469  1.5507  0.1023  0.4454
 8937SOL     OW38443   2.272   0.320   8.882 -0.0382  0.4790  0.4136
 8937SOL    HW138444   2.180   0.297   8.897  0.1422 -0.0791  0.6401
 8937SOL    HW238445   2.266   0.416   8.888  0.8894  0.5149  0.7952
 8938SOL     OW38446   2.054   3.712   2.424 -0.1887 -0.3820  0.0885
 8938SOL    HW138447   2.114   3.785   2.411  0.1443 -1.1583 -2.7173
 8938SOL    HW238448   1.971   3.758   2.412  0.4748 -0.6251 -5.4013
 8939SOL     OW38449   4.494   4.086   4.644  0.5254 -0.9233  0.5648
 8939SOL    HW138450   4.446   4.019   4.595  0.3922  0.7267 -1.5925
 8939SOL    HW238451   4.440   4.101   4.721  0.0005 -2.3434  0.4608
 8940SOL     OW38452   2.816   4.280   8.803  0.4824  0.1408  0.1864
 8940SOL    HW138453   2.904   4.245   8.807  0.0902 -0.8318  0.2776
 8940SOL    HW238454   2.766   4.204   8.773 -1.8405  0.2896  3.6783
 8941SOL     OW38455   2.187   1.110   0.335  0.1886 -1.1825  0.1621
 8941SOL    HW138456   2.258   1.117   0.271 -0.1389  1.2888  0.0847
 8941SOL    HW238457   2.139   1.034   0.301 -1.4077 -0.3718  0.6451
 8942SOL     OW38458   3.696   4.390   2.501  0.2078 -0.1458 -0.2813
 8942SOL    HW138459   3.656   4.446   2.567  0.4114 -0.4339  0.0876
 8942SOL    HW238460   3.713   4.310   2.550 -0.2587 -0.8399 -1.2780
 8943SOL     OW38461   2.993   0.301   8.663 -0.7033  0.3894 -0.1779
 8943SOL    HW138462   3.047   0.380   8.654 -0.7462  0.5158  0.7055
 8943SOL    HW238463   3.011   0.257   8.580  0.1765 -0.2419  0.3494
 8944SOL     OW38464   1.840   1.103   2.318  0.5930  0.0042 -0.0887
 8944SOL    HW138465   1.864   1.018   2.281 -0.7005 -0.0883 -0.7149
 8944SOL    HW238466   1.757   1.084   2.363  0.4983  0.7878  0.0540
 8945SOL     OW38467   2.297   4.214  11.190  0.1674  0.1224  0.8884
 8945SOL    HW138468   2.288   4.299  11.234 -0.7157  0.8335 -0.6348
 8945SOL    HW238469   2.247   4.227  11.109  2.3084 -0.9963 -0.6125
 8946SOL     OW38470   2.453   3.694   8.490 -0.0228  0.4661  0.1861
 8946SOL    HW138471   2.420   3.627   8.551  1.4960 -0.7119 -0.2718
 8946SOL    HW238472   2.470   3.636   8.416 -0.5181  1.9657 -1.0988
 8947SOL     OW38473   2.604   4.073  10.165 -0.8417 -0.7858  0.1337
 8947SOL    HW138474   2.543   4.071  10.239  0.2814  0.1291  1.0690
 8947SOL    HW238475   2.560   4.101  10.084 -0.6582 -1.3343 -0.1589
 8948SOL     OW38476   3.131   4.613   7.867  0.2518 -0.1716 -0.0930
 8948SOL    HW138477   3.065   4.545   7.885 -2.2159  2.7482  1.8003
 8948SOL    HW238478   3.170   4.565   7.794 -0.0755  0.9856 -1.0272
 8949SOL     OW38479   1.988   1.180   9.495  0.0234  0.4494 -0.0721
 8949SOL    HW138480   2.068   1.139   9.462 -0.9533  0.4313 -2.3876
 8949SOL    HW238481   2.017   1.219   9.577 -0.6032  3.3044 -1.2167
 8950SOL     OW38482   1.393   0.895   8.287 -0.4263  0.0635 -0.1529
 8950SOL    HW138483   1.305   0.922   8.260 -0.1228  0.5050 -0.7113
 8950SOL    HW238484   1.395   0.917   8.380  1.4415 -0.1889 -0.1305
 8951SOL     OW38485   0.164   1.802   1.387 -0.0903 -0.2022 -0.1321
 8951SOL    HW138486   0.216   1.796   1.467 -0.5304  2.2804  0.3448
 8951SOL    HW238487   0.230   1.838   1.328  0.7628 -1.5883 -0.0289
 8952SOL     OW38488   3.489   0.384   2.532  0.4679 -0.3357 -0.5611
 8952SOL    HW138489   3.548   0.313   2.557 -0.3702 -0.7431  0.2565
 8952SOL    HW238490   3.474   0.351   2.444 -1.2088  2.3467 -1.2917
 8953SOL     OW38491   3.915   2.221   2.658 -0.4452 -0.5013  0.3105
 8953SOL    HW138492   3.931   2.136   2.617  0.9124 -0.0688 -0.0862
 8953SOL    HW238493   3.843   2.240   2.598  0.2945  1.0047 -0.1199
 8954SOL     OW38494   0.697   4.421   4.625  0.0247 -0.3273  0.0008
 8954SOL    HW138495   0.743   4.459   4.700  1.6836 -2.8111  0.2452
 8954SOL    HW238496   0.613   4.467   4.630  1.2238  1.8108  0.7592
 8955SOL     OW38497   2.942   3.712   6.049  0.4087 -0.3009  0.4143
 8955SOL    HW138498   2.998   3.635   6.055 -2.0520 -2.2260 -1.0940
 8955SOL    HW238499   2.998   3.775   6.004 -1.2295  0.8344 -0.0609
 8956SOL     OW38500   0.004   0.735   7.752  0.1429 -0.3856 -0.0652
 8956SOL    HW138501   0.078   0.790   7.728 -1.3145  0.7690 -1.9691
 8956SOL    HW238502   0.049   0.657   7.783  0.8423 -0.9040 -2.3588
 8957SOL     OW38503   3.584   2.555  14.358 -0.8396 -0.8110 -0.7173
 8957SOL    HW138504   3.592   2.638  14.311  1.5608 -1.0759 -0.7840
 8957SOL    HW238505   3.579   2.597  14.444  3.3047 -0.5910 -0.5877
 8958SOL     OW38506   0.835   0.935   6.382 -0.3219  0.2274  0.0988
 8958SOL    HW138507   0.742   0.914   6.391 -1.0795  3.7770  0.6739
 8958SOL    HW238508   0.846   0.967   6.293 -0.2441  2.0293  0.7397
 8959SOL     OW38509   1.644   3.574  15.568 -0.2136 -0.0350 -0.2035
 8959SOL    HW138510   1.554   3.583  15.601  0.2070  0.3928  0.8216
 8959SOL    HW238511   1.692   3.531  15.638 -0.9689 -0.7518 -0.1324
 8960SOL     OW38512   3.862   2.924   6.008 -0.1170 -0.4377 -0.6031
 8960SOL    HW138513   3.864   2.851   6.069  0.2983 -0.0344 -0.1296
 8960SOL    HW238514   3.825   2.884   5.929  2.3881  2.3874 -3.2163
 8961SOL     OW38515   2.842   2.108   1.667 -0.0420 -0.2881 -0.2237
 8961SOL    HW138516   2.766   2.066   1.625  0.2511  0.2610 -1.2998
 8961SOL    HW238517   2.811   2.197   1.681  2.3951  0.3877  0.8695
 8962SOL     OW38518   1.099   3.273  16.523 -0.2150  0.0108  0.2627
 8962SOL    HW138519   1.073   3.345  16.466  0.4372 -0.2883 -0.4173
 8962SOL    HW238520   1.121   3.214  16.451  2.0706 -1.3997  2.0761
 8963SOL     OW38521   2.472   0.714   6.526  0.8578 -0.0371 -0.3163
 8963SOL    HW138522   2.539   0.655   6.492  1.3052  0.7149 -0.7297
 8963SOL    HW238523   2.406   0.673   6.470  0.1039  0.7958 -0.0378
 8964SOL     OW38524   2.173   0.498   3.054  0.3073 -0.3154 -0.0117
 8964SOL    HW138525   2.168   0.459   3.141  1.2704  0.7789  0.5431
 8964SOL    HW238526   2.086   0.475   3.023 -0.3063  2.3485 -0.2805
 8965SOL     OW38527   2.145   0.224   1.982 -0.6229 -0.2023  0.1623
 8965SOL    HW138528   2.166   0.228   1.889 -1.3825 -0.2145 -0.0077
 8965SOL    HW238529   2.190   0.301   2.019  1.2746 -0.1883 -2.1882
 8966SOL     OW38530   0.602   1.548   6.680 -0.2888 -0.1273  0.1467
 8966SOL    HW138531   0.679   1.531   6.625 -0.1915  2.2029 -0.4262
 8966SOL    HW238532   0.544   1.482   6.641 -1.4902  1.0190 -0.0133
 8967SOL     OW38533   0.554   3.927   7.971  0.2290  0.7829  0.1311
 8967SOL    HW138534   0.527   3.971   8.051  1.2124 -0.9765  1.4416
 8967SOL    HW238535   0.549   4.005   7.916  3.1654 -0.6726 -2.2334
 8968SOL     OW38536   1.493   4.333   6.589  0.1897 -0.2211 -0.2191
 8968SOL    HW138537   1.568   4.392   6.596  0.9702 -1.0021 -2.0755
 8968SOL    HW238538   1.456   4.347   6.676 -2.4051  0.9074 -1.4981
 8969SOL     OW38539   2.452   1.793  14.140  0.4990 -0.0167 -0.1002
 8969SOL    HW138540   2.455   1.888  14.152 -0.2847  0.0597 -0.5349
 8969SOL    HW238541   2.540   1.762  14.161 -0.4581 -2.0685  0.8477
 8970SOL     OW38542   0.124   3.480   8.024 -0.7031 -0.3377 -0.4453
 8970SOL    HW138543   0.209   3.454   8.059 -0.8564 -0.0403  0.1598
 8970SOL    HW238544   0.096   3.395   7.991 -1.5876 -0.1935 -0.0995
 8971SOL     OW38545   1.124   2.374   9.321 -0.0587 -0.4931 -0.3680
 8971SOL    HW138546   1.033   2.403   9.321  0.9495  2.5967 -0.8269
 8971SOL    HW238547   1.109   2.279   9.330 -0.2681 -0.3442  0.8821
 8972SOL     OW38548   0.947   1.790  15.509 -0.0659 -0.5687 -0.1630
 8972SOL    HW138549   0.880   1.746  15.457  0.7486 -2.2816  0.2196
 8972SOL    HW238550   0.912   1.879  15.519  0.1964 -0.6047  1.1600
 8973SOL     OW38551   0.504   1.315  11.999 -0.1394  0.1421  0.3816
 8973SOL    HW138552   0.488   1.223  12.022 -1.8523  0.8369  1.8966
 8973SOL    HW238553   0.577   1.314  11.937 -0.6087 -2.3961 -0.1350
 8974SOL     OW38554   2.244   4.080   4.262 -0.3799  0.0340  0.2754
 8974SOL    HW138555   2.165   4.119   4.225 -0.0023 -1.7567 -2.4252
 8974SOL    HW238556   2.269   4.149   4.324 -0.9893 -1.0741  1.7587
 8975SOL     OW38557   4.254   0.347  11.501 -0.0495 -0.3629 -0.1493
 8975SOL    HW138558   4.347   0.344  11.524 -0.0152  0.3382 -0.2091
 8975SOL    HW238559   4.229   0.438  11.487  0.7167 -0.0897  0.2952
 8976SOL     OW38560   2.970   0.006   3.495 -0.6968 -0.1700  0.2975
 8976SOL    HW138561   3.056   4.708   3.513 -0.4796  0.3632  0.3704
 8976SOL    HW238562   2.985   0.034   3.405 -1.0447 -0.1137  0.2581
 8977SOL     OW38563   1.892   3.756   9.113  0.8246  0.9057 -0.0166
 8977SOL    HW138564   1.978   3.726   9.084 -0.3257 -0.4391 -2.0220
 8977SOL    HW238565   1.863   3.690   9.176 -1.7866 -0.3443 -2.5444
 8978SOL     OW38566   1.033   2.002   3.256  0.1581  0.3484  0.1804
 8978SOL    HW138567   1.105   2.018   3.316 -0.3281 -0.3105  0.9465
 8978SOL    HW238568   1.056   2.072   3.195  4.0931 -0.6458  0.5461
 8979SOL     OW38569   0.953   4.181   6.662 -1.2131 -0.8324  0.4596
 8979SOL    HW138570   0.957   4.226   6.578 -1.3692 -1.1375  0.2885
 8979SOL    HW238571   1.047   4.163   6.668 -1.5152 -2.2052  1.1358
 8980SOL     OW38572   3.576   4.175   0.856  0.5222 -0.9986  0.0809
 8980SOL    HW138573   3.657   4.168   0.906  0.3293  1.1612  0.7181
 8980SOL    HW238574   3.619   4.213   0.780  1.7639  0.9885  1.7699
 8981SOL     OW38575   2.234   0.053   0.653 -0.6635 -0.6113  0.2000
 8981SOL    HW138576   2.191   0.010   0.579 -0.9240  2.7281 -1.5642
 8981SOL    HW238577   2.175   0.127   0.669  0.1011 -0.4914  2.4681
 8982SOL     OW38578   1.865   0.530   4.579  0.5433 -0.0375  0.4349
 8982SOL    HW138579   1.878   0.625   4.585  1.7119 -0.1996  0.4921
 8982SOL    HW238580   1.886   0.507   4.669 -0.8845  0.9155  0.9913
 8983SOL     OW38581   0.306   4.696   1.426  0.0410 -0.3317 -0.1556
 8983SOL    HW138582   0.337   4.714   1.515 -2.7432  2.5603  0.1965
 8983SOL    HW238583   0.388   4.704   1.378  2.0006  0.6116  3.3621
 8984SOL     OW38584   3.932   3.265  16.519 -0.1172 -0.1857 -0.8115
 8984SOL    HW138585   3.987   3.316  16.579  0.6030 -2.0876  0.1624
 8984SOL    HW238586   3.862   3.238  16.579 -0.2333  2.6006  0.3275
 8985SOL     OW38587   3.864   4.377   6.986 -0.5803 -0.6693  0.3904
 8985SOL    HW138588   3.805   4.348   7.056 -1.5855  0.3483 -0.0398
 8985SOL    HW238589   3.839   4.469   6.988  0.7310 -0.2745 -0.8688
 8986SOL     OW38590   1.659   1.639   2.357 -0.3143  0.5069 -0.3365
 8986SOL    HW138591   1.569   1.608   2.362 -0.7900  2.1186  0.9591
 8986SOL    HW238592   1.701   1.556   2.333 -1.0394  0.2501 -0.7191
 8987SOL     OW38593   1.728   3.934   7.335 -0.4068 -0.1253 -0.2985
 8987SOL    HW138594   1.682   3.989   7.272  0.8480  1.4331  0.1469
 8987SOL    HW238595   1.664   3.928   7.406  1.0054  0.3393  1.0123
 8988SOL     OW38596   1.954   3.839   5.059 -0.8167  0.7017 -0.4057
 8988SOL    HW138597   1.950   3.926   5.100 -1.3306  0.6643 -0.3816
 8988SOL    HW238598   1.864   3.831   5.027 -1.7342  0.2155  2.2694
 8989SOL     OW38599   4.184   3.851  10.104  0.6708 -0.0043 -0.5090
 8989SOL    HW138600   4.273   3.832  10.073  0.1854 -0.8133 -1.3985
 8989SOL    HW238601   4.139   3.856  10.020  1.9355 -0.9309 -1.2603
 8990SOL     OW38602   4.621   0.170   3.671 -0.2921  0.1882 -0.2536
 8990SOL    HW138603   4.570   0.100   3.630 -0.9358 -0.2558  1.3267
 8990SOL    HW238604   4.651   0.220   3.595 -0.9693 -0.7614 -1.1477
 8991SOL     OW38605   1.003   2.271   4.340 -0.2450 -0.2077 -0.0574
 8991SOL    HW138606   0.935   2.241   4.279  0.0129  3.7475 -2.2805
 8991SOL    HW238607   0.985   2.213   4.414  1.3353 -1.5199 -0.7036
 8992SOL     OW38608   1.867   2.270   0.518 -0.1678  0.2886 -0.0239
 8992SOL    HW138609   1.777   2.266   0.549  0.2430 -0.1734  1.0954
 8992SOL    HW238610   1.917   2.239   0.593  0.2971 -0.9811 -0.8522
 8993SOL     OW38611   1.924   0.973   8.050 -0.1336  0.4807 -0.1263
 8993SOL    HW138612   1.988   1.040   8.025  0.4455 -0.1901 -0.4684
 8993SOL    HW238613   1.983   0.904   8.082 -0.9185 -0.3423 -0.4752
 8994SOL     OW38614   2.863   4.244   2.709  0.0626 -0.8821  0.9844
 8994SOL    HW138615   2.867   4.171   2.648 -0.4432 -1.9583  2.2359
 8994SOL    HW238616   2.941   4.291   2.680  1.8373 -2.6482  2.9654
 8995SOL     OW38617   3.965   1.451   1.628  0.0929  0.1835 -0.3329
 8995SOL    HW138618   3.883   1.484   1.591 -0.1300 -0.4511 -0.3963
 8995SOL    HW238619   3.956   1.359   1.651 -1.7964  0.2655 -0.7430
 8996SOL     OW38620   2.394   4.452   9.037  0.1007  0.4288  0.2039
 8996SOL    HW138621   2.401   4.505   9.117  0.8472  0.6203  0.0103
 8996SOL    HW238622   2.376   4.522   8.974 -0.3402 -0.8384 -1.0616
 8997SOL     OW38623   0.872   2.454   9.362  0.0829 -0.0660  0.0879
 8997SOL    HW138624   0.806   2.514   9.326 -0.3883  0.3586  1.6765
 8997SOL    HW238625   0.827   2.441   9.445 -0.9262 -2.0227 -0.7590
 8998SOL     OW38626   1.736   3.423  12.459  0.3087  0.8189  0.1572
 8998SOL    HW138627   1.810   3.481  12.474  0.5571 -0.1593  2.7877
 8998SOL    HW238628   1.700   3.399  12.544 -1.3627  0.3091 -0.6961
 8999SOL     OW38629   0.516   2.395   1.916 -0.1980 -0.0517  0.3868
 8999SOL    HW138630   0.505   2.301   1.927  1.8167 -0.5274 -1.7251
 8999SOL    HW238631   0.611   2.405   1.917 -0.4030  1.8902  1.1541
 9000SOL     OW38632   3.965   1.574   9.647  0.4609 -0.2194  0.2064
 9000SOL    HW138633   4.003   1.552   9.562  1.9480  1.4597  0.4212
 9000SOL    HW238634   3.872   1.568   9.628  0.0309  2.1529  1.5079
 9001SOL     OW38635   3.445   4.473   3.585 -0.4352  0.2783  0.0525
 9001SOL    HW138636   3.512   4.542   3.585 -0.4403  0.2947 -1.1890
 9001SOL    HW238637   3.484   4.405   3.640  0.9159  2.1330  1.3772
 9002SOL     OW38638   0.267   2.868   3.525 -0.5636  0.2113 -0.0179
 9002SOL    HW138639   0.244   2.921   3.448 -0.9853  1.6196  1.0659
 9002SOL    HW238640   0.297   2.785   3.489 -2.2937  0.1630 -1.3766
 9003SOL     OW38641   4.247   3.359   3.203 -0.3069 -0.4840 -0.2456
 9003SOL    HW138642   4.273   3.347   3.112  4.2925  0.4703  0.9465
 9003SOL    HW238643   4.183   3.288   3.212 -0.7920 -0.0270 -0.0899
 9004SOL     OW38644   2.957   1.188   5.486 -0.6078  0.1587  0.6592
 9004SOL    HW138645   2.881   1.186   5.428 -0.4090 -1.7690  0.4795
 9004SOL    HW238646   2.998   1.107   5.455 -1.9664 -0.5541  0.7310
 9005SOL     OW38647   2.507   2.564  17.719 -0.2600  0.6492  0.3432
 9005SOL    HW138648   2.518   2.497   0.030  0.5424 -1.5510 -1.9876
 9005SOL    HW238649   2.568   2.635  17.742  2.0972 -1.1497 -0.3695
 9006SOL     OW38650   2.241   0.452   0.424  0.1281 -0.4709  0.0922
 9006SOL    HW138651   2.150   0.426   0.440  0.0393  0.4615  1.0948
 9006SOL    HW238652   2.276   0.370   0.391 -0.1030 -1.1794  1.6341
 9007SOL     OW38653   1.823   3.085   0.641  0.0006 -0.4464  0.1476
 9007SOL    HW138654   1.905   3.039   0.622  1.3720  0.9668  2.7629
 9007SOL    HW238655   1.787   3.078   0.552  0.3626 -0.5812  0.0090
 9008SOL     OW38656   2.281   2.119   5.403 -0.2383  0.4696  0.1878
 9008SOL    HW138657   2.299   2.153   5.490  0.0228 -0.9506  0.6899
 9008SOL    HW238658   2.296   2.025   5.410 -0.9122  0.3904  0.6227
 9009SOL     OW38659   1.769   4.120  14.697 -0.1813  0.2830 -0.1305
 9009SOL    HW138660   1.815   4.040  14.674  0.1196 -0.3361  2.5690
 9009SOL    HW238661   1.831   4.153  14.763  2.2673  0.4905 -2.5141
 9010SOL     OW38662   3.648   1.880   8.706  0.0923  0.2191  0.2152
 9010SOL    HW138663   3.702   1.935   8.762  0.2077 -1.2992  1.5935
 9010SOL    HW238664   3.597   1.833   8.772  0.6674  0.5750  0.9143
 9011SOL     OW38665   1.616   3.286  17.324  0.0017 -0.4130 -0.1928
 9011SOL    HW138666   1.533   3.313  17.363  0.1866  1.3520 -1.0168
 9011SOL    HW238667   1.611   3.191  17.318  0.8986 -0.6575  2.6605
 9012SOL     OW38668   1.698   4.070   2.593 -0.2605 -0.4141 -0.3932
 9012SOL    HW138669   1.602   4.077   2.589 -0.2657 -1.1962 -1.8324
 9012SOL    HW238670   1.713   4.102   2.682 -1.6376 -1.5860  0.2658
 9013SOL     OW38671   3.176   3.936   2.570  0.1900  0.1519  0.3763
 9013SOL    HW138672   3.192   3.842   2.562 -0.0303  0.0915  0.6126
 9013SOL    HW238673   3.264   3.969   2.583  0.0549  0.5633  0.2375
 9014SOL     OW38674   3.387   0.932  13.235 -0.0444  0.4034 -1.2286
 9014SOL    HW138675   3.382   0.956  13.327  0.2453 -0.9770 -0.8481
 9014SOL    HW238676   3.423   1.011  13.196 -2.2130  0.1514 -3.7166
 9015SOL     OW38677   2.997   3.690   1.730 -0.0820  0.0568 -0.2610
 9015SOL    HW138678   2.980   3.610   1.780  2.0962 -1.7662 -2.4237
 9015SOL    HW238679   3.069   3.729   1.778  0.1650  0.7095 -1.1673
 9016SOL     OW38680   3.426   3.636   3.561  0.0038  0.2675  0.2111
 9016SOL    HW138681   3.446   3.701   3.628  0.8862 -1.2063  1.3665
 9016SOL    HW238682   3.350   3.595   3.602  0.0984 -1.0217 -0.9174
 9017SOL     OW38683   0.100   4.067   4.070 -0.3182 -0.5704 -0.2055
 9017SOL    HW138684   0.071   3.981   4.042  1.3612 -1.0776 -0.4035
 9017SOL    HW238685   0.195   4.073   4.065 -0.2448 -1.4333  0.4169
 9018SOL     OW38686   0.993   1.148  10.208  0.2498  0.5571  0.3645
 9018SOL    HW138687   1.028   1.237  10.207 -0.1003  0.6956  0.3651
 9018SOL    HW238688   1.070   1.091  10.203 -1.8384 -2.1046 -1.0942
 9019SOL     OW38689   1.432   2.514  14.146 -0.2579  0.0758 -0.5263
 9019SOL    HW138690   1.351   2.515  14.196  1.5389 -1.2714  2.4805
 9019SOL    HW238691   1.464   2.426  14.167  0.2917  0.4625  0.2828
 9020SOL     OW38692   1.959   3.647   2.952  0.0226  0.4020  0.5365
 9020SOL    HW138693   2.039   3.686   2.917 -1.0656  1.4289 -0.8060
 9020SOL    HW238694   1.985   3.610   3.036 -1.7224  1.1069  1.3823
 9021SOL     OW38695   0.845   2.205   0.185  0.3120 -0.5127  0.3070
 9021SOL    HW138696   0.772   2.148   0.210 -0.1034  0.5235  1.4482
 9021SOL    HW238697   0.920   2.148   0.202  1.7266  0.9044 -1.2362
 9022SOL     OW38698   2.907   1.324   6.736  0.4400 -0.1388 -0.2712
 9022SOL    HW138699   2.825   1.287   6.703  1.3170 -2.7249  0.4889
 9022SOL    HW238700   2.874   1.374   6.812  0.2441 -0.8803  0.1279
 9023SOL     OW38701   0.756   3.194   5.169  0.4220 -0.1769  0.0446
 9023SOL    HW138702   0.802   3.217   5.250 -1.2326 -1.4370  1.3881
 9023SOL    HW238703   0.669   3.185   5.208 -0.0545 -2.9412 -1.6545
 9024SOL     OW38704   3.305   4.264   1.947  0.0599 -0.8797 -0.1932
 9024SOL    HW138705   3.291   4.194   1.884 -1.1662 -1.0928  0.3216
 9024SOL    HW238706   3.364   4.324   1.901  0.4241  0.5554  2.1364
 9025SOL     OW38707   4.244   2.770   2.527 -0.3897  0.5840 -0.3651
 9025SOL    HW138708   4.249   2.755   2.433  0.6244 -0.2384 -0.1867
 9025SOL    HW238709   4.256   2.865   2.529 -1.5226  0.7268 -0.3339
 9026SOL     OW38710   2.924   2.216   6.489 -0.0737  0.1158  0.3682
 9026SOL    HW138711   2.986   2.172   6.429  0.4555 -0.5760  1.4217
 9026SOL    HW238712   2.953   2.183   6.574 -0.2755  0.3338  0.5198
 9027SOL     OW38713   3.201   1.913   4.074  0.1911 -0.1642  0.3626
 9027SOL    HW138714   3.276   1.918   4.015  0.3314  1.6467  0.6753
 9027SOL    HW238715   3.237   1.841   4.126  1.5063  0.3927  0.2225
 9028SOL     OW38716   1.985   2.585   2.940  0.1753 -0.2476 -0.3504
 9028SOL    HW138717   1.940   2.638   2.874  1.8621 -0.8034 -1.9582
 9028SOL    HW238718   1.913   2.537   2.982 -0.9477 -1.6068 -3.7294
 9029SOL     OW38719   1.033   2.840  17.676  0.1313  0.0369 -0.5559
 9029SOL    HW138720   1.026   2.822  17.582 -1.2434  0.2710 -0.4950
 9029SOL    HW238721   0.943   2.837  17.707  0.2848  1.1826  0.0037
 9030SOL     OW38722   0.276   4.201   1.953 -0.7878  0.0654  0.1914
 9030SOL    HW138723   0.266   4.253   2.033 -2.2331 -2.2906  1.5591
 9030SOL    HW238724   0.259   4.112   1.984  0.2258 -0.5299 -0.9795
 9031SOL     OW38725   0.944   2.276   7.347 -0.4984 -0.9345  0.0065
 9031SOL    HW138726   0.955   2.294   7.254 -0.3983  0.5042  0.2916
 9031SOL    HW238727   0.854   2.294   7.372 -0.3261  0.9380 -0.7347
 9032SOL     OW38728   2.935   2.837   4.544 -0.4657  0.0851 -0.1409
 9032SOL    HW138729   2.929   2.747   4.513  0.1003 -0.3579  1.0240
 9032SOL    HW238730   2.848   2.840   4.586 -0.5770  0.4036 -0.3915
 9033SOL     OW38731   1.150   1.878   2.262 -0.5597  0.3747 -0.0986
 9033SOL    HW138732   1.134   1.959   2.213 -1.2477  1.0872  1.2803
 9033SOL    HW238733   1.084   1.831   2.212  1.7117  0.6652 -3.3629
 9034SOL     OW38734   3.726   2.142   8.120 -0.4263  0.4676 -0.0799
 9034SOL    HW138735   3.664   2.155   8.048 -3.3327 -2.2133  1.9720
 9034SOL    HW238736   3.703   2.212   8.182 -2.3423 -0.2313  0.0034
 9035SOL     OW38737   1.465   1.826   3.659 -0.2153 -0.3493 -0.6704
 9035SOL    HW138738   1.531   1.802   3.723 -0.3091 -0.6427 -0.6843
 9035SOL    HW238739   1.465   1.746   3.605 -2.4803  0.1177 -1.3971
 9036SOL     OW38740   1.389   3.491  15.089  0.1491  0.1364  0.3106
 9036SOL    HW138741   1.452   3.562  15.089  1.7549 -1.2762  1.6126
 9036SOL    HW238742   1.443   3.417  15.060 -1.2738 -1.1400  0.8762
 9037SOL     OW38743   3.739   3.938   2.633  0.3775  0.0821 -0.1182
 9037SOL    HW138744   3.832   3.939   2.655 -0.1888 -0.3995  2.3594
 9037SOL    HW238745   3.719   3.847   2.611  0.5617 -0.1221  0.5249
 9038SOL     OW38746   3.528   2.042  16.954  0.0265  0.0952 -0.1454
 9038SOL    HW138747   3.618   2.010  16.945 -0.2587 -0.4838 -0.9778
 9038SOL    HW238748   3.480   1.966  16.920  2.0893 -0.6138 -1.4684
 9039SOL     OW38749   0.592   2.670  12.570  0.1728 -0.0164 -0.1274
 9039SOL    HW138750   0.498   2.654  12.563  0.1606 -0.0153  0.0298
 9039SOL    HW238751   0.628   2.586  12.601 -0.4341 -0.3453 -0.3009
 9040SOL     OW38752   3.922   4.490   1.176  0.8940 -0.6723  0.0237
 9040SOL    HW138753   3.921   4.422   1.243 -1.3407  0.4657  1.1414
 9040SOL    HW238754   4.013   4.492   1.146  0.8606  1.3530  0.0780
 9041SOL     OW38755   4.410   3.187   7.623  0.4218 -0.6944 -0.5281
 9041SOL    HW138756   4.410   3.222   7.712 -0.6590  5.2350 -2.8654
 9041SOL    HW238757   4.323   3.147   7.619 -0.5397  1.1135  1.8457
 9042SOL     OW38758   3.854   1.238   0.559 -0.6000 -0.2281  0.0969
 9042SOL    HW138759   3.792   1.227   0.487  1.5937  1.0441 -1.9786
 9042SOL    HW238760   3.836   1.332   0.569 -0.5139 -0.2604  0.5436
 9043SOL     OW38761   3.905   0.854   8.727  0.0478  0.2740 -0.1670
 9043SOL    HW138762   3.892   0.855   8.632 -0.5479  3.0615 -0.0523
 9043SOL    HW238763   3.821   0.810   8.741  1.3255 -2.0111  0.3510
 9044SOL     OW38764   0.795   3.280  14.731 -0.1216 -0.4077  0.5134
 9044SOL    HW138765   0.889   3.288  14.745 -0.3053  1.4002  0.6663
 9044SOL    HW238766   0.785   3.322  14.646  0.2015  1.5526  1.4305
 9045SOL     OW38767   1.594   3.150   6.642 -0.7183  0.2115 -0.0075
 9045SOL    HW138768   1.630   3.239   6.650  0.7173 -0.3297 -0.3132
 9045SOL    HW238769   1.656   3.087   6.678 -0.0153  1.5660  1.1406
 9046SOL     OW38770   4.175   1.874   5.002  0.2293  0.4930  0.1579
 9046SOL    HW138771   4.251   1.815   5.007  0.7877  1.1604 -0.4105
 9046SOL    HW238772   4.168   1.872   4.906 -1.1995 -1.2609  0.2883
 9047SOL     OW38773   1.811   2.875   2.151 -0.0272  0.8009  0.2096
 9047SOL    HW138774   1.860   2.904   2.074  1.7374 -0.3690  0.9014
 9047SOL    HW238775   1.750   2.809   2.120  2.6434 -0.9846 -1.2399
 9048SOL     OW38776   4.552   2.226   1.241 -0.5774  0.5116  0.2640
 9048SOL    HW138777   4.647   2.217   1.228 -0.5345 -0.4893  1.2620
 9048SOL    HW238778   4.519   2.269   1.162 -0.4751  1.2946  0.6556
 9049SOL     OW38779   2.986   3.419   5.389 -0.0767  0.0701  0.0473
 9049SOL    HW138780   3.030   3.465   5.317 -1.3053 -0.2990 -0.9427
 9049SOL    HW238781   3.056   3.408   5.453  1.7909 -0.3164 -2.0478
 9050SOL     OW38782   3.689   3.809   9.022  0.1787  0.4629  0.1408
 9050SOL    HW138783   3.685   3.779   9.113  2.2979 -2.7641 -0.8269
 9050SOL    HW238784   3.601   3.793   8.987 -0.6177  0.4452  2.1063
 9051SOL     OW38785   2.194   2.803   2.564  0.9658  0.0396 -0.4363
 9051SOL    HW138786   2.155   2.883   2.601  1.9343  1.0716 -1.6319
 9051SOL    HW238787   2.276   2.838   2.529  0.3033  2.5094  0.4549
 9052SOL     OW38788   3.719   1.276   8.984 -0.0316  0.5135  0.5307
 9052SOL    HW138789   3.712   1.252   9.076  0.3357  1.7465  0.8839
 9052SOL    HW238790   3.636   1.241   8.950 -0.5929  1.9988  0.3131
 9053SOL     OW38791   3.964   3.031   8.399  0.0303  0.2609 -0.1374
 9053SOL    HW138792   4.022   3.023   8.324  2.7235  2.1681  1.7105
 9053SOL    HW238793   4.005   3.111   8.433 -0.8636  0.9276 -0.6229
 9054SOL     OW38794   2.473   0.621   4.380  0.0572  0.3206  0.1681
 9054SOL    HW138795   2.433   0.549   4.428  1.6419 -2.5097 -2.8100
 9054SOL    HW238796   2.549   0.645   4.433  0.1372 -1.7826  0.9967
 9055SOL     OW38797   3.902   4.440   9.107 -0.3009 -0.1416 -0.0960
 9055SOL    HW138798   3.911   4.376   9.178 -0.7487 -1.2262 -1.0105
 9055SOL    HW238799   3.983   4.413   9.063  0.1465  0.2874  0.4662
 9056SOL     OW38800   0.709   4.097   6.343 -0.6690 -0.6988  0.2359
 9056SOL    HW138801   0.659   4.127   6.420  0.5160 -2.0539  1.5298
 9056SOL    HW238802   0.647   4.027   6.321 -1.0490  0.5136 -2.5283
 9057SOL     OW38803   0.241   3.999   5.775 -0.1232 -0.0311 -0.1451
 9057SOL    HW138804   0.200   3.936   5.834 -0.5804  1.3176  0.9801
 9057SOL    HW238805   0.252   4.067   5.841 -2.3455  1.7576 -1.6245
 9058SOL     OW38806   2.153   1.664   6.867 -0.0711 -0.0902  0.4119
 9058SOL    HW138807   2.161   1.742   6.813  0.2339 -0.5243 -0.1654
 9058SOL    HW238808   2.131   1.596   6.804 -2.4366  0.6289  0.4426
 9059SOL     OW38809   1.591   2.022   7.411 -0.4949 -0.4067  0.1731
 9059SOL    HW138810   1.642   2.102   7.399 -4.0414  1.6084 -1.4104
 9059SOL    HW238811   1.627   1.974   7.336 -0.2851 -2.7144  1.7762
 9060SOL     OW38812   1.888   3.392   3.446  0.3626 -0.4254  0.3893
 9060SOL    HW138813   1.960   3.453   3.460  1.0712 -1.1600 -0.0090
 9060SOL    HW238814   1.815   3.451   3.462  0.1534 -0.2748 -1.1156
 9061SOL     OW38815   4.143   2.171   8.264  0.2384 -0.2885 -0.0365
 9061SOL    HW138816   4.134   2.181   8.358 -0.4455  1.0589 -0.2356
 9061SOL    HW238817   4.157   2.077   8.267 -1.8530 -0.6341 -1.1429
 9062SOL     OW38818   0.688   2.177   2.432 -0.3346 -0.4085  0.0550
 9062SOL    HW138819   0.660   2.223   2.510 -1.7464  3.1847 -2.5548
 9062SOL    HW238820   0.751   2.115   2.468 -1.2237 -1.5578 -0.3342
 9063SOL     OW38821   2.679   0.008   2.606 -0.2559 -0.2782  0.1258
 9063SOL    HW138822   2.743   0.074   2.579 -2.6267  1.9164 -0.1584
 9063SOL    HW238823   2.725   4.668   2.580  3.0551  1.1839  1.5270
 9064SOL     OW38824   4.410   3.976   3.412  0.0031 -0.4369  0.1495
 9064SOL    HW138825   4.447   4.039   3.350  0.8257  0.4407  1.5365
 9064SOL    HW238826   4.424   3.892   3.367  1.1918 -1.0651  1.6575
 9065SOL     OW38827   2.310   1.282  17.627  0.4697 -0.1492 -0.2352
 9065SOL    HW138828   2.321   1.271  17.721 -0.5280 -0.7973 -0.1892
 9065SOL    HW238829   2.216   1.293  17.613  0.3344  2.7405  2.9465
 9066SOL     OW38830   2.745   2.785  16.749 -0.6988 -0.1611  0.3334
 9066SOL    HW138831   2.809   2.854  16.731 -1.6014  0.7736  0.6410
 9066SOL    HW238832   2.799   2.735  16.810  0.0125  0.5850  0.3207
 9067SOL     OW38833   1.537   2.949   4.258  0.0453  0.1541  0.2805
 9067SOL    HW138834   1.607   2.988   4.206 -0.4578  2.9487  1.6687
 9067SOL    HW238835   1.515   3.020   4.319  0.6073  0.9748 -0.4837
 9068SOL     OW38836   4.503   1.315   5.980  0.0110  0.6015 -0.0384
 9068SOL    HW138837   4.496   1.228   6.020 -0.2948  0.7562  0.2486
 9068SOL    HW238838   4.579   1.304   5.923 -0.8456 -0.7146 -0.9115
 9069SOL     OW38839   0.817   2.758   6.332  0.7956  0.1875 -0.1908
 9069SOL    HW138840   0.787   2.763   6.241  2.3511 -0.7733 -0.7677
 9069SOL    HW238841   0.907   2.728   6.318  0.2663 -0.6617 -1.8251
 9070SOL     OW38842   3.435   4.144   4.293 -0.0301 -0.3884 -0.0742
 9070SOL    HW138843   3.351   4.101   4.279 -1.3167  1.3710  2.2105
 9070SOL    HW238844   3.466   4.135   4.203  2.6471  1.3076  0.6698
 9071SOL     OW38845   4.541   1.896  12.589 -0.4189 -0.6389  0.4132
 9071SOL    HW138846   4.576   1.904  12.500 -1.9298 -1.7931 -0.2873
 9071SOL    HW238847   4.448   1.916  12.585  0.2848  2.4282 -0.5977
 9072SOL     OW38848   2.494   3.508   8.281  0.2228 -0.5116  0.0085
 9072SOL    HW138849   2.459   3.421   8.301 -1.7694  0.4361  0.6076
 9072SOL    HW238850   2.568   3.476   8.229 -0.7146 -0.3138 -1.4426
 9073SOL     OW38851   4.009   1.707   1.622  0.0663 -0.4742 -0.5784
 9073SOL    HW138852   4.025   1.617   1.592 -1.8908 -1.3194  0.9362
 9073SOL    HW238853   4.086   1.720   1.679  0.2448 -1.1688 -0.6580
 9074SOL     OW38854   3.645   2.777  16.171  0.2511 -0.2570 -0.1895
 9074SOL    HW138855   3.666   2.785  16.264 -1.4376  0.1764  0.1613
 9074SOL    HW238856   3.639   2.682  16.165  1.6899 -0.1675 -3.0573
 9075SOL     OW38857   0.953   2.143   1.871 -0.2264  0.3877  0.5262
 9075SOL    HW138858   0.975   2.226   1.914 -1.3162  1.3530 -0.7692
 9075SOL    HW238859   0.862   2.160   1.846 -0.7194 -1.9531  0.7333
 9076SOL     OW38860   2.011   0.749   4.845  0.4876 -0.4215  0.0278
 9076SOL    HW138861   2.009   0.827   4.900 -1.5589 -0.9614  0.6955
 9076SOL    HW238862   2.092   0.757   4.794  0.1898  0.8762 -0.2325
 9077SOL     OW38863   0.905   1.071  13.250 -0.2696  0.8481 -0.0352
 9077SOL    HW138864   0.829   1.036  13.203 -0.2100  0.0465  0.4590
 9077SOL    HW238865   0.958   1.128  13.195 -1.8041  1.1739 -1.1678
 9078SOL     OW38866   1.488   4.551  11.926  0.3394 -0.4092 -0.2274
 9078SOL    HW138867   1.461   4.463  11.952 -0.7192 -0.6756 -2.1828
 9078SOL    HW238868   1.454   4.600  12.001 -0.1182 -0.5327 -0.3537
 9079SOL     OW38869   0.175   4.363   8.255  0.0053 -0.6213  0.4510
 9079SOL    HW138870   0.233   4.288   8.267  0.8447  0.0025  0.3336
 9079SOL    HW238871   0.092   4.326   8.226 -0.5137  1.0952 -0.2966
 9080SOL     OW38872   0.519   0.015   6.863 -0.2061 -0.5831 -0.8753
 9080SOL    HW138873   0.567   4.672   6.862  0.0076 -0.4538 -1.1610
 9080SOL    HW238874   0.464   4.727   6.937 -1.0717  2.4625 -0.3784
 9081SOL     OW38875   1.480   0.076   3.396 -0.9392 -0.1702 -0.0203
 9081SOL    HW138876   1.467   0.118   3.311 -0.0396  1.5399  0.6841
 9081SOL    HW238877   1.567   0.037   3.390 -0.4410  0.8375  0.6307
 9082SOL     OW38878   2.407   0.869   1.400  0.2980 -0.0443  0.2143
 9082SOL    HW138879   2.426   0.962   1.385  5.3956 -0.6624  2.8901
 9082SOL    HW238880   2.312   0.874   1.406  0.3178  1.6271 -0.7677
 9083SOL     OW38881   1.491   0.842   5.904 -0.6013 -0.0767  0.5815
 9083SOL    HW138882   1.475   0.794   5.822  0.2132  0.5430  0.0533
 9083SOL    HW238883   1.495   0.768   5.964  0.9958 -0.7750 -0.3792
 9084SOL     OW38884   1.346   0.565  17.416  0.2346 -0.0686 -0.5288
 9084SOL    HW138885   1.334   0.627  17.487 -2.3243 -0.7585 -0.3573
 9084SOL    HW238886   1.376   0.497  17.476  1.8398 -0.5924 -1.9122
 9085SOL     OW38887   3.453   2.892   2.217  0.3638  0.1190 -0.1197
 9085SOL    HW138888   3.437   2.838   2.140 -3.1655 -0.5653  1.0920
 9085SOL    HW238889   3.542   2.867   2.242  0.2555  1.1491  1.3022
 9086SOL     OW38890   2.044   3.628  10.372 -0.1042 -0.1152 -0.1527
 9086SOL    HW138891   2.010   3.581  10.295 -1.8631  0.2652  0.3934
 9086SOL    HW238892   1.958   3.668  10.387  0.1901  0.1752  0.7588
 9087SOL     OW38893   3.932   4.638  13.996  0.0599  0.7122  0.8089
 9087SOL    HW138894   3.910   4.658  14.087 -1.2289  2.3273  0.1474
 9087SOL    HW238895   4.028   4.645  13.988  0.1425 -0.8085  0.5595
 9088SOL     OW38896   3.128   0.304   5.910 -0.9331  0.0205  0.5562
 9088SOL    HW138897   3.204   0.317   5.967 -0.6136 -1.8129  0.5578
 9088SOL    HW238898   3.060   0.294   5.977 -1.3405  0.7660  0.2434
 9089SOL     OW38899   3.223   2.700  17.266  0.2404  0.2438  0.3282
 9089SOL    HW138900   3.244   2.787  17.233 -0.5976  0.6949  0.9990
 9089SOL    HW238901   3.133   2.679  17.241  0.5774  0.2624 -0.8745
 9090SOL     OW38902   3.564   0.108   9.622 -0.0774 -0.1090  0.1079
 9090SOL    HW138903   3.490   0.052   9.598 -0.6577  1.1552 -1.0261
 9090SOL    HW238904   3.581   0.058   9.702 -2.0133  0.3624  0.8143
 9091SOL     OW38905   3.378   1.404   6.377 -0.1830  0.2382  0.1908
 9091SOL    HW138906   3.336   1.465   6.317  0.7197 -0.6565 -1.3485
 9091SOL    HW238907   3.464   1.400   6.334 -0.3029  1.5965 -0.1860
 9092SOL     OW38908   0.837   0.292  17.143 -0.6475  0.0052  1.5146
 9092SOL    HW138909   0.758   0.347  17.144 -1.4942 -1.1991  1.5033
 9092SOL    HW238910   0.901   0.363  17.146 -1.0720  0.5494 -1.8660
 9093SOL     OW38911   0.324   3.891  13.166 -0.0913  0.4881 -0.2905
 9093SOL    HW138912   0.275   3.837  13.104 -0.1312  0.4040 -0.1858
 9093SOL    HW238913   0.271   3.970  13.160 -0.5256  0.0431 -2.2411
 9094SOL     OW38914   0.560   1.674   6.136 -0.1755  0.0141 -0.3796
 9094SOL    HW138915   0.551   1.587   6.096 -0.6067  0.4981 -1.3266
 9094SOL    HW238916   0.650   1.700   6.117 -0.5105  0.6815 -1.0401
 9095SOL     OW38917   0.098   4.046  13.457 -0.1613 -0.1222  0.4791
 9095SOL    HW138918   0.173   3.993  13.484 -1.2368 -1.2967  1.1279
 9095SOL    HW238919   0.029   3.981  13.447  1.5436 -1.8732  0.0446
 9096SOL     OW38920   3.554   2.889   5.559  0.2046 -0.3980 -0.9416
 9096SOL    HW138921   3.594   2.864   5.475  1.0187  2.0142 -1.2811
 9096SOL    HW238922   3.502   2.812   5.580  0.1651 -0.1884 -0.2690
 9097SOL     OW38923   2.988   3.555   4.434 -0.1122 -0.3687 -0.1847
 9097SOL    HW138924   2.961   3.481   4.380 -0.4050 -0.6572  0.3591
 9097SOL    HW238925   3.059   3.513   4.482  0.2480 -1.9918 -2.1260
 9098SOL     OW38926   3.391   2.656  10.069 -0.0701 -0.4834 -0.6020
 9098SOL    HW138927   3.296   2.666  10.058 -0.0595 -0.3628 -0.5870
 9098SOL    HW238928   3.407   2.612   9.986 -0.0815 -2.2040  0.3041
 9099SOL     OW38929   2.520   3.476   4.294  0.4019 -0.3296 -0.5420
 9099SOL    HW138930   2.429   3.496   4.271  0.3297 -0.3173 -0.2444
 9099SOL    HW238931   2.551   3.561   4.325  1.9558 -1.8048  1.9181
 9100SOL     OW38932   0.665   3.831   3.519 -0.5491 -0.1492 -0.1381
 9100SOL    HW138933   0.616   3.895   3.570  2.2803  0.4923  1.7690
 9100SOL    HW238934   0.693   3.892   3.450  0.8657 -0.0763  0.5091
 9101SOL     OW38935   0.995   1.307   1.583  0.0469  0.5364  0.2414
 9101SOL    HW138936   1.069   1.269   1.629  1.1787  2.7265  0.2070
 9101SOL    HW238937   0.975   1.225   1.537  0.3549 -0.2005  1.4331
 9102SOL     OW38938   4.584   3.727   5.188 -0.2972  0.3654 -0.7380
 9102SOL    HW138939   4.663   3.689   5.150  1.0845  1.1372  1.3536
 9102SOL    HW238940   4.612   3.818   5.197 -0.6410  0.5007 -1.0154
 9103SOL     OW38941   3.050   0.718   2.735  0.6123  0.4878  0.7646
 9103SOL    HW138942   2.989   0.715   2.661  1.0937  2.2223  0.2827
 9103SOL    HW238943   3.137   0.709   2.696 -0.4781 -1.0120 -1.3077
 9104SOL     OW38944   2.609   3.523  11.780  0.6076  0.3658  0.0587
 9104SOL    HW138945   2.613   3.580  11.703 -2.7436 -0.3727 -0.6484
 9104SOL    HW238946   2.549   3.569  11.839  1.7067 -1.0111  2.2491
 9105SOL     OW38947   4.040   2.664   7.779  0.4175  0.7247 -0.7082
 9105SOL    HW138948   3.985   2.698   7.850 -0.5200 -2.4764  0.1197
 9105SOL    HW238949   3.973   2.651   7.711  0.5291  1.0298 -0.8747
 9106SOL     OW38950   1.262   2.770   5.593 -0.0695 -0.3899  0.0265
 9106SOL    HW138951   1.248   2.676   5.591  0.9914 -0.5646  0.6040
 9106SOL    HW238952   1.258   2.784   5.498  0.9255  0.5359  0.1102
 9107SOL     OW38953   2.838   2.364   4.571  0.1614  0.3425 -0.1817
 9107SOL    HW138954   2.804   2.411   4.647  0.7840 -0.8649  0.8508
 9107SOL    HW238955   2.908   2.320   4.619 -1.7260 -0.3957  1.8880
 9108SOL     OW38956   3.067   2.114   2.577 -0.4888 -0.0835 -0.0778
 9108SOL    HW138957   3.029   2.191   2.535  1.1806  1.1187  0.6010
 9108SOL    HW238958   2.997   2.071   2.624  0.3430  0.4409  1.6504
 9109SOL     OW38959   2.465   2.766   9.560 -0.2736 -0.2780  0.0417
 9109SOL    HW138960   2.428   2.842   9.516 -0.0424 -1.7474 -2.6864
 9109SOL    HW238961   2.499   2.718   9.484 -3.7053 -0.2819 -1.4749
 9110SOL     OW38962   4.706   2.975   1.396 -0.1392 -0.4020  0.2367
 9110SOL    HW138963   4.627   2.921   1.395  0.7534 -1.7294  2.5725
 9110SOL    HW238964   0.032   2.922   1.350 -1.5436  0.1552 -2.4193
 9111SOL     OW38965   2.771   3.189   8.422  0.0252  0.0498  0.2270
 9111SOL    HW138966   2.853   3.140   8.422 -0.4128 -0.6900  1.1157
 9111SOL    HW238967   2.725   3.144   8.352  1.8346 -1.3660 -0.0457
 9112SOL     OW38968   2.429   1.454   6.166 -0.1586  0.2041 -0.0353
 9112SOL    HW138969   2.481   1.374   6.152 -1.4276 -0.2138 -2.3807
 9112SOL    HW238970   2.415   1.447   6.261  0.8858  2.2363  0.2625
 9113SOL     OW38971   2.690   3.521  13.603 -0.1382 -0.4597 -0.1650
 9113SOL    HW138972   2.686   3.426  13.608  1.4076 -0.4836  0.8380
 9113SOL    HW238973   2.601   3.532  13.569 -0.1418  1.4824  0.4356
 9114SOL     OW38974   2.496   2.893   6.055  0.1307  0.0004 -0.2818
 9114SOL    HW138975   2.445   2.959   6.009 -0.2678  0.1783  0.4101
 9114SOL    HW238976   2.499   2.828   5.984  0.3277 -0.1300 -0.1530
 9115SOL     OW38977   1.980   3.779   6.356  0.6965 -0.4271 -0.2537
 9115SOL    HW138978   2.068   3.798   6.323  0.3737 -0.8631 -1.3918
 9115SOL    HW238979   1.956   3.695   6.317  2.2712 -2.4360  3.0938
 9116SOL     OW38980   4.420   1.148   2.111 -0.1352 -0.8137  0.0060
 9116SOL    HW138981   4.374   1.070   2.080  0.2822 -1.1083  0.1423
 9116SOL    HW238982   4.487   1.113   2.169  1.0039  0.5203 -0.5183
 9117SOL     OW38983   2.816   0.292  13.681  0.7709 -0.2966  0.1733
 9117SOL    HW138984   2.777   0.301  13.768  1.4843 -0.4443  0.5055
 9117SOL    HW238985   2.750   0.340  13.633  1.2669  2.0373  1.8317
 9118SOL     OW38986   0.753   0.681   2.807 -0.2634  0.7251 -0.0257
 9118SOL    HW138987   0.754   0.730   2.889 -1.0907  0.7472 -0.0283
 9118SOL    HW238988   0.703   0.603   2.830 -0.4714  0.7147 -0.5171
 9119SOL     OW38989   1.835   3.678  17.055 -0.1951 -0.1332 -0.2395
 9119SOL    HW138990   1.901   3.632  17.003  1.1187  1.6146 -0.0957
 9119SOL    HW238991   1.790   3.605  17.097  0.9963 -0.9723 -0.4292
 9120SOL     OW38992   1.225   4.304  17.447  0.1800  0.9177  0.5301
 9120SOL    HW138993   1.241   4.365  17.375  1.0244  0.9391  0.7336
 9120SOL    HW238994   1.303   4.248  17.444 -1.2039 -0.9342 -0.6546
 9121SOL     OW38995   1.702   0.152   0.069 -0.0906  1.0709  0.0894
 9121SOL    HW138996   1.666   0.074   0.111 -0.2582  0.4950 -1.1210
 9121SOL    HW238997   1.764   0.110   0.009  0.7684  2.7437 -0.1899
 9122SOL     OW38998   3.956   4.417   5.350 -0.4508 -0.1880 -0.3188
 9122SOL    HW138999   3.986   4.426   5.441  2.3794 -2.9804 -1.0051
 9122SOL    HW239000   4.025   4.357   5.323 -1.9660 -1.5781 -1.0840
 9123SOL     OW39001   4.186   4.473   9.813 -0.0711  0.2794  0.1551
 9123SOL    HW139002   4.154   4.560   9.839  1.7020  1.1106 -0.5144
 9123SOL    HW239003   4.259   4.460   9.873  0.1181 -0.5139 -0.2527
 9124SOL     OW39004   4.420   0.119   4.809 -0.0971 -0.7418  0.8061
 9124SOL    HW139005   4.485   0.064   4.765  1.6054  0.1707  2.1535
 9124SOL    HW239006   4.439   0.206   4.773  1.7470 -1.2848  0.4436
 9125SOL     OW39007   4.030   0.745   2.643  0.6281 -0.2632  0.1791
 9125SOL    HW139008   4.053   0.733   2.736 -1.3685  0.0700  0.7167
 9125SOL    HW239009   4.107   0.798   2.622  1.1717 -0.8775  0.6347
 9126SOL     OW39010   2.866   1.138   4.536 -0.2860 -0.6277 -0.1681
 9126SOL    HW139011   2.820   1.157   4.454 -1.2800  0.7436  0.7113
 9126SOL    HW239012   2.827   1.213   4.582  1.7188  0.7894 -0.7853
 9127SOL     OW39013   3.831   3.887   5.481  0.3858  0.0717  0.0319
 9127SOL    HW139014   3.771   3.854   5.414  0.0233  1.5586 -0.3830
 9127SOL    HW239015   3.829   3.811   5.539 -0.5477  0.4442  0.4949
 9128SOL     OW39016   3.853   0.257   6.621 -0.2774 -0.2796  0.3025
 9128SOL    HW139017   3.792   0.194   6.582  0.5047 -0.6408 -0.3252
 9128SOL    HW239018   3.936   0.228   6.583 -0.5630 -0.9721  0.2079
 9129SOL     OW39019   3.103   4.069   9.981 -0.3912 -1.1557 -0.0235
 9129SOL    HW139020   3.165   4.139  10.004 -0.7877 -0.6865 -0.3717
 9129SOL    HW239021   3.156   4.014   9.924 -0.1095  1.5028 -2.3305
 9130SOL     OW39022   3.549   1.727   3.716  0.2426  0.5367  0.4780
 9130SOL    HW139023   3.523   1.637   3.698 -1.2128  0.9432  0.5033
 9130SOL    HW239024   3.632   1.721   3.763 -0.1219  1.3689  1.2154
 9131SOL     OW39025   1.910   1.864   2.805 -0.3071 -0.0837  0.3687
 9131SOL    HW139026   1.910   1.923   2.730 -1.1716  1.5637  1.6736
 9131SOL    HW239027   1.999   1.873   2.839 -0.0765 -1.3333  0.1079
 9132SOL     OW39028   0.049   1.158   5.355 -0.3508  0.3397  0.0716
 9132SOL    HW139029   0.018   1.149   5.445 -2.8462 -1.9884 -1.0338
 9132SOL    HW239030   0.142   1.177   5.365 -0.2648  0.4643 -0.8808
 9133SOL     OW39031   0.993   2.937   5.446  0.3212  0.0248 -0.1793
 9133SOL    HW139032   1.034   2.986   5.517 -1.0234  1.7285 -0.5763
 9133SOL    HW239033   0.931   2.999   5.407 -0.7552 -0.0586  1.4016
 9134SOL     OW39034   3.004   0.880   3.583  0.2210  0.2220 -0.1151
 9134SOL    HW139035   3.082   0.935   3.570  1.8392 -2.4007 -1.4392
 9134SOL    HW239036   3.048   0.796   3.572  0.4860  0.3352  0.0645
 9135SOL     OW39037   0.024   4.218   7.260  0.8338 -0.1415 -0.2479
 9135SOL    HW139038   0.080   4.142   7.249 -0.4709 -1.4146  1.9965
 9135SOL    HW239039   0.088   4.289   7.249 -2.0692  2.1936 -2.2511
 9136SOL     OW39040   0.222   3.197   3.317 -0.7369 -0.2572 -0.4800
 9136SOL    HW139041   0.244   3.249   3.240 -1.2933 -0.5524 -0.8316
 9136SOL    HW239042   0.216   3.261   3.388  0.5462 -1.6326  0.8562
 9137SOL     OW39043   3.012   0.597  16.878 -0.2639  0.1405  0.3238
 9137SOL    HW139044   2.926   0.582  16.919  0.3433 -0.2211  1.4600
 9137SOL    HW239045   2.992   0.672  16.822  4.3341  2.0370  1.2113
 9138SOL     OW39046   2.677   1.921   7.133 -0.3236 -0.1593 -0.3966
 9138SOL    HW139047   2.646   2.009   7.155  1.2524  0.8345 -2.1797
 9138SOL    HW239048   2.633   1.873   7.203  0.7142 -1.2495 -0.4927
 9139SOL     OW39049   3.526   0.246   7.382 -0.0304 -0.4043  0.2238
 9139SOL    HW139050   3.581   0.249   7.460  0.7402  0.8013 -0.3679
 9139SOL    HW239051   3.574   0.314   7.335 -0.2987 -1.6503 -1.8457
 9140SOL     OW39052   1.675   1.407   2.012 -0.4138  0.0718  0.1882
 9140SOL    HW139053   1.602   1.347   2.027 -0.1420  0.1136  1.7042
 9140SOL    HW239054   1.752   1.352   2.028 -1.6063 -0.9880  2.1387
 9141SOL     OW39055   0.466   1.720   6.878 -0.3191 -0.6059 -0.3309
 9141SOL    HW139056   0.501   1.648   6.825 -2.7996  0.2499 -3.0760
 9141SOL    HW239057   0.415   1.674   6.944  1.1712 -0.7623  0.7231
 9142SOL     OW39058   4.108   3.522  13.739  0.0431  0.9261 -0.4395
 9142SOL    HW139059   4.033   3.481  13.696  0.9117 -0.7351 -0.3704
 9142SOL    HW239060   4.076   3.519  13.829  0.0003  0.9692 -0.4535
 9143SOL     OW39061   1.432   1.584  15.548 -0.3379 -0.3684 -0.1363
 9143SOL    HW139062   1.431   1.635  15.629  1.2924  1.3040 -1.1477
 9143SOL    HW239063   1.428   1.498  15.588 -2.1125 -0.9816 -1.6841
 9144SOL     OW39064   0.725   3.744  10.594 -0.4386 -0.4797  0.2813
 9144SOL    HW139065   0.676   3.711  10.519  1.8852 -2.5703 -0.3143
 9144SOL    HW239066   0.655   3.789  10.640 -0.5884 -1.0998  0.6554
 9145SOL     OW39067   0.841   2.664   2.963  0.2354 -0.2459  0.0558
 9145SOL    HW139068   0.917   2.613   2.937 -0.2073 -0.9691  0.1700
 9145SOL    HW239069   0.776   2.601   2.995 -0.9267  0.4746 -0.8961
 9146SOL     OW39070   0.125   2.306   9.755  0.0605 -0.7103  0.6165
 9146SOL    HW139071   0.150   2.224   9.713 -0.7117 -1.0514  0.8210
 9146SOL    HW239072   0.048   2.277   9.804  1.6136 -2.1202  2.2509
 9147SOL     OW39073   1.671   3.780   3.839  0.4887 -0.0183  0.0131
 9147SOL    HW139074   1.673   3.717   3.912 -2.5572  0.4943  0.5229
 9147SOL    HW239075   1.762   3.809   3.843  0.3334  0.5818 -1.0794
 9148SOL     OW39076   0.667   2.687   2.157 -0.2144 -0.4685  0.1871
 9148SOL    HW139077   0.589   2.674   2.211 -0.5827 -4.6777 -1.3187
 9148SOL    HW239078   0.719   2.609   2.177  1.1255  0.4131  0.1215
 9149SOL     OW39079   0.597   2.720  12.299 -0.2999  0.3044  0.7909
 9149SOL    HW139080   0.624   2.697  12.388  3.0402  2.3599  0.2878
 9149SOL    HW239081   0.538   2.794  12.313 -1.6143 -0.3891 -0.9618
 9150SOL     OW39082   4.466   3.922   5.585  0.1766  0.4695 -0.2584
 9150SOL    HW139083   4.558   3.907   5.561  0.2080  1.2994 -0.6669
 9150SOL    HW239084   4.441   3.974   5.509 -2.7596 -0.7968 -0.1522
 9151SOL     OW39085   2.183   4.367   2.470  0.2025 -0.1817 -0.2649
 9151SOL    HW139086   2.199   4.461   2.478  2.0788 -0.7167  2.2013
 9151SOL    HW239087   2.268   4.339   2.435 -0.1609 -0.2797 -1.0646
 9152SOL     OW39088   1.076   0.818   9.184 -0.2222  0.4410  0.1401
 9152SOL    HW139089   0.987   0.782   9.184  0.0581 -0.2014  3.5663
 9152SOL    HW239090   1.128   0.745   9.217 -1.1646 -0.4203 -0.2705
 9153SOL     OW39091   4.235   2.545   0.468  0.3707 -0.2787 -0.2568
 9153SOL    HW139092   4.183   2.625   0.462  1.0452 -0.0447 -2.6755
 9153SOL    HW239093   4.167   2.497   0.515  1.5408 -0.2285  1.4825
 9154SOL     OW39094   0.075   4.300   1.795  0.0680  1.1199 -0.4714
 9154SOL    HW139095   0.131   4.233   1.835  0.3246  0.4522 -1.9319
 9154SOL    HW239096   0.098   4.375   1.849  1.0122  1.5828 -1.5097
 9155SOL     OW39097   1.849   0.353   1.868  0.1407  0.2076  0.3152
 9155SOL    HW139098   1.933   0.379   1.829 -0.4489 -0.0581 -1.1034
 9155SOL    HW239099   1.848   0.262   1.839 -1.4735  0.1238  0.6380
 9156SOL     OW39100   4.453   4.478   4.607 -0.2381  0.4275 -0.0687
 9156SOL    HW139101   4.416   4.417   4.672  0.6044  1.2471  1.1695
 9156SOL    HW239102   4.525   4.430   4.567 -1.5095 -0.3842 -1.4027
 9157SOL     OW39103   1.577   2.901   1.925 -0.0971 -0.3895 -0.2682
 9157SOL    HW139104   1.604   2.883   1.835  0.5367  0.6089 -0.2715
 9157SOL    HW239105   1.613   2.823   1.969  1.0949 -0.1654 -0.8385
 9158SOL     OW39106   3.144   1.483  11.707 -0.0405 -0.5353  0.0899
 9158SOL    HW139107   3.231   1.444  11.717  0.8601  0.9839 -1.8240
 9158SOL    HW239108   3.090   1.409  11.736  0.9746 -1.6226 -0.7345
 9159SOL     OW39109   3.135   2.357  12.445  0.2358 -0.0119 -0.4701
 9159SOL    HW139110   3.049   2.383  12.412  1.1857  0.2939 -2.6838
 9159SOL    HW239111   3.097   2.282  12.490 -0.0755  0.1709 -0.4268
 9160SOL     OW39112   1.882   2.657   7.801  0.0753  0.6551  0.2039
 9160SOL    HW139113   1.799   2.695   7.830  0.0566  2.8508 -2.7147
 9160SOL    HW239114   1.901   2.590   7.867  0.3270  0.5469  0.0211
 9161SOL     OW39115   2.327   2.374  12.800 -0.6187 -0.2068  0.6505
 9161SOL    HW139116   2.370   2.449  12.761  2.2493 -1.4070  1.5345
 9161SOL    HW239117   2.235   2.391  12.776 -1.0990 -1.8584  1.3279
 9162SOL     OW39118   1.408   3.994   4.116  0.2722  0.6419  0.2676
 9162SOL    HW139119   1.452   3.928   4.169  0.8146 -0.0179 -0.9871
 9162SOL    HW239120   1.316   3.967   4.122  0.3522  0.2340 -0.2433
 9163SOL     OW39121   2.696   2.891   3.023 -0.3654 -0.4823 -0.4486
 9163SOL    HW139122   2.649   2.873   2.942  2.2963 -1.4815 -1.7311
 9163SOL    HW239123   2.623   2.891   3.086 -0.2479  2.1855 -0.3076
 9164SOL     OW39124   1.082   2.222   4.010  0.0925 -0.7111 -0.2563
 9164SOL    HW139125   1.073   2.130   4.036 -1.3810 -1.1388 -2.2987
 9164SOL    HW239126   1.112   2.199   3.922 -0.2622  0.2154 -0.6150
 9165SOL     OW39127   1.722   1.666  13.483 -0.0751  0.4707 -0.5783
 9165SOL    HW139128   1.710   1.698  13.572 -1.9661 -0.7745 -0.3769
 9165SOL    HW239129   1.647   1.697  13.431  0.2208  2.9211  0.4889
 9166SOL     OW39130   3.284   2.543  15.418  0.3119 -0.3075 -0.6931
 9166SOL    HW139131   3.324   2.622  15.380  0.6187 -0.4575 -0.6783
 9166SOL    HW239132   3.195   2.552  15.383  1.3571  0.3924 -3.1769
 9167SOL     OW39133   4.427   1.637   9.911 -0.3304 -0.0157  0.1015
 9167SOL    HW139134   4.435   1.546   9.939  2.6221  0.3307  0.4481
 9167SOL    HW239135   4.336   1.658   9.890  0.1790  0.2892 -1.7770
 9168SOL     OW39136   0.221   0.412   4.872  0.4976 -0.0924  0.1328
 9168SOL    HW139137   0.214   0.415   4.968  4.8804  0.0349  0.4247
 9168SOL    HW239138   0.137   0.371   4.852 -0.4354  1.0425  1.6934
 9169SOL     OW39139   0.488   0.903   8.031  0.5939 -0.7221 -1.1110
 9169SOL    HW139140   0.481   0.815   7.996  0.9442 -0.7839 -1.0190
 9169SOL    HW239141   0.458   0.958   7.958 -0.3354  0.0438 -0.1496
 9170SOL     OW39142   1.204   2.667   4.844  0.2895  0.2138  0.2981
 9170SOL    HW139143   1.195   2.588   4.790 -0.3818  0.3780  0.1786
 9170SOL    HW239144   1.254   2.639   4.921 -3.1928 -2.5686  1.4919
 9171SOL     OW39145   2.632   4.023   2.504  0.5113  0.0741 -0.1227
 9171SOL    HW139146   2.595   4.041   2.418 -1.1474  1.7932  0.9410
 9171SOL    HW239147   2.722   4.052   2.490  0.7683 -1.4614 -1.5736
 9172SOL     OW39148   2.305   3.706   8.184 -0.4566 -0.1200 -0.0732
 9172SOL    HW139149   2.367   3.647   8.227  1.5455 -0.5782 -3.5724
 9172SOL    HW239150   2.267   3.646   8.120  1.4071 -0.6412 -0.7071
 9173SOL     OW39151   2.920   0.978   8.449 -0.2048 -0.3410 -0.1055
 9173SOL    HW139152   2.870   1.019   8.520 -0.8024  0.4801 -1.0141
 9173SOL    HW239153   2.850   0.944   8.393 -0.2313  1.9814 -1.4662
 9174SOL     OW39154   4.727   3.522  14.769 -0.0067 -0.0439  0.3099
 9174SOL    HW139155   0.060   3.564  14.724 -1.2874  0.8807 -0.9130
 9174SOL    HW239156   4.735   3.557  14.858  0.2112  1.7275 -0.4102
 9175SOL     OW39157   2.240   3.440   1.400 -0.2003  0.4668  0.0823
 9175SOL    HW139158   2.154   3.473   1.427  0.0078  0.6915  0.4631
 9175SOL    HW239159   2.259   3.381   1.473 -1.8980  1.7754  1.5934
 9176SOL     OW39160   3.255   3.480   0.344  0.1186 -0.0825  0.4733
 9176SOL    HW139161   3.329   3.470   0.404  0.6639 -2.1545 -0.5312
 9176SOL    HW239162   3.298   3.542   0.285  0.2423 -1.2136 -0.6178
 9177SOL     OW39163   4.368   3.626   5.556  0.1045 -0.3689 -0.1172
 9177SOL    HW139164   4.390   3.712   5.591  0.6681 -1.7458  2.9163
 9177SOL    HW239165   4.280   3.639   5.519 -0.4525 -2.3930  0.4632
 9178SOL     OW39166   1.944   0.957  15.672  0.1370  0.1049  0.7911
 9178SOL    HW139167   1.882   0.925  15.607  2.9299  1.2244 -2.4023
 9178SOL    HW239168   2.011   0.898  15.639  1.0565 -0.6126  3.9507
 9179SOL     OW39169   1.158   3.210   1.988 -0.2000 -0.3166  0.6401
 9179SOL    HW139170   1.079   3.256   2.018 -1.6054 -1.6956 -0.9566
 9179SOL    HW239171   1.233   3.244   2.037 -0.0516 -0.2351  0.3595
 9180SOL     OW39172   3.153   4.632   5.605  0.2089  0.3129 -0.3080
 9180SOL    HW139173   3.195   4.701   5.655 -0.5995 -0.6665  1.7083
 9180SOL    HW239174   3.155   4.665   5.515 -1.1271  2.4461  0.4649
 9181SOL     OW39175   2.278   2.809   4.297 -0.0260  0.1778 -0.0743
 9181SOL    HW139176   2.307   2.798   4.206  0.5688 -1.5979  0.3255
 9181SOL    HW239177   2.231   2.890   4.315 -2.2181 -0.8973 -0.8749
 9182SOL     OW39178   3.529   1.569   2.845  0.2822  0.2257 -0.4697
 9182SOL    HW139179   3.540   1.571   2.751  4.1410 -1.3116 -0.0201
 9182SOL    HW239180   3.610   1.539   2.886  1.0490 -0.0352 -2.1794
 9183SOL     OW39181   0.114   0.504   5.992  0.2785  0.2644 -0.1993
 9183SOL    HW139182   0.089   0.558   6.067  2.4602  0.5594  0.3166
 9183SOL    HW239183   0.091   0.421   6.033 -3.4534  0.7892 -1.1979
 9184SOL     OW39184   3.220   2.870   7.595  0.3805  0.0468  0.2275
 9184SOL    HW139185   3.289   2.927   7.563  1.5765  0.1834  3.0585
 9184SOL    HW239186   3.205   2.901   7.684  3.0097 -2.6198  1.6224
 9185SOL     OW39187   1.002   2.142   2.185 -0.5648 -0.3811  0.3289
 9185SOL    HW139188   1.005   2.157   2.279 -2.2438  1.1040  0.1415
 9185SOL    HW239189   0.923   2.093   2.162  0.0147 -1.5019  0.7443
 9186SOL     OW39190   4.385   1.846   7.215  0.0404 -0.7628 -0.6613
 9186SOL    HW139191   4.378   1.751   7.210 -0.6857 -0.7741  0.6706
 9186SOL    HW239192   4.443   1.868   7.288 -0.7827 -0.5723 -0.0659
 9187SOL     OW39193   4.145   1.840  16.793  0.2460  0.0492 -0.4048
 9187SOL    HW139194   4.118   1.930  16.812 -0.5614 -0.3863  0.4587
 9187SOL    HW239195   4.111   1.833  16.704 -1.3720 -3.0516  0.4776
 9188SOL     OW39196   2.931   0.875  14.138  0.4459  0.2670 -0.1782
 9188SOL    HW139197   2.896   0.837  14.057  0.0895  0.2346 -0.0070
 9188SOL    HW239198   2.853   0.921  14.167  1.4050  2.5789 -1.2091
 9189SOL     OW39199   2.199   1.862  11.821  0.3350 -0.4627 -0.0188
 9189SOL    HW139200   2.272   1.921  11.803 -0.2743  0.4928  0.6254
 9189SOL    HW239201   2.141   1.892  11.751  1.8608 -2.9961 -2.4091
 9190SOL     OW39202   3.788   3.838   8.384  0.8505  0.6336  0.1943
 9190SOL    HW139203   3.741   3.816   8.304  0.6819  0.5218  0.3242
 9190SOL    HW239204   3.870   3.790   8.374  0.3776 -0.7830  3.1637
 9191SOL     OW39205   3.308   3.597   7.367 -0.3005  0.0595 -0.1825
 9191SOL    HW139206   3.263   3.518   7.337 -2.0492  0.9422  0.1887
 9191SOL    HW239207   3.373   3.611   7.298 -0.3220  1.6902  0.1320
 9192SOL     OW39208   4.676   0.847  11.685  0.0583  0.3106 -0.2454
 9192SOL    HW139209   4.607   0.910  11.706  2.3608  2.3774  1.1093
 9192SOL    HW239210   4.734   0.900  11.631 -1.1902  1.0098 -0.8960
 9193SOL     OW39211   0.585   2.162   3.989  0.3741  0.1967 -0.6706
 9193SOL    HW139212   0.557   2.172   3.898  0.6426 -0.7424 -0.8507
 9193SOL    HW239213   0.544   2.076   4.004  1.4827 -0.0131  1.1474
 9194SOL     OW39214   2.939   3.135   2.247 -0.3981 -0.1929 -0.2803
 9194SOL    HW139215   3.024   3.164   2.214 -0.1154  2.2613  2.6594
 9194SOL    HW239216   2.950   3.044   2.217  0.7259  0.0122 -0.5121
 9195SOL     OW39217   4.262   2.200   5.326  0.2195  0.1101  0.1836
 9195SOL    HW139218   4.257   2.160   5.240  0.1174 -1.0268  0.7211
 9195SOL    HW239219   4.306   2.282   5.303 -1.8674  1.1779 -0.0020
 9196SOL     OW39220   3.365   0.858  12.952  0.1525 -0.3665 -0.5456
 9196SOL    HW139221   3.399   0.836  13.039 -0.9420  0.2555  0.0345
 9196SOL    HW239222   3.273   0.882  12.958  0.3205  0.6002 -1.8703
 9197SOL     OW39223   2.938   3.861  12.975 -0.2981 -0.0696 -0.2477
 9197SOL    HW139224   2.864   3.885  12.919  0.4214 -0.9645 -1.5603
 9197SOL    HW239225   2.992   3.940  12.975 -1.5473  0.7920  0.5695
 9198SOL     OW39226   1.668   2.141   9.229  0.1307 -0.2420  0.4977
 9198SOL    HW139227   1.734   2.199   9.189 -2.5504  1.0221 -2.0560
 9198SOL    HW239228   1.601   2.150   9.161  1.1368  0.8608 -0.3603
 9199SOL     OW39229   1.017   1.914  11.741 -0.0872  1.0057 -0.5706
 9199SOL    HW139230   0.949   1.919  11.673  0.0501 -3.1352 -1.0377
 9199SOL    HW239231   1.012   1.818  11.742 -0.1686  1.0231  0.4508
 9200SOL     OW39232   0.433   1.063   7.797  0.1193  0.6008  0.1375
 9200SOL    HW139233   0.411   1.139   7.743 -0.4859  0.3459  0.0236
 9200SOL    HW239234   0.368   0.999   7.768  0.3680  1.2535 -1.8675
 9201SOL     OW39235   1.677   3.686   4.481 -0.6791  0.4097 -0.0819
 9201SOL    HW139236   1.603   3.639   4.520  0.0406  0.5249  1.4514
 9201SOL    HW239237   1.704   3.727   4.563 -1.5500  0.2897  0.2648
 9202SOL     OW39238   1.945   3.276   5.311 -0.2959  0.3750 -0.1184
 9202SOL    HW139239   1.930   3.365   5.278 -1.9963 -0.4330 -1.5237
 9202SOL    HW239240   2.041   3.272   5.308 -0.2538  1.6647 -0.7831
 9203SOL     OW39241   0.659   2.976   4.627  0.1967 -0.0379  0.2877
 9203SOL    HW139242   0.565   2.974   4.647  0.4346  0.4784  1.4877
 9203SOL    HW239243   0.681   2.887   4.657 -1.3901 -0.4883  0.1165
 9204SOL     OW39244   4.587   2.837  10.223 -0.1617 -0.0510  0.0155
 9204SOL    HW139245   4.636   2.805  10.148 -1.0251 -4.2447  1.2546
 9204SOL    HW239246   4.658   2.837  10.287 -1.1859 -0.5835  1.1494
 9205SOL     OW39247   1.763   4.480  15.927 -0.1635 -0.4237  0.9128
 9205SOL    HW139248   1.745   4.553  15.986  1.6808  1.5571 -0.9657
 9205SOL    HW239249   1.813   4.527  15.860 -2.9631  0.2289 -0.7051
 9206SOL     OW39250   0.492   0.138  13.653  0.1380  0.4391 -0.3311
 9206SOL    HW139251   0.420   0.125  13.591 -0.1787 -0.3447  0.1958
 9206SOL    HW239252   0.503   0.233  13.648  0.1587  0.4477 -0.1227
 9207SOL     OW39253   0.104   2.436   6.561  0.2166  0.3947  0.3770
 9207SOL    HW139254   0.197   2.449   6.542  0.0710  0.7432 -0.0845
 9207SOL    HW239255   0.093   2.413   6.653 -0.0516 -2.0541 -0.2458
 9208SOL     OW39256   4.531   4.137   2.222  0.2693  0.1160 -0.2216
 9208SOL    HW139257   4.500   4.047   2.214 -0.8389  0.4247  0.7154
 9208SOL    HW239258   4.561   4.156   2.133 -0.5843  1.5384 -0.2117
 9209SOL     OW39259   3.036   4.699   4.740 -0.0353 -0.3191 -0.1713
 9209SOL    HW139260   3.126   4.726   4.723  0.4368 -0.9604  1.3833
 9209SOL    HW239261   2.995   0.022   4.680 -0.2756  0.6149  0.9728
 9210SOL     OW39262   2.145   3.311   3.749  0.1927 -0.0870  1.2352
 9210SOL    HW139263   2.169   3.383   3.691 -2.0181 -0.4388 -0.1361
 9210SOL    HW239264   2.228   3.278   3.783  2.3860  3.7131 -0.4323
 9211SOL     OW39265   0.533   4.184   8.090 -0.4904 -0.0731 -0.4871
 9211SOL    HW139266   0.596   4.244   8.131 -0.8077  0.7435 -1.1990
 9211SOL    HW239267   0.457   4.240   8.073  0.2455  0.6681 -1.3051
 9212SOL     OW39268   4.222   1.018   4.153 -0.1908  0.0836 -0.4352
 9212SOL    HW139269   4.316   1.030   4.146 -0.0911 -0.7260 -0.4553
 9212SOL    HW239270   4.228   0.946   4.215 -0.8921 -0.5526 -1.1104
 9213SOL     OW39271   2.874   3.629   8.296  0.0788 -0.2098 -0.2652
 9213SOL    HW139272   2.840   3.717   8.286 -0.8796 -0.6046 -0.4634
 9213SOL    HW239273   2.968   3.640   8.312 -0.0261  0.0980  0.1432
 9214SOL     OW39274   3.980   4.453   5.625 -0.3317  0.4690 -0.6498
 9214SOL    HW139275   3.956   4.526   5.682 -0.4855 -0.2486  0.1985
 9214SOL    HW239276   4.069   4.437   5.655 -0.5722 -1.2742 -0.8533
 9215SOL     OW39277   0.380   1.731   9.092 -0.0481  0.3803  0.2545
 9215SOL    HW139278   0.348   1.821   9.081 -1.8076 -0.0529  1.8061
 9215SOL    HW239279   0.370   1.710   8.999  1.6788  3.6336 -0.6956
 9216SOL     OW39280   2.204   2.694  13.975 -0.5711 -1.3503  0.0938
 9216SOL    HW139281   2.235   2.736  13.895  0.7672 -0.0803  1.2604
 9216SOL    HW239282   2.208   2.769  14.035 -2.3494 -0.0617 -1.4073
 9217SOL     OW39283   3.703   4.402   7.438 -0.2515 -0.3607  0.1827
 9217SOL    HW139284   3.787   4.447   7.430  0.2955 -1.1315  1.4820
 9217SOL    HW239285   3.656   4.442   7.511 -0.0231  1.1990 -0.5318
 9218SOL     OW39286   0.166   0.502   7.865  0.2331  0.2596  0.1034
 9218SOL    HW139287   0.172   0.558   7.942  1.1935 -0.2227  0.3779
 9218SOL    HW239288   0.146   0.414   7.897 -0.2525  0.0735 -0.6872
 9219SOL     OW39289   3.208   0.602  15.344  0.5928 -0.1430  0.0595
 9219SOL    HW139290   3.150   0.564  15.277 -1.6423 -0.1814  2.0145
 9219SOL    HW239291   3.143   0.613  15.413  1.5098 -0.1709  0.9167
 9220SOL     OW39292   1.336   3.863  13.570 -0.5610  0.3359  0.3101
 9220SOL    HW139293   1.397   3.790  13.563  0.1844  0.9032  0.8877
 9220SOL    HW239294   1.389   3.915  13.631 -0.7291  0.9902 -0.1031
 9221SOL     OW39295   1.803   0.529   3.307 -0.0806  0.7198 -0.9228
 9221SOL    HW139296   1.803   0.477   3.387 -0.4963  1.2114 -0.6084
 9221SOL    HW239297   1.792   0.617   3.341 -2.5663 -0.9001  2.3878
 9222SOL     OW39298   0.521   3.447   4.880  0.1603 -0.0656 -0.5932
 9222SOL    HW139299   0.474   3.530   4.881  0.8512  0.3247  0.3842
 9222SOL    HW239300   0.472   3.385   4.827  1.0256 -2.1210  0.9812
 9223SOL     OW39301   4.734   1.547   6.840  0.1585  0.0018 -0.4490
 9223SOL    HW139302   4.711   1.640   6.832 -2.6581 -0.7262 -1.0305
 9223SOL    HW239303   4.677   1.528   6.915  1.2516  0.6932  0.5583
 9224SOL     OW39304   2.794   2.459   5.730  0.2600 -0.4394  0.3256
 9224SOL    HW139305   2.726   2.417   5.677 -2.1786  3.3575  0.4587
 9224SOL    HW239306   2.851   2.387   5.759 -0.1873 -0.8478  0.1873
 9225SOL     OW39307   3.960   3.018  14.397 -0.3422 -0.3187  0.1865
 9225SOL    HW139308   3.980   3.078  14.469 -0.7601 -0.5075  0.4550
 9225SOL    HW239309   3.952   2.936  14.447 -2.5655 -0.1381  0.1271
 9226SOL     OW39310   3.281   0.708   5.327  0.4161 -0.1957  0.5279
 9226SOL    HW139311   3.322   0.631   5.287  0.2720 -0.4056  0.7766
 9226SOL    HW239312   3.257   0.679   5.415  0.9578 -0.2376  0.6611
 9227SOL     OW39313   2.258   1.185  10.458  0.0061  0.1279 -0.2154
 9227SOL    HW139314   2.266   1.097  10.496  1.5580 -0.0917 -1.0778
 9227SOL    HW239315   2.169   1.202  10.489  0.3625  0.9400  0.3463
 9228SOL     OW39316   2.633   3.856   1.832  0.1386 -0.0054 -0.6833
 9228SOL    HW139317   2.670   3.773   1.802 -0.5764 -0.2930 -0.7733
 9228SOL    HW239318   2.626   3.909   1.752 -1.7997 -0.2906 -0.7014
 9229SOL     OW39319   1.487   1.732  13.371  0.2724 -0.1183 -0.2974
 9229SOL    HW139320   1.434   1.677  13.314  0.2234  0.0533 -0.4196
 9229SOL    HW239321   1.453   1.821  13.356 -0.1515 -0.2977 -0.4177
 9230SOL     OW39322   4.492   1.937  16.401  0.1145  0.0077 -0.3942
 9230SOL    HW139323   4.489   2.029  16.375 -1.4504 -0.0627 -0.4406
 9230SOL    HW239324   4.492   1.899  16.313  0.2620 -1.8745  0.4135
 9231SOL     OW39325   4.415   1.767  12.239 -0.5717  0.1117 -0.8571
 9231SOL    HW139326   4.496   1.816  12.249 -0.6524  0.5216 -2.1377
 9231SOL    HW239327   4.445   1.686  12.280  0.8665  1.3977  0.6132
 9232SOL     OW39328   3.780   2.742   6.230  0.0590 -0.3563 -0.0389
 9232SOL    HW139329   3.687   2.719   6.230 -0.2128  0.7294  0.3469
 9232SOL    HW239330   3.806   2.653   6.206  0.1177 -0.2716 -0.2841
 9233SOL     OW39331   4.091   3.688   7.091 -0.0185 -0.3245 -0.3695
 9233SOL    HW139332   4.062   3.671   7.181  0.8912 -0.3174 -0.0770
 9233SOL    HW239333   4.014   3.744   7.079  1.1080  1.4325  0.5097
 9234SOL     OW39334   2.778   3.414   5.980 -0.5194  0.4464  0.0890
 9234SOL    HW139335   2.755   3.327   6.013 -0.3200  1.4733  2.8923
 9234SOL    HW239336   2.753   3.475   6.049  1.1949  2.1140 -0.7829
 9235SOL     OW39337   0.709   3.351   1.658  0.3534  0.2218 -0.2111
 9235SOL    HW139338   0.784   3.386   1.610  1.6405 -0.0716  1.5703
 9235SOL    HW239339   0.754   3.276   1.697  3.5210  3.9740  3.3491
 9236SOL     OW39340   3.432   1.088   0.382 -0.4264 -0.4368  0.1718
 9236SOL    HW139341   3.447   1.173   0.341 -1.9743 -0.3332 -0.1819
 9236SOL    HW239342   3.517   1.044   0.378 -0.5721 -0.7682  0.6605
 9237SOL     OW39343   2.246   0.285  15.708  0.0210 -0.0564  0.1968
 9237SOL    HW139344   2.288   0.205  15.676 -0.1797 -0.0481 -0.0786
 9237SOL    HW239345   2.318   0.331  15.751  1.1213 -0.8475 -0.7809
 9238SOL     OW39346   1.819   1.292   9.758 -0.1161  0.4987  0.4095
 9238SOL    HW139347   1.799   1.381   9.787  0.3382  1.0353 -0.8950
 9238SOL    HW239348   1.744   1.269   9.703  1.1694  2.5283 -2.2137
 9239SOL     OW39349   0.582   4.569  16.581  0.5151 -0.3190 -0.0966
 9239SOL    HW139350   0.602   4.480  16.553  0.4399 -0.2376 -0.4190
 9239SOL    HW239351   0.674   4.594  16.589  0.6265 -0.6926 -0.2052
 9240SOL     OW39352   1.936   1.348  12.187 -0.0573 -0.0543 -0.4100
 9240SOL    HW139353   1.851   1.370  12.151 -0.1158  0.9856  0.3639
 9240SOL    HW239354   1.964   1.273  12.134  0.7513  1.1540 -1.7126
 9241SOL     OW39355   1.143   0.294  15.819  0.2324 -0.1036 -0.0453
 9241SOL    HW139356   1.079   0.328  15.882 -0.0986  0.4699 -0.6920
 9241SOL    HW239357   1.222   0.293  15.873 -0.8220  0.3258  1.4997
 9242SOL     OW39358   4.025   4.137   5.675 -0.2118 -0.0154 -0.3256
 9242SOL    HW139359   4.019   4.053   5.720  2.3263  0.0113  0.0577
 9242SOL    HW239360   4.025   4.124   5.580 -2.8167  1.6836 -0.5598
 9243SOL     OW39361   0.942   4.635   2.348  0.3304 -0.0733  0.1162
 9243SOL    HW139362   0.905   4.631   2.260 -1.6518  3.0831  0.8015
 9243SOL    HW239363   1.028   4.671   2.328 -0.6294  2.5988  0.8188
 9244SOL     OW39364   0.625   2.180  12.750 -0.5851 -0.0337 -0.3036
 9244SOL    HW139365   0.576   2.191  12.831  0.8073 -3.0129  0.9206
 9244SOL    HW239366   0.706   2.142  12.784  0.7716  1.0638 -2.3180
 9245SOL     OW39367   3.288   2.526   1.777  0.1834 -0.0297  0.0245
 9245SOL    HW139368   3.262   2.601   1.829  0.5754  0.6011 -0.6918
 9245SOL    HW239369   3.328   2.565   1.700 -4.4585 -0.1361 -2.4389
 9246SOL     OW39370   0.026   0.660   2.373 -0.2102  0.2028  0.0847
 9246SOL    HW139371   0.117   0.653   2.344 -0.5099  1.0531 -1.0533
 9246SOL    HW239372   0.043   0.724   2.442  4.0632 -0.2921 -0.5212
 9247SOL     OW39373   0.108   3.963   4.605  0.2988 -0.1198  0.8679
 9247SOL    HW139374   0.047   3.917   4.547 -0.7289  1.3170  0.8260
 9247SOL    HW239375   0.169   3.985   4.535 -2.0841  0.5070 -1.0247
 9248SOL     OW39376   0.185   4.071   8.988  0.2604  0.2773 -0.0999
 9248SOL    HW139377   0.192   4.028   8.903 -2.2809 -1.4274  0.5341
 9248SOL    HW239378   0.113   4.132   8.971 -1.7219 -1.9402  0.3583
 9249SOL     OW39379   2.947   1.916   7.018 -0.2690  0.0156  0.1431
 9249SOL    HW139380   2.866   1.902   7.067 -1.1283  3.7734 -0.1480
 9249SOL    HW239381   2.957   1.837   6.965 -3.0081 -0.9100  0.9812
 9250SOL     OW39382   1.676   1.482   4.106 -0.0909 -0.1687  0.0371
 9250SOL    HW139383   1.626   1.497   4.186  0.2950  0.3335  0.1800
 9250SOL    HW239384   1.756   1.534   4.119 -0.2875  0.0862  0.2144
 9251SOL     OW39385   1.664   1.200   2.966  0.2367 -0.2578  0.8091
 9251SOL    HW139386   1.574   1.172   2.947 -0.1219  1.7305 -0.5424
 9251SOL    HW239387   1.712   1.118   2.971 -0.6900 -0.9645 -1.4310
 9252SOL     OW39388   0.914   3.162   8.613 -0.2564  0.1480 -0.0722
 9252SOL    HW139389   0.905   3.088   8.674 -0.6565 -0.7121 -1.1766
 9252SOL    HW239390   0.980   3.214   8.659  1.8620 -0.1224 -2.8410
 9253SOL     OW39391   0.053   1.192   7.704 -0.3081  0.1464 -0.5555
 9253SOL    HW139392   0.008   1.178   7.787  1.1876  2.6528  0.6777
 9253SOL    HW239393   0.118   1.255   7.736  1.4931 -2.0299  0.0818
 9254SOL     OW39394   2.526   3.705   7.814  0.7891 -0.0104 -0.1447
 9254SOL    HW139395   2.431   3.696   7.810  0.6377  0.8547  1.8242
 9254SOL    HW239396   2.540   3.800   7.813 -3.2934  0.5727 -0.8780
 9255SOL     OW39397   3.906   3.898   7.057  0.1041  0.3380 -0.1871
 9255SOL    HW139398   3.824   3.848   7.062 -0.7471  1.6069 -1.4026
 9255SOL    HW239399   3.879   3.976   7.105 -0.2770  0.3190 -0.3648
 9256SOL     OW39400   1.798   1.359   7.218 -0.0003 -0.4811 -0.2351
 9256SOL    HW139401   1.845   1.382   7.138 -0.5056 -1.9328 -0.9554
 9256SOL    HW239402   1.862   1.318   7.276  0.9038 -0.7791 -1.4347
 9257SOL     OW39403   4.051   2.411   4.507 -0.1618  0.0122  0.2532
 9257SOL    HW139404   4.082   2.445   4.591  0.6999 -0.3850  0.0890
 9257SOL    HW239405   4.132   2.403   4.457  0.0604 -1.4312  0.8536
 9258SOL     OW39406   0.216   0.888   5.154  0.0547 -0.1413 -0.1339
 9258SOL    HW139407   0.149   0.820   5.146  0.6757 -0.7796  0.1078
 9258SOL    HW239408   0.154   0.959   5.169  0.1029  0.4309 -2.6148
 9259SOL     OW39409   4.352   0.823   7.048 -0.7750  0.3710  0.0325
 9259SOL    HW139410   4.362   0.879   6.971 -0.0815  0.2024  0.0044
 9259SOL    HW239411   4.296   0.754   7.012  1.8341 -1.5763 -0.2739
 9260SOL     OW39412   3.010   2.289   5.272 -0.6430 -0.4023  0.1525
 9260SOL    HW139413   2.964   2.358   5.319  1.5331  0.4669  0.9735
 9260SOL    HW239414   3.061   2.247   5.341 -0.3175  0.0437  0.1808
 9261SOL     OW39415   3.372   1.851   7.250 -0.1417  0.2259 -0.2585
 9261SOL    HW139416   3.388   1.806   7.167  0.2194  0.8734 -0.5402
 9261SOL    HW239417   3.421   1.792   7.308  1.6739  2.4286  0.4264
 9262SOL     OW39418   3.792   1.001   9.942  0.0287 -0.2530  0.0834
 9262SOL    HW139419   3.828   0.950  10.015 -1.3068 -1.8448 -0.3594
 9262SOL    HW239420   3.698   0.996   9.959  0.0380 -1.0345 -0.1026
 9263SOL     OW39421   2.070   1.219   5.040 -0.3823  0.0784 -0.3391
 9263SOL    HW139422   2.111   1.138   5.070 -1.3711 -0.8133 -1.3874
 9263SOL    HW239423   2.140   1.283   5.056 -2.2179  1.4885  2.0712
 9264SOL     OW39424   1.585   4.142  15.766  0.1485 -0.1856 -0.2380
 9264SOL    HW139425   1.605   4.221  15.716 -1.1729  2.0720  2.7898
 9264SOL    HW239426   1.603   4.165  15.857 -1.5407  1.7265 -0.3973
 9265SOL     OW39427   2.085   0.287  12.912  0.0677  0.1598 -0.6838
 9265SOL    HW139428   2.061   0.358  12.971 -0.7523 -0.8582  0.1973
 9265SOL    HW239429   2.014   0.223  12.918  0.0053  0.5303  2.4399
 9266SOL     OW39430   3.560   2.106   1.912  0.3507  0.3812 -0.0491
 9266SOL    HW139431   3.540   2.199   1.896 -0.2823 -0.2708 -3.2070
 9266SOL    HW239432   3.476   2.062   1.915  1.2972 -1.5969 -2.1754
 9267SOL     OW39433   1.784   0.427   6.850 -0.2242  0.2365  0.5049
 9267SOL    HW139434   1.826   0.505   6.816 -0.6498  0.1432 -0.2255
 9267SOL    HW239435   1.841   0.357   6.819 -0.8757  0.1170 -0.4301
 9268SOL     OW39436   2.293   0.918  13.177  0.8133  0.6072  0.3033
 9268SOL    HW139437   2.263   0.833  13.144  0.9797  0.1578  1.3100
 9268SOL    HW239438   2.234   0.916  13.252  0.5046 -2.0542 -0.0068
 9269SOL     OW39439   0.597   3.281  16.786  0.6630  0.2867 -0.5695
 9269SOL    HW139440   0.526   3.338  16.817  0.4557 -1.5074  2.2436
 9269SOL    HW239441   0.549   3.203  16.758  2.7168 -0.6172 -1.5105
 9270SOL     OW39442   0.313   2.243  12.379 -0.1564 -0.3320  0.1636
 9270SOL    HW139443   0.388   2.223  12.435 -0.3701  0.2318  0.6464
 9270SOL    HW239444   0.349   2.265  12.293  3.1932 -0.6204  1.4757
 9271SOL     OW39445   1.898   2.477   1.833 -0.7357 -0.1602 -0.0494
 9271SOL    HW139446   1.918   2.570   1.824 -0.1801 -0.1470  1.3112
 9271SOL    HW239447   1.956   2.448   1.763 -2.4953 -0.0102 -1.5640
 9272SOL     OW39448   3.783   4.292  11.406  0.5040 -0.4499  0.1969
 9272SOL    HW139449   3.784   4.383  11.376  0.0580  0.1311  1.8819
 9272SOL    HW239450   3.841   4.300  11.482 -0.0696  0.5805  0.5384
 9273SOL     OW39451   1.588   1.527   2.786 -0.4576 -0.0843 -0.1043
 9273SOL    HW139452   1.623   1.599   2.734  1.3912 -0.3374  0.7966
 9273SOL    HW239453   1.642   1.458   2.747  0.5641  0.1230  0.9530
 9274SOL     OW39454   2.240   3.823   6.632 -0.5936  0.0509  0.0666
 9274SOL    HW139455   2.168   3.879   6.603 -0.4578 -0.5816 -1.5384
 9274SOL    HW239456   2.272   3.866   6.711  0.8464  0.0581 -0.5241
 9275SOL     OW39457   4.215   0.097   3.590  0.1767 -0.3608  0.2536
 9275SOL    HW139458   4.196   0.070   3.501 -0.9138  1.9381 -0.2072
 9275SOL    HW239459   4.310   0.085   3.580 -0.0622 -1.1127 -1.0186
 9276SOL     OW39460   0.429   3.671  13.966  0.1179 -0.1529  0.1718
 9276SOL    HW139461   0.364   3.740  13.981  0.7201  0.7213 -1.2272
 9276SOL    HW239462   0.393   3.612  13.900  0.9764  2.5842 -2.7566
 9277SOL     OW39463   2.380   2.322   3.584 -0.2891  0.5738  0.0417
 9277SOL    HW139464   2.460   2.275   3.607 -1.0092 -1.1611 -0.9466
 9277SOL    HW239465   2.315   2.252   3.587 -1.0111  1.3166  1.6683
 9278SOL     OW39466   1.092   3.109  13.426  0.6731 -0.6476 -0.1346
 9278SOL    HW139467   1.007   3.150  13.442  0.5176 -0.4693 -1.4065
 9278SOL    HW239468   1.071   3.047  13.356  0.9881  1.0794 -1.7800
 9279SOL     OW39469   0.282   1.392   7.234 -0.1688 -0.1855  0.0011
 9279SOL    HW139470   0.249   1.404   7.323  0.5378  2.4633 -0.1060
 9279SOL    HW239471   0.377   1.380   7.236 -0.1245  0.2282  0.2424
 9280SOL     OW39472   0.070   0.333   9.185 -0.3053 -0.1684 -0.5437
 9280SOL    HW139473   4.728   0.288   9.208  0.9822 -1.3334  1.8158
 9280SOL    HW239474   0.095   0.367   9.271  1.8294 -0.4076 -1.0526
 9281SOL     OW39475   1.066   3.388   2.324  0.0897 -0.2108 -0.3178
 9281SOL    HW139476   1.133   3.448   2.290  0.6262  0.5228  2.0449
 9281SOL    HW239477   1.010   3.386   2.246 -0.9299 -1.5837  0.4527
 9282SOL     OW39478   0.726   3.739   3.881  0.4582 -0.5306 -0.2224
 9282SOL    HW139479   0.632   3.754   3.885  0.4127 -0.6529 -0.8043
 9282SOL    HW239480   0.772   3.822   3.865 -0.6166  0.6427  2.7211
 9283SOL     OW39481   0.291   2.212  15.670  0.2738 -0.7981 -0.3495
 9283SOL    HW139482   0.380   2.178  15.666 -0.6566 -3.3510  0.6960
 9283SOL    HW239483   0.313   2.303  15.692  1.0178 -0.7896 -1.1416
 9284SOL     OW39484   4.100   2.230   5.797  0.0662  0.0743 -0.3507
 9284SOL    HW139485   4.156   2.154   5.780 -0.0925 -0.6387  2.3949
 9284SOL    HW239486   4.118   2.248   5.889 -1.1832 -0.9331  0.0878
 9285SOL     OW39487   2.350   3.845  16.846 -0.4184 -0.1374  0.1212
 9285SOL    HW139488   2.284   3.782  16.820 -0.7511 -0.7641  2.4973
 9285SOL    HW239489   2.309   3.899  16.914  2.6584  2.7078 -0.2632
 9286SOL     OW39490   3.430   1.038  11.968 -0.3967  0.2874 -0.2215
 9286SOL    HW139491   3.481   1.048  12.049 -0.4920 -0.5861 -0.0495
 9286SOL    HW239492   3.364   1.107  11.981 -2.0907 -1.3899  0.0640
 9287SOL     OW39493   3.922   2.435   1.920  0.0940  0.8216  0.2120
 9287SOL    HW139494   3.935   2.343   1.900  1.1688  1.0812 -0.2808
 9287SOL    HW239495   3.884   2.446   2.008  0.4008 -1.8492  0.6568
 9288SOL     OW39496   3.895   4.705   4.213  0.6612  0.0073 -0.1492
 9288SOL    HW139497   3.832   4.649   4.167  0.5758  1.2891 -1.5858
 9288SOL    HW239498   3.922   4.649   4.286  1.1336 -2.0576 -1.9299
 9289SOL     OW39499   3.066   0.528  12.311  0.1479 -0.1237  0.2450
 9289SOL    HW139500   3.098   0.438  12.307  0.3629 -0.0583  0.4484
 9289SOL    HW239501   2.972   0.519  12.303  0.3167 -0.7872 -0.8752
 9290SOL     OW39502   4.134   1.173   3.650 -0.3441 -0.1637  0.0914
 9290SOL    HW139503   4.194   1.101   3.629  1.5992  1.3697  0.3814
 9290SOL    HW239504   4.057   1.125   3.680 -0.2937 -1.2057 -1.4512
 9291SOL     OW39505   3.003   0.668   4.689  0.1098  0.4130  0.4167
 9291SOL    HW139506   3.097   0.655   4.695  0.2036  0.2746 -1.2232
 9291SOL    HW239507   2.996   0.759   4.660  1.6428  0.3092 -0.2742
 9292SOL     OW39508   1.698   4.363  13.750 -0.0298 -0.6035  0.2970
 9292SOL    HW139509   1.603   4.365  13.758 -0.2133 -0.5247 -1.9508
 9292SOL    HW239510   1.719   4.452  13.721 -0.3754 -0.7631 -0.4282
 9293SOL     OW39511   0.686   0.175  12.017 -0.4273  0.1228 -0.1326
 9293SOL    HW139512   0.697   0.229  12.095  1.9366 -2.3517  1.2814
 9293SOL    HW239513   0.700   0.084  12.046  0.0746  0.4705  0.7077
 9294SOL     OW39514   2.323   2.587   6.998  0.0745 -0.0164  0.6029
 9294SOL    HW139515   2.392   2.530   7.030  1.1592  1.5363  1.0321
 9294SOL    HW239516   2.261   2.519   6.971  0.8540 -1.1731  1.7294
 9295SOL     OW39517   0.135   3.680   8.502 -0.3312  0.0428 -0.2567
 9295SOL    HW139518   0.179   3.660   8.584 -0.3567  0.7930 -0.0683
 9295SOL    HW239519   0.063   3.738   8.528  0.5676  0.8136  0.4837
 9296SOL     OW39520   4.632   4.514   8.696  0.0790 -0.0035  0.2189
 9296SOL    HW139521   4.677   4.598   8.706  3.2480 -1.8216  1.1063
 9296SOL    HW239522   4.634   4.499   8.602  1.8594  0.7062  0.1524
 9297SOL     OW39523   0.777   4.112   5.698  0.0483 -0.3309 -0.0202
 9297SOL    HW139524   0.706   4.116   5.634  0.2242  1.3359 -0.0975
 9297SOL    HW239525   0.837   4.178   5.664  0.1209  0.0036  0.7450
 9298SOL     OW39526   1.129   1.343   3.696  0.4811  0.6182  0.0433
 9298SOL    HW139527   1.058   1.370   3.638 -0.2432 -0.7118  0.3028
 9298SOL    HW239528   1.089   1.327   3.781 -0.6635 -0.6340 -0.7249
 9299SOL     OW39529   1.294   1.564  13.574 -0.0876 -0.1714  0.1969
 9299SOL    HW139530   1.294   1.628  13.502 -1.9087  0.7596  1.0070
 9299SOL    HW239531   1.239   1.494  13.539  1.4063 -0.2065 -2.1467
 9300SOL     OW39532   0.781   0.437   9.513 -0.5348  0.4595  0.5295
 9300SOL    HW139533   0.752   0.347   9.498  2.1157 -0.6963  2.2457
 9300SOL    HW239534   0.839   0.468   9.443  0.5591 -2.4833  0.1199
 9301SOL     OW39535   4.524   2.852  15.973  0.3378  0.3374  0.2634
 9301SOL    HW139536   4.558   2.767  16.000 -1.0437 -0.4706 -0.4848
 9301SOL    HW239537   4.434   2.836  16.003 -0.1970  0.6013 -1.1619
 9302SOL     OW39538   3.725   2.756   5.778 -0.2828 -0.0871 -0.0589
 9302SOL    HW139539   3.677   2.675   5.762  0.7434 -0.0387 -3.2841
 9302SOL    HW239540   3.680   2.815   5.718  0.9268 -0.9070 -1.7874
 9303SOL     OW39541   0.144   1.438   5.364  0.2813 -0.2469  0.1648
 9303SOL    HW139542   0.167   1.370   5.301  0.2399 -0.6309  0.5709
 9303SOL    HW239543   0.227   1.464   5.405  0.3167  0.3718 -0.2931
 9304SOL     OW39544   2.026   1.722   3.510  0.0167  0.0859  0.0841
 9304SOL    HW139545   2.097   1.685   3.563  0.0649  0.4404  0.2754
 9304SOL    HW239546   2.061   1.717   3.422 -0.9382  0.0233 -0.2952
 9305SOL     OW39547   2.467   0.573  11.024 -0.1030  0.3860  0.2665
 9305SOL    HW139548   2.415   0.651  11.006  0.4391  0.3863 -1.2688
 9305SOL    HW239549   2.528   0.573  10.951  0.4320  2.2752  0.7187
 9306SOL     OW39550   3.461   3.889   8.641  0.1994 -0.0999  0.2954
 9306SOL    HW139551   3.486   3.982   8.641  0.3742 -0.1468 -0.2284
 9306SOL    HW239552   3.551   3.855   8.641  0.2660  0.0743  0.2114
 9307SOL     OW39553   1.850   4.728  17.649  0.1752  0.3107  0.4752
 9307SOL    HW139554   1.856   4.633  17.659 -0.1242  0.0508 -1.8583
 9307SOL    HW239555   1.892   4.730  17.563 -1.1632  1.5426 -0.1582
 9308SOL     OW39556   0.953   3.797  11.123 -0.2747  0.2556  0.9122
 9308SOL    HW139557   0.902   3.861  11.072  1.0472 -0.0682 -0.8302
 9308SOL    HW239558   1.039   3.824  11.090 -0.7544  1.3663  0.5673
 9309SOL     OW39559   4.428   0.947   9.208 -0.2528 -0.4763 -0.0106
 9309SOL    HW139560   4.344   0.949   9.163 -1.2083 -2.6027  1.6517
 9309SOL    HW239561   4.472   0.996   9.139  1.3476 -0.5612  0.9464
 9310SOL     OW39562   1.795   3.567  14.543 -0.0858 -0.2826  0.1108
 9310SOL    HW139563   1.719   3.511  14.550 -0.7788  0.8379  1.5199
 9310SOL    HW239564   1.841   3.511  14.480  0.7009  0.6848 -0.1851
 9311SOL     OW39565   2.076   0.426   8.342 -0.2708  0.0751 -0.1150
 9311SOL    HW139566   2.114   0.348   8.301 -0.2393 -0.9956  1.9324
 9311SOL    HW239567   2.068   0.483   8.266  1.7216  0.6300  0.0898
 9312SOL     OW39568   2.702   1.205   8.031 -0.4950  0.3704  0.3843
 9312SOL    HW139569   2.761   1.174   7.962 -1.2755  1.1106 -0.6157
 9312SOL    HW239570   2.675   1.123   8.072  0.0167  0.5295  1.0414
 9313SOL     OW39571   0.697   2.525   8.955 -0.4016  0.4963  0.2039
 9313SOL    HW139572   0.744   2.455   9.000  1.1316  0.2818 -1.7530
 9313SOL    HW239573   0.606   2.495   8.964  1.2573 -4.4708  0.0183
 9314SOL     OW39574   4.220   1.941   3.132 -0.1725 -0.1654  0.0285
 9314SOL    HW139575   4.311   1.969   3.145  0.1440  0.0272 -2.6861
 9314SOL    HW239576   4.190   1.988   3.055 -1.1136 -1.1081 -0.1836
 9315SOL     OW39577   3.299   3.027   2.718 -0.3287  0.2029 -0.1787
 9315SOL    HW139578   3.309   3.060   2.629 -0.2207  0.8355  0.0671
 9315SOL    HW239579   3.204   3.021   2.729 -0.3430  1.4954  0.4791
 9316SOL     OW39580   1.505   3.676  13.490 -0.8354  0.8102 -0.0112
 9316SOL    HW139581   1.541   3.622  13.560 -1.4606 -0.3531 -0.5916
 9316SOL    HW239582   1.555   3.637  13.417 -1.3228 -1.8987  1.1089
 9317SOL     OW39583   3.424   1.136  12.455  0.2951 -0.0221 -0.8889
 9317SOL    HW139584   3.435   1.201  12.524  0.1150 -0.0015 -0.8805
 9317SOL    HW239585   3.380   1.072  12.509  0.2861  0.3043 -0.5108
 9318SOL     OW39586   3.754   0.415   1.982  0.0074  0.6359  0.1472
 9318SOL    HW139587   3.847   0.406   2.004 -0.0260  0.0942  0.0684
 9318SOL    HW239588   3.745   0.360   1.904  0.1397  0.2410  0.4062
 9319SOL     OW39589   0.091   4.044   6.837  0.8272 -0.5386  0.0237
 9319SOL    HW139590   0.029   3.971   6.825  1.2567 -1.0952  1.1102
 9319SOL    HW239591   0.041   4.123   6.857  0.0407 -1.3736  1.3898
 9320SOL     OW39592   4.180   3.668   8.107  0.0916  0.1083  0.6538
 9320SOL    HW139593   4.265   3.651   8.069  0.9727  1.6299  1.9215
 9320SOL    HW239594   4.195   3.638   8.197  0.8720  2.7598  1.4132
 9321SOL     OW39595   4.105   2.521  11.754  0.4214 -0.0333 -0.3790
 9321SOL    HW139596   4.120   2.442  11.702 -0.5948 -0.7033  0.3611
 9321SOL    HW239597   4.150   2.498  11.835  0.8248  4.0537  0.5548
 9322SOL     OW39598   4.472   1.763   3.247  0.3774 -0.0857  0.4521
 9322SOL    HW139599   4.403   1.782   3.184 -0.9889  0.5262  2.1565
 9322SOL    HW239600   4.455   1.669   3.237  0.0312  0.3301 -2.9670
 9323SOL     OW39601   1.739   0.601  13.884 -0.3165 -0.1351  0.0661
 9323SOL    HW139602   1.753   0.648  13.802  0.0991  0.8507  0.7002
 9323SOL    HW239603   1.704   0.516  13.858  0.8819 -0.1624 -1.4192
 9324SOL     OW39604   3.381   4.672   8.559  0.3578  0.3056  0.5483
 9324SOL    HW139605   3.307   4.733   8.562 -2.2983 -2.9698  1.5654
 9324SOL    HW239606   3.367   4.612   8.486  1.4523  1.1537 -0.3659
 9325SOL     OW39607   3.549   3.676   7.796  0.1890  0.2332 -0.7625
 9325SOL    HW139608   3.594   3.740   7.741  1.8445 -0.7134 -0.5191
 9325SOL    HW239609   3.518   3.733   7.866 -0.1335 -0.9341  0.0551
 9326SOL     OW39610   3.585   3.987   7.015  0.4365  0.1034 -0.4559
 9326SOL    HW139611   3.515   3.992   7.080 -0.0824 -2.3523 -0.7914
 9326SOL    HW239612   3.598   3.892   7.014 -0.1493  0.0247 -0.8354
 9327SOL     OW39613   3.247   1.172   3.314  0.4585  0.1816  0.0601
 9327SOL    HW139614   3.217   1.115   3.385  1.6383  1.2455  1.4030
 9327SOL    HW239615   3.175   1.198   3.256  0.9985  0.6152 -0.4253
 9328SOL     OW39616   2.935   0.099   3.751  0.2865 -0.1550  0.8358
 9328SOL    HW139617   2.903   0.070   3.666 -0.8740 -0.7643  1.4732
 9328SOL    HW239618   2.856   0.085   3.804 -0.8293  0.6763 -0.6009
 9329SOL     OW39619   0.775   3.184   8.110 -0.4057  0.3637  0.0036
 9329SOL    HW139620   0.748   3.268   8.072 -1.2035 -0.8262 -2.0431
 9329SOL    HW239621   0.718   3.121   8.065  2.1130 -1.4757 -0.5578
 9330SOL     OW39622   0.186   0.359   8.685  0.3197  0.2990 -0.4346
 9330SOL    HW139623   0.265   0.330   8.639  1.5309 -0.0369  1.8806
 9330SOL    HW239624   0.133   0.281   8.666  0.2343  0.3543 -0.4205
 9331SOL     OW39625   4.160   4.154  10.184  0.0981  0.1496  0.0652
 9331SOL    HW139626   4.076   4.166  10.140 -0.6296 -2.1918  0.8165
 9331SOL    HW239627   4.182   4.067  10.151  0.3546  0.1375  0.2723
 9332SOL     OW39628   1.890   0.012   5.882 -0.1500 -0.0076  0.2794
 9332SOL    HW139629   1.848   0.002   5.797 -0.0030  0.4394  0.1520
 9332SOL    HW239630   1.926   4.663   5.887  3.1184  1.3404  0.8373
 9333SOL     OW39631   3.769   2.018   2.071 -0.9063 -0.7630  0.1220
 9333SOL    HW139632   3.724   1.937   2.049  0.7314 -0.5168 -4.1594
 9333SOL    HW239633   3.713   2.076   2.020  0.6465  1.1016  0.5333
 9334SOL     OW39634   1.295   0.501   3.145 -0.5107 -0.0072  0.1067
 9334SOL    HW139635   1.278   0.417   3.102  0.3039  0.6648 -1.5697
 9334SOL    HW239636   1.263   0.559   3.076 -1.1260 -0.5191 -0.0429
 9335SOL     OW39637   4.706   3.755   3.417 -0.2440  0.0436 -0.0809
 9335SOL    HW139638   4.688   3.765   3.324 -1.2364  0.7019  0.1821
 9335SOL    HW239639   4.726   3.845   3.440  2.0571 -0.7627  1.1135
 9336SOL     OW39640   0.800   0.233   6.440 -0.6124 -0.3922 -1.1003
 9336SOL    HW139641   0.741   0.275   6.503  0.8478 -0.6831  0.4699
 9336SOL    HW239642   0.882   0.261   6.480 -2.5270  0.7918  2.0172
 9337SOL     OW39643   0.377   0.006   3.051 -0.1672 -0.4794  0.1857
 9337SOL    HW139644   0.284   0.026   3.062 -0.9626 -1.7382 -3.9085
 9337SOL    HW239645   0.385   4.704   2.964  0.3783 -0.0530  0.0287
 9338SOL     OW39646   1.098   4.729   8.509 -0.1801 -0.1716 -0.2521
 9338SOL    HW139647   1.169   4.708   8.448  0.4208 -0.0223  0.3848
 9338SOL    HW239648   1.043   0.045   8.453 -0.0778  2.8863  2.6720
 9339SOL     OW39649   3.252   0.969   1.981 -0.1362 -0.3309 -0.7658
 9339SOL    HW139650   3.306   0.893   1.957  0.4255 -1.2204  3.3289
 9339SOL    HW239651   3.290   1.001   2.063 -0.0495 -1.5689 -0.3244
 9340SOL     OW39652   3.942   0.012   9.575 -0.1488 -0.1676 -0.1185
 9340SOL    HW139653   3.879   0.053   9.516  0.8132 -0.3013 -1.2301
 9340SOL    HW239654   3.903   4.667   9.597 -0.4277  0.1415  0.5973
 9341SOL     OW39655   2.007   3.538  15.510  0.0356 -0.0953 -0.0974
 9341SOL    HW139656   1.986   3.448  15.486 -1.0766  0.6769 -2.0083
 9341SOL    HW239657   2.072   3.555  15.442  0.2234  0.7237  0.2847
 9342SOL     OW39658   3.955   0.970  16.991 -0.0392  0.3048 -0.1135
 9342SOL    HW139659   3.877   1.022  17.011  0.0698 -0.7185  2.9191
 9342SOL    HW239660   3.932   0.924  16.910  1.1354 -1.5578  0.6156
 9343SOL     OW39661   0.029   1.381   1.907  0.0465  0.0468  0.1054
 9343SOL    HW139662   0.113   1.335   1.901 -0.3818 -1.0957  2.9706
 9343SOL    HW239663   0.043   1.470   1.873  2.8679 -0.5651 -0.3705
 9344SOL     OW39664   3.113   3.246   5.673 -0.1850  0.3137 -0.1253
 9344SOL    HW139665   3.026   3.206   5.674 -0.4826  0.9421 -1.0279
 9344SOL    HW239666   3.101   3.310   5.743 -0.0833  2.0289 -1.6815
 9345SOL     OW39667   1.095   4.236   6.893  0.7923 -0.7527 -0.0470
 9345SOL    HW139668   1.008   4.199   6.877  0.5770  0.5659 -1.9479
 9345SOL    HW239669   1.138   4.153   6.914 -1.3662 -1.6538  0.8603
 9346SOL     OW39670   1.101   2.298  10.533 -0.5797 -0.4133 -0.3233
 9346SOL    HW139671   1.166   2.330  10.596  0.5689 -0.2990 -1.5741
 9346SOL    HW239672   1.012   2.307  10.567  0.3537 -2.4280  2.6922
 9347SOL     OW39673   3.376   2.919   1.181 -0.0173 -0.0251  0.4175
 9347SOL    HW139674   3.345   2.858   1.248 -1.0333 -0.7564 -0.7415
 9347SOL    HW239675   3.445   2.867   1.140 -1.2899  0.2028 -1.9691
 9348SOL     OW39676   3.868   2.666   3.870 -0.4885 -0.3417 -0.3708
 9348SOL    HW139677   3.900   2.743   3.917 -0.6079 -1.2391  1.1575
 9348SOL    HW239678   3.947   2.616   3.850 -1.3616 -2.6486  1.9763
 9349SOL     OW39679   1.402   3.177  10.122  0.7200  0.3171  0.5005
 9349SOL    HW139680   1.334   3.138  10.176  0.4536  0.3780  0.2108
 9349SOL    HW239681   1.475   3.116  10.133  0.8344  0.0888 -1.6489
 9350SOL     OW39682   3.792   4.094   7.245  0.3074  0.1885  0.3367
 9350SOL    HW139683   3.712   4.050   7.274  0.7666 -1.5520 -1.0139
 9350SOL    HW239684   3.748   4.170   7.207  1.6562  1.5498  1.4855
 9351SOL     OW39685   0.199   3.215  11.044  0.5262 -0.1964  0.1729
 9351SOL    HW139686   0.247   3.283  10.997  1.5303 -1.3223 -0.4609
 9351SOL    HW239687   0.201   3.141  10.983 -1.6886 -0.6685  0.6808
 9352SOL     OW39688   1.804   2.974   3.511 -0.2606  0.5936 -0.0965
 9352SOL    HW139689   1.896   2.999   3.504  0.5639 -1.7650  2.4519
 9352SOL    HW239690   1.763   3.056   3.537  2.3240  1.0240  2.5924
 9353SOL     OW39691   1.249   3.579   7.343  0.5511  0.0034  0.2118
 9353SOL    HW139692   1.163   3.537   7.350  0.4959  0.0239 -0.3368
 9353SOL    HW239693   1.300   3.499   7.332 -0.0423 -0.3578  0.0592
 9354SOL     OW39694   1.039   3.100   6.409 -0.0933 -0.3270  0.2175
 9354SOL    HW139695   1.004   3.188   6.422  0.1310 -0.2686  0.4370
 9354SOL    HW239696   1.016   3.084   6.318 -0.1887 -0.4127  0.2554
 9355SOL     OW39697   0.315   2.550   6.825 -1.0163  0.0441  0.0052
 9355SOL    HW139698   0.331   2.619   6.760 -0.2955 -1.5735 -1.5479
 9355SOL    HW239699   0.374   2.577   6.895  1.0305  2.7227 -2.7454
 9356SOL     OW39700   1.498   1.506   5.074 -0.0533  0.0684 -0.1100
 9356SOL    HW139701   1.525   1.487   4.984 -0.2904 -2.0199  0.2488
 9356SOL    HW239702   1.539   1.431   5.117  0.1970 -0.0047 -0.4725
 9357SOL     OW39703   2.151   1.445   4.000 -0.2070 -0.3103 -0.4730
 9357SOL    HW139704   2.154   1.360   4.044  1.0598 -0.1892 -0.3399
 9357SOL    HW239705   2.145   1.421   3.907  0.1705  0.1135 -0.6043
 9358SOL     OW39706   1.725   2.911   3.819  0.2250 -0.4672 -0.3189
 9358SOL    HW139707   1.728   2.815   3.814 -2.5066 -0.4613 -1.6714
 9358SOL    HW239708   1.814   2.935   3.794 -0.1914 -2.0026 -3.2165
 9359SOL     OW39709   0.523   2.575   6.286 -0.0310  0.1483  0.8389
 9359SOL    HW139710   0.577   2.633   6.232 -0.3831 -0.1141  0.2059
 9359SOL    HW239711   0.593   2.518   6.317  1.2669  1.3949  0.1813
 9360SOL     OW39712   0.669   4.303   3.430  0.1620 -0.7057 -0.5189
 9360SOL    HW139713   0.748   4.354   3.445 -0.5761  0.4288 -0.4761
 9360SOL    HW239714   0.604   4.349   3.483  1.0738  1.3890 -1.2361
 9361SOL     OW39715   0.933   1.345   5.651  0.0523  0.0694 -0.4277
 9361SOL    HW139716   0.943   1.266   5.706  0.4423 -0.7889 -1.7338
 9361SOL    HW239717   0.999   1.396   5.697  0.9449  0.7260 -2.4832
 9362SOL     OW39718   2.960   3.757   4.893 -0.1946  0.9624  0.3501
 9362SOL    HW139719   2.939   3.720   4.807 -0.0763  3.2961 -0.6762
 9362SOL    HW239720   3.000   3.682   4.938  1.8594  0.9298 -1.5080
 9363SOL     OW39721   1.266   4.130  15.582  0.0710  0.0751  0.2843
 9363SOL    HW139722   1.234   4.218  15.602 -2.4295 -0.3804 -1.6600
 9363SOL    HW239723   1.315   4.140  15.500  2.2515 -4.1875  1.0476
 9364SOL     OW39724   2.128   1.314   2.280  0.4689  0.0255  0.0190
 9364SOL    HW139725   2.160   1.398   2.247 -1.2949  1.6338  2.3435
 9364SOL    HW239726   2.113   1.331   2.373 -0.1870  0.7983 -0.2273
 9365SOL     OW39727   2.618   0.926   6.575  0.0060  0.2246  0.5198
 9365SOL    HW139728   2.577   0.839   6.577 -1.0650  0.8027  3.4140
 9365SOL    HW239729   2.619   0.952   6.483 -1.7206  2.1218  1.0574
 9366SOL     OW39730   1.187   0.797  16.988  0.4983  0.5321  0.1084
 9366SOL    HW139731   1.189   0.704  16.967 -0.8389  0.7308 -0.8710
 9366SOL    HW239732   1.092   0.808  16.990  0.3063 -1.0934  0.4215
 9367SOL     OW39733   2.120   1.929   9.968 -0.0838  0.2210 -0.2596
 9367SOL    HW139734   2.046   1.869   9.975  1.2278 -1.3339  0.3017
 9367SOL    HW239735   2.162   1.874   9.902 -4.0902 -0.4526 -2.2528
 9368SOL     OW39736   0.995   2.776  15.175  0.1152 -0.1292 -0.3191
 9368SOL    HW139737   1.078   2.735  15.199 -0.2771  1.1516  3.1974
 9368SOL    HW239738   0.960   2.786  15.264  0.7541  1.3888 -0.2288
 9369SOL     OW39739   3.194   0.173   8.462  0.3102 -0.2809  0.4608
 9369SOL    HW139740   3.220   0.144   8.375 -1.5113  0.1011 -0.1860
 9369SOL    HW239741   3.157   0.094   8.500  0.5055 -0.4616  0.2743
 9370SOL     OW39742   1.974   0.753   5.278  0.1697  0.0324 -0.5369
 9370SOL    HW139743   1.984   0.847   5.263 -0.7117  0.3373  0.7519
 9370SOL    HW239744   2.014   0.740   5.364  0.4015  0.4692 -0.5790
 9371SOL     OW39745   1.756   4.023   2.960 -0.5706 -0.2248 -0.1077
 9371SOL    HW139746   1.850   4.009   2.961 -0.4163  0.8862  1.7992
 9371SOL    HW239747   1.729   3.976   3.039  1.6688 -0.0441  0.7636
 9372SOL     OW39748   1.815   3.533   7.723  0.1238 -0.1575 -0.9187
 9372SOL    HW139749   1.813   3.551   7.629 -0.0162  0.0790 -0.8715
 9372SOL    HW239750   1.739   3.475   7.727  0.7785 -0.9384  0.2418
 9373SOL     OW39751   1.364   4.619   7.509  0.3965  0.2564 -0.3028
 9373SOL    HW139752   1.323   4.650   7.428  1.9347  1.2968 -0.6965
 9373SOL    HW239753   1.291   4.607   7.569  0.5064  0.6410 -0.0852
 9374SOL     OW39754   3.586   0.997   3.836  0.1369 -0.5864 -0.1736
 9374SOL    HW139755   3.539   0.941   3.774 -0.3039  0.2370 -0.5888
 9374SOL    HW239756   3.510   0.995   3.895  0.6843 -0.5109  0.5426
 9375SOL     OW39757   0.994   1.217   7.763  1.0195 -0.1994  0.0750
 9375SOL    HW139758   1.026   1.244   7.677  0.9052  2.2769  0.8036
 9375SOL    HW239759   1.031   1.292   7.811 -1.9579  1.4625 -0.2549
 9376SOL     OW39760   2.085   2.678   7.628 -0.0033 -0.4031 -0.0964
 9376SOL    HW139761   2.014   2.705   7.686 -2.1878 -1.4619 -2.2497
 9376SOL    HW239762   2.117   2.755   7.582 -0.6603 -1.0563 -1.6746
 9377SOL     OW39763   0.404   3.496  17.544 -0.2063  0.5576  0.4788
 9377SOL    HW139764   0.391   3.500  17.449  1.2010  0.2760  0.2697
 9377SOL    HW239765   0.415   3.590  17.558 -2.3820  0.7568  0.7677
 9378SOL     OW39766   1.868   3.819  14.102 -0.1839 -0.1971  0.4176
 9378SOL    HW139767   1.878   3.905  14.142  1.0416 -0.1011 -0.0811
 9378SOL    HW239768   1.834   3.757  14.166  1.2681 -0.5413  0.8467
 9379SOL     OW39769   2.934   4.467  15.614  0.0757  0.2718  0.7511
 9379SOL    HW139770   2.995   4.439  15.546  1.0754  1.5347  1.1122
 9379SOL    HW239771   2.953   4.560  15.631 -0.7679  0.6435 -0.3690
 9380SOL     OW39772   3.426   4.467   6.465  0.1418 -0.3840 -0.3616
 9380SOL    HW139773   3.432   4.431   6.554  0.6405 -0.2733 -0.3523
 9380SOL    HW239774   3.334   4.445   6.447 -0.3481 -0.5046  2.2916
 9381SOL     OW39775   2.643   0.943   8.287  0.1176  0.2107  0.1464
 9381SOL    HW139776   2.555   0.944   8.325 -0.9466 -1.7699 -2.3032
 9381SOL    HW239777   2.632   0.852   8.259 -0.4961  0.0555  0.8699
 9382SOL     OW39778   0.315   3.401   3.507  0.2793 -0.0075  0.3834
 9382SOL    HW139779   0.394   3.446   3.476 -0.2043  0.0210 -0.7845
 9382SOL    HW239780   0.333   3.375   3.597 -0.7676  0.0221  0.6052
 9383SOL     OW39781   3.365   3.566   1.609  0.4096 -0.3520 -0.3657
 9383SOL    HW139782   3.458   3.550   1.590  0.5955 -0.2480  0.4441
 9383SOL    HW239783   3.350   3.612   1.526 -0.5856 -1.4858 -0.8082
 9384SOL     OW39784   0.653   0.938   3.552 -0.5301 -0.1316 -0.6078
 9384SOL    HW139785   0.683   1.028   3.536  0.4700 -0.5174 -0.9245
 9384SOL    HW239786   0.688   0.884   3.482 -1.6576 -1.0228 -0.4775
 9385SOL     OW39787   0.837   3.213  13.226 -0.4463 -0.4071  0.5239
 9385SOL    HW139788   0.875   3.209  13.314 -0.4105 -2.8144  0.4112
 9385SOL    HW239789   0.838   3.304  13.198  2.0874 -0.5059  0.3225
 9386SOL     OW39790   2.740   0.018   3.955  0.0834 -0.0087  0.2390
 9386SOL    HW139791   2.675   0.088   3.969  0.7300  0.2044  2.1281
 9386SOL    HW239792   2.708   4.689   4.013 -2.0458  2.4079  1.9375
 9387SOL     OW39793   3.102   4.066  16.393 -0.0762  0.3998 -0.7062
 9387SOL    HW139794   3.073   4.098  16.478 -0.2299 -1.1542 -0.1716
 9387SOL    HW239795   3.077   4.139  16.336  0.2292 -1.1640 -2.8502
 9388SOL     OW39796   1.763   0.776  15.563 -0.3492 -0.3171  0.1030
 9388SOL    HW139797   1.771   0.719  15.639  0.8527  1.0711  1.0437
 9388SOL    HW239798   1.729   0.734  15.484 -1.3367 -1.2284  1.0277
 9389SOL     OW39799   0.734   1.086  12.746 -0.3463  0.2510 -0.4017
 9389SOL    HW139800   0.696   1.009  12.788 -1.9310  0.1646 -1.9985
 9389SOL    HW239801   0.827   1.065  12.750 -0.6659 -0.8135  1.7819
 9390SOL     OW39802   1.997   3.745   1.916 -0.6334 -0.6845 -0.1858
 9390SOL    HW139803   1.935   3.806   1.876 -0.6055  0.1088  0.9856
 9390SOL    HW239804   2.054   3.724   1.842  1.1784 -0.7486  1.2141
 9391SOL     OW39805   1.101   2.917   1.964  0.3897 -0.2294 -0.1578
 9391SOL    HW139806   1.124   3.009   1.980 -0.2520 -0.1793  0.4727
 9391SOL    HW239807   1.100   2.888   2.055  1.7502  0.8760  0.2049
 9392SOL     OW39808   0.215   3.213   6.332 -0.2904 -0.6318  0.9707
 9392SOL    HW139809   0.136   3.234   6.383  0.1272  1.0515  0.9347
 9392SOL    HW239810   0.274   3.286   6.351 -0.8661  0.3535 -1.0728
 9393SOL     OW39811   0.159   3.539   5.292  0.1844  0.0793  0.3500
 9393SOL    HW139812   0.223   3.467   5.287  0.6248  0.3976  1.3250
 9393SOL    HW239813   0.212   3.617   5.275  1.7973 -0.7838  1.3443
 9394SOL     OW39814   0.760   3.736  12.802  0.4637 -0.0572 -0.2841
 9394SOL    HW139815   0.848   3.733  12.839  0.5670 -1.8523 -0.6490
 9394SOL    HW239816   0.778   3.716  12.710  1.4495  0.6731 -0.2529
 9395SOL     OW39817   0.643   1.414  16.723  0.2142 -0.1141  0.4605
 9395SOL    HW139818   0.550   1.398  16.707  0.3429 -1.0606  0.6669
 9395SOL    HW239819   0.667   1.493  16.673 -0.3169  0.5707  1.3022
 9396SOL     OW39820   4.519   3.626   7.643 -0.5095 -0.6432  0.0228
 9396SOL    HW139821   4.570   3.558   7.597 -0.6734  0.5861 -1.9967
 9396SOL    HW239822   4.491   3.673   7.564  4.1048  1.8980 -0.0848
 9397SOL     OW39823   1.229   4.734   7.292  0.1579 -0.1652  0.3599
 9397SOL    HW139824   1.267   0.050   7.224 -1.8940  2.1565  1.1397
 9397SOL    HW239825   1.136   4.737   7.272  0.1519  1.2318  0.6293
 9398SOL     OW39826   2.446   3.184   7.116  0.7195  0.3489  0.6797
 9398SOL    HW139827   2.351   3.182   7.106  0.8514  0.6156 -0.5732
 9398SOL    HW239828   2.443   3.265   7.167 -2.6045  0.9847 -0.5684
 9399SOL     OW39829   3.035   0.449   9.031 -0.4095  0.1143  0.2933
 9399SOL    HW139830   3.076   0.449   9.117  1.5423  0.6564 -0.6351
 9399SOL    HW239831   3.011   0.356   9.027  0.8637 -0.2408  1.0873
 9400SOL     OW39832   0.033   4.445   5.997  0.4139 -0.6970  0.0405
 9400SOL    HW139833   0.008   4.533   6.025  0.9398 -0.8502  0.9932
 9400SOL    HW239834   0.118   4.446   6.042  0.5166 -2.4916 -0.1189
 9401SOL     OW39835   4.348   0.794   1.099  0.4133  0.2160 -1.0902
 9401SOL    HW139836   4.330   0.883   1.130  2.7301  0.0471  0.7925
 9401SOL    HW239837   4.374   0.810   1.008  3.0457  3.5434  0.2146
 9402SOL     OW39838   3.835   2.456  11.736 -0.4376 -0.0871 -0.3723
 9402SOL    HW139839   3.925   2.487  11.740 -0.9300  1.3302 -0.3404
 9402SOL    HW239840   3.802   2.464  11.825 -0.1431  0.9016 -0.3635
 9403SOL     OW39841   3.157   2.420   7.493 -0.1817  0.1341 -0.8821
 9403SOL    HW139842   3.080   2.370   7.520  1.4114 -1.0550  1.3739
 9403SOL    HW239843   3.141   2.503   7.536 -3.2519 -0.9249  0.0092
 9404SOL     OW39844   2.835   3.311   7.289  0.0627  0.0541  0.4847
 9404SOL    HW139845   2.810   3.403   7.284 -1.5970 -0.3679  0.9568
 9404SOL    HW239846   2.833   3.293   7.383  2.1365 -1.1538  0.2917
 9405SOL     OW39847   4.086   3.350   9.324 -0.6334  0.0789  0.2648
 9405SOL    HW139848   4.077   3.445   9.330  2.6558  0.4084 -0.0787
 9405SOL    HW239849   4.015   3.312   9.375  1.9928 -0.8274  3.2506
 9406SOL     OW39850   3.770   1.990   7.512 -0.5124  0.7015 -0.1676
 9406SOL    HW139851   3.709   2.064   7.514 -0.3979  0.7122  2.2838
 9406SOL    HW239852   3.829   2.028   7.446 -1.2369  1.3485 -0.4485
 9407SOL     OW39853   0.999   3.534   0.081  0.1875 -0.8075 -0.2622
 9407SOL    HW139854   1.068   3.595   0.054 -1.0280  0.7440  0.1440
 9407SOL    HW239855   1.046   3.453   0.102  0.3929 -0.8130 -0.7487
 9408SOL     OW39856   0.847   3.897   5.155 -0.5332 -0.3664  0.1337
 9408SOL    HW139857   0.818   3.807   5.162 -0.4878 -0.5795 -2.4582
 9408SOL    HW239858   0.934   3.899   5.195 -0.7461 -0.9037  0.6191
 9409SOL     OW39859   0.501   1.214   4.035 -0.1451 -0.2394  0.5148
 9409SOL    HW139860   0.536   1.217   3.946 -0.0891 -3.4538  0.4108
 9409SOL    HW239861   0.491   1.307   4.056  2.1772 -0.4182  2.3239
 9410SOL     OW39862   0.996   1.197   2.782  0.0391  0.0766  0.0819
 9410SOL    HW139863   1.072   1.139   2.788 -0.8866 -1.2775 -1.2034
 9410SOL    HW239864   0.990   1.202   2.686  0.9808 -1.1484 -0.0475
 9411SOL     OW39865   4.025   4.198   3.061  0.1477 -0.2264  0.8587
 9411SOL    HW139866   4.065   4.278   3.096  2.3965 -1.0157  0.1278
 9411SOL    HW239867   3.934   4.211   3.087 -0.3648  0.5677 -1.2668
 9412SOL     OW39868   4.412   4.463   9.959 -0.5226  0.5072 -0.0028
 9412SOL    HW139869   4.498   4.496   9.985 -0.0191 -0.6267 -0.2300
 9412SOL    HW239870   4.375   4.440  10.044  1.8878  1.9413  1.4382
 9413SOL     OW39871   3.238   0.555   4.366  0.6385  0.7494 -0.2264
 9413SOL    HW139872   3.164   0.509   4.405  1.8723 -0.8860  0.1906
 9413SOL    HW239873   3.297   0.572   4.441  0.1996  1.0819  0.0429
 9414SOL     OW39874   1.255   3.086  11.108  0.0926  0.5405 -0.8904
 9414SOL    HW139875   1.348   3.106  11.109  0.5453 -1.5202 -0.9871
 9414SOL    HW239876   1.256   3.015  11.044  0.5631 -0.4140  0.1693
 9415SOL     OW39877   1.458   2.589   4.679  0.3004  0.2293  0.1631
 9415SOL    HW139878   1.527   2.638   4.724  1.2934  3.3757 -4.7769
 9415SOL    HW239879   1.424   2.655   4.619  0.2068  1.0367  1.1100
 9416SOL     OW39880   3.122   1.232   8.945  0.2333 -0.1367  0.2206
 9416SOL    HW139881   3.207   1.188   8.948  0.9548  1.1517 -0.8704
 9416SOL    HW239882   3.122   1.284   9.025 -1.1645 -0.8183  0.6543
 9417SOL     OW39883   3.646   3.842   7.603 -0.2334  0.3341 -0.0374
 9417SOL    HW139884   3.687   3.812   7.522 -0.4575 -0.7503  0.2498
 9417SOL    HW239885   3.701   3.918   7.623  1.3311 -0.9741  0.6108
 9418SOL     OW39886   1.157   0.077   4.552 -0.2058 -0.5742  0.1211
 9418SOL    HW139887   1.237   0.123   4.576  1.2856 -2.0867 -1.9042
 9418SOL    HW239888   1.115   0.137   4.491 -2.0868  0.3839  2.3993
 9419SOL     OW39889   4.195   4.355   5.792 -0.6022  0.4650  0.3906
 9419SOL    HW139890   4.125   4.304   5.752 -0.5639  0.3205  0.5072
 9419SOL    HW239891   4.275   4.304   5.781 -1.0654 -0.2012  0.0930
 9420SOL     OW39892   3.092   2.339   9.224  0.8970 -0.3367 -0.2662
 9420SOL    HW139893   3.004   2.303   9.211  0.1662  1.6726 -0.8850
 9420SOL    HW239894   3.100   2.395   9.147 -1.1966  0.9265  0.4133
 9421SOL     OW39895   1.268   2.207   8.476  0.2085  0.1688  0.5561
 9421SOL    HW139896   1.227   2.282   8.521 -1.0886 -0.7610  0.9342
 9421SOL    HW239897   1.206   2.202   8.403 -0.5732 -1.1854  1.3187
 9422SOL     OW39898   3.753   0.914   4.647  0.0506 -0.2469 -0.4756
 9422SOL    HW139899   3.785   0.951   4.729 -2.9112 -1.4185  1.2109
 9422SOL    HW239900   3.695   0.988   4.632  0.1732  0.2218  1.3180
 9423SOL     OW39901   0.300   2.060   0.321 -0.2058  0.1193 -0.2971
 9423SOL    HW139902   0.205   2.068   0.331 -0.0073  0.2809  1.4954
 9423SOL    HW239903   0.330   2.142   0.279 -1.1135  1.3781  1.5241
 9424SOL     OW39904   0.082   4.007   8.332  0.1706  0.1456  0.0485
 9424SOL    HW139905   0.162   4.053   8.356  0.1223 -0.2354  0.9182
 9424SOL    HW239906   0.049   4.049   8.252 -0.3336 -2.4363 -1.1227
 9425SOL     OW39907   0.500   2.871  13.653  0.0479 -0.3889  0.5716
 9425SOL    HW139908   0.575   2.835  13.701  0.2899 -0.7369 -0.0627
 9425SOL    HW239909   0.537   2.876  13.565  0.9330 -2.1981  0.8346
 9426SOL     OW39910   1.605   0.098   9.284 -0.3637 -0.2231 -0.3890
 9426SOL    HW139911   1.581   0.166   9.221  1.9488  1.7123  0.7805
 9426SOL    HW239912   1.521   0.052   9.279 -0.3463 -0.2282 -0.6582
 9427SOL     OW39913   0.053   3.201   5.299  0.2694  0.0977  0.1976
 9427SOL    HW139914   0.135   3.243   5.327  0.1335 -1.3810  2.7392
 9427SOL    HW239915   0.080   3.110   5.284 -2.9138 -0.6429 -0.9303
 9428SOL     OW39916   1.945   3.643  14.797  0.0607  0.0439 -0.0947
 9428SOL    HW139917   1.907   3.616  14.714 -0.9192 -0.6862  0.5840
 9428SOL    HW239918   2.035   3.618  14.778 -0.0568  1.5778 -2.6954
 9429SOL     OW39919   2.286   4.039   4.567  0.3903  0.0038  0.3676
 9429SOL    HW139920   2.310   3.957   4.525 -0.3588 -0.5364  1.0155
 9429SOL    HW239921   2.204   4.008   4.605  0.8443  1.5516  2.5959
 9430SOL     OW39922   0.375   2.468   2.837 -0.5284  0.3324  0.6032
 9430SOL    HW139923   0.304   2.499   2.892 -0.9411  1.3398 -0.4935
 9430SOL    HW239924   0.368   2.521   2.757 -0.4168 -1.3434 -0.5218
 9431SOL     OW39925   1.873   0.096   7.207  0.0616  0.7476  0.3700
 9431SOL    HW139926   1.842   0.033   7.272 -0.3070 -0.2700 -0.8094
 9431SOL    HW239927   1.825   0.175   7.232 -0.3465  0.5251  0.2928
 9432SOL     OW39928   0.449   3.222   2.515  0.2660  0.0230  0.6344
 9432SOL    HW139929   0.362   3.183   2.512  0.4910 -0.4911  0.7467
 9432SOL    HW239930   0.441   3.281   2.590 -0.3106 -0.7978  1.2154
 9433SOL     OW39931   2.853   4.121   0.920 -0.4283  0.3931 -0.4264
 9433SOL    HW139932   2.877   4.209   0.949 -0.8021 -0.5302  2.6355
 9433SOL    HW239933   2.772   4.149   0.876 -1.1638 -1.5802 -0.3012
 9434SOL     OW39934   1.869   3.560  15.052 -0.1720  0.0739  0.2495
 9434SOL    HW139935   1.884   3.587  14.961 -0.8645 -0.1222  0.0734
 9434SOL    HW239936   1.777   3.586  15.066 -0.1650  0.3846 -0.2642
 9435SOL     OW39937   2.962   0.203   4.259  0.1819  0.0276 -0.0962
 9435SOL    HW139938   3.050   0.204   4.222 -0.0510  0.3631 -0.6562
 9435SOL    HW239939   2.971   0.281   4.314 -0.2803 -2.1377  3.0440
 9436SOL     OW39940   4.279   1.050   1.202 -0.8004 -0.6623  0.0536
 9436SOL    HW139941   4.210   1.103   1.162 -1.8339 -1.4189  0.8399
 9436SOL    HW239942   4.254   1.039   1.294 -0.2516  0.6159  0.3523
 9437SOL     OW39943   3.685   0.603  17.561 -0.6564  0.1822  0.4073
 9437SOL    HW139944   3.596   0.633  17.579 -0.6734  1.5791 -2.0223
 9437SOL    HW239945   3.735   0.682  17.582 -1.0383  1.0198 -1.8329
 9438SOL     OW39946   2.136   0.417   7.199 -0.1301 -0.0962  0.0988
 9438SOL    HW139947   2.149   0.510   7.181 -0.1295  0.0091  0.6376
 9438SOL    HW239948   2.043   0.401   7.182  0.1976 -2.1090  0.1810
 9439SOL     OW39949   4.143   4.016   6.065  0.2629  0.1802  0.3082
 9439SOL    HW139950   4.105   4.052   5.985 -0.4465 -0.5817  0.2936
 9439SOL    HW239951   4.208   4.086   6.069 -0.0663  0.6331 -2.0052
 9440SOL     OW39952   0.466   2.150   8.841  0.5255 -0.1721  0.4046
 9440SOL    HW139953   0.480   2.128   8.749 -0.7784  1.7300 -0.2576
 9440SOL    HW239954   0.426   2.237   8.837 -1.1621 -0.8253  3.2135
 9441SOL     OW39955   2.200   1.139  11.337 -0.5332 -0.4492 -0.3433
 9441SOL    HW139956   2.202   1.146  11.241 -0.2375 -4.0394 -0.6074
 9441SOL    HW239957   2.218   1.046  11.353 -2.8233 -1.1081 -1.5905
 9442SOL     OW39958   0.149   2.309   4.022 -0.0254 -0.7660 -0.5430
 9442SOL    HW139959   0.148   2.246   3.950 -0.6356 -0.6632 -0.6245
 9442SOL    HW239960   0.123   2.391   3.981 -1.9297 -0.9940  0.2382
 9443SOL     OW39961   1.196   4.492   8.822  0.1053 -0.4121 -0.0720
 9443SOL    HW139962   1.248   4.464   8.747  0.3839  2.0721 -0.8068
 9443SOL    HW239963   1.116   4.528   8.785  1.3539  1.6119 -0.7865
 9444SOL     OW39964   2.241   1.541   4.852 -0.6999  0.0641 -0.1653
 9444SOL    HW139965   2.330   1.545   4.887 -1.1370  1.1641  0.8391
 9444SOL    HW239966   2.232   1.447   4.836  0.1252 -0.0744  0.1743
 9445SOL     OW39967   2.569   0.678  11.334  0.0590  0.2295  0.0273
 9445SOL    HW139968   2.592   0.608  11.273  1.0973 -1.4474  2.3527
 9445SOL    HW239969   2.497   0.639  11.382 -0.0289  0.3561 -0.0015
 9446SOL     OW39970   4.376   0.751   1.799 -0.2857  0.5318 -0.6064
 9446SOL    HW139971   4.383   0.681   1.734 -1.0186 -0.6481  0.5639
 9446SOL    HW239972   4.428   0.822   1.761  0.3054  0.6935  0.4969
 9447SOL     OW39973   4.624   0.501  16.392 -0.1992 -0.1242  0.3887
 9447SOL    HW139974   4.665   0.469  16.312  0.8528 -1.1269  1.3440
 9447SOL    HW239975   4.675   0.461  16.462 -0.0802  1.6600  1.3101
 9448SOL     OW39976   3.067   2.558   5.562 -0.1567  0.2055  0.4966
 9448SOL    HW139977   2.983   2.519   5.537 -1.2321  2.3206  0.8331
 9448SOL    HW239978   3.044   2.593   5.648 -0.3451 -1.3350  1.0697
 9449SOL     OW39979   2.238   1.607   5.512  0.0311 -0.1050  0.8626
 9449SOL    HW139980   2.233   1.571   5.600  0.5134 -0.9706  0.5312
 9449SOL    HW239981   2.175   1.556   5.460  0.8402 -0.0354 -0.1870
 9450SOL     OW39982   4.281   2.809   7.933  0.1601 -0.7445  0.4789
 9450SOL    HW139983   4.289   2.721   7.898  0.9480 -0.4086 -0.1943
 9450SOL    HW239984   4.372   2.838   7.945 -0.5842  1.8012  0.0215
 9451SOL     OW39985   3.928   4.675   5.267  0.0978 -0.0120  0.1921
 9451SOL    HW139986   3.835   4.683   5.286 -0.5118 -0.3750 -2.7403
 9451SOL    HW239987   3.941   4.584   5.293 -2.7294 -0.7413 -0.9045
 9452SOL     OW39988   4.601   4.618   8.001 -0.1207  0.0023 -0.0505
 9452SOL    HW139989   4.596   4.526   7.974  2.7093 -0.9195  2.5510
 9452SOL    HW239990   4.512   4.650   7.987 -0.5777 -0.6389  1.4089
 9453SOL     OW39991   3.485   1.708   7.024  0.6812  0.0053 -0.1910
 9453SOL    HW139992   3.455   1.619   7.038  0.0426  0.0538 -1.2390
 9453SOL    HW239993   3.579   1.710   7.044  1.0830 -1.1018 -1.9343
 9454SOL     OW39994   0.094   2.861   8.295 -0.7150  0.2734 -0.1390
 9454SOL    HW139995   0.050   2.946   8.291 -0.6604  0.3711  1.2919
 9454SOL    HW239996   0.188   2.875   8.305 -0.5345  0.0651 -1.6118
 9455SOL     OW39997   2.371   2.486   0.621  0.6376 -0.4086 -0.1426
 9455SOL    HW139998   2.313   2.439   0.561  0.4927 -0.5839  0.1373
 9455SOL    HW239999   2.313   2.539   0.677  2.4449 -0.2730  1.5795
 9456SOL     OW40000   3.095   1.128   0.723 -0.1869  0.5321  0.7791
 9456SOL    HW140001   3.168   1.139   0.784 -2.0813 -0.7151  3.2494
 9456SOL    HW240002   3.014   1.102   0.766 -0.6547  2.2156  0.9115
 9457SOL     OW40003   3.737   2.678   7.798 -0.1391 -0.3550  0.5602
 9457SOL    HW140004   3.762   2.747   7.859  0.8219 -0.8268  0.7048
 9457SOL    HW240005   3.739   2.723   7.713 -0.2585  0.7623  1.1508
 9458SOL     OW40006   0.348   4.221   3.679 -0.2997  0.1243 -0.0200
 9458SOL    HW140007   0.351   4.300   3.734  1.5248 -0.6283  0.9476
 9458SOL    HW240008   0.258   4.224   3.647  0.1001  1.8462 -0.9999
 9459SOL     OW40009   4.057   0.752  15.760  0.3991 -0.1543  0.4934
 9459SOL    HW140010   4.141   0.797  15.756  0.7057 -0.8877 -1.3368
 9459SOL    HW240011   3.998   0.828  15.761 -1.3927 -1.5640  4.9041
 9460SOL     OW40012   4.321   0.497   0.558  0.7408 -0.7817  0.8104
 9460SOL    HW140013   4.366   0.473   0.477  1.6563  1.1480  0.7630
 9460SOL    HW240014   4.236   0.453   0.554  1.0031 -0.9561 -2.6273
 9461SOL     OW40015   4.701   4.647  14.534  0.3947 -0.0213  0.0628
 9461SOL    HW140016   0.010   4.665  14.614 -0.5790 -0.0909  0.6708
 9461SOL    HW240017   0.011   4.571  14.504  1.6816  0.8527 -0.0093
 9462SOL     OW40018   2.288   0.006  13.325 -0.5111  0.4236 -0.2244
 9462SOL    HW140019   2.383   0.002  13.331 -0.5788  1.0090  1.2090
 9462SOL    HW240020   2.280   4.677  13.391  2.7435  0.3958  0.1042
 9463SOL     OW40021   0.114   0.314   3.169  0.0934  0.5643 -0.2645
 9463SOL    HW140022   0.076   0.241   3.217  0.2137  1.3805  1.0879
 9463SOL    HW240023   0.121   0.383   3.235  3.5899  0.8946 -0.9561
 9464SOL     OW40024   4.707   0.297  14.468  0.0693 -0.1502 -0.3886
 9464SOL    HW140025   4.735   0.206  14.460 -2.0539 -1.1163  2.9843
 9464SOL    HW240026   4.685   0.314  14.377  0.1045  0.8944 -0.2084
 9465SOL     OW40027   3.630   1.547   1.893  0.6206  0.6579  0.1342
 9465SOL    HW140028   3.627   1.583   1.804  0.5865  0.6061  0.1146
 9465SOL    HW240029   3.723   1.546   1.915  0.2441 -1.6004  1.6031
 9466SOL     OW40030   4.391   1.172   5.308 -0.7943 -0.6101  0.3997
 9466SOL    HW140031   4.335   1.173   5.385 -2.0076 -1.0481 -0.4892
 9466SOL    HW240032   4.411   1.079   5.317  0.1433 -0.6402 -1.9599
 9467SOL     OW40033   1.188   1.177   9.819 -0.4963 -0.5749 -0.1242
 9467SOL    HW140034   1.225   1.144   9.737 -0.7297 -2.1130  0.3953
 9467SOL    HW240035   1.141   1.099   9.845 -0.3273 -0.8159 -0.5417
 9468SOL     OW40036   1.243   1.893   2.770  0.5302  0.1155  0.3043
 9468SOL    HW140037   1.330   1.874   2.735  0.3657  0.4277 -0.2745
 9468SOL    HW240038   1.215   1.814   2.816 -1.8694  1.1064  0.5217
 9469SOL     OW40039   3.254   3.287   3.202 -0.1510 -0.1059 -0.0694
 9469SOL    HW140040   3.328   3.305   3.260 -0.0020 -1.2060  0.0897
 9469SOL    HW240041   3.188   3.348   3.235  0.8916 -0.1153  2.0471
 9470SOL     OW40042   3.864   2.272   2.164 -0.4597 -0.8029 -0.3199
 9470SOL    HW140043   3.846   2.187   2.123 -1.6127 -0.8401  0.2681
 9470SOL    HW240044   3.950   2.263   2.206  0.2458 -1.0123 -1.8155
 9471SOL     OW40045   0.050   1.674  12.820 -0.1185 -0.2300 -0.5637
 9471SOL    HW140046   0.014   1.755  12.854  0.7033 -0.8419  1.7267
 9471SOL    HW240047   0.082   1.706  12.735  0.4815 -2.4394 -1.1876
 9472SOL     OW40048   1.685   2.697   6.198  0.1484 -0.5848 -0.4712
 9472SOL    HW140049   1.614   2.668   6.141 -1.8597 -0.8683  2.2041
 9472SOL    HW240050   1.679   2.792   6.190 -2.8418 -0.7241  0.3522
 9473SOL     OW40051   0.168   4.159   6.514 -0.3260  0.2138 -0.2083
 9473SOL    HW140052   0.099   4.192   6.458 -2.3551 -2.4249  0.7037
 9473SOL    HW240053   0.235   4.225   6.496 -1.5763  1.6830  0.5642
 9474SOL     OW40054   2.891   1.996   0.908  0.4648 -0.4910 -0.4387
 9474SOL    HW140055   2.927   2.058   0.846  0.7556 -0.5012 -0.2775
 9474SOL    HW240056   2.931   1.913   0.879  1.2684 -0.6598  1.1550
 9475SOL     OW40057   1.768   2.464   9.806  0.1756 -0.3457  0.2883
 9475SOL    HW140058   1.817   2.437   9.884  1.3890 -0.0914 -0.3834
 9475SOL    HW240059   1.845   2.459   9.749  0.5528 -0.7502  0.8368
 9476SOL     OW40060   2.176   4.037   1.695 -0.5995 -0.5417 -0.2505
 9476SOL    HW140061   2.089   4.001   1.709 -0.0652 -1.0995  1.5732
 9476SOL    HW240062   2.196   4.071   1.782 -0.0113 -1.9442  0.1724
 9477SOL     OW40063   0.722   4.352   8.196  0.9224 -0.2294 -0.0522
 9477SOL    HW140064   0.770   4.341   8.278  0.2888  1.5228  0.5463
 9477SOL    HW240065   0.755   4.437   8.167 -1.5646  0.6430 -0.3137
 9478SOL     OW40066   2.930   2.688  17.658 -0.2168  0.0333 -0.7909
 9478SOL    HW140067   2.848   2.727  17.686 -1.6270 -2.8469 -0.9072
 9478SOL    HW240068   2.889   2.634  17.590 -0.5824 -0.4011 -0.2202
 9479SOL     OW40069   4.117   3.516   9.875  0.2955 -0.1877  0.8694
 9479SOL    HW140070   4.091   3.551   9.960  1.4577  0.7325  0.8526
 9479SOL    HW240071   4.088   3.426   9.887  0.6771 -0.1869  1.7899
 9480SOL     OW40072   3.159   0.552   2.367  0.2815  0.8464 -0.1708
 9480SOL    HW140073   3.237   0.556   2.312 -0.5342 -1.1923 -1.4669
 9480SOL    HW240074   3.194   0.557   2.456 -3.7330 -0.4034  1.4915
 9481SOL     OW40075   1.774   3.051   2.843 -0.3567 -0.0299 -0.5812
 9481SOL    HW140076   1.810   3.038   2.930  1.5321 -2.9196 -1.7820
 9481SOL    HW240077   1.738   3.139   2.856 -2.2242 -0.9738  0.5582
 9482SOL     OW40078   3.383   0.247   5.119 -0.0834 -0.5926  0.0936
 9482SOL    HW140079   3.341   0.164   5.096  0.1430 -1.0018  1.1213
 9482SOL    HW240080   3.449   0.245   5.050 -0.4424 -0.2857 -0.2597
 9483SOL     OW40081   3.103   4.597   7.038 -0.7136 -0.3145  0.4355
 9483SOL    HW140082   3.166   4.553   6.982 -0.9751  2.6516 -2.1498
 9483SOL    HW240083   3.049   4.521   7.062 -0.7476  0.0197  1.4351
 9484SOL     OW40084   1.609   1.005  15.637  0.0061  0.5005  0.0055
 9484SOL    HW140085   1.616   1.058  15.557  1.1051  0.0997 -0.1615
 9484SOL    HW240086   1.644   0.921  15.608 -2.5568 -1.3452  2.1328
 9485SOL     OW40087   4.051   1.256   5.560  0.4455  0.0224  0.3060
 9485SOL    HW140088   4.066   1.347   5.586  0.5445 -0.4133  1.7358
 9485SOL    HW240089   3.962   1.267   5.527  0.5327 -1.7857 -0.5433
 9486SOL     OW40090   3.035   2.843   0.148  0.2796 -0.1946  0.1235
 9486SOL    HW140091   2.996   2.854   0.061  1.0721  0.6425 -0.1257
 9486SOL    HW240092   3.049   2.937   0.161 -3.0101  0.0664  1.7284
 9487SOL     OW40093   0.679   2.589  12.883 -0.2119  0.1388 -0.5253
 9487SOL    HW140094   0.693   2.560  12.793 -1.5872  0.0044 -0.6980
 9487SOL    HW240095   0.599   2.642  12.886 -0.6117 -0.6141  2.2111
 9488SOL     OW40096   1.630   1.579   5.799  0.0164 -0.0361  0.0029
 9488SOL    HW140097   1.586   1.660   5.823  0.3798  0.6031 -1.4346
 9488SOL    HW240098   1.567   1.542   5.737 -0.0985  2.3085 -1.2817
 9489SOL     OW40099   0.012   0.931  10.471  0.2710 -0.0779 -0.6397
 9489SOL    HW140100   4.739   1.015  10.426 -0.2740 -0.1249 -0.5711
 9489SOL    HW240101   4.666   0.897  10.496  0.9721 -1.7849 -0.5903
 9490SOL     OW40102   0.228   3.659   7.544 -0.4838 -0.3777  0.7066
 9490SOL    HW140103   0.136   3.633   7.537 -0.7647  0.6081  0.7797
 9490SOL    HW240104   0.261   3.605   7.472 -1.4404 -0.9995  0.7477
 9491SOL     OW40105   2.978   1.097   4.043  0.1561  0.5802 -0.1257
 9491SOL    HW140106   2.976   1.089   3.947  1.3421 -0.5671 -0.0517
 9491SOL    HW240107   2.900   1.151   4.055  0.7976  1.4027  0.3014
 9492SOL     OW40108   2.940   4.412   6.790 -0.2486 -0.1303  0.2324
 9492SOL    HW140109   2.877   4.388   6.723 -0.8395 -1.1634  1.1652
 9492SOL    HW240110   3.015   4.430   6.733 -1.1041 -1.3240 -1.2571
 9493SOL     OW40111   3.244   3.736   9.104  0.2425  0.0852  0.2573
 9493SOL    HW140112   3.179   3.775   9.162 -0.2520  0.3327 -0.4671
 9493SOL    HW240113   3.193   3.677   9.049 -0.4419  0.8382  0.0780
 9494SOL     OW40114   3.503   3.316   3.346 -0.6030 -0.4001  0.0547
 9494SOL    HW140115   3.540   3.281   3.265  0.8778 -1.0869  1.0354
 9494SOL    HW240116   3.572   3.311   3.412  1.4098  0.3073 -1.9952
 9495SOL     OW40117   1.959   0.086  13.391 -0.0054  0.3229 -0.1742
 9495SOL    HW140118   1.895   0.065  13.323 -0.1590 -0.3135  0.1611
 9495SOL    HW240119   1.964   0.179  13.371 -0.1079  0.8593  2.3876
 9496SOL     OW40120   2.996   4.168   1.859 -0.0297 -0.0898  1.0136
 9496SOL    HW140121   3.066   4.141   1.800 -0.1078  2.5527 -0.2794
 9496SOL    HW240122   3.003   4.264   1.864  0.4320 -0.0848  0.2703
 9497SOL     OW40123   4.035   2.286  14.999  0.0016 -0.0235 -0.2018
 9497SOL    HW140124   4.008   2.324  15.083  0.1060 -0.4859  0.0393
 9497SOL    HW240125   4.123   2.268  15.031 -0.2990 -1.3173 -0.0863
 9498SOL     OW40126   1.090   1.449   7.909 -0.0222 -0.4709  0.0627
 9498SOL    HW140127   1.037   1.526   7.928  0.9520 -0.0194  0.9224
 9498SOL    HW240128   1.161   1.477   7.851  2.5048 -1.6505  2.6115
 9499SOL     OW40129   1.104   4.687   6.887  0.0930 -0.1007  1.1753
 9499SOL    HW140130   1.152   4.658   6.965  0.4100 -0.8364  0.7132
 9499SOL    HW240131   1.082   4.604   6.845  1.3914  1.0392 -1.7646
 9500SOL     OW40132   3.834   1.880   8.141 -0.0557 -0.1516  0.0064
 9500SOL    HW140133   3.881   1.880   8.224 -1.3184 -1.7483  0.7198
 9500SOL    HW240134   3.810   1.972   8.148  1.0528  0.1851 -0.7234
 9501SOL     OW40135   2.098   3.593   9.020 -0.1103  0.2495  0.5352
 9501SOL    HW140136   2.131   3.535   8.951 -3.1437 -1.0581  0.2170
 9501SOL    HW240137   2.081   3.528   9.088  0.2343 -1.0067 -0.5993
 9502SOL     OW40138   0.739   1.604   7.823  0.2129  0.5445 -0.6699
 9502SOL    HW140139   0.644   1.607   7.824  0.0981 -3.1294 -1.0853
 9502SOL    HW240140   0.755   1.564   7.909 -1.1568  1.4707  0.0140
 9503SOL     OW40141   3.798   4.538   2.290  0.1962  0.5582 -0.5779
 9503SOL    HW140142   3.746   4.617   2.305 -3.0641 -2.0921  2.0029
 9503SOL    HW240143   3.774   4.476   2.358 -0.7519  0.6542 -0.8241
 9504SOL     OW40144   3.785   3.498   7.723 -0.6571  0.1889 -0.6726
 9504SOL    HW140145   3.783   3.410   7.761 -0.3823 -1.3105 -4.0892
 9504SOL    HW240146   3.704   3.543   7.749 -1.5824 -0.0012 -3.1583
 9505SOL     OW40147   2.397   3.138   2.918  0.1691  0.5090  0.8630
 9505SOL    HW140148   2.376   3.158   3.010  2.3656  1.2877  1.1936
 9505SOL    HW240149   2.433   3.223   2.893 -0.3093  0.3208 -0.4258
 9506SOL     OW40150   3.937   4.667   1.460  0.4667  0.4195  0.2163
 9506SOL    HW140151   3.856   4.677   1.510  0.0353 -3.5890  0.2898
 9506SOL    HW240152   3.989   4.633   1.533  1.4243 -0.5230 -0.9147
 9507SOL     OW40153   2.350   3.070   4.560 -0.1160 -0.2853 -0.2346
 9507SOL    HW140154   2.275   3.022   4.596 -0.2749  0.9841  1.1371
 9507SOL    HW240155   2.408   3.063   4.636  1.9405  0.7850 -1.7150
 9508SOL     OW40156   0.729   0.993   4.459  0.1953 -0.2060  0.3214
 9508SOL    HW140157   0.710   1.016   4.368 -0.1407 -0.6402  0.2821
 9508SOL    HW240158   0.764   1.077   4.489 -0.1781 -0.0403  0.2921
 9509SOL     OW40159   2.464   2.963   8.632 -0.1790  0.9442  0.7627
 9509SOL    HW140160   2.547   2.924   8.660 -0.5139 -0.5600 -0.3319
 9509SOL    HW240161   2.430   2.897   8.572 -0.5179  0.8206  1.0945
 9510SOL     OW40162   3.789   2.609   9.463  0.1598 -0.0191 -0.2496
 9510SOL    HW140163   3.861   2.547   9.476 -2.0266 -1.3943  5.0396
 9510SOL    HW240164   3.781   2.646   9.550 -1.1538 -0.3639 -0.2203
 9511SOL     OW40165   0.771   1.100  15.331 -0.2859  0.1256  0.2858
 9511SOL    HW140166   0.776   1.017  15.285  2.3926  0.5045 -0.0757
 9511SOL    HW240167   0.727   1.152  15.264 -2.2730  0.0437  1.5233
 9512SOL     OW40168   0.037   0.567   5.511 -0.1045  0.1100 -0.8956
 9512SOL    HW140169   0.094   0.513   5.456 -0.8524 -0.7612 -0.8150
 9512SOL    HW240170   0.040   0.515   5.591  0.3758  0.3237 -0.7734
 9513SOL     OW40171   1.554   2.083   1.099  0.4567 -0.4422 -0.0589
 9513SOL    HW140172   1.491   2.098   1.170  0.2388 -0.9017 -0.1555
 9513SOL    HW240173   1.623   2.052   1.158  2.8478  1.5770 -1.8215
 9514SOL     OW40174   0.360   0.880   8.273  0.6094 -0.0425 -0.7860
 9514SOL    HW140175   0.276   0.913   8.241 -0.4074  1.1619  3.1673
 9514SOL    HW240176   0.409   0.875   8.191 -0.7752 -0.1366 -1.5982
 9515SOL     OW40177   4.449   0.586   7.364 -0.0178  0.1994  0.2598
 9515SOL    HW140178   4.468   0.617   7.453 -1.0682  1.4648  0.0476
 9515SOL    HW240179   4.377   0.526   7.383 -1.0850  0.5667 -2.5796
 9516SOL     OW40180   2.702   0.847   4.697  0.0188 -0.6136  0.6781
 9516SOL    HW140181   2.701   0.930   4.746  0.2806  1.2709 -2.5441
 9516SOL    HW240182   2.779   0.807   4.738  0.5460  0.0374  0.3239
 9517SOL     OW40183   0.708   4.276   9.443  0.1886  0.0312 -0.1137
 9517SOL    HW140184   0.695   4.307   9.354 -2.9343 -0.1748  0.2761
 9517SOL    HW240185   0.709   4.182   9.430  2.0155  0.0622 -0.1875
 9518SOL     OW40186   2.451   1.761   8.338 -0.1262  0.3936  0.2183
 9518SOL    HW140187   2.450   1.730   8.248  1.1706 -0.0958  0.3773
 9518SOL    HW240188   2.415   1.687   8.386  1.6522  0.5320  1.7649
 9519SOL     OW40189   3.562   1.316   2.032  0.3378  0.0922 -0.2311
 9519SOL    HW140190   3.501   1.294   1.962  0.8147  2.4400 -1.4101
 9519SOL    HW240191   3.614   1.388   1.995 -0.2951  0.2058 -0.8959
 9520SOL     OW40192   1.359   1.748   1.976  0.2519 -0.1936 -0.2781
 9520SOL    HW140193   1.386   1.671   1.927 -1.2055 -0.9165  0.0713
 9520SOL    HW240194   1.396   1.738   2.064 -0.6929 -1.5229 -0.0376
 9521SOL     OW40195   3.857   0.765  17.663 -0.0389  0.2356  0.0537
 9521SOL    HW140196   3.952   0.774  17.670 -0.1987  1.1662  1.0171
 9521SOL    HW240197   3.822   0.854  17.662 -1.5433 -0.3392  0.7293
 9522SOL     OW40198   0.663   4.520   6.916  0.4098 -0.1070  0.3210
 9522SOL    HW140199   0.700   4.503   7.003 -0.0518  3.7787  1.2849
 9522SOL    HW240200   0.624   4.434   6.901 -1.1721  0.7984 -0.7348
 9523SOL     OW40201   1.374   2.844   4.501  0.1086  0.7913  0.2089
 9523SOL    HW140202   1.287   2.883   4.507  0.0060  0.4538  0.8563
 9523SOL    HW240203   1.398   2.860   4.410  1.1008 -4.1420 -0.3680
 9524SOL     OW40204   4.374   1.232  17.377 -0.0570  0.1890 -0.1750
 9524SOL    HW140205   4.409   1.209  17.291 -1.5599  3.0152 -1.5274
 9524SOL    HW240206   4.437   1.300  17.400 -2.3203  1.1889  3.1259
 9525SOL     OW40207   1.742   4.585   5.351 -0.0527  0.0740  0.5243
 9525SOL    HW140208   1.663   4.550   5.392 -0.5615  0.0601 -0.4675
 9525SOL    HW240209   1.738   4.677   5.378 -1.7393  0.6292 -1.6960
 9526SOL     OW40210   3.388   1.796   9.165  0.6512  0.0771  0.3446
 9526SOL    HW140211   3.302   1.807   9.123  0.2361 -0.3104  1.1055
 9526SOL    HW240212   3.397   1.702   9.151  0.4791  0.0779  0.2210
 9527SOL     OW40213   4.582   1.425  15.620  0.4546  0.5846 -0.6070
 9527SOL    HW140214   4.534   1.377  15.552  1.3798  0.9458 -1.5328
 9527SOL    HW240215   4.638   1.354  15.652  0.1590  1.1028  1.0323
 9528SOL     OW40216   2.239   2.997  11.012  1.1485 -0.0731  0.4244
 9528SOL    HW140217   2.174   2.933  11.039  1.0492 -0.4245 -0.6357
 9528SOL    HW240218   2.202   3.025  10.928  1.3856 -0.9933  0.0149
 9529SOL     OW40219   3.141   4.267  13.707  0.4394 -0.6134 -0.5718
 9529SOL    HW140220   3.192   4.210  13.765 -2.0463 -0.4784  1.7444
 9529SOL    HW240221   3.168   4.356  13.728  2.1088 -0.9269 -1.3865
 9530SOL     OW40222   3.468   3.433   4.698 -0.2852 -0.0239  0.3923
 9530SOL    HW140223   3.461   3.377   4.775 -0.8806 -1.5832 -0.8058
 9530SOL    HW240224   3.555   3.413   4.663  0.3814 -0.5014  2.3648
 9531SOL     OW40225   3.323   1.480  12.509  0.5458 -0.0712  0.3372
 9531SOL    HW140226   3.325   1.559  12.564 -0.5202  0.6970 -0.7213
 9531SOL    HW240227   3.385   1.424  12.556 -1.8990 -2.9324  0.1238
 9532SOL     OW40228   3.458   0.085  16.748  0.0282  0.1922 -0.1032
 9532SOL    HW140229   3.553   0.090  16.758 -0.1678 -1.8239  2.6600
 9532SOL    HW240230   3.433   0.063  16.837  0.1342  2.3914  0.4714
 9533SOL     OW40231   2.161   0.338  14.507  0.0212 -0.3568 -0.1265
 9533SOL    HW140232   2.115   0.395  14.444  0.4437 -0.4200 -0.4934
 9533SOL    HW240233   2.113   0.256  14.514  1.1020 -0.8649  1.1931
 9534SOL     OW40234   2.018   0.916  16.447  0.4574  0.0464  0.6004
 9534SOL    HW140235   1.924   0.903  16.458  0.3699 -0.5940 -1.0062
 9534SOL    HW240236   2.061   0.856  16.509  0.5037  1.4076  1.8933
 9535SOL     OW40237   1.786   0.889   8.657 -0.6323  0.1113 -0.6341
 9535SOL    HW140238   1.857   0.904   8.719 -0.3890 -0.2957 -0.8232
 9535SOL    HW240239   1.831   0.868   8.575  0.3234 -2.3009  0.5276
 9536SOL     OW40240   4.197   3.608   9.438 -0.5643 -0.1149 -0.5659
 9536SOL    HW140241   4.148   3.688   9.420  0.6194  0.2797 -1.9927
 9536SOL    HW240242   4.154   3.577   9.518  0.9924  0.4445  0.4950
 9537SOL     OW40243   3.362   3.161   7.865 -0.7462  0.0613 -0.5544
 9537SOL    HW140244   3.434   3.112   7.826 -0.3421  0.3745 -0.1909
 9537SOL    HW240245   3.394   3.244   7.899 -0.0557 -0.2793 -0.3661
 9538SOL     OW40246   4.379   1.600  16.289 -0.3886 -0.2865 -0.5472
 9538SOL    HW140247   4.372   1.694  16.273 -0.3465 -0.2582 -0.4073
 9538SOL    HW240248   4.409   1.569  16.204  1.9032 -2.9190  1.2315
 9539SOL     OW40249   0.250   3.790   5.610 -0.4307 -0.0698 -0.4496
 9539SOL    HW140250   0.240   3.865   5.668 -0.6366 -0.3642 -0.1054
 9539SOL    HW240251   0.185   3.810   5.542 -1.1774 -1.8999 -0.2644
 9540SOL     OW40252   0.836   4.609  16.641  0.7849  0.4329  0.8167
 9540SOL    HW140253   0.865   4.699  16.625 -0.3016  0.4851 -0.8121
 9540SOL    HW240254   0.927   4.579  16.649  0.2453 -0.8064  2.2294
 9541SOL     OW40255   4.100   0.615  15.196  0.7525 -0.2534  0.0306
 9541SOL    HW140256   4.038   0.637  15.126 -0.0578  0.9871  1.1373
 9541SOL    HW240257   4.180   0.601  15.145 -0.1493  3.2791 -2.3767
 9542SOL     OW40258   0.005   0.528   3.922 -0.3205 -0.8619 -0.1133
 9542SOL    HW140259   4.676   0.484   3.973  0.5108  0.2433  1.9650
 9542SOL    HW240260   4.701   0.571   3.849 -1.1041 -1.0259  0.2611
 9543SOL     OW40261   3.231   1.881  12.884  0.5157  0.0105  0.6176
 9543SOL    HW140262   3.156   1.842  12.930  1.7518 -2.2586  0.7224
 9543SOL    HW240263   3.221   1.968  12.923  0.8983  0.1351  0.4339
 9544SOL     OW40264   1.808   3.143   2.179  0.0470 -0.5524 -0.1677
 9544SOL    HW140265   1.816   3.157   2.085 -0.6521  2.8648  0.3134
 9544SOL    HW240266   1.811   3.047   2.185  2.3666 -0.4785 -0.0317
 9545SOL     OW40267   0.301   1.802   4.345  0.5146  0.4419 -0.1365
 9545SOL    HW140268   0.291   1.720   4.392 -1.1915  1.3244  1.0201
 9545SOL    HW240269   0.365   1.842   4.403  2.6830 -1.9028 -0.8863
 9546SOL     OW40270   1.935   1.894   3.127  0.5621  0.6254  0.0485
 9546SOL    HW140271   1.931   1.908   3.222  0.9214 -0.9624  0.2988
 9546SOL    HW240272   1.932   1.799   3.116  1.5439  0.5066  0.8084
 9547SOL     OW40273   2.667   3.113   9.148  0.0438  0.0232  0.2855
 9547SOL    HW140274   2.635   3.181   9.088  2.0260  1.1780  0.5257
 9547SOL    HW240275   2.705   3.161   9.222  0.8792  0.2934 -0.3105
 9548SOL     OW40276   0.175   2.331   7.189 -0.5821  0.1845 -0.0872
 9548SOL    HW140277   0.159   2.375   7.105  0.9497 -1.0055 -1.0164
 9548SOL    HW240278   0.257   2.375   7.210 -1.5876  3.6815 -3.4850
 9549SOL     OW40279   2.755   0.805   9.217  0.3254 -0.0801 -0.6654
 9549SOL    HW140280   2.784   0.873   9.156 -0.0984  1.0240  0.3678
 9549SOL    HW240281   2.666   0.796   9.182 -0.4706 -0.8405  1.5274
 9550SOL     OW40282   2.888   1.249   7.508  0.4017 -0.6013  0.3213
 9550SOL    HW140283   2.838   1.321   7.470  1.6426 -0.3513 -0.8120
 9550SOL    HW240284   2.899   1.190   7.433  2.0588 -1.4032  1.2094
 9551SOL     OW40285   1.447   1.241   1.989 -0.3484 -0.1403  0.0604
 9551SOL    HW140286   1.489   1.192   1.919 -0.8276 -1.1094  0.4507
 9551SOL    HW240287   1.446   1.180   2.063 -0.5324  0.5650  0.6399
 9552SOL     OW40288   2.959   0.168  17.397 -0.1223 -0.1328  0.2577
 9552SOL    HW140289   2.977   0.222  17.474 -0.3627  1.3399 -0.7209
 9552SOL    HW240290   2.966   0.079  17.431 -1.4536 -0.4921 -0.3834
 9553SOL     OW40291   0.391   4.654   5.622 -0.6396 -0.1281  0.1105
 9553SOL    HW140292   0.480   4.687   5.627 -0.5247 -0.5146  0.5304
 9553SOL    HW240293   0.395   4.570   5.668 -2.2619  0.4863  1.4004
 9554SOL     OW40294   3.010   1.479   8.625 -0.3607 -0.0362 -0.3062
 9554SOL    HW140295   2.951   1.552   8.603 -0.2679 -0.2356 -1.2317
 9554SOL    HW240296   3.039   1.452   8.538 -0.8901 -0.7110 -0.2658
 9555SOL     OW40297   0.794   4.099   2.050 -0.3137 -0.7529  0.2865
 9555SOL    HW140298   0.863   4.149   2.007 -1.2659  0.5138  0.2117
 9555SOL    HW240299   0.828   4.014   2.026 -0.5121 -0.2226 -1.8972
 9556SOL     OW40300   1.327   0.431   1.833  0.2002 -0.1055 -0.2731
 9556SOL    HW140301   1.365   0.513   1.803 -0.8337  0.0806 -1.0668
 9556SOL    HW240302   1.391   0.370   1.796  0.9786  0.3180  0.3676
 9557SOL     OW40303   0.661   3.892  13.003  0.1803 -0.4724  0.4218
 9557SOL    HW140304   0.737   3.948  12.989  0.2462 -1.3015 -2.5320
 9557SOL    HW240305   0.671   3.827  12.934  0.1149  0.8566 -0.8545
 9558SOL     OW40306   3.446   3.272   1.709 -0.4365  0.3137  0.0258
 9558SOL    HW140307   3.442   3.352   1.656 -1.1325 -0.6971 -1.4269
 9558SOL    HW240308   3.492   3.218   1.645 -1.2352  1.2387 -1.3345
 9559SOL     OW40309   1.344   1.620   2.908 -0.0080 -0.6093  0.3389
 9559SOL    HW140310   1.439   1.614   2.900  0.1328  2.8746 -0.4980
 9559SOL    HW240311   1.337   1.694   2.968 -0.9172  0.1903 -0.7632
 9560SOL     OW40312   4.413   3.747  13.711 -0.7422 -0.3177  0.4320
 9560SOL    HW140313   4.456   3.793  13.639  2.1099 -0.3005  2.1286
 9560SOL    HW240314   4.379   3.820  13.764 -1.1979 -1.5926  1.9015
 9561SOL     OW40315   1.601   1.249   2.656 -0.5073  0.3257  0.6217
 9561SOL    HW140316   1.542   1.235   2.731  1.1404 -0.1644  1.8354
 9561SOL    HW240317   1.679   1.292   2.690  0.9507 -1.7162 -0.1758
 9562SOL     OW40318   1.793   4.556   1.854 -0.2218  0.1531  0.2223
 9562SOL    HW140319   1.713   4.517   1.890  0.8013 -1.2800  0.9700
 9562SOL    HW240320   1.800   4.494   1.782 -0.8505 -0.0416  0.3261
 9563SOL     OW40321   0.457   0.553   7.435  0.3532 -0.1493 -0.4994
 9563SOL    HW140322   0.480   0.463   7.412 -0.2600 -0.8298  1.5966
 9563SOL    HW240323   0.367   0.534   7.463  0.0869  0.7746 -0.7433
 9564SOL     OW40324   0.820   2.105  15.558 -0.0889  0.4659 -0.4127
 9564SOL    HW140325   0.843   2.154  15.638  0.2014 -1.2006  0.5250
 9564SOL    HW240326   0.821   2.179  15.497 -0.2014 -0.4578 -1.5174
 9565SOL     OW40327   4.546   1.720  16.582  0.0815 -0.3741 -0.4639
 9565SOL    HW140328   4.510   1.796  16.627  1.3225  0.9711 -1.7130
 9565SOL    HW240329   4.530   1.755  16.494  1.0411  0.3189 -0.3626
 9566SOL     OW40330   1.120   2.865   1.354 -0.2088 -1.0528  0.1212
 9566SOL    HW140331   1.033   2.899   1.370  0.6847  1.0398  0.4548
 9566SOL    HW240332   1.134   2.809   1.430 -0.9603 -1.1089  0.2129
 9567SOL     OW40333   4.538   3.659   2.407 -0.9821 -0.5775  0.0745
 9567SOL    HW140334   4.574   3.605   2.477  0.1290  1.1567  0.8478
 9567SOL    HW240335   4.606   3.642   2.342 -3.4680 -2.4643 -2.0438
 9568SOL     OW40336   2.911   3.704   6.569  0.5797 -0.1990  0.6052
 9568SOL    HW140337   2.980   3.641   6.591  1.2782 -0.2572 -1.7144
 9568SOL    HW240338   2.873   3.645   6.504 -1.9343  0.9475  1.0530
 9569SOL     OW40339   1.823   0.427   5.420 -0.6879 -0.1497 -0.2507
 9569SOL    HW140340   1.781   0.508   5.393  0.0238 -0.7839 -3.1842
 9569SOL    HW240341   1.868   0.408   5.338 -1.4532  1.0322 -0.9428
 9570SOL     OW40342   4.677   3.426   3.239 -0.1831 -0.1800 -0.0407
 9570SOL    HW140343   4.599   3.435   3.294  0.6131  1.0323  0.9076
 9570SOL    HW240344   4.738   3.462   3.304 -0.3901 -0.3119  0.2263
 9571SOL     OW40345   1.114   3.823   5.225 -0.0731 -0.4237  0.2057
 9571SOL    HW140346   1.178   3.894   5.235 -0.2283 -0.3766  0.8460
 9571SOL    HW240347   1.103   3.802   5.318 -1.3763 -0.1611  0.1163
   4.73945   4.73945  17.75554
