Membrane in water
40347
    1TMC1    C1    1   1.549   2.480  11.525 -0.1355  1.0222  0.2831
    1TMC1    C2    2   1.485   2.481  11.407  0.1273  0.4116 -0.5065
    1TMC1    C3    3   1.479   2.593  11.327 -0.3181 -0.0271 -0.0386
    1TMC1    C4    4   1.617   2.589  11.572  0.2547 -0.0022 -0.2314
    1TMC1    C5    5   1.617   2.696  11.493  0.2899  0.1653  0.0743
    1TMC1    C6    6   1.545   2.702  11.372 -0.3113  0.6979  0.2281
    1TMC1     C    7   1.510   2.387  11.627  0.1014 -0.5076  0.3759
    1TMC1     O    8   1.388   2.382  11.649  0.4656 -0.4946  0.2210
    1TMC1     H    9   1.426   2.401  11.364 -0.2005  1.3360 -1.7732
    1TMC1    H1   10   1.672   2.584  11.666  1.4076  0.4235 -0.8777
    1TMC1    H2   11   1.517   2.802  11.341 -2.1471  0.3347  0.7124
    1TMC1    C7   12   1.666   2.821  11.545  0.6745  1.4523  0.4225
    1TMC1    C8   13   1.462   2.574  11.185  0.0741  0.3434 -0.3212
    1TMC1    O1   14   1.660   2.843  11.664 -0.0815 -0.0992 -0.5406
    1TMC1    O2   15   1.421   2.467  11.137  0.4491 -1.0684  0.3126
    1TMC1    O3   16   1.694   2.909  11.443 -0.1786  0.0863 -0.1121
    1TMC1    H3   17   1.678   2.884  11.349  1.7528  0.7686 -0.6153
    1TMC1    O5   18   1.490   2.686  11.121 -0.2381  0.7814  0.4764
    1TMC1    H5   19   1.544   2.755  11.164 -0.4845  1.3206 -0.0754
    2MPD2     C   20   1.601   2.027  11.988 -0.2050 -0.0526  0.3336
    2MPD2    C1   21   1.489   2.092  11.952  0.3502 -0.0510  0.2504
    2MPD2    C2   22   1.493   2.183  11.851 -0.4223  0.3570 -0.5983
    2MPD2    C3   23   1.605   2.213  11.780 -0.5938 -0.7495 -0.1083
    2MPD2    C4   24   1.721   2.148  11.821 -0.3106  0.8029 -0.3317
    2MPD2    C5   25   1.718   2.053  11.922 -0.5239  0.2022  0.1837
    2MPD2     H   26   1.400   2.235  11.828 -0.4880 -0.1654 -1.5000
    2MPD2    H1   27   1.814   2.166  11.769 -0.3939  1.5401 -0.2162
    2MPD2    H2   28   1.597   1.948  12.061  1.1680 -1.1804 -0.8007
    2MPD2    H3   29   1.811   2.005  11.951 -0.2962 -0.1430 -1.1294
    2MPD2     N   30   1.616   2.317  11.680  0.0536  0.2375 -0.3735
    2MPD2    H5   31   1.707   2.345  11.645 -1.1488  3.7879 -0.7428
    2MPD2    N1   32   1.372   2.082  12.021  0.3736 -0.2183  0.2461
    2MPD2    H7   33   1.292   2.132  11.983  1.2433  1.0658  0.1029
    3TMC1    C1   34   0.438   3.710  10.860 -0.2675  0.2632  0.1050
    3TMC1    C2   35   0.444   3.571  10.839  0.0276  0.2764 -0.5260
    3TMC1    C3   36   0.464   3.530  10.711 -0.2968  0.0908  0.3743
    3TMC1    C4   37   0.459   3.799  10.756 -0.2922  0.3606  0.0728
    3TMC1    C5   38   0.477   3.748  10.631 -0.2874 -0.6080 -0.4700
    3TMC1    C6   39   0.483   3.618  10.605 -0.2596  0.7980 -0.2469
    3TMC1     C   40   0.485   3.762  10.986 -0.3133 -0.0091  0.1362
    3TMC1     O   41   0.576   3.845  10.983 -0.3052 -0.5195 -0.6877
    3TMC1     H   42   0.426   3.487  10.905  2.8223  2.0669  2.5204
    3TMC1    H1   43   0.501   3.898  10.771 -0.5930  1.1845 -4.5941
    3TMC1    H2   44   0.471   3.586  10.502  0.0045 -1.2957  0.3720
    3TMC1    C7   45   0.438   3.834  10.521  0.0672 -0.0569 -0.3770
    3TMC1    C8   46   0.503   3.389  10.684 -0.0978 -0.3623  0.8672
    3TMC1    O1   47   0.469   3.810  10.405 -0.0264 -0.0252  0.7043
    3TMC1    O2   48   0.442   3.291  10.727 -0.6788  0.2493  0.3950
    3TMC1    O3   49   0.351   3.928  10.557  0.2498  0.9373 -0.7437
    3TMC1    H3   50   0.342   3.938  10.655 -3.5798  0.8412 -1.1188
    3TMC1    O5   51   0.597   3.387  10.586  0.1061 -0.0915 -0.6577
    3TMC1    H5   52   0.650   3.468  10.574  0.3229 -0.4132 -1.8023
    4MPD2     C   53   0.485   3.804  11.496  0.0302  1.1295 -0.3157
    4MPD2    C1   54   0.385   3.717  11.460  0.5374  0.3921 -0.1508
    4MPD2    C2   55   0.373   3.676  11.327 -0.1586  0.1630  0.1689
    4MPD2    C3   56   0.453   3.728  11.228  0.3723 -0.4876 -0.2606
    4MPD2    C4   57   0.551   3.811  11.271 -0.6200  0.2180 -0.1617
    4MPD2    C5   58   0.569   3.850  11.400  0.4380  0.1923 -1.2061
    4MPD2     H   59   0.286   3.617  11.299  0.8625 -1.0377 -0.4992
    4MPD2    H1   60   0.617   3.863  11.202 -1.0278  1.9116  0.7287
    4MPD2    H2   61   0.489   3.847  11.596 -0.7646  0.2507  0.0886
    4MPD2    H3   62   0.656   3.910  11.426 -0.5526  1.9460 -1.9558
    4MPD2     N   63   0.420   3.702  11.094  0.3556 -0.1665 -0.3502
    4MPD2    H5   64   0.367   3.618  11.074  0.3186  0.0220 -1.0483
    4MPD2    N1   65   0.292   3.666  11.554  0.3895 -0.2693 -0.7653
    4MPD2    H7   66   0.210   3.618  11.518  0.7251 -2.9732  2.0122
    5TCq1    O1   67   1.537   4.479  12.260  0.3409  0.4242  0.2862
    5TCq1    C1   68   1.458   4.454  12.367  0.2820  0.7328  0.0782
    5TCq1    O2   69   1.485   4.389  12.462 -0.0289  0.6016 -0.0320
    5TCq1    C2   70   1.333   4.528  12.361  0.0875 -0.0822  0.3786
    5TCq1    C3   71   1.266   4.533  12.486  0.4059  0.3106  1.3058
    5TCq1    C4   72   1.146   4.594  12.488  0.6080  0.4008  0.5118
    5TCq1    C5   73   1.087   4.648  12.378 -0.7732  0.5248 -0.0828
    5TCq1    C6   74   1.160   4.636  12.262  0.0341  0.1584  0.3543
    5TCq1    C7   75   1.278   4.572  12.247 -0.4238 -0.0181  0.0733
    5TCq1    C8   76   1.113   4.712  12.142 -0.1565 -0.0503  0.6838
    5TCq1    O4   77   1.185   4.699  12.044 -0.3557  0.3552 -0.0143
    5TCq1    C9   78   1.078   4.607  12.615  0.0842 -0.6963 -0.2642
    5TCq1    O5   79   0.965   4.665  12.610 -0.2950  0.4588 -0.1680
    5TCq1    O6   80   1.130   4.549  12.711 -0.7767 -0.4222  0.1519
    5TCq1    H1   81   1.491   4.541  12.200  0.9482  0.8419  0.2518
    5TCq1    H2   82   1.301   4.484  12.577 -1.9582 -1.6457  1.1606
    5TCq1    H3   83   0.994   4.703  12.388 -0.6034  1.0034 -1.2536
    5TCq1    H4   84   1.308   4.552  12.145 -0.3002 -1.3484  0.3699
    6MPD2     C   85   0.865   0.234  12.090  0.1421  0.1916  0.2990
    6MPD2    C1   86   0.948   0.132  12.053 -0.8450 -0.1017  0.8595
    6MPD2    C2   87   0.958   0.108  11.915  0.7112 -0.1324  0.0978
    6MPD2    C3   88   0.884   0.167  11.818 -0.3250  0.8252 -0.4724
    6MPD2    C4   89   0.795   0.268  11.862  0.8226 -0.3646 -0.1669
    6MPD2    C5   90   0.802   0.309  11.994 -0.4764 -0.2800 -0.5256
    6MPD2     H   91   1.019   0.024  11.886  0.5022 -0.1038 -0.4159
    6MPD2    H1   92   0.736   0.325  11.792 -1.2481 -2.1709  0.1158
    6MPD2    H2   93   0.861   0.277  12.190  1.8155  1.4580 -0.1829
    6MPD2    H3   94   0.750   0.398  12.026 -0.1415 -0.0912 -0.4989
    6MPD2     N   95   0.895   0.126  11.683 -0.0713 -0.1818 -0.0486
    6MPD2    H5   96   0.964   0.056  11.657 -2.5047 -2.0925 -1.4968
    6MPD2    N1   97   0.999   0.053  12.158  0.3873 -0.4849  0.7267
    6MPD2    H7   98   0.968   0.068  12.253 -4.8729 -4.7006 -0.3368
    7TCq1    O1   99   3.559   3.848  13.244 -0.3477  0.4223 -0.1368
    7TCq1    C1  100   3.611   3.845  13.118  0.4071  0.2282 -0.5619
    7TCq1    O2  101   3.728   3.817  13.097 -0.4800 -0.4980 -0.3074
    7TCq1    C2  102   3.502   3.809  13.028 -0.4697 -0.4780  0.0651
    7TCq1    C3  103   3.385   3.877  13.039 -0.2973 -0.1896 -0.1802
    7TCq1    C4  104   3.274   3.808  13.006  0.1244 -0.1645 -0.5032
    7TCq1    C5  105   3.275   3.682  12.944 -0.1799 -0.4862 -0.0005
    7TCq1    C6  106   3.394   3.618  12.936 -0.6925  0.5525 -0.2032
    7TCq1    C7  107   3.513   3.677  12.980  0.5589 -0.1669 -0.8397
    7TCq1    C8  108   3.400   3.481  12.899 -0.0090  0.3880 -0.1556
    7TCq1    O4  109   3.291   3.431  12.870  0.7086 -0.1116 -0.5113
    7TCq1    C9  110   3.144   3.866  13.030  0.6932  0.7221 -0.8948
    7TCq1    O5  111   3.140   3.988  13.052 -0.3318 -0.6333  0.2812
    7TCq1    O6  112   3.040   3.795  13.024  0.1396  0.1133 -0.2032
    7TCq1    H1  113   3.462   3.839  13.253 -0.2485  1.6504  2.0753
    7TCq1    H2  114   3.371   3.963  13.103 -3.4435 -0.7656 -0.0928
    7TCq1    H3  115   3.181   3.643  12.910  0.0380 -0.3392 -0.7759
    7TCq1    H4  116   3.609   3.627  12.977 -0.0136 -1.3250  0.1908
    8MPD2     C  117   3.611   3.006  12.886  0.8685  0.6815  0.4971
    8MPD2    C1  118   3.485   3.045  12.910 -0.0400  0.1840  0.4208
    8MPD2    C2  119   3.453   3.183  12.912 -0.4046  0.1101 -0.2118
    8MPD2    C3  120   3.549   3.277  12.879  0.3474  1.0087  0.3275
    8MPD2    C4  121   3.679   3.227  12.849 -0.2308 -0.2325  0.1328
    8MPD2    C5  122   3.704   3.100  12.863  0.3646  0.1426  0.7007
    8MPD2     H  123   3.353   3.215  12.940  0.0483  0.0700  1.4719
    8MPD2    H1  124   3.754   3.297  12.814 -0.8588  0.1248 -0.5085
    8MPD2    H2  125   3.644   2.906  12.911  0.9969  0.3139 -1.1532
    8MPD2    H3  126   3.808   3.067  12.855  0.1392 -1.0022  2.4398
    8MPD2     N  127   3.522   3.417  12.881  0.0445  0.7627  0.5544
    8MPD2    H5  128   3.608   3.471  12.871  0.5809 -0.3924 -1.0660
    8MPD2    N1  129   3.397   2.954  12.970 -0.3146 -0.7780 -0.3597
    8MPD2    H7  130   3.442   2.867  12.997  0.7105  0.5909  2.4073
    9TMC1    C1  131   0.839   3.133  10.590 -0.4282  0.1561  0.1245
    9TMC1    C2  132   0.716   3.092  10.638  0.3458  0.3429  0.5020
    9TMC1    C3  133   0.625   3.045  10.545  0.5380  0.4770  0.4923
    9TMC1    C4  134   0.872   3.132  10.458  0.4135  0.5224 -0.2035
    9TMC1    C5  135   0.779   3.090  10.374 -0.6837  0.3630  0.2010
    9TMC1    C6  136   0.649   3.059  10.410  0.4214 -1.3137 -0.0489
    9TMC1     C  137   0.944   3.187  10.676  0.5068  0.5052  0.1287
    9TMC1     O  138   1.042   3.241  10.620  0.2660  0.5197  0.1938
    9TMC1     H  139   0.708   3.064  10.742 -0.1750  0.6774  0.5536
    9TMC1    H1  140   0.972   3.158  10.427 -0.0049  1.7146 -0.5184
    9TMC1    H2  141   0.576   3.052  10.330 -0.7663  2.2713  0.7311
    9TMC1    C7  142   0.822   3.041  10.245  0.3359 -0.3461  0.1395
    9TMC1    C8  143   0.489   3.004  10.579  0.1468  0.5415  0.3064
    9TMC1    O1  144   0.913   2.964  10.221  0.5102 -0.2425  0.2689
    9TMC1    O2  145   0.437   2.914  10.514  0.0795 -0.1947 -0.4672
    9TMC1    O3  146   0.771   3.128  10.159 -0.1213  0.1581 -0.4509
    9TMC1    H3  147   0.727   3.192  10.220 -0.4813  0.5511 -1.1197
    9TMC1    O5  148   0.486   3.029  10.710 -0.5582 -0.5222  0.1633
    9TMC1    H5  149   0.539   3.110  10.724  1.2291 -1.3005 -2.2340
   10MPD2     C  150   1.110   3.285  10.903 -0.4562 -0.3375 -0.3834
   10MPD2    C1  151   0.995   3.214  10.916  0.7702  0.5072  0.0060
   10MPD2    C2  152   0.955   3.173  11.041  0.4870 -0.3444  0.4104
   10MPD2    C3  153   1.027   3.187  11.153  0.3196 -0.9686 -0.2637
   10MPD2    C4  154   1.141   3.255  11.141  0.7185 -0.6400 -0.0010
   10MPD2    C5  155   1.181   3.301  11.016 -0.4401 -0.1484 -0.3198
   10MPD2     H  156   0.868   3.108  11.044  1.3960 -1.5790  0.2808
   10MPD2    H1  157   1.215   3.261  11.220  0.5212  2.7294 -0.0589
   10MPD2    H2  158   1.135   3.330  10.807 -1.4110  0.6238 -0.1783
   10MPD2    H3  159   1.284   3.331  10.999 -0.5603  0.2775 -0.2896
   10MPD2     N  160   0.999   3.133  11.276  0.5627 -0.2497  0.7631
   10MPD2    H5  161   1.050   3.166  11.357  0.8117  1.4396 -0.0946
   10MPD2    N1  162   0.911   3.184  10.811 -0.1770  0.2401  0.4372
   10MPD2    H7  163   0.841   3.115  10.837 -0.8899  0.7370 -0.1761
   11TCq1    O1  164   2.165   3.371  14.237 -0.4965 -0.2073  0.0843
   11TCq1    C1  165   2.161   3.255  14.302 -0.2972  0.6366  0.0921
   11TCq1    O2  166   2.213   3.239  14.409 -0.1617  0.0545 -0.1925
   11TCq1    C2  167   2.074   3.159  14.244  0.6290 -1.3006 -0.2039
   11TCq1    C3  168   2.034   3.165  14.114 -0.1358 -0.3567 -0.1790
   11TCq1    C4  169   1.946   3.068  14.067  0.2240 -0.7938  0.2800
   11TCq1    C5  170   1.900   2.972  14.154  0.2155 -0.2644 -0.7422
   11TCq1    C6  171   1.947   2.967  14.280  0.4604 -0.4301  0.1477
   11TCq1    C7  172   2.044   3.053  14.320  0.4838  0.3356  0.8564
   11TCq1    C8  173   1.925   2.849  14.358 -0.2707  0.2117 -0.1438
   11TCq1    O4  174   1.957   2.841  14.475  0.5678 -0.0762 -0.2471
   11TCq1    C9  175   1.901   3.076  13.932 -0.3495 -0.0882 -0.2711
   11TCq1    O5  176   1.942   3.165  13.855  0.2368  0.2084  0.1034
   11TCq1    O6  177   1.807   2.994  13.909 -0.0374  0.1182  0.7185
   11TCq1    H1  178   2.093   3.370  14.170 -0.6650  0.6130  0.2550
   11TCq1    H2  179   2.066   3.238  14.039 -1.5814  1.5169  1.0422
   11TCq1    H3  180   1.814   2.913  14.125 -0.9743  0.6306  1.0199
   11TCq1    H4  181   2.095   3.030  14.413  0.2057 -1.4369  0.5728
   12MPD2     C  182   1.849   2.576  14.451  0.4921  0.5246  0.4111
   12MPD2    C1  183   1.827   2.621  14.327  0.6691  0.8075 -0.8443
   12MPD2    C2  184   1.763   2.537  14.239  0.4712 -0.8215 -0.7665
   12MPD2    C3  185   1.709   2.418  14.280  0.3564  0.1358 -0.0420
   12MPD2    C4  186   1.713   2.381  14.407 -0.3340  0.1523  0.1259
   12MPD2    C5  187   1.796   2.456  14.493 -0.1619  0.3567 -0.5627
   12MPD2     H  188   1.747   2.574  14.138 -0.6779 -2.4435 -1.1632
   12MPD2    H1  189   1.676   2.288  14.449 -1.7974  0.3999 -0.6138
   12MPD2    H2  190   1.907   2.630  14.525 -0.8185  2.0665  0.2917
   12MPD2    H3  191   1.816   2.417  14.592 -1.0994  0.3227 -0.3841
   12MPD2     N  192   1.630   2.340  14.191 -0.5491 -0.1266  0.0313
   12MPD2    H5  193   1.589   2.263  14.243 -0.8613 -1.0543 -1.5898
   12MPD2    N1  194   1.874   2.748  14.282 -0.6259  0.7822  0.7034
   12MPD2    H7  195   1.862   2.764  14.183 -0.3441  2.4795  0.9417
   13TCq1    O1  196   1.525   3.139  10.543 -0.3342 -0.1202 -0.0072
   13TCq1    C1  197   1.618   3.099  10.634  0.3525  0.5079  0.3936
   13TCq1    O2  198   1.729   3.057  10.599  0.0583 -0.0322  0.1469
   13TCq1    C2  199   1.557   3.065  10.762  0.6110 -0.0125  0.3066
   13TCq1    C3  200   1.644   3.036  10.857 -0.3742 -0.3587 -0.2223
   13TCq1    C4  201   1.599   2.994  10.979  0.0191  0.4379  0.1269
   13TCq1    C5  202   1.460   2.986  11.000  0.3165 -0.4582  0.3086
   13TCq1    C6  203   1.379   3.015  10.896 -0.8704  0.1598  0.3167
   13TCq1    C7  204   1.420   3.060  10.778 -0.1172 -0.2039 -0.4912
   13TCq1    C8  205   1.241   2.964  10.910  0.1088 -0.7006 -0.6775
   13TCq1    O4  206   1.214   2.929  11.018 -0.1219 -0.1378  0.4207
   13TCq1    C9  207   1.694   2.941  11.076 -0.1217 -0.8483 -0.1961
   13TCq1    O5  208   1.659   2.885  11.185  0.5088 -0.3342  0.2390
   13TCq1    O6  209   1.806   2.926  11.023 -0.0907  0.2465 -0.2319
   13TCq1    H1  210   1.444   3.176  10.586 -0.2261 -0.8803  0.8403
   13TCq1    H2  211   1.748   3.029  10.828 -1.1210  0.0674 -3.0135
   13TCq1    H3  212   1.420   2.937  11.088 -0.0562 -0.2203  0.2707
   13TCq1    H4  213   1.346   3.089  10.705 -0.5450 -0.4527 -0.1522
   14MPD2     C  214   1.026   2.832  10.664 -0.3798  0.0432 -0.1213
   14MPD2    C1  215   1.059   2.874  10.789 -0.1757 -0.2159  0.0160
   14MPD2    C2  216   0.965   2.877  10.891  0.1558  0.1316 -0.2831
   14MPD2    C3  217   0.842   2.826  10.868 -0.3604 -0.0941 -0.8541
   14MPD2    C4  218   0.808   2.784  10.740  0.1249 -0.5248  0.5029
   14MPD2    C5  219   0.905   2.781  10.642 -0.2440  0.7126 -0.0631
   14MPD2     H  220   0.988   2.904  10.993 -2.3630  1.0724  0.0538
   14MPD2    H1  221   0.720   2.724  10.720  0.8707 -1.7010  0.7325
   14MPD2    H2  222   1.096   2.831  10.582  0.2250  1.7944  0.3772
   14MPD2    H3  223   0.892   2.739  10.544 -1.0060  1.9729 -0.5086
   14MPD2     N  224   0.750   2.819  10.980 -0.4086  0.2504  0.2844
   14MPD2    H5  225   0.768   2.864  11.069 -1.3977  0.4375  0.3855
   14MPD2    N1  226   1.185   2.932  10.795 -0.0940  0.7831  0.0329
   14MPD2    H7  227   1.232   2.954  10.708  3.9481 -1.7434  1.5502
   15TCq1    O1  228   4.696   1.836   1.307  0.2495  0.1972  0.3210
   15TCq1    C1  229   4.640   1.820   1.429  0.3880 -0.3784 -0.0305
   15TCq1    O2  230   4.687   1.808   1.542 -0.0921 -0.1720 -0.1833
   15TCq1    C2  231   4.508   1.773   1.399  0.1879 -0.2411  0.5361
   15TCq1    C3  232   4.398   1.845   1.436 -0.4699  0.3357  0.0043
   15TCq1    C4  233   4.280   1.815   1.380  1.0181 -0.1188  0.2436
   15TCq1    C5  234   4.262   1.709   1.291  0.3527  0.3223 -0.3926
   15TCq1    C6  235   4.380   1.642   1.265 -0.2361 -0.0415 -0.1433
   15TCq1    C7  236   4.501   1.671   1.311 -0.8283  0.0356  0.4657
   15TCq1    C8  237   4.362   1.514   1.208  0.0027 -0.1352 -0.6612
   15TCq1    O4  238   4.453   1.430   1.203  0.4548 -0.5094 -0.3343
   15TCq1    C9  239   4.170   1.896   1.417  0.8560 -0.1017 -0.6303
   15TCq1    O5  240   4.177   1.971   1.519  0.3121  0.1686  0.2023
   15TCq1    O6  241   4.061   1.855   1.376 -0.0101  0.3546  0.0395
   15TCq1    H1  242   4.635   1.852   1.232 -2.0129  1.9208  2.5412
   15TCq1    H2  243   4.410   1.929   1.504  3.3072  0.5729 -0.9675
   15TCq1    H3  244   4.167   1.704   1.239 -0.0912 -0.9597  0.5552
   15TCq1    H4  245   4.583   1.603   1.294 -1.2013  0.2193 -2.0749
   16MPD2     C  246   4.038   1.367   1.122  0.3320 -0.2676 -0.0690
   16MPD2    C1  247   4.173   1.366   1.140 -0.1329 -0.8572 -0.9641
   16MPD2    C2  248   4.238   1.245   1.134  0.1159  0.0318 -0.3963
   16MPD2    C3  249   4.165   1.130   1.125  0.2503  0.1003 -0.1935
   16MPD2    C4  250   4.033   1.138   1.093  0.3516  0.0373  0.5063
   16MPD2    C5  251   3.969   1.255   1.101 -0.2427 -0.2038  0.3356
   16MPD2     H  252   4.345   1.236   1.147 -0.0181  0.8068  1.3409
   16MPD2    H1  253   3.980   1.048   1.066  0.6810 -0.1647  0.5284
   16MPD2    H2  254   3.979   1.457   1.122 -1.0206 -1.1601  0.9151
   16MPD2    H3  255   3.863   1.267   1.082  0.2104 -0.4914 -2.2939
   16MPD2     N  256   4.231   1.007   1.124  0.0675  0.0311 -0.5406
   16MPD2    H5  257   4.332   1.019   1.120  0.2853 -1.2067  1.2936
   16MPD2    N1  258   4.229   1.485   1.181  0.0561 -0.3566 -0.5570
   16MPD2    H7  259   4.170   1.568   1.181 -0.4986 -0.7615  1.3510
   17TMC1    C1  260   1.311   2.612  11.867  0.3062 -0.7307  0.0253
   17TMC1    C2  261   1.439   2.634  11.893  0.4883 -0.0783  0.1901
   17TMC1    C3  262   1.485   2.616  12.019 -0.1000 -0.7624  0.3766
   17TMC1    C4  263   1.224   2.568  11.963 -0.3398 -0.2575 -0.0909
   17TMC1    C5  264   1.272   2.532  12.087 -0.0914 -0.0598  0.1068
   17TMC1    C6  265   1.406   2.554  12.118 -0.3752  0.8665 -0.2907
   17TMC1     C  266   1.248   2.662  11.747  0.4124 -0.2864 -0.0129
   17TMC1     O  267   1.137   2.618  11.720  0.2127 -0.4563  0.0838
   17TMC1     H  268   1.513   2.673  11.824 -0.8963  0.4518 -0.9969
   17TMC1    H1  269   1.121   2.555  11.931  0.4572 -0.4547 -2.5651
   17TMC1    H2  270   1.445   2.544  12.218  1.5619  0.9327 -1.0525
   17TMC1    C7  271   1.183   2.508  12.201  0.1329 -0.8857  0.0783
   17TMC1    C8  272   1.622   2.659  12.050 -0.8267  0.3409 -0.1856
   17TMC1    O1  273   1.226   2.441  12.292  0.0588 -0.2825 -0.1328
   17TMC1    O2  274   1.679   2.739  11.979 -0.1229 -0.5487  0.0561
   17TMC1    O3  275   1.055   2.531  12.171  0.4385  0.3414  0.0009
   17TMC1    H3  276   1.052   2.592  12.094  1.5926 -1.8298 -1.7452
   17TMC1    O5  277   1.683   2.568  12.125 -0.4869 -0.1542  0.0004
   17TMC1    H5  278   1.623   2.492  12.140 -0.7336  0.1945  0.7411
   18MPD2     C  279   1.358   2.953  11.542  0.0974 -0.2488 -0.1871
   18MPD2    C1  280   1.294   2.835  11.576  0.1753 -0.1770 -1.0062
   18MPD2    C2  281   1.214   2.770  11.481  0.1403 -0.2572  0.6329
   18MPD2    C3  282   1.206   2.826  11.356  0.9068  0.2843 -0.0247
   18MPD2    C4  283   1.268   2.947  11.333  0.0284  0.8232  0.1419
   18MPD2    C5  284   1.343   3.015  11.423  0.4264 -0.3957  0.1018
   18MPD2     H  285   1.169   2.673  11.498  1.2183 -0.9962 -0.7181
   18MPD2    H1  286   1.260   2.993  11.234  2.2981 -1.7423 -1.2342
   18MPD2    H2  287   1.404   2.997  11.630 -2.1644 -0.7331  1.2516
   18MPD2    H3  288   1.398   3.105  11.396  1.0192 -0.9061 -0.4116
   18MPD2     N  289   1.136   2.770  11.244 -0.6383  0.1578  0.4501
   18MPD2    H5  290   1.160   2.808  11.153  0.7913 -0.0474  0.7461
   18MPD2    N1  291   1.314   2.779  11.703  1.0141 -0.2116  0.8397
   18MPD2    H7  292   1.383   2.806  11.772  1.4223 -2.2784  1.2524
   19TMC2    C1  293   2.662   2.343  14.702  0.4396 -0.4605 -0.1956
   19TMC2    C2  294   2.585   2.402  14.794 -0.0076 -0.6819 -0.7150
   19TMC2    C3  295   2.459   2.359  14.804  0.7525  1.1660 -0.0438
   19TMC2    C4  296   2.617   2.235  14.629  0.0881  0.4316  0.0358
   19TMC2    C5  297   2.488   2.200  14.636 -0.3588 -0.6746  1.0143
   19TMC2    C6  298   2.411   2.260  14.731 -1.1168 -0.1748  0.0253
   19TMC2     C  299   2.804   2.381  14.701  0.4570 -0.6596 -0.3290
   19TMC2     O  300   2.835   2.493  14.746 -0.7155 -0.0642  0.5812
   19TMC2     H  301   2.631   2.470  14.865  2.5618 -2.1754 -0.9528
   19TMC2    H1  302   2.680   2.177  14.562 -0.4817 -1.4240  1.1262
   19TMC2    H2  303   2.307   2.233  14.749 -0.6077 -1.7234  0.7155
   19TMC2    C7  304   2.422   2.099  14.554 -1.3589  0.6891 -0.0258
   19TMC2    C8  305   2.358   2.424  14.882 -0.2684 -0.0435 -0.1856
   19TMC2    O1  306   2.502   2.046  14.481 -0.0843  0.1936 -0.2556
   19TMC2    O2  307   2.251   2.379  14.916 -0.4064  0.6399  0.3266
   19TMC2    O5  308   2.398   2.547  14.925 -0.0278  0.1173 -0.3402
   19TMC2    H5  309   2.484   2.573  14.887 -0.6310 -0.1820 -1.9394
   20MPD2     C  310   3.076   2.414  14.622 -0.1801  0.7565 -0.5591
   20MPD2    C1  311   3.019   2.291  14.631  0.7402  0.2453 -0.3447
   20MPD2    C2  312   3.090   2.177  14.596  0.6003 -0.7237  0.0879
   20MPD2    C3  313   3.215   2.181  14.557  1.0687 -0.2935 -0.2118
   20MPD2    C4  314   3.276   2.304  14.561 -0.1848 -0.3879  0.2307
   20MPD2    C5  315   3.208   2.421  14.586  0.0256 -0.3114 -1.2938
   20MPD2     H  316   3.035   2.083  14.592  0.5662 -0.5959 -2.8484
   20MPD2    H1  317   3.376   2.325  14.523  0.6957 -1.6513  1.8245
   20MPD2    H2  318   3.026   2.509  14.624 -1.4687  0.0568  0.1590
   20MPD2    H3  319   3.256   2.516  14.564 -0.2398  0.6166  2.1362
   20MPD2     N  320   3.296   2.066  14.532  0.1593  0.1178  0.6980
   20MPD2    H5  321   3.395   2.084  14.524  0.1640 -0.8007 -1.2228
   20MPD2    N1  322   2.881   2.279  14.656  0.4533  0.1454 -0.2087
   20MPD2    H7  323   2.838   2.187  14.645 -1.2344  0.6365  2.3673
   21TMC2    C1  324   0.469   2.396  14.227 -0.2685 -0.6325  0.6307
   21TMC2    C2  325   0.557   2.296  14.201 -0.3408 -0.4568 -0.2004
   21TMC2    C3  326   0.558   2.199  14.296  0.6834 -0.0455  0.3185
   21TMC2    C4  327   0.375   2.384  14.323 -0.4422 -0.1055 -0.5235
   21TMC2    C5  328   0.392   2.291  14.424 -0.1695  0.4053  0.0555
   21TMC2    C6  329   0.487   2.197  14.413 -0.4949  0.6215  0.9650
   21TMC2     C  330   0.474   2.512  14.135 -0.0447  0.4049 -0.3117
   21TMC2     O  331   0.493   2.488  14.013 -0.0184 -0.2628 -0.0643
   21TMC2     H  332   0.615   2.302  14.110 -1.8162 -0.7106 -1.1471
   21TMC2    H1  333   0.296   2.459  14.321 -0.9313 -0.5945  0.5572
   21TMC2    H2  334   0.493   2.126  14.494 -0.1950  1.2663  1.5047
   21TMC2    C7  335   0.355   2.335  14.555 -0.2446 -0.6844 -0.1654
   21TMC2    C8  336   0.656   2.101  14.270  1.3567  0.6040  0.6748
   21TMC2    O1  337   0.413   2.280  14.645  0.7552  0.1588 -0.2935
   21TMC2    O2  338   0.743   2.115  14.184  0.0814 -0.2137  0.5802
   21TMC2    O5  339   0.640   1.994  14.357 -0.9552  0.4287  0.2440
   21TMC2    H5  340   0.548   1.968  14.382 -1.2093 -0.4898 -1.5666
   22MPD2     C  341   0.473   2.756  14.582  0.3703  0.2389  0.7675
   22MPD2    C1  342   0.552   2.657  14.542 -0.1598 -0.2283  0.1266
   22MPD2    C2  343   0.547   2.623  14.407  0.2663 -0.4759 -0.1199
   22MPD2    C3  344   0.450   2.675  14.325  0.0800  0.1138 -0.5137
   22MPD2    C4  345   0.365   2.773  14.366 -0.5492 -0.4461  0.5600
   22MPD2    C5  346   0.382   2.811  14.497  0.3013 -0.0172  0.1624
   22MPD2     H  347   0.622   2.558  14.363 -0.0526 -2.3004  2.0308
   22MPD2    H1  348   0.298   2.818  14.294 -0.1561  0.1269  0.5569
   22MPD2    H2  349   0.480   2.797  14.683 -0.5219 -1.3255  1.4678
   22MPD2    H3  350   0.321   2.887  14.543  1.4984  1.4964 -0.7417
   22MPD2     N  351   0.454   2.640  14.185  0.1320  0.5473  0.8281
   22MPD2    H5  352   0.399   2.711  14.136 -1.6329 -0.6272  1.1044
   22MPD2    N1  353   0.643   2.582  14.622 -0.7493  0.0229  0.0075
   22MPD2    H7  354   0.711   2.526  14.572 -0.2157  0.5097  0.1893
   23TMC2    C1  355   1.608   3.602  14.895 -0.2575  0.1174  0.2209
   23TMC2    C2  356   1.673   3.606  14.772  0.8325 -0.2571  0.4632
   23TMC2    C3  357   1.593   3.569  14.661 -0.5832 -0.3708 -0.6407
   23TMC2    C4  358   1.481   3.557  14.913 -0.0453  0.3012 -0.6473
   23TMC2    C5  359   1.411   3.524  14.799  0.8157  0.6489 -0.1654
   23TMC2    C6  360   1.463   3.530  14.670  0.0315  0.5069 -0.3638
   23TMC2     C  361   1.686   3.616  15.011  0.1274  0.2966 -0.2929
   23TMC2     O  362   1.807   3.619  14.987 -0.6176 -0.5935  0.5714
   23TMC2     H  363   1.774   3.642  14.759  0.9785 -0.6464  0.5023
   23TMC2    H1  364   1.432   3.546  15.009 -0.3696  1.3995 -0.6809
   23TMC2    H2  365   1.401   3.500  14.587 -1.0830 -0.1915  0.7083
   23TMC2    C7  366   1.288   3.443  14.816 -0.0164  0.3888 -0.0062
   23TMC2    C8  367   1.625   3.649  14.547 -0.1735 -0.6494  0.2186
   23TMC2    O1  368   1.281   3.367  14.909  0.3134 -0.1189 -0.1315
   23TMC2    O2  369   1.608   3.591  14.442  0.2923 -0.4197  0.5919
   23TMC2    O5  370   1.566   3.769  14.578  0.0854  0.3381 -0.1828
   23TMC2    H5  371   1.569   3.803  14.670  0.0018 -1.4307  0.4868
   24MPD2     C  372   1.756   3.718  15.495  0.4943 -0.1647  0.2262
   24MPD2    C1  373   1.822   3.639  15.413  0.4507 -0.2108  1.2846
   24MPD2    C2  374   1.770   3.621  15.283 -0.9805  0.7367  0.3134
   24MPD2    C3  375   1.656   3.685  15.239  0.6183  0.2328 -1.2042
   24MPD2    C4  376   1.583   3.750  15.330  0.0245 -1.0901 -0.1013
   24MPD2    C5  377   1.629   3.762  15.455  0.1963  0.0143  0.0268
   24MPD2     H  378   1.813   3.549  15.214  0.1110  0.3366  1.3888
   24MPD2    H1  379   1.487   3.795  15.309  0.3956 -0.0379  0.4684
   24MPD2    H2  380   1.779   3.737  15.599 -0.9992 -1.0573  0.7116
   24MPD2    H3  381   1.570   3.819  15.526  0.0749  0.2309 -0.2519
   24MPD2     N  382   1.612   3.676  15.109 -0.2159 -0.3649 -0.0618
   24MPD2    H5  383   1.517   3.709  15.091 -0.3742 -1.2906 -0.8974
   24MPD2    N1  384   1.938   3.567  15.451  0.1755 -0.8537 -0.4031
   24MPD2    H7  385   1.985   3.516  15.376 -0.9703  0.4434 -2.0139
   25TMC2    C1  386   0.210   1.588  11.705  0.2689  0.4080 -0.1633
   25TMC2    C2  387   0.098   1.628  11.634  0.5977 -0.5692 -0.0885
   25TMC2    C3  388   4.722   1.659  11.706  0.5997  0.2569 -0.0222
   25TMC2    C4  389   0.199   1.550  11.836  0.2756  0.2230 -0.3679
   25TMC2    C5  390   0.080   1.573  11.904  0.1694  0.2622  0.2424
   25TMC2    C6  391   4.707   1.605  11.827 -0.1128 -0.4926 -0.2584
   25TMC2     C  392   0.325   1.552  11.624 -0.2130  0.0559 -0.0614
   25TMC2     O  393   0.342   1.609  11.517 -0.3393 -0.1952 -0.3215
   25TMC2     H  394   0.106   1.653  11.529 -1.2495 -2.7816 -0.7612
   25TMC2    H1  395   0.290   1.540  11.894 -0.7875  0.8033  1.4149
   25TMC2    H2  396   4.614   1.630  11.877 -0.2830 -2.1982  0.3075
   25TMC2    C7  397   0.071   1.517  12.034 -0.4939 -0.4754  0.5938
   25TMC2    C8  398   4.596   1.652  11.632  0.3757 -0.1835  0.1876
   25TMC2    O1  399   0.177   1.475  12.080  0.5649 -0.2132  0.1363
   25TMC2    O2  400   4.516   1.558  11.652  0.6214  0.2777  0.2477
   25TMC2    O5  401   4.608   1.738  11.528 -0.3161  0.1280  0.1203
   25TMC2    H5  402   4.679   1.806  11.527 -0.6599  0.4984  0.9885
   26MPD2     C  403   0.644   1.164  11.491 -0.1345 -0.3433 -0.0906
   26MPD2    C1  404   0.559   1.121  11.588 -0.4176  0.3274 -0.2198
   26MPD2    C2  405   0.473   1.212  11.648  0.1100  0.0392 -0.5270
   26MPD2    C3  406   0.459   1.343  11.606  0.2342 -0.2133  0.1184
   26MPD2    C4  407   0.541   1.382  11.498 -0.6115 -0.4320 -0.2305
   26MPD2    C5  408   0.635   1.295  11.449 -0.7824  0.8946 -0.3128
   26MPD2     H  409   0.407   1.188  11.731  0.9796 -0.3070  0.0701
   26MPD2    H1  410   0.525   1.475  11.444  0.3775  1.2781  2.4403
   26MPD2    H2  411   0.708   1.088  11.448 -0.1048  1.5990 -3.4570
   26MPD2    H3  412   0.697   1.320  11.364 -0.8430  0.4628 -0.4809
   26MPD2     N  413   0.358   1.423  11.659  0.2880  0.5420  0.1798
   26MPD2    H5  414   0.294   1.383  11.727  1.2704  0.5430  1.0986
   26MPD2    N1  415   0.571   0.989  11.631  0.0926  0.2713  0.2527
   26MPD2    H7  416   0.649   0.939  11.589 -0.2071 -0.2712  0.3371
   27TMC2    C1  417   4.219   2.857  12.032  0.2037 -0.4848 -0.3456
   27TMC2    C2  418   4.135   2.909  11.944  0.1580 -0.7191  0.2786
   27TMC2    C3  419   4.082   3.029  11.985 -0.2921  0.3249 -0.4139
   27TMC2    C4  420   4.281   2.930  12.132  0.1731  1.0314 -0.2487
   27TMC2    C5  421   4.226   3.052  12.165  0.1912  0.0973  0.0513
   27TMC2    C6  422   4.121   3.105  12.092 -0.3981 -0.1425  0.3656
   27TMC2     C  423   4.267   2.726  12.005  0.0315  0.1014  0.2144
   27TMC2     O  424   4.294   2.697  11.889 -0.0702  0.4163  0.3574
   27TMC2     H  425   4.086   2.848  11.870  0.2467 -0.2139 -0.1951
   27TMC2    H1  426   4.353   2.879  12.194 -0.6753  1.4013  1.0348
   27TMC2    H2  427   4.083   3.205  12.106  1.1521  0.5479 -0.3770
   27TMC2    C7  428   4.240   3.082  12.304 -0.1097  0.6828  0.0925
   27TMC2    C8  429   3.952   3.059  11.939 -0.6582 -0.3021  0.1345
   27TMC2    O1  430   4.302   3.003  12.373  0.3554 -0.2531  0.7345
   27TMC2    O2  431   3.907   3.015  11.835  0.2555  0.3352 -0.2457
   27TMC2    O5  432   3.874   3.079  12.052  0.4597 -0.1678 -0.4402
   27TMC2    H5  433   3.923   3.054  12.134 -2.6981 -1.3158  1.1237
   28MPD2     C  434   4.172   2.658  12.510 -0.5629  0.1274  0.8373
   28MPD2    C1  435   4.090   2.730  12.426  0.3996 -0.2740  0.5628
   28MPD2    C2  436   4.116   2.720  12.291 -0.6772  0.3863 -0.9431
   28MPD2    C3  437   4.228   2.652  12.249  0.0858  0.5317 -0.5837
   28MPD2    C4  438   4.297   2.570  12.338  0.1625 -0.2959  0.8112
   28MPD2    C5  439   4.259   2.563  12.466 -0.4099  0.5030  0.6464
   28MPD2     H  440   4.046   2.769  12.224 -0.8674 -1.6963 -2.2782
   28MPD2    H1  441   4.390   2.522  12.309 -0.5760 -1.6628  0.7392
   28MPD2    H2  442   4.149   2.654  12.616 -1.4629 -1.6047  0.5890
   28MPD2    H3  443   4.316   2.496  12.529 -0.2502 -0.5845 -0.6484
   28MPD2     N  444   4.283   2.644  12.117 -0.5255  0.4385 -0.0988
   28MPD2    H5  445   4.340   2.563  12.099 -1.0962 -0.1407  0.7024
   28MPD2    N1  446   3.991   2.812  12.479 -0.4802  0.0273 -0.3786
   28MPD2    H7  447   3.977   2.803  12.579  1.6579  1.6799  0.0773
   29TMC2    C1  448   4.222   0.703  14.180 -0.7720  0.2304 -0.1234
   29TMC2    C2  449   4.343   0.643  14.217  0.4493  0.5988 -0.4479
   29TMC2    C3  450   4.399   0.685  14.335  0.0978 -0.7422  0.1894
   29TMC2    C4  451   4.182   0.815  14.239 -0.4120  0.3612  0.1946
   29TMC2    C5  452   4.241   0.865  14.351  0.2460 -0.4761  0.0218
   29TMC2    C6  453   4.347   0.798  14.402 -0.1182 -0.7489 -0.4183
   29TMC2     C  454   4.153   0.646  14.067 -0.3071 -0.5917  0.3973
   29TMC2     O  455   4.223   0.585  13.986 -0.3653 -0.1288 -0.4536
   29TMC2     H  456   4.383   0.561  14.157  2.0329  2.2374 -1.6294
   29TMC2    H1  457   4.084   0.850  14.208 -2.0589 -4.6396 -0.2926
   29TMC2    H2  458   4.384   0.811  14.504 -2.0902  0.4547  0.1398
   29TMC2    C7  459   4.171   0.961  14.435 -0.1705 -0.0673 -0.3758
   29TMC2    C8  460   4.497   0.599  14.410 -0.9611 -0.1507  0.4158
   29TMC2    O1  461   4.057   0.976  14.391 -0.1525  0.5478  0.1545
   29TMC2    O2  462   4.553   0.634  14.511 -0.5221  0.2059  0.1562
   29TMC2    O5  463   4.482   0.470  14.369  0.0839  0.4663 -0.0709
   29TMC2    H5  464   4.419   0.450  14.296  0.5487  0.1549 -0.3877
   30MPD2     C  465   3.728   0.479  13.832  0.7669 -0.2361  0.0009
   30MPD2    C1  466   3.862   0.432  13.832  0.9389 -0.5439  0.2782
   30MPD2    C2  467   3.955   0.496  13.906  0.8663  0.1837 -0.0435
   30MPD2    C3  468   3.919   0.593  14.000 -0.0804  0.7111  0.0215
   30MPD2    C4  469   3.787   0.631  14.015 -0.1691  0.0226 -0.1532
   30MPD2    C5  470   3.695   0.566  13.936 -0.2150  0.0067  0.0320
   30MPD2     H  471   4.056   0.456  13.906  1.2650  1.1916  0.6525
   30MPD2    H1  472   3.760   0.711  14.083 -2.1844 -0.8003  0.0240
   30MPD2    H2  473   3.646   0.436  13.775  0.3933  1.5399 -0.7921
   30MPD2    H3  474   3.590   0.589  13.950  0.4248  1.1970  2.7476
   30MPD2     N  475   4.013   0.655  14.081  0.3365 -0.6091  0.0491
   30MPD2    H5  476   3.979   0.690  14.170  0.2771  1.4110 -0.7738
   30MPD2    N1  477   3.907   0.310  13.774 -0.0594 -0.0638  0.2956
   30MPD2    H7  478   4.006   0.288  13.780  0.4108  2.6867  2.3175
   31TMC2    C1  479   1.649   4.090  15.387 -0.0824 -0.2759 -0.0461
   31TMC2    C2  480   1.512   4.082  15.391  0.4996 -0.2966  0.3082
   31TMC2    C3  481   1.452   4.083  15.512  0.1671 -0.1393  0.8890
   31TMC2    C4  482   1.731   4.081  15.500 -0.1890  0.3552  0.2462
   31TMC2    C5  483   1.661   4.065  15.617  0.2576 -0.2038 -0.1854
   31TMC2    C6  484   1.529   4.067  15.626 -0.5107 -0.3816  0.2381
   31TMC2     C  485   1.697   4.136  15.260  0.4791 -0.4259  0.4555
   31TMC2     O  486   1.618   4.197  15.189 -0.4520 -0.1343  0.0392
   31TMC2     H  487   1.457   4.083  15.298  0.4887 -0.4728  0.3130
   31TMC2    H1  488   1.838   4.090  15.488 -0.1372 -0.7136 -0.0756
   31TMC2    H2  489   1.477   4.063  15.721 -2.4352  0.6273 -0.7621
   31TMC2    C7  490   1.730   4.020  15.734  0.2443 -0.3329 -0.0430
   31TMC2    C8  491   1.321   4.119  15.524  0.5762 -0.1372 -0.5575
   31TMC2    O1  492   1.836   3.969  15.703  0.2100  0.4247  0.2682
   31TMC2    O2  493   1.256   4.122  15.628 -0.7870  0.3181 -0.2914
   31TMC2    O5  494   1.270   4.175  15.413  0.0138 -0.1858 -0.1342
   31TMC2    H5  495   1.343   4.202  15.353 -1.7031 -0.3605 -2.3059
   32MPD2     C  496   2.069   4.223  14.931  0.4248  0.4693  0.1447
   32MPD2    C1  497   1.942   4.273  14.934  0.0062 -0.5440  0.3214
   32MPD2    C2  498   1.857   4.240  15.042  0.0715 -0.3185 -0.2994
   32MPD2    C3  499   1.907   4.159  15.139 -0.8433 -0.1372 -0.1951
   32MPD2    C4  500   2.037   4.114  15.137  0.3130 -0.0935 -0.0221
   32MPD2    C5  501   2.120   4.154  15.037 -0.3517  0.0956  0.0914
   32MPD2     H  502   1.756   4.280  15.044  0.6205  1.2155 -3.0368
   32MPD2    H1  503   2.073   4.057  15.222 -1.3104  0.4853  1.0495
   32MPD2    H2  504   2.142   4.250  14.856 -0.8540  1.2029 -0.8387
   32MPD2    H3  505   2.220   4.114  15.037 -0.1070  0.6984 -1.1760
   32MPD2     N  506   1.829   4.111  15.246  0.4745 -0.1783 -0.5811
   32MPD2    H5  507   1.872   4.061  15.323 -0.3412 -0.5650 -0.3731
   32MPD2    N1  508   1.909   4.353  14.821 -0.5321 -0.3534 -0.7351
   32MPD2    H7  509   1.989   4.368  14.760  0.9531 -0.2238  1.2672
   33TMC2    C1  510   1.298   2.834  10.237 -0.0059 -0.3134 -0.3695
   33TMC2    C2  511   1.209   2.782  10.145 -0.0763 -0.1568  0.1742
   33TMC2    C3  512   1.198   2.858  10.033  0.2269 -0.0202 -0.5849
   33TMC2    C4  513   1.367   2.950  10.220  0.6218 -0.2866  0.2559
   33TMC2    C5  514   1.345   3.015  10.104  0.6738 -0.2793  0.5699
   33TMC2    C6  515   1.261   2.975  10.008  0.4596  0.2483  0.3005
   33TMC2     C  516   1.330   2.752  10.351  0.2649  0.3183  0.0766
   33TMC2     O  517   1.240   2.677  10.389  0.5038 -0.2314  0.5815
   33TMC2     H  518   1.149   2.700  10.182 -0.0385  0.0758  0.7539
   33TMC2    H1  519   1.421   3.004  10.297  1.9280 -0.0740 -0.8176
   33TMC2    H2  520   1.266   3.022   9.911 -0.2049 -1.7440 -0.6912
   33TMC2    C7  521   1.449   3.109  10.065 -0.4298  0.2628  0.2318
   33TMC2    C8  522   1.104   2.814   9.927 -0.4693 -0.4811  0.6127
   33TMC2    O1  523   1.559   3.108  10.118 -0.1663 -0.1447  0.2800
   33TMC2    O2  524   1.055   2.887   9.846 -0.7569 -0.2763  0.3502
   33TMC2    O5  525   1.026   2.725   9.990 -0.7325 -0.0311 -0.0100
   33TMC2    H5  526   1.072   2.664  10.052 -0.8681 -0.8479 -0.7010
   34MPD2     C  527   1.588   2.692  10.793 -0.5332  0.2053 -0.4689
   34MPD2    C1  528   1.455   2.664  10.756  0.6600 -0.4319 -0.1236
   34MPD2    C2  529   1.412   2.689  10.631 -0.8784 -0.8290  0.4127
   34MPD2    C3  530   1.493   2.737  10.529 -0.4828  0.3773 -0.3357
   34MPD2    C4  531   1.620   2.769  10.566 -0.3778  0.2609 -0.0059
   34MPD2    C5  532   1.670   2.732  10.693  0.0248 -0.9355  0.0134
   34MPD2     H  533   1.307   2.689  10.606 -0.4877 -1.9584 -1.2828
   34MPD2    H1  534   1.685   2.815  10.492 -2.3659 -0.2816 -2.0909
   34MPD2    H2  535   1.620   2.675  10.895  0.1668  1.7661 -0.4325
   34MPD2    H3  536   1.772   2.760  10.713 -0.4635  1.6815 -1.1132
   34MPD2     N  537   1.451   2.778  10.403 -0.6733  0.2871  0.1104
   34MPD2    H5  538   1.516   2.832  10.346  0.2318 -0.1743  0.6939
   34MPD2    N1  539   1.366   2.606  10.849 -0.1025  0.4685  0.6894
   34MPD2    H7  540   1.393   2.610  10.946  1.6784 -2.8494  0.3164
   35TMC2    C1  541   2.756   3.601  11.567 -0.5665  0.4147  0.3812
   35TMC2    C2  542   2.672   3.688  11.497 -0.6976 -0.0588 -0.1340
   35TMC2    C3  543   2.542   3.709  11.539  0.1952 -0.0644 -0.3151
   35TMC2    C4  544   2.706   3.541  11.684 -0.6922 -0.0835 -0.3624
   35TMC2    C5  545   2.581   3.570  11.728 -0.7589  0.2553  0.6174
   35TMC2    C6  546   2.497   3.656  11.655 -0.0565 -0.3145  0.4295
   35TMC2     C  547   2.892   3.587  11.518 -0.4147  0.7690 -0.1730
   35TMC2     O  548   2.913   3.651  11.415 -0.2160 -0.1419  0.3486
   35TMC2     H  549   2.702   3.743  11.409  0.2050  1.5676  1.1930
   35TMC2    H1  550   2.775   3.475  11.735 -4.3843 -2.6034  1.3904
   35TMC2    H2  551   2.398   3.672  11.697  0.3992  1.9341  0.6245
   35TMC2    C7  552   2.513   3.495  11.833 -0.1492  1.2787  0.0731
   35TMC2    C8  553   2.453   3.807  11.486  0.1830  0.0301  0.3116
   35TMC2    O1  554   2.392   3.473  11.816 -0.1760  0.3750  0.2538
   35TMC2    O2  555   2.355   3.846  11.545 -0.5042 -0.6472  0.3813
   35TMC2    O5  556   2.470   3.801  11.353  0.4329  0.5864 -0.0541
   35TMC2    H5  557   2.528   3.736  11.308  2.1225  2.1128 -0.1048
   36MPD2     C  558   3.333   3.336  11.504 -0.7215  0.1242 -0.0320
   36MPD2    C1  559   3.265   3.307  11.621 -0.1806 -0.8579 -0.7042
   36MPD2    C2  560   3.144   3.366  11.650  0.4177  0.0625  1.2050
   36MPD2    C3  561   3.089   3.448  11.557 -0.1742 -0.4826  0.3098
   36MPD2    C4  562   3.151   3.474  11.439  0.3898 -0.2921  0.4871
   36MPD2    C5  563   3.283   3.428  11.415 -0.0365  0.1755 -0.5538
   36MPD2     H  564   3.097   3.344  11.745 -0.1900 -0.3720  0.8067
   36MPD2    H1  565   3.098   3.515  11.354  1.8918  1.5168  0.4249
   36MPD2    H2  566   3.431   3.301  11.473  0.5094  0.6375  3.2521
   36MPD2    H3  567   3.334   3.463  11.326  0.1933 -0.7800 -0.7936
   36MPD2     N  568   2.964   3.495  11.587  0.7526  0.2348 -0.1898
   36MPD2    H5  569   2.928   3.469  11.678  0.5419 -0.8766 -0.5985
   36MPD2    N1  570   3.323   3.225  11.719  0.4553 -0.6128  0.8073
   36MPD2    H7  571   3.282   3.217  11.811 -0.4636 -1.7604  0.3013
   37TMC2    C1  572   0.079   4.021  11.758 -0.2059 -0.3208 -0.1003
   37TMC2    C2  573   0.052   4.030  11.625 -0.5876 -0.4768  1.0561
   37TMC2    C3  574   0.161   4.050  11.544 -0.3855  0.0759 -0.1688
   37TMC2    C4  575   0.197   4.065  11.816 -0.5901 -0.1778 -0.1112
   37TMC2    C5  576   0.302   4.077  11.725 -0.7462  0.2373  0.4083
   37TMC2    C6  577   0.284   4.066  11.589  0.5130 -0.0579  0.6335
   37TMC2     C  578   4.700   3.997  11.841  0.3413  0.4930 -0.4026
   37TMC2     O  579   4.589   4.024  11.801 -0.3495  0.0409 -0.4433
   37TMC2     H  580   4.693   3.995  11.590 -0.6380 -0.1440  0.8663
   37TMC2    H1  581   0.220   4.067  11.922  0.9989 -0.9616 -0.4501
   37TMC2    H2  582   0.360   4.090  11.516 -0.2150  1.2875  0.3143
   37TMC2    C7  583   0.434   4.118  11.779  0.3842  0.5084  0.3050
   37TMC2    C8  584   0.146   4.054  11.399  0.4754  0.2635 -0.2849
   37TMC2    O1  585   0.473   4.066  11.886 -0.0011  0.3948  0.0841
   37TMC2    O2  586   0.235   4.009  11.328  0.3324  0.0580  0.1068
   37TMC2    O5  587   0.016   4.038  11.372  0.1261 -0.5129 -0.5235
   37TMC2    H5  588   4.701   4.119  11.393 -1.7078 -2.1313  1.1061
   38MPD2     C  589   4.452   3.821  12.258  0.1414 -0.8116  0.5654
   38MPD2    C1  590   4.573   3.768  12.250  0.4112 -0.0080 -0.0188
   38MPD2    C2  591   4.668   3.824  12.163 -0.2242 -0.5403 -0.5110
   38MPD2    C3  592   4.630   3.914  12.064 -0.3551 -0.1346 -0.3922
   38MPD2    C4  593   4.495   3.953  12.069 -0.2893 -0.0672  0.8432
   38MPD2    C5  594   4.406   3.912  12.170 -0.1970  0.1142 -0.3584
   38MPD2     H  595   0.031   3.783  12.165  0.0448  0.1020 -1.3001
   38MPD2    H1  596   4.453   4.014  11.990 -0.8908  0.5840  1.6722
   38MPD2    H2  597   4.379   3.776  12.325 -1.0243 -0.0363 -0.1946
   38MPD2    H3  598   4.312   3.961  12.192 -0.2723  0.1215 -0.7001
   38MPD2     N  599   4.725   3.956  11.965  0.0870 -0.7262  0.9587
   38MPD2    H5  600   0.084   3.927  11.974  0.2724  0.4434  2.7593
   38MPD2    N1  601   4.630   3.673  12.332  0.6379 -0.1273  0.3360
   38MPD2    H7  602   4.729   3.655  12.321  0.8553  0.0757  1.9162
   39TMC2    C1  603   3.738   0.909   1.204  0.2270  0.3810  0.5260
   39TMC2    C2  604   3.645   1.006   1.199  0.2181 -0.1149  0.4088
   39TMC2    C3  605   3.661   1.106   1.296 -0.7312 -0.1732 -0.0945
   39TMC2    C4  606   3.849   0.908   1.289  0.4365 -0.4890 -0.1045
   39TMC2    C5  607   3.867   1.010   1.371  0.3924  0.1072 -0.2595
   39TMC2    C6  608   3.774   1.112   1.382  0.2880 -0.0715  0.2087
   39TMC2     C  609   3.701   0.786   1.134 -0.2092  0.1301 -0.0083
   39TMC2     O  610   3.589   0.765   1.092 -0.7483  0.1158 -0.2269
   39TMC2     H  611   3.564   0.999   1.127  0.3273  1.1488  0.1579
   39TMC2    H1  612   3.924   0.830   1.292 -0.5113 -1.3478  1.8702
   39TMC2    H2  613   3.791   1.199   1.444 -2.5644  2.4062 -2.4573
   39TMC2    C7  614   4.000   1.015   1.425  0.6818  0.5009 -0.1179
   39TMC2    C8  615   3.547   1.203   1.320 -0.6646  0.4310 -1.0784
   39TMC2    O1  616   4.074   0.918   1.405 -0.2123  0.0833 -0.4179
   39TMC2    O2  617   3.433   1.192   1.286 -0.9083  0.0529  0.2723
   39TMC2    O5  618   3.597   1.308   1.382 -0.0583 -0.5909 -0.2831
   39TMC2    H5  619   3.691   1.324   1.355 -0.4952  3.4107  0.4797
   40MPD2     C  620   3.894   0.474   1.099 -0.8454  0.2773  0.2527
   40MPD2    C1  621   3.779   0.552   1.106 -0.1032 -0.2494  0.5923
   40MPD2    C2  622   3.658   0.485   1.107 -0.0325 -0.1400 -0.4829
   40MPD2    C3  623   3.643   0.353   1.076 -0.2739 -0.8097 -0.1967
   40MPD2    C4  624   3.755   0.289   1.043  0.7061 -0.3373 -0.8794
   40MPD2    C5  625   3.885   0.340   1.065 -0.9214 -0.4881  0.3156
   40MPD2     H  626   3.568   0.537   1.140 -0.7513 -1.0842 -0.9623
   40MPD2    H1  627   3.748   0.182   1.023 -2.0346 -0.8328  2.7145
   40MPD2    H2  628   3.991   0.517   1.122 -0.8070 -1.3717  3.0906
   40MPD2    H3  629   3.972   0.276   1.055 -1.0934 -0.7906  0.7815
   40MPD2     N  630   3.521   0.275   1.075  0.5421  0.2925  0.2132
   40MPD2    H5  631   3.533   0.182   1.035  1.0328  0.1437  0.7089
   40MPD2    N1  632   3.799   0.689   1.136  0.1013 -0.0035  0.0640
   40MPD2    H7  633   3.890   0.725   1.162  0.0241 -1.4869  2.3434
   41TMC2    C1  634   1.830   3.796  14.062 -0.0952  0.0231 -0.1731
   41TMC2    C2  635   1.772   3.857  13.954  0.0266 -0.2546 -0.2912
   41TMC2    C3  636   1.801   3.811  13.827 -0.9532 -0.1563 -0.3175
   41TMC2    C4  637   1.910   3.689  14.044 -0.3028 -0.5595 -0.0468
   41TMC2    C5  638   1.950   3.661  13.919 -0.1584 -1.0766 -0.2588
   41TMC2    C6  639   1.902   3.722  13.804 -0.0729  0.3809  0.2164
   41TMC2     C  640   1.782   3.851  14.187  0.4857  0.5145 -0.6973
   41TMC2     O  641   1.697   3.937  14.184  0.0915 -0.2906  0.2697
   41TMC2     H  642   1.714   3.947  13.964  3.3341  1.8067  0.4568
   41TMC2    H1  643   1.952   3.637  14.129 -0.6275 -1.4193 -0.4139
   41TMC2    H2  644   1.910   3.677  13.705  2.2755 -0.7319  0.9148
   41TMC2    C7  645   2.061   3.574  13.895  0.5409 -0.9060  0.2698
   41TMC2    C8  646   1.722   3.830  13.709  0.4753 -0.8026  0.0790
   41TMC2    O1  647   2.085   3.495  13.986  0.2510  0.2648  0.2654
   41TMC2    O2  648   1.778   3.839  13.598  0.6599 -0.8023  0.3652
   41TMC2    O5  649   1.607   3.770  13.730 -0.1313 -0.0791  0.3870
   41TMC2    H5  650   1.595   3.736  13.821  0.1184 -0.3101  0.3336
   42MPD2     C  651   1.789   3.975  14.461  0.0332  0.4636 -0.3114
   42MPD2    C1  652   1.881   3.891  14.410  0.2779 -0.6585  0.1254
   42MPD2    C2  653   1.990   3.852  14.497 -0.2920  0.0352 -0.7676
   42MPD2    C3  654   1.998   3.908  14.622  0.0274  0.6406  0.6111
   42MPD2    C4  655   1.896   3.987  14.666 -0.0203 -0.5267 -0.1859
   42MPD2    C5  656   1.796   4.027  14.588 -0.2462  0.0132 -0.1401
   42MPD2     H  657   2.049   3.769  14.459  0.6701  1.0015 -1.3773
   42MPD2    H1  658   1.910   4.031  14.765  1.3422 -0.8287 -0.2405
   42MPD2    H2  659   1.692   3.985  14.413  0.0945  3.9820  0.3125
   42MPD2    H3  660   1.717   4.095  14.616 -0.3461 -0.4621  0.7322
   42MPD2     N  661   2.106   3.882  14.714  0.1905  0.4013 -0.0316
   42MPD2    H5  662   2.106   3.937  14.799 -0.4742 -1.1860  0.9900
   42MPD2    N1  663   1.878   3.829  14.282  0.4316  0.2835 -0.4989
   42MPD2    H7  664   1.961   3.777  14.257 -0.9527 -2.0458 -0.1862
   43TMC2    C1  665   4.416   1.712   0.808  0.1249 -0.6516  0.3689
   43TMC2    C2  666   4.337   1.773   0.710  0.8209 -0.3746 -0.4244
   43TMC2    C3  667   4.287   1.897   0.751 -0.0288 -0.0172 -0.1682
   43TMC2    C4  668   4.447   1.768   0.927 -0.0918 -0.2068 -0.6996
   43TMC2    C5  669   4.388   1.881   0.966 -0.4867 -0.5597  0.4655
   43TMC2    C6  670   4.304   1.948   0.877  0.6024 -0.2467  0.8524
   43TMC2     C  671   4.495   1.598   0.768 -0.8539 -1.0306  0.0544
   43TMC2     O  672   4.606   1.585   0.818 -0.6945 -0.5016  0.0225
   43TMC2     H  673   4.331   1.732   0.610  0.9385 -0.2290 -0.4915
   43TMC2    H1  674   4.517   1.720   0.994  0.3984  2.8723  1.0033
   43TMC2    H2  675   4.275   2.048   0.904 -0.2733 -0.7835  1.9050
   43TMC2    C7  676   4.456   1.954   1.062  0.5803  0.5851 -0.2015
   43TMC2    C8  677   4.186   1.952   0.660 -0.0166  0.6154  0.2396
   43TMC2    O1  678   4.569   1.912   1.084  0.1099  0.1366  0.0135
   43TMC2    O2  679   4.073   1.986   0.685 -0.0085 -0.7400  0.6044
   43TMC2    O5  680   4.263   1.994   0.558  0.8410 -0.1126 -0.6731
   43TMC2    H5  681   4.355   1.964   0.573  0.8808  0.4927  0.2910
   44MPD2     C  682   4.569   1.259   0.403  0.2841 -0.8320  0.4176
   44MPD2    C1  683   4.656   1.337   0.479 -0.3639  0.7774  0.5343
   44MPD2    C2  684   4.607   1.418   0.584  0.4916  0.5188 -0.6865
   44MPD2    C3  685   4.470   1.439   0.596  0.1438  0.9846 -0.3790
   44MPD2    C4  686   4.384   1.368   0.517 -0.0697 -0.0882 -0.3000
   44MPD2    C5  687   4.433   1.284   0.426  0.5866 -0.1616  0.3353
   44MPD2     H  688   4.681   1.477   0.639  0.5007 -0.1690  0.0337
   44MPD2    H1  689   4.277   1.384   0.520  0.1577  1.6005 -1.3672
   44MPD2    H2  690   4.602   1.185   0.332  0.7219 -0.2409  0.0076
   44MPD2    H3  691   4.358   1.231   0.368 -0.2689  1.2393  0.1631
   44MPD2     N  692   4.414   1.527   0.685 -0.5762  0.8256 -0.5091
   44MPD2    H5  693   4.318   1.555   0.666 -1.0956 -0.5201  0.1295
   44MPD2    N1  694   0.051   1.310   0.449 -0.4427  0.0500 -0.3926
   44MPD2    H7  695   0.079   1.252   0.371  2.6728 -1.1420  1.6092
   45TMC2    C1  696   4.575   4.099  10.001  0.4518 -0.4237  0.1834
   45TMC2    C2  697   4.465   4.150   9.939  1.0450  0.3326 -0.4898
   45TMC2    C3  698   4.461   4.287   9.919  0.6348 -0.5989 -0.3036
   45TMC2    C4  699   4.665   4.176  10.062 -0.3765 -0.4522 -0.3317
   45TMC2    C5  700   4.653   4.310  10.055  0.2734  0.2259  0.2161
   45TMC2    C6  701   4.554   4.365   9.977 -0.2279 -0.3719  0.5631
   45TMC2     C  702   4.591   3.954  10.007 -0.7416 -0.4233  0.2448
   45TMC2     O  703   4.690   3.919  10.072 -0.2370  0.0069  0.2406
   45TMC2     H  704   4.401   4.090   9.874  0.3405  0.5243  0.0360
   45TMC2    H1  705   4.728   4.132  10.139  2.0552  3.6592 -0.0080
   45TMC2    H2  706   4.549   4.474   9.982 -1.1497 -0.4079  0.5350
   45TMC2    C7  707   0.014   4.384  10.124  0.7902 -0.0559  0.8977
   45TMC2    C8  708   4.383   4.330   9.804  0.1737 -0.6027 -0.3809
   45TMC2    O1  709   0.080   4.328  10.211  0.4241 -0.0593 -0.0877
   45TMC2    O2  710   4.285   4.269   9.755  0.1964  0.3211 -0.1276
   45TMC2    O5  711   4.439   4.446   9.759 -0.1045  0.6216 -0.4205
   45TMC2    H5  712   4.514   4.476   9.816 -0.1197 -2.4521  1.2538
   46MPD2     C  713   4.577   3.653  10.059 -0.2178 -0.5754  0.0915
   46MPD2    C1  714   4.475   3.735  10.022  0.1299 -0.4239 -0.1958
   46MPD2    C2  715   4.353   3.677  10.019 -0.3914  0.1972  0.8709
   46MPD2    C3  716   4.329   3.554  10.062 -0.3590 -0.4168 -0.7894
   46MPD2    C4  717   4.432   3.472  10.104 -0.6075  0.8248 -0.3264
   46MPD2    C5  718   4.552   3.527  10.108 -0.3435  0.7241 -0.3749
   46MPD2     H  719   4.261   3.733  10.007 -1.6505 -2.2773 -0.9253
   46MPD2    H1  720   4.411   3.371  10.138  0.5719 -0.0119 -2.0564
   46MPD2    H2  721   4.682   3.680  10.071  0.0415 -1.3990 -0.2973
   46MPD2    H3  722   4.629   3.455  10.133 -1.8110 -0.7372  0.0108
   46MPD2     N  723   4.196   3.509  10.058 -0.4648 -0.0925 -0.5893
   46MPD2    H5  724   4.135   3.572  10.007 -1.4904 -0.4050  0.2611
   46MPD2    N1  725   4.479   3.877   9.990 -0.4758  0.6355 -0.0633
   46MPD2    H7  726   4.392   3.924   9.967  0.1678  1.9395  0.1648
   47TMC2    C1  727   1.879   4.534   9.820  0.2888  0.2866 -0.9286
   47TMC2    C2  728   1.959   4.643   9.839 -0.1933  0.0829 -0.3400
   47TMC2    C3  729   1.941   4.715   9.951 -0.2572  0.3567  0.0483
   47TMC2    C4  730   1.785   4.497   9.912 -0.1198 -0.3619 -0.4718
   47TMC2    C5  731   1.762   4.577  10.021  0.2140  0.0035  0.3128
   47TMC2    C6  732   1.840   4.686  10.040  0.3403 -0.2950  0.3480
   47TMC2     C  733   1.875   4.458   9.695  0.7946 -0.5737  0.2901
   47TMC2     O  734   1.770   4.392   9.674 -0.5125  0.0163 -0.6160
   47TMC2     H  735   2.030   4.677   9.765 -0.8204  1.1733 -0.4269
   47TMC2    H1  736   1.736   4.404   9.889 -0.2775  0.0314 -1.7409
   47TMC2    H2  737   1.835   4.737  10.136  0.1831  1.1798 -0.4433
   47TMC2    C7  738   1.639   4.573  10.091  0.2134  0.8022 -0.0671
   47TMC2    C8  739   2.013   0.098   9.950 -1.3506 -0.1295 -0.3014
   47TMC2    O1  740   1.623   4.674  10.161 -0.1518 -0.3818 -0.2688
   47TMC2    O2  741   2.116   0.105   9.885  0.3430  0.1796 -0.0094
   47TMC2    O5  742   1.940   0.208   9.988  0.5783 -0.0466 -0.1285
   47TMC2    H5  743   1.845   0.188  10.001  0.3390  0.6345 -0.8420
   48MPD2     C  744   1.949   4.305   9.447 -0.7837 -0.6407 -0.2472
   48MPD2    C1  745   2.041   4.369   9.532 -0.1718 -0.3799 -0.3859
   48MPD2    C2  746   2.168   4.361   9.489 -0.0212 -0.6384 -0.1530
   48MPD2    C3  747   2.207   4.298   9.369 -0.1447 -0.1059  0.7254
   48MPD2    C4  748   2.107   4.268   9.278 -0.2920  0.1038  0.6655
   48MPD2    C5  749   1.977   4.260   9.321 -0.2852  0.3381 -0.1045
   48MPD2     H  750   2.255   4.398   9.542 -0.2121  0.7510 -0.8251
   48MPD2    H1  751   2.128   4.231   9.178  0.2163 -1.0957  1.2140
   48MPD2    H2  752   1.845   4.307   9.477 -0.4941 -0.8293  0.7926
   48MPD2    H3  753   1.894   4.220   9.264  1.0775 -2.1840 -0.2995
   48MPD2     N  754   2.342   4.268   9.348 -0.0519 -0.3600 -0.4619
   48MPD2    H5  755   2.410   4.318   9.403 -0.6929 -0.1008  0.1008
   48MPD2    N1  756   2.001   4.444   9.645  0.4192  0.1833 -0.6757
   48MPD2    H7  757   2.078   4.483   9.700  0.9204 -2.9031  0.7809
   49TMC2    C1  758   1.070   2.278  10.114  0.3228  0.5649  0.3905
   49TMC2    C2  759   1.064   2.160  10.189  0.5966 -0.8446 -0.3178
   49TMC2    C3  760   1.158   2.075  10.147  0.1040 -1.3676 -0.5601
   49TMC2    C4  761   1.144   2.295  10.001 -0.3567 -0.4499 -0.0042
   49TMC2    C5  762   1.236   2.198   9.974  0.1878 -0.2327  0.0323
   49TMC2    C6  763   1.243   2.084  10.042  0.3715 -0.2853 -0.2784
   49TMC2     C  764   1.009   2.393  10.172  0.0163  0.7023  0.6037
   49TMC2     O  765   1.050   2.501  10.127 -0.1739  0.1001 -0.0702
   49TMC2     H  766   1.017   2.156  10.286  0.2930  1.2681 -0.3784
   49TMC2    H1  767   1.149   2.389   9.946  0.9015  0.4827  1.6987
   49TMC2    H2  768   1.321   2.011  10.022  0.7640  0.5623 -1.8275
   49TMC2    C7  769   1.307   2.208   9.855  0.7326 -0.9538 -0.8193
   49TMC2    C8  770   1.167   1.953  10.225  0.9357 -0.3486  0.6239
   49TMC2    O1  771   1.262   2.261   9.758 -0.0733 -0.9031  0.0033
   49TMC2    O2  772   1.122   1.928  10.335 -0.0655 -0.5807  0.5754
   49TMC2    O5  773   1.169   1.858  10.133 -0.2678  0.5898  0.3039
   49TMC2    H5  774   1.193   1.884  10.041  1.2259 -0.1495  0.4774
   50MPD2     C  775   0.822   2.611  10.273 -0.8605  0.4068 -0.4421
   50MPD2    C1  776   0.814   2.472  10.303 -0.1983  0.8077  0.1836
   50MPD2    C2  777   0.726   2.426  10.396 -0.0769 -0.4762 -0.0273
   50MPD2    C3  778   0.637   2.509  10.461  0.0435 -0.1110 -0.3966
   50MPD2    C4  779   0.642   2.643  10.436 -0.4379 -0.2281 -0.2991
   50MPD2    C5  780   0.733   2.690  10.341  0.6045  0.2818 -0.1733
   50MPD2     H  781   0.708   2.320  10.406  1.8029 -0.6337  1.6282
   50MPD2    H1  782   0.576   2.706  10.494  0.0588  0.9946 -1.0700
   50MPD2    H2  783   0.902   2.661  10.219 -0.5442 -0.4615 -0.7826
   50MPD2    H3  784   0.747   2.796  10.323 -0.9882  0.1872 -1.9741
   50MPD2     N  785   0.550   2.469  10.565  0.3383 -0.3557  0.1121
   50MPD2    H5  786   0.488   2.536  10.608 -0.5486 -1.2896  0.2882
   50MPD2    N1  787   0.899   2.365  10.249  0.0729  0.0575 -0.3150
   50MPD2    H7  788   0.873   2.270  10.272 -1.5051  0.5375 -0.1235
   51TMC2    C1  789   0.951   0.353   1.280 -0.6903 -0.1357 -0.1266
   51TMC2    C2  790   0.861   0.457   1.294 -0.2434 -0.6498  0.1830
   51TMC2    C3  791   0.907   0.576   1.245 -1.1726 -0.5475 -0.0189
   51TMC2    C4  792   1.071   0.369   1.220 -0.6393 -0.6486 -0.8711
   51TMC2    C5  793   1.116   0.491   1.179 -0.3281  0.9250 -0.1787
   51TMC2    C6  794   1.031   0.598   1.191  0.0221 -0.0627 -0.0737
   51TMC2     C  795   0.896   0.216   1.289 -0.2077 -0.0900 -0.6385
   51TMC2     O  796   0.790   0.194   1.353 -0.0746 -0.4020 -0.5233
   51TMC2     H  797   0.761   0.448   1.337 -0.3406 -0.9569 -0.1017
   51TMC2    H1  798   1.145   0.290   1.214  0.9356  0.8250 -0.7795
   51TMC2    H2  799   1.052   0.696   1.148  1.0836 -0.3771 -0.2523
   51TMC2    C7  800   1.254   0.511   1.164  0.0935 -0.3292  0.0522
   51TMC2    C8  801   0.834   0.705   1.265 -0.3472  0.1383  0.0312
   51TMC2    O1  802   1.324   0.419   1.121  0.3318 -0.1551 -0.0138
   51TMC2    O2  803   0.858   0.807   1.200 -0.2868 -0.3104  0.1225
   51TMC2    O5  804   0.725   0.684   1.343  0.2319  0.2139 -0.1499
   51TMC2    H5  805   0.727   0.608   1.405  0.0785  0.6704  0.4152
   52MPD2     C  806   0.929   4.468   1.177  0.2419  0.1729  0.1183
   52MPD2    C1  807   1.025   4.532   1.106 -0.4077 -0.9509  0.5968
   52MPD2    C2  808   1.021   4.665   1.108  0.1724  0.3108 -0.1541
   52MPD2    C3  809   0.929   0.000   1.180 -0.6579 -0.4339  0.4280
   52MPD2    C4  810   0.840   4.672   1.256 -0.0497  0.2410 -0.2080
   52MPD2    C5  811   0.834   4.536   1.247 -0.3064 -0.1684  0.1739
   52MPD2     H  812   1.103   4.714   1.057 -0.1879 -0.6981 -1.7208
   52MPD2    H1  813   0.758   4.717   1.310  1.9849  1.1588  2.0972
   52MPD2    H2  814   0.935   4.360   1.189  0.5855  0.0798 -0.8342
   52MPD2    H3  815   0.755   4.479   1.295  1.3241 -2.1931  0.4406
   52MPD2     N  816   0.960   0.137   1.205 -0.4350 -0.4566  0.0974
   52MPD2    H5  817   1.024   0.182   1.140  0.4999 -1.4462  0.3395
   52MPD2    N1  818   1.121   4.470   1.025 -0.3250  0.1246 -0.4214
   52MPD2    H7  819   1.177   4.536   0.973  0.8591  0.0072  0.7132
   53TMC2    C1  820   1.134   3.945  11.927 -0.3592 -0.3629  0.4561
   53TMC2    C2  821   1.263   3.897  11.898  0.5614 -0.4227 -0.6685
   53TMC2    C3  822   1.305   3.800  11.980  0.1970  0.0064 -0.9144
   53TMC2    C4  823   1.068   3.921  12.047  0.1730 -0.8601  0.2883
   53TMC2    C5  824   1.127   3.837  12.136 -0.0851 -0.0410  0.3817
   53TMC2    C6  825   1.247   3.775  12.106  0.0241 -0.7126  0.7677
   53TMC2     C  826   1.066   4.004  11.808 -0.0400  0.3396  0.4288
   53TMC2     O  827   1.127   4.005  11.702  0.2866 -0.7037 -0.1273
   53TMC2     H  828   1.317   3.919  11.807 -2.9787  0.8436 -2.4835
   53TMC2    H1  829   0.967   3.955  12.067  0.4798  0.4847 -0.3893
   53TMC2    H2  830   1.307   3.714  12.173  1.0723 -1.0328 -0.4457
   53TMC2    C7  831   1.047   3.797  12.248  0.8946  0.0053  0.4213
   53TMC2    C8  832   1.443   3.759  11.963 -0.2237 -0.0888  0.1893
   53TMC2    O1  833   0.967   3.885  12.282 -0.0363 -0.4221  0.2356
   53TMC2    O2  834   1.527   3.823  11.900  0.3538  0.4099  0.7880
   53TMC2    O5  835   1.457   3.631  12.006 -0.1906 -0.0108  0.0121
   53TMC2    H5  836   1.372   3.588  12.026 -1.2247  1.8873 -0.2519
   54MPD2     C  837   0.901   4.147  11.600  0.0911 -0.1978  0.2575
   54MPD2    C1  838   0.856   4.114  11.725 -0.3068  0.5238  0.0858
   54MPD2    C2  839   0.724   4.123  11.752 -0.2773 -0.1646  0.6844
   54MPD2    C3  840   0.631   4.183  11.659  0.3592 -0.1605 -0.5802
   54MPD2    C4  841   0.683   4.219  11.537 -0.7098 -0.5815  0.1672
   54MPD2    C5  842   0.818   4.208  11.502 -0.0690  0.1870  0.2273
   54MPD2     H  843   0.681   4.117  11.851  0.9416 -1.8278  1.1158
   54MPD2    H1  844   0.626   4.253  11.451 -1.1289 -0.6246  0.4299
   54MPD2    H2  845   1.003   4.134  11.567 -0.2424  1.5865 -1.4830
   54MPD2    H3  846   0.858   4.226  11.402 -0.4934  2.7007  0.5098
   54MPD2     N  847   0.496   4.188  11.682 -0.3935 -0.2293 -0.2194
   54MPD2    H5  848   0.445   4.214  11.598  1.3019  1.1463 -0.8363
   54MPD2    N1  849   0.939   4.051  11.825 -0.2908 -0.0869 -0.1084
   54MPD2    H7  850   0.899   4.037  11.918  1.9391 -1.4279  0.6435
   55TMC2    C1  851   2.475   1.736  17.394  0.0095  0.2336 -0.2341
   55TMC2    C2  852   2.414   1.707  17.281  0.9799 -0.0968  0.7416
   55TMC2    C3  853   2.376   1.583  17.244 -0.1002  0.7474 -0.9165
   55TMC2    C4  854   2.501   1.635  17.482  0.1587 -0.3348  0.4260
   55TMC2    C5  855   2.444   1.511  17.452 -0.7867 -0.2657 -0.0100
   55TMC2    C6  856   2.386   1.482  17.333 -0.3581 -0.0722  0.3541
   55TMC2     C  857   2.434   1.865  17.458  0.1708 -0.5250  0.5175
   55TMC2     O  858   2.311   1.883  17.454  0.0038 -0.1466 -0.1737
   55TMC2     H  859   2.382   1.794  17.225  0.8517  0.5636  1.8488
   55TMC2    H1  860   2.545   1.658  17.578 -1.4492  0.2537  1.0239
   55TMC2    H2  861   2.323   1.395  17.318  1.8176 -1.6712  0.5485
   55TMC2    C7  862   2.428   1.415  17.559  0.3547  0.3534  0.6702
   55TMC2    C8  863   2.301   1.575  17.117 -0.2478  0.3856  0.3077
   55TMC2    O1  864   2.469   1.302  17.535 -0.0202  0.3281 -0.1159
   55TMC2    O2  865   2.275   1.669  17.044  0.6897  0.3728  0.2027
   55TMC2    O5  866   2.332   1.448  17.074  0.1131  0.2886 -0.2258
   55TMC2    H5  867   2.364   1.377  17.133 -1.3841  0.3506  0.6629
   56MPD2     C  868   2.606   2.025  17.745 -0.7653  0.1343  0.5068
   56MPD2    C1  869   2.502   1.984  17.666 -0.3492 -0.0289  0.4689
   56MPD2    C2  870   2.378   2.026  17.708  0.1550  0.0351  0.0554
   56MPD2    C3  871   2.359   2.100   0.073  0.0609  0.7383 -0.8707
   56MPD2    C4  872   2.458   2.121   0.161  0.0229 -0.3987 -0.1975
   56MPD2    C5  873   2.588   2.084   0.122  0.1671 -0.3417 -0.1676
   56MPD2     H  874   2.290   1.988  17.658 -0.0984  1.3729 -0.5290
   56MPD2    H1  875   2.448   2.163   0.260  0.0684  0.7604 -0.6901
   56MPD2    H2  876   2.707   1.993  17.723 -0.4652  2.0237 -0.8705
   56MPD2    H3  877   2.668   2.107   0.191  0.6563 -0.9021 -0.5452
   56MPD2     N  878   2.231   2.152   0.102 -0.2484 -0.2476  0.2490
   56MPD2    H5  879   2.151   2.134   0.043 -0.1461 -0.0849  0.0624
   56MPD2    N1  880   2.528   1.902  17.556  0.3124  0.6840 -0.0769
   56MPD2    H7  881   2.624   1.872  17.540 -0.0542  0.2542 -1.4645
   57TMC2    C1  882   1.052   2.692  13.903 -0.5167  0.3725  0.1781
   57TMC2    C2  883   1.084   2.586  13.983  0.7487  0.0815  0.0552
   57TMC2    C3  884   1.137   2.478  13.926  0.5208 -0.3124 -0.6539
   57TMC2    C4  885   1.104   2.705  13.779  0.4516  0.3203 -0.3349
   57TMC2    C5  886   1.175   2.602  13.723 -0.1586 -0.0960 -0.2827
   57TMC2    C6  887   1.188   2.485  13.794 -0.2732  0.0094 -0.2815
   57TMC2     C  888   0.968   2.803  13.957 -0.0722 -0.4100 -0.5276
   57TMC2     O  889   0.925   2.880  13.870 -0.3270 -0.0996  0.6290
   57TMC2     H  890   1.031   2.562  14.075  0.1791  1.7972  0.1807
   57TMC2    H1  891   1.079   2.796  13.725 -1.9519 -0.0136  0.1879
   57TMC2    H2  892   1.239   2.401  13.748 -0.4767  0.1263 -0.7078
   57TMC2    C7  893   1.224   2.625  13.588 -0.3340  0.1283 -0.2633
   57TMC2    C8  894   1.198   2.394  14.017 -0.1740  0.4070  0.6484
   57TMC2    O1  895   1.202   2.733  13.541 -0.1179  0.3803  0.0674
   57TMC2    O2  896   1.240   2.425  14.128 -0.6269  0.0458 -0.7329
   57TMC2    O5  897   1.201   2.268  13.974  0.0579  0.5679 -0.2226
   57TMC2    H5  898   1.152   2.262  13.890  0.1144  1.0661 -0.2946
   58MPD2     C  899   0.639   2.954  14.313  0.0682  0.6553 -0.7149
   58MPD2    C1  900   0.624   2.965  14.174 -0.3147  1.4205  0.4383
   58MPD2    C2  901   0.724   2.900  14.103 -0.2493  0.0251  0.3643
   58MPD2    C3  902   0.832   2.848  14.163  0.1091  0.6505 -0.2539
   58MPD2    C4  903   0.842   2.825  14.304 -0.8801  0.2992 -0.5575
   58MPD2    C5  904   0.740   2.884  14.375 -0.1282 -0.0110 -1.0436
   58MPD2     H  905   0.720   2.908  13.995  0.3601 -1.3093  0.2425
   58MPD2    H1  906   0.922   2.773  14.355 -2.2004  0.7014  1.9572
   58MPD2    H2  907   0.558   2.995  14.372 -0.8403 -4.0008  1.2482
   58MPD2    H3  908   0.742   2.859  14.480 -2.7053 -2.4302 -1.5916
   58MPD2     N  909   0.942   2.790  14.094 -0.1956 -0.6404  0.5539
   58MPD2    H5  910   1.003   2.735  14.154  1.0245 -0.5834 -0.6273
   58MPD2    N1  911   0.522   3.033  14.107  0.2696  0.2972  0.4369
   58MPD2    H7  912   0.515   3.020  14.006 -0.6968 -0.5990  0.6202
   59TMC2    C1  913   3.754   2.445  12.804  0.2263  0.4093 -0.6186
   59TMC2    C2  914   3.760   2.317  12.842  0.0220  0.0339  0.4346
   59TMC2    C3  915   3.779   2.217  12.755 -0.5517  0.5184 -0.4004
   59TMC2    C4  916   3.751   2.480  12.675 -0.6801  0.5272 -0.1194
   59TMC2    C5  917   3.753   2.371  12.589 -0.2223  0.4151  0.5956
   59TMC2    C6  918   3.776   2.242  12.620  0.7565 -0.5787 -0.0914
   59TMC2     C  919   3.767   2.558  12.898 -0.0346 -0.5242  0.2682
   59TMC2     O  920   3.743   2.673  12.859 -0.3764 -0.1462  0.4854
   59TMC2     H  921   3.760   2.278  12.943 -1.0916 -1.9274 -0.3344
   59TMC2    H1  922   3.733   2.582  12.644 -1.2003  0.7140  0.8059
   59TMC2    H2  923   3.787   2.166  12.543  1.2934 -1.4851  0.8688
   59TMC2    C7  924   3.785   2.401  12.450  0.2628  0.1358  0.7890
   59TMC2    C8  925   3.752   2.084  12.794  0.4538  0.1472 -0.5615
   59TMC2    O1  926   3.834   2.312  12.377 -0.5041 -0.4292  0.1314
   59TMC2    O2  927   3.787   2.040  12.903  0.0521 -0.2758 -0.5155
   59TMC2    O5  928   3.640   2.053  12.728 -0.2892  0.1175 -0.0729
   59TMC2    H5  929   3.621   2.115  12.654  1.7717 -0.5046 -1.1320
   60MPD2     C  930   3.766   2.734  13.149  0.8315 -0.1722  0.2139
   60MPD2    C1  931   3.830   2.609  13.136 -0.8374 -0.6607 -0.4555
   60MPD2    C2  932   3.913   2.574  13.242 -0.3944  0.0319  0.0053
   60MPD2    C3  933   3.913   2.636  13.366 -0.2241  0.2040  0.0169
   60MPD2    C4  934   3.835   2.749  13.383  0.4141  0.4451 -0.2510
   60MPD2    C5  935   3.771   2.799  13.268 -0.1190 -0.1868 -0.3496
   60MPD2     H  936   3.966   2.480  13.230 -2.6222 -0.6832 -4.0002
   60MPD2    H1  937   3.829   2.810  13.472  0.6646  0.2581 -0.1064
   60MPD2    H2  938   3.720   2.785  13.066 -0.7433 -0.2977  1.0027
   60MPD2    H3  939   3.702   2.882  13.270  0.4755  0.2834  0.7592
   60MPD2     N  940   4.006   2.605  13.467 -0.1306 -0.0023 -0.1871
   60MPD2    H5  941   4.017   2.673  13.541 -1.4397  0.7839 -0.7059
   60MPD2    N1  942   3.827   2.524  13.021  0.2270 -0.2903  0.3371
   60MPD2    H7  943   3.871   2.433  13.025  1.0062  0.0245 -1.1837
   61TMC2    C1  944   3.290   3.795  15.911  0.0130  0.1238 -0.4967
   61TMC2    C2  945   3.302   3.738  16.034  0.1862 -0.6599  0.6754
   61TMC2    C3  946   3.190   3.734  16.110 -0.2601  0.1878 -0.4842
   61TMC2    C4  947   3.176   3.852  15.861  0.4533  0.4404 -0.4505
   61TMC2    C5  948   3.070   3.854  15.951 -0.1012 -0.8089  0.4920
   61TMC2    C6  949   3.069   3.787  16.068 -0.4612 -0.0752 -0.3142
   61TMC2     C  950   3.419   3.812  15.840  0.8180  0.0117 -0.2079
   61TMC2     O  951   3.515   3.780  15.905  0.4220  0.1678  0.7153
   61TMC2     H  952   3.391   3.688  16.070  0.2537 -0.8372  0.2696
   61TMC2    H1  953   3.169   3.897  15.762 -0.7344 -0.6393 -0.8530
   61TMC2    H2  954   2.989   3.798  16.140  0.5725  1.9885  0.5383
   61TMC2    C7  955   2.964   3.953  15.929 -0.1011  0.5187  0.2668
   61TMC2    C8  956   3.197   3.683  16.244 -0.2112 -0.0318  0.0399
   61TMC2    O1  957   2.883   3.953  16.021 -0.4316 -0.1549  0.5526
   61TMC2    O2  958   3.110   3.701  16.326  0.1960 -0.3196 -0.4555
   61TMC2    O5  959   3.290   3.589  16.246 -0.1262 -0.1957  0.1640
   61TMC2    H5  960   3.346   3.579  16.166  2.4201  2.1050  1.6761
   62MPD2     C  961   3.635   3.951  15.698 -0.4474 -0.0252  0.0859
   62MPD2    C1  962   3.515   3.929  15.642  0.1069 -0.5623  0.5526
   62MPD2    C2  963   3.500   3.966  15.509  0.1798  0.6949 -0.1219
   62MPD2    C3  964   3.594   4.028  15.435  0.2223 -0.0344 -0.1236
   62MPD2    C4  965   3.712   4.054  15.496 -0.0854  0.5394 -0.1001
   62MPD2    C5  966   3.732   4.013  15.623  0.0471  0.0737  0.1014
   62MPD2     H  967   3.404   3.937  15.468  0.5143 -1.0463  0.3552
   62MPD2    H1  968   3.780   4.115  15.437  3.9212 -1.0540  2.9135
   62MPD2    H2  969   3.664   3.935  15.801 -0.6870  1.5271  0.3873
   62MPD2    H3  970   3.826   4.037  15.671 -1.1972  2.2535  1.4649
   62MPD2     N  971   3.569   4.071  15.302  0.0246 -0.9103 -0.6041
   62MPD2    H5  972   3.640   4.133  15.263  0.6691 -0.9696  0.4792
   62MPD2    N1  973   3.409   3.868  15.711  0.1940 -0.4142  0.1265
   62MPD2    H7  974   3.316   3.874  15.672  1.0647  0.2731 -1.8433
   63TMC2    C1  975   2.536   4.495  10.283  0.2013  0.2764 -0.7265
   63TMC2    C2  976   2.593   4.371  10.257  0.1740 -0.0854  0.2762
   63TMC2    C3  977   2.705   4.381  10.183 -1.0229  0.0296  0.0397
   63TMC2    C4  978   2.572   4.612  10.223 -0.5228 -0.1859 -0.8615
   63TMC2    C5  979   2.686   4.612  10.144 -0.0521  0.7600 -0.5093
   63TMC2    C6  980   2.762   4.494  10.126 -0.2329  0.7148 -0.0708
   63TMC2     C  981   2.412   4.505  10.358 -0.0258 -0.2260  0.3169
   63TMC2     O  982   2.332   4.599  10.327 -0.4115  0.1418 -0.1253
   63TMC2     H  983   2.553   4.283  10.304  1.0433 -0.7587 -0.2457
   63TMC2    H1  984   2.526   4.704  10.258  0.4314 -0.1581  0.3449
   63TMC2    H2  985   2.865   4.503  10.093 -1.4799  0.3398 -4.1010
   63TMC2    C7  986   2.738   0.000  10.100 -0.0907 -0.3186 -0.6548
   63TMC2    C8  987   2.768   4.249  10.162 -0.3482 -0.1162 -0.6175
   63TMC2    O1  988   2.859   0.004  10.088  0.0956  0.3216  0.3979
   63TMC2    O2  989   2.778   4.178  10.261  0.0073 -0.1660  0.3188
   63TMC2    O5  990   2.865   4.269  10.072 -0.3456  0.0757 -0.2781
   63TMC2    H5  991   2.833   4.317   9.992 -0.3591 -0.4083 -0.5616
   64MPD2     C  992   2.110   4.347  10.727  0.0324 -1.0385 -0.1391
   64MPD2    C1  993   2.168   4.233  10.677 -0.1910 -0.2552 -0.6216
   64MPD2    C2  994   2.257   4.254  10.575 -0.5712 -0.1714 -0.0703
   64MPD2    C3  995   2.286   4.381  10.524  0.2375  0.0640  0.4130
   64MPD2    C4  996   2.227   4.490  10.573  0.4172  0.2312  0.2169
   64MPD2    C5  997   2.152   4.467  10.683 -0.5221 -0.6802  0.8739
   64MPD2     H  998   2.314   4.166  10.546  1.7926  0.5408  2.4264
   64MPD2    H1  999   2.253   4.592  10.549 -0.0842  0.3341  0.1068
   64MPD2    H2 1000   2.033   4.343  10.803  0.4442 -1.1068  0.2772
   64MPD2    H3 1001   2.100   4.552  10.727 -0.8654  0.3005 -1.4278
   64MPD2     N 1002   2.386   4.389  10.426  0.3619 -0.3812  0.1471
   64MPD2    H5 1003   2.456   4.316  10.415  0.1893 -0.5388  0.0803
   64MPD2    N1 1004   2.147   4.103  10.726  0.4711 -0.2779 -0.5845
   64MPD2    H7 1005   2.200   4.025  10.689  0.0596 -0.7910 -0.0837
   65TMC2    C1 1006   4.062   3.753  15.702 -0.3205 -0.6667 -0.6676
   65TMC2    C2 1007   4.045   3.739  15.568 -0.0111  0.8756 -0.1459
   65TMC2    C3 1008   4.055   3.851  15.486  0.2604 -0.5981  0.0909
   65TMC2    C4 1009   4.086   3.877  15.758  0.0108  0.6079  0.1953
   65TMC2    C5 1010   4.091   3.985  15.677 -0.0901  0.3119  0.3757
   65TMC2    C6 1011   4.080   3.972  15.540 -0.4748 -0.2751 -0.0028
   65TMC2     C 1012   4.098   3.637  15.782  0.1627 -0.4054 -0.1967
   65TMC2     O 1013   4.145   3.664  15.890 -0.1849  0.3362 -0.3182
   65TMC2     H 1014   4.030   3.638  15.530 -0.0566  0.1792  1.7138
   65TMC2    H1 1015   4.097   3.888  15.865 -1.3100 -1.3209  0.5291
   65TMC2    H2 1016   4.102   4.053  15.470  0.3057 -1.3486 -0.9956
   65TMC2    C7 1017   4.128   4.112  15.736 -0.6309  0.0449  0.5429
   65TMC2    C8 1018   3.997   3.858  15.354  0.6395 -0.1419  0.4140
   65TMC2    O1 1019   4.217   4.178  15.678 -0.2510 -0.4595 -0.4461
   65TMC2    O2 1020   3.997   3.950  15.273 -0.4177 -0.1853  0.6553
   65TMC2    O5 1021   3.907   3.757  15.337 -0.2282  0.1362 -0.6229
   65TMC2    H5 1022   3.906   3.691  15.409  1.4213  1.9323  1.0219
   66MPD2     C 1023   4.147   3.372  15.881 -0.2036  0.2064 -0.8635
   66MPD2    C1 1024   4.069   3.393  15.771 -0.4194 -0.8749  0.5180
   66MPD2    C2 1025   4.016   3.284  15.708 -0.0044 -0.1599  0.1160
   66MPD2    C3 1026   4.045   3.153  15.755  0.0789 -0.9788  0.8221
   66MPD2    C4 1027   4.125   3.140  15.862  0.5691  0.2456 -0.6035
   66MPD2    C5 1028   4.181   3.249  15.925 -0.1441  0.0390 -0.2218
   66MPD2     H 1029   3.941   3.293  15.631 -0.7063  1.0037  0.9319
   66MPD2    H1 1030   4.138   3.043  15.908 -0.1691 -0.5538 -2.0747
   66MPD2    H2 1031   4.185   3.457  15.935 -0.5229  0.4931 -1.0882
   66MPD2    H3 1032   4.242   3.250  16.015  0.2679  0.4148 -0.5046
   66MPD2     N 1033   3.997   3.036  15.699 -0.1959  0.1169  1.0256
   66MPD2    H5 1034   4.033   2.946  15.730 -1.0123 -0.7673 -0.6002
   66MPD2    N1 1035   4.044   3.523  15.723 -0.1656  0.2439  0.2467
   66MPD2    H7 1036   3.984   3.535  15.643  0.8278  0.4391 -0.4660
   67TMC2    C1 1037   3.615   2.914  14.195  0.1531  0.0570  0.1417
   67TMC2    C2 1038   3.660   3.037  14.164 -0.2248  0.6576 -0.0779
   67TMC2    C3 1039   3.774   3.085  14.229  0.4427 -0.0815  0.8182
   67TMC2    C4 1040   3.679   2.832  14.282 -0.2779  0.2017  0.7780
   67TMC2    C5 1041   3.794   2.878  14.344  0.2367  0.0935  1.0829
   67TMC2    C6 1042   3.840   3.011  14.329 -0.1894  0.1294  0.3090
   67TMC2     C 1043   3.493   2.862  14.124  0.4918  0.0374 -0.4394
   67TMC2     O 1044   3.481   2.746  14.092  0.6281  0.3467 -0.6136
   67TMC2     H 1045   3.601   3.099  14.096 -0.0576 -1.2777 -1.9853
   67TMC2    H1 1046   3.634   2.735  14.301  0.9241 -0.2966  1.0808
   67TMC2    H2 1047   3.943   3.040  14.350  0.3574  0.6798 -3.0962
   67TMC2    C7 1048   3.870   2.783  14.414 -0.2160 -0.1871  0.7519
   67TMC2    C8 1049   3.787   3.230  14.234  0.5251  0.4808 -0.5685
   67TMC2    O1 1050   3.839   2.669  14.396 -0.1495  0.3421  0.8125
   67TMC2    O2 1051   3.736   3.300  14.147  0.1015 -0.7938 -0.4470
   67TMC2    O5 1052   3.811   3.271  14.365  1.0634 -0.0393 -0.8012
   67TMC2    H5 1053   3.841   3.199  14.424 -1.9846 -1.8118 -1.3899
   68MPD2     C 1054   3.283   2.851  13.906 -0.7023  0.3508 -0.4997
   68MPD2    C1 1055   3.297   2.955  13.997 -0.1683 -0.3792  0.7293
   68MPD2    C2 1056   3.202   3.056  13.998 -0.3758 -0.5252 -0.4379
   68MPD2    C3 1057   3.100   3.057  13.905  0.0251  0.2200 -0.6227
   68MPD2    C4 1058   3.087   2.948  13.814 -0.8312  0.1511 -0.0954
   68MPD2    C5 1059   3.180   2.849  13.818 -0.0717  0.0098  0.1717
   68MPD2     H 1060   3.220   3.134  14.071  2.0282 -0.3841 -1.1673
   68MPD2    H1 1061   3.025   2.944  13.725 -1.4898 -0.6669  0.3978
   68MPD2    H2 1062   3.360   2.776  13.891 -0.5462  1.1518 -3.6414
   68MPD2    H3 1063   3.171   2.776  13.739 -1.5637  1.7362 -1.2399
   68MPD2     N 1064   3.012   3.161  13.879 -0.3626  0.0023 -0.3759
   68MPD2    H5 1065   2.954   3.153  13.796 -0.7919 -1.9155  0.1074
   68MPD2    N1 1066   3.402   2.966  14.097 -0.4335 -0.6383 -0.1379
   68MPD2    H7 1067   3.417   3.051  14.150 -1.8415 -1.1074  1.0057
   69TMC2    C1 1068   0.821   4.161  12.694  0.0372 -0.1865 -0.1840
   69TMC2    C2 1069   0.736   4.268  12.701 -0.7816  0.1296  0.5109
   69TMC2    C3 1070   0.770   4.375  12.627 -0.4604 -0.0236  0.0874
   69TMC2    C4 1071   0.924   4.151  12.605 -0.2995 -0.4106  0.3071
   69TMC2    C5 1072   0.943   4.266  12.529  0.6454  0.0611  0.0393
   69TMC2    C6 1073   0.868   4.373  12.531  0.7892 -0.3796 -0.1149
   69TMC2     C 1074   0.787   4.047  12.780 -0.1388  0.3081  0.4447
   69TMC2     O 1075   0.674   4.055  12.823  0.2715  0.1281  0.5779
   69TMC2     H 1076   0.655   4.269  12.773 -1.6679  1.2325 -0.4934
   69TMC2    H1 1077   0.990   4.067  12.584  0.7323  0.8184 -1.3646
   69TMC2    H2 1078   0.882   4.464  12.474  2.4574  0.2290  1.2828
   69TMC2    C7 1079   1.039   4.246  12.419  0.4235 -0.7463  0.0587
   69TMC2    C8 1080   0.660   4.470  12.614 -0.7665 -0.4234 -0.4362
   69TMC2    O1 1081   1.129   4.160  12.420 -1.1688 -0.3509 -0.0218
   69TMC2    O2 1082   0.546   4.435  12.641  0.0769  0.8963 -0.0107
   69TMC2    O5 1083   0.714   4.594  12.597 -0.4227 -0.2875 -0.4730
   69TMC2    H5 1084   0.811   4.589  12.612  0.3000  2.0528 -4.2739
   70MPD2     C 1085   0.948   3.728  12.825 -0.0885  0.1570 -0.0183
   70MPD2    C1 1086   0.858   3.831  12.853 -0.7045  0.0968 -0.4596
   70MPD2    C2 1087   0.741   3.799  12.928  0.3056 -0.2572  0.0572
   70MPD2    C3 1088   0.737   3.674  12.996  0.3596  0.3450  0.6113
   70MPD2    C4 1089   0.839   3.580  12.974 -0.2506  0.2465  0.0328
   70MPD2    C5 1090   0.944   3.608  12.883  0.1004 -0.0794  0.1040
   70MPD2     H 1091   0.659   3.868  12.947 -0.0026 -0.6958  0.3053
   70MPD2    H1 1092   0.837   3.480  13.017 -1.0592  0.5905  0.7930
   70MPD2    H2 1093   1.031   3.754  12.761 -1.0078  2.4207 -0.3025
   70MPD2    H3 1094   1.024   3.539  12.857 -1.0425 -0.3493 -2.6651
   70MPD2     N 1095   0.635   3.643  13.086 -0.6129 -0.1174 -0.0715
   70MPD2    H5 1096   0.644   3.547  13.120 -0.0605  0.7872  2.3488
   70MPD2    N1 1097   0.878   3.945  12.782  0.3359 -0.2426 -0.1936
   70MPD2    H7 1098   0.969   3.965  12.741  0.2030  0.5729 -0.0915
   71TMC2    C1 1099   3.128   0.152   1.380 -0.6461  0.5364  1.0209
   71TMC2    C2 1100   3.222   0.231   1.440  0.3934  0.3215 -0.0319
   71TMC2    C3 1101   3.176   0.322   1.527 -0.8754  0.6072 -0.1730
   71TMC2    C4 1102   2.994   0.158   1.401  0.3246 -0.2194  0.6033
   71TMC2    C5 1103   2.955   0.261   1.493  0.3297 -0.4336  0.2146
   71TMC2    C6 1104   3.045   0.344   1.551  0.5302 -0.0772  0.1012
   71TMC2     C 1105   3.186   0.060   1.290 -0.5994  1.2412 -1.2281
   71TMC2     O 1106   3.305   0.042   1.300 -0.1093 -0.0378 -0.5603
   71TMC2     H 1107   3.323   0.233   1.401  0.5532 -0.8658  0.3171
   71TMC2    H1 1108   2.934   0.080   1.356  1.4789 -0.9010  0.2399
   71TMC2    H2 1109   3.023   0.411   1.633 -0.4016 -0.3991  0.1170
   71TMC2    C7 1110   2.816   0.278   1.531  0.5332  0.2144  0.2248
   71TMC2    C8 1111   3.271   0.412   1.595  0.1135  0.3775 -0.4271
   71TMC2    O1 1112   2.794   0.362   1.616 -0.2195 -0.0587 -0.4358
   71TMC2    O2 1113   3.229   0.526   1.618  0.0569  0.0865 -0.4802
   71TMC2    O5 1114   3.395   0.387   1.564 -0.0934  0.1990 -0.4730
   71TMC2    H5 1115   3.408   0.291   1.582 -0.3559 -0.1567 -2.2347
   72MPD2     C 1116   3.204   4.511   0.860  0.2541 -0.4485  0.4566
   72MPD2    C1 1117   3.305   4.579   0.929  0.0608  0.2531  0.5994
   72MPD2    C2 1118   3.268   4.654   1.041  1.0705 -0.2903 -0.5042
   72MPD2    C3 1119   3.140   4.668   1.084  0.0878  0.0810  0.8048
   72MPD2    C4 1120   3.046   4.596   1.025 -0.6504 -0.4753 -0.4953
   72MPD2    C5 1121   3.074   4.522   0.910  0.1501  0.5215 -1.1367
   72MPD2     H 1122   3.345   4.719   1.081  1.7477 -0.9688 -0.7019
   72MPD2    H1 1123   2.942   4.600   1.055  0.2129 -2.4903  2.6770
   72MPD2    H2 1124   3.217   4.447   0.773 -1.5828 -1.8290  1.1902
   72MPD2    H3 1125   2.997   4.476   0.850  0.5787  0.4760 -1.6592
   72MPD2     N 1126   3.107   0.016   1.188  0.1752  0.5637 -0.4104
   72MPD2    H5 1127   3.007   0.034   1.196 -0.2128 -1.1341 -1.3904
   72MPD2    N1 1128   3.442   4.552   0.895  0.4901 -0.5158  0.0098
   72MPD2    H7 1129   3.466   4.476   0.833  0.9673 -0.2141 -0.1769
   73TMC2    C1 1130   2.920   2.019  14.221  0.0775 -1.1451 -0.4122
   73TMC2    C2 1131   2.864   2.012  14.348  1.2225  0.5535  0.0708
   73TMC2    C3 1132   2.885   1.904  14.431  0.0372 -0.0728 -0.0833
   73TMC2    C4 1133   2.981   1.910  14.174 -0.1721 -0.0703 -0.1245
   73TMC2    C5 1134   2.999   1.796  14.253  0.0318  0.4957 -0.0932
   73TMC2    C6 1135   2.945   1.788  14.381 -0.3433 -0.5655 -0.1434
   73TMC2     C 1136   3.015   2.131  14.200  0.6917  0.9016 -0.3437
   73TMC2     O 1137   3.124   2.092  14.166 -0.5314 -0.3534  0.2141
   73TMC2     H 1138   2.807   2.095  14.388 -0.1755  0.5498 -1.8772
   73TMC2    H1 1139   3.025   1.920  14.075  0.2313  1.1911  0.1753
   73TMC2    H2 1140   2.971   1.703  14.444 -0.5408 -2.2715 -2.3691
   73TMC2    C7 1141   3.135   1.746  14.240 -0.5888 -0.2780  0.4086
   73TMC2    C8 1142   2.808   1.904  14.550  0.0235  0.1706 -0.0804
   73TMC2    O1 1143   3.157   1.640  14.301  0.1324  0.3015  0.2893
   73TMC2    O2 1144   2.823   1.996  14.627 -0.6032  0.8081 -0.1447
   73TMC2    O5 1145   2.769   1.777  14.575 -0.0313 -0.0679 -0.4586
   73TMC2    H5 1146   2.753   1.731  14.489 -0.5639 -1.4469  0.3822
   74MPD2     C 1147   3.188   2.619  14.222 -0.5055 -1.2940  0.0054
   74MPD2    C1 1148   3.259   2.500  14.202  0.0827  0.1481 -0.2703
   74MPD2    C2 1149   3.192   2.378  14.208 -0.4717 -0.2154 -0.1242
   74MPD2    C3 1150   3.056   2.375  14.251  0.6475  1.2475 -0.2116
   74MPD2    C4 1151   2.989   2.500  14.281 -0.4095  0.4194  0.6322
   74MPD2    C5 1152   3.061   2.618  14.268  0.4243 -0.1166  0.3467
   74MPD2     H 1153   3.241   2.282  14.195  0.3190  0.0018  1.2199
   74MPD2    H1 1154   2.890   2.516  14.322 -0.3892  0.8658  0.5125
   74MPD2    H2 1155   3.244   2.710  14.212  0.0737 -1.8860 -2.1872
   74MPD2    H3 1156   3.021   2.717  14.291 -0.6006 -0.4085 -0.1726
   74MPD2     N 1157   2.970   2.257  14.244  0.1565  0.5605 -0.2393
   74MPD2    H5 1158   2.871   2.262  14.261  0.5093  0.9633  1.6878
   74MPD2    N1 1159   3.398   2.510  14.167  0.1308 -0.0984 -0.0283
   74MPD2    H7 1160   3.430   2.588  14.111  1.0126  0.7270  1.6275
   75TMC2    C1 1161   2.923   3.381  13.893  0.7852 -0.5034  0.7708
   75TMC2    C2 1162   2.810   3.423  13.959 -0.0104 -0.7332 -0.1200
   75TMC2    C3 1163   2.714   3.484  13.886  0.2131  0.3924  0.2274
   75TMC2    C4 1164   2.939   3.407  13.763 -0.4573  0.3249  0.4988
   75TMC2    C5 1165   2.843   3.471  13.690 -0.5545 -0.1335 -0.4885
   75TMC2    C6 1166   2.731   3.508  13.753 -0.4566  0.1200 -0.4092
   75TMC2     C 1167   3.010   3.280  13.948  1.0976  0.9176  0.4768
   75TMC2     O 1168   3.039   3.293  14.065  0.1617  0.2144 -0.2916
   75TMC2     H 1169   2.781   3.385  14.056 -0.1956 -1.3840 -0.4274
   75TMC2    H1 1170   3.024   3.353  13.722  1.4677  3.1754  0.7457
   75TMC2    H2 1171   2.657   3.560  13.694 -3.4589  2.0352  5.0129
   75TMC2    C7 1172   2.844   3.453  13.546  0.1675 -0.0095 -0.4513
   75TMC2    C8 1173   2.582   3.505  13.942 -0.4147 -0.5632 -0.5435
   75TMC2    O1 1174   2.737   3.444  13.491 -0.2728 -0.1670  0.3822
   75TMC2    O2 1175   2.535   3.431  14.024 -0.5501  0.6738  0.0853
   75TMC2    O5 1176   2.547   3.632  13.920 -0.1911  0.5569  0.3697
   75TMC2    H5 1177   2.602   3.687  13.861 -0.6792 -0.7841 -1.3373
   76TMC2    C1 1178   2.329   3.633  12.111 -0.2896 -0.5142 -0.6942
   76TMC2    C2 1179   2.271   3.517  12.158  0.7758 -0.4493  0.5791
   76TMC2    C3 1180   2.334   3.444  12.254  0.6906 -0.7959  0.9247
   76TMC2    C4 1181   2.439   3.686  12.170 -0.6306  0.3554  0.3070
   76TMC2    C5 1182   2.508   3.609  12.260 -0.2005  0.1354  0.2384
   76TMC2    C6 1183   2.451   3.494  12.309 -0.2876  0.5097 -0.0461
   76TMC2     C 1184   2.249   3.719  12.028 -0.8881  0.6650 -0.1074
   76TMC2     O 1185   2.235   3.832  12.063 -0.2413  0.5113 -0.2406
   76TMC2     H 1186   2.186   3.475  12.106  1.5201  1.1005 -1.8834
   76TMC2    H1 1187   2.476   3.784  12.142  3.0267 -1.6168 -1.7056
   76TMC2    H2 1188   2.512   3.437  12.378  0.4821 -0.1705 -1.2722
   76TMC2    C7 1189   2.626   3.666  12.314 -0.9967 -0.1727  0.1812
   76TMC2    C8 1190   2.256   3.353  12.340  0.2692  0.3709  0.4159
   76TMC2    O1 1191   2.701   3.729  12.245  0.0344  0.2176 -0.0372
   76TMC2    O2 1192   2.300   3.337  12.454 -0.4300 -0.2312  0.6137
   76TMC2    O5 1193   2.129   3.372  12.308  0.0726  0.4318 -0.5535
   76TMC2    H5 1194   2.118   3.364  12.210 -0.3063 -5.6496 -0.0501
   77MPD2     C 1195   1.889   3.755  11.666 -0.3008  0.3065 -0.0224
   77MPD2    C1 1196   1.923   3.840  11.774 -0.5915  0.5137  0.1987
   77MPD2    C2 1197   2.016   3.798  11.868 -0.0703  0.0125 -0.4989
   77MPD2    C3 1198   2.096   3.694  11.833  0.5785 -0.4848  0.4578
   77MPD2    C4 1199   2.077   3.633  11.705  0.5803 -0.0286 -0.4833
   77MPD2    C5 1200   1.968   3.652  11.628  0.7483  0.2293 -0.2559
   77MPD2     H 1201   2.037   3.864  11.952 -0.0326 -0.2282 -0.3183
   77MPD2    H1 1202   2.136   3.550  11.666  0.4138 -0.7678  0.8726
   77MPD2    H2 1203   1.807   3.782  11.600 -0.9758 -0.2161  0.6023
   77MPD2    H3 1204   1.948   3.598  11.536 -2.2170  0.0793  0.4881
   77MPD2     N 1205   2.210   3.657  11.909  0.2563 -0.1099 -0.2785
   77MPD2    H5 1206   2.253   3.571  11.877  0.2855 -0.4646  0.7341
   77MPD2    N1 1207   1.855   3.959  11.806  0.0622 -0.0452 -0.1779
   77MPD2    H7 1208   1.881   4.012  11.889 -1.2931 -0.5268  0.5559
   78TMC2    C1 1209   3.823   0.529   1.450 -0.3006  0.4676  0.4023
   78TMC2    C2 1210   3.742   0.420   1.450 -0.2287  0.9881  0.5123
   78TMC2    C3 1211   3.810   0.306   1.431  0.1677 -0.2772 -0.0025
   78TMC2    C4 1212   3.962   0.529   1.442  0.5306  0.0300  0.2721
   78TMC2    C5 1213   4.022   0.411   1.423 -0.4648 -0.6265  0.3550
   78TMC2    C6 1214   3.947   0.298   1.417  0.2288 -0.1106  0.3569
   78TMC2     C 1215   3.764   0.653   1.503 -0.1335 -0.2361  0.2123
   78TMC2     O 1216   3.847   0.722   1.556 -0.5146 -0.2345  0.2068
   78TMC2     H 1217   3.638   0.421   1.479 -0.0195  0.3549  1.2808
   78TMC2    H1 1218   4.025   0.616   1.427  1.2728 -0.9617 -2.3678
   78TMC2    H2 1219   3.994   0.200   1.409 -0.8569 -0.5912 -0.3524
   78TMC2    C7 1220   4.164   0.398   1.409 -0.8893  1.1259  0.5227
   78TMC2    C8 1221   3.736   0.182   1.440  0.1480 -0.1563  0.5679
   78TMC2    O1 1222   4.207   0.292   1.362  0.0621 -0.0335 -0.0800
   78TMC2    O2 1223   3.759   0.092   1.361  0.0609 -0.3733  0.3661
   78TMC2    O5 1224   3.710   0.167   1.568  0.0771 -0.1218 -0.0314
   78TMC2    H5 1225   3.692   0.254   1.611  1.1127  0.6219 -1.0932
   79MPD1     C 1226   3.385   0.975   1.583 -0.2112  0.2658 -0.7949
   79MPD1    C1 1227   3.520   0.987   1.623 -0.2193 -0.6032  0.5459
   79MPD1    C2 1228   3.596   0.871   1.595 -0.0433 -0.3391  0.4135
   79MPD1    C3 1229   3.549   0.764   1.523 -0.6141 -0.2215  0.2481
   79MPD1    C4 1230   3.412   0.759   1.493 -0.7391  0.0313  0.5061
   79MPD1    C5 1231   3.335   0.860   1.539  0.3916 -0.0439  0.0504
   79MPD1     H 1232   3.699   0.864   1.628  0.5680  0.2256 -1.3616
   79MPD1    H1 1233   3.369   0.671   1.448  2.0792 -1.5424  0.8520
   79MPD1    H2 1234   3.315   1.054   1.607 -0.1012  0.0992  0.0448
   79MPD1    H3 1235   3.228   0.862   1.526  0.4844 -2.4174 -1.0769
   79MPD1     N 1236   3.632   0.665   1.470 -0.9376 -0.7134 -0.3917
   79MPD1    H5 1237   3.590   0.593   1.412  2.2498 -2.5495 -0.4606
   79MPD1    N1 1238   3.565   1.083   1.711 -0.1003 -0.2685  0.3885
   79MPD1    H6 1239   3.665   1.104   1.709 -0.4295  1.3836  1.7364
   79MPD1    H7 1240   3.520   1.173   1.697 -1.7275 -1.6822 -3.5451
   80TMC2    C1 1241   0.864   3.513  11.899 -0.4074  0.2522 -0.8129
   80TMC2    C2 1242   0.993   3.504  11.932  0.4557  0.3452  0.4474
   80TMC2    C3 1243   1.035   3.386  11.987 -0.0527  0.3665  0.5183
   80TMC2    C4 1244   0.789   3.399  11.899 -0.3623  0.0582 -0.1007
   80TMC2    C5 1245   0.839   3.279  11.936  0.3537 -0.0487  0.2222
   80TMC2    C6 1246   0.968   3.266  11.982  0.6883 -0.4584  0.3400
   80TMC2     C 1247   0.804   3.633  11.942  0.3123 -0.0210 -0.3704
   80TMC2     O 1248   0.839   3.742  11.900  0.3090 -0.1771  0.2759
   80TMC2     H 1249   1.054   3.593  11.944 -0.7699  1.1989  0.3492
   80TMC2    H1 1250   0.681   3.407  11.890 -0.5552 -1.0150  1.2657
   80TMC2    H2 1251   1.022   3.177  12.009 -0.9574 -1.3725  0.6192
   80TMC2    C7 1252   0.760   3.163  11.904 -0.0792 -0.2355 -0.3117
   80TMC2    C8 1253   1.160   3.395  12.068 -0.1187  0.2030 -0.0914
   80TMC2    O1 1254   0.670   3.186  11.822 -0.4291 -0.0447 -0.0689
   80TMC2    O2 1255   1.241   3.483  12.063 -0.2813  0.0348 -0.0437
   80TMC2    O5 1256   1.157   3.305  12.163 -0.1557 -0.5086 -0.4857
   80TMC2    H5 1257   1.075   3.251  12.171 -1.2930  0.9640 -2.0698
   81MPD2     C 1258   0.608   3.828  12.067 -1.0466  0.6258 -0.3044
   81MPD2    C1 1259   0.608   3.687  12.090  0.1622  0.1751  0.0465
   81MPD2    C2 1260   0.529   3.635  12.191  0.7902  0.2155  0.4782
   81MPD2    C3 1261   0.432   3.713  12.253  0.0311  0.8901  0.1258
   81MPD2    C4 1262   0.429   3.850  12.229 -0.2251 -0.1324  0.1342
   81MPD2    C5 1263   0.516   3.905  12.131 -0.5443 -0.7449 -0.0914
   81MPD2     H 1264   0.527   3.534  12.231 -3.0745  0.0500 -0.1300
   81MPD2    H1 1265   0.354   3.909  12.280  0.0594 -0.3561  0.8123
   81MPD2    H2 1266   0.663   3.881  11.990 -0.6413  1.6447  0.6895
   81MPD2    H3 1267   0.513   4.011  12.108  1.8811  0.0787  3.3877
   81MPD2     N 1268   0.360   3.653  12.354  0.4076  0.1949  0.1045
   81MPD2    H5 1269   0.388   3.561  12.387 -0.5557 -1.3081 -3.2085
   81MPD2    N1 1270   0.705   3.598  12.027 -0.3000  0.8442  0.1370
   81MPD2    H7 1271   0.712   3.503  12.061 -0.7326  0.7755  0.0396
   82TMC2    C1 1272   4.143   2.452  11.110  0.2441 -0.5191 -0.4121
   82TMC2    C2 1273   4.214   2.455  10.997  0.7473 -0.2657  0.3588
   82TMC2    C3 1274   4.227   2.346  10.917 -0.1683 -0.8459 -0.8534
   82TMC2    C4 1275   4.089   2.331  11.150  0.5438  0.0202  0.2565
   82TMC2    C5 1276   4.105   2.226  11.066 -0.4950 -0.3100  0.4345
   82TMC2    C6 1277   4.172   2.227  10.950  0.0653 -0.5244  1.0043
   82TMC2     C 1278   4.082   2.579  11.146 -0.4745 -0.1912 -0.7836
   82TMC2     O 1279   4.083   2.673  11.070  0.2468 -0.2715 -0.0897
   82TMC2     H 1280   4.251   2.548  10.957 -1.8327 -0.2227 -1.8911
   82TMC2    H1 1281   4.026   2.316  11.237  1.5604 -2.2460  0.6151
   82TMC2    H2 1282   4.184   2.139  10.888 -0.3437  0.9361 -1.1401
   82TMC2    C7 1283   4.010   2.115  11.080 -0.4100  0.2177 -0.0279
   82TMC2    C8 1284   4.334   2.357  10.817  0.2702  0.4598  0.0507
   82TMC2    O1 1285   4.016   2.054  11.186 -0.1770 -0.6319  0.2367
   82TMC2    O2 1286   4.379   2.465  10.780  0.3199 -0.7156  0.3796
   82TMC2    O5 1287   4.419   2.256  10.847 -0.1325  0.0442 -0.2327
   82TMC2    H5 1288   4.377   2.171  10.871 -1.2313 -0.2517 -3.3125
   83MPD2     C 1289   3.617   2.681  11.343  0.1462 -0.7170  0.6169
   83MPD2    C1 1290   3.672   2.711  11.222  0.5787 -0.5806 -0.0760
   83MPD2    C2 1291   3.808   2.679  11.188 -0.0406 -0.2893  0.1279
   83MPD2    C3 1292   3.878   2.616  11.288 -0.1102 -0.0598  0.3936
   83MPD2    C4 1293   3.818   2.575  11.407 -0.7325 -0.4589  0.1657
   83MPD2    C5 1294   3.692   2.605  11.439 -0.6105  0.2209 -0.0921
   83MPD2     H 1295   3.854   2.695  11.092 -0.2589  1.6322  0.3461
   83MPD2    H1 1296   3.872   2.517  11.481 -0.8047  1.1280  1.4504
   83MPD2    H2 1297   3.518   2.719  11.365 -0.7140 -2.2431 -0.6530
   83MPD2    H3 1298   3.649   2.567  11.532 -1.2836 -0.1005 -0.5348
   83MPD2     N 1299   4.010   2.567  11.265  0.9299 -0.1378 -0.0432
   83MPD2    H5 1300   4.039   2.504  11.338 -2.0097 -1.3997  0.0716
   83MPD2    N1 1301   3.581   2.774  11.135  0.1716  0.5254  0.3039
   83MPD2    H7 1302   3.489   2.782  11.176 -1.3513 -1.8916 -2.6460
   84TMC2    C1 1303   0.255   2.407  10.850 -0.3236  0.7804  0.0276
   84TMC2    C2 1304   0.176   2.296  10.836  0.1778  0.5281  1.0265
   84TMC2    C3 1305   0.219   2.199  10.757 -0.3586 -0.2707 -0.2838
   84TMC2    C4 1306   0.365   2.432  10.772 -0.3205 -0.2101  0.4777
   84TMC2    C5 1307   0.404   2.324  10.687 -0.1336 -0.4304  0.6198
   84TMC2    C6 1308   0.333   2.202  10.683 -0.0804 -0.4272 -0.0339
   84TMC2     C 1309   0.201   2.512  10.931 -0.5121  0.1140 -0.7355
   84TMC2     O 1310   0.131   2.470  11.019 -0.1196 -0.3506  0.5971
   84TMC2     H 1311   0.092   2.279  10.902 -0.7395  3.0383  0.4835
   84TMC2    H1 1312   0.425   2.521  10.788  0.9783 -0.5003 -2.8431
   84TMC2    H2 1313   0.349   2.127  10.607 -4.1754 -1.4634  0.0991
   84TMC2    C7 1314   0.507   2.339  10.583  0.0917  0.1914  0.3965
   84TMC2    C8 1315   0.158   2.073  10.767  0.0090  0.9548  0.1517
   84TMC2    O1 1316   0.534   2.238  10.517 -0.7645  0.5171 -0.2678
   84TMC2    O2 1317   0.209   1.978  10.703  0.0888  0.0748 -0.0316
   84TMC2    O5 1318   0.024   2.097  10.758  0.5740 -0.3307  0.6233
   84TMC2    H5 1319   4.736   2.192  10.759 -0.6347 -0.6550 -1.2429
   85TMC2    C1 1320   1.498   4.647  15.943  0.3653  0.5539  0.2267
   85TMC2    C2 1321   1.409   0.008  15.971 -0.3390 -0.1420  0.3645
   85TMC2    C3 1322   1.437   0.134  15.919 -0.4404 -0.1576  0.4198
   85TMC2    C4 1323   1.616   4.679  15.878 -1.1365  0.4663  0.0505
   85TMC2    C5 1324   1.623   0.059  15.808  0.5607 -0.7428 -0.4299
   85TMC2    C6 1325   1.536   0.164  15.830 -0.4881 -0.3736 -0.1811
   85TMC2     C 1326   1.509   4.545  16.047  0.9693  0.1284 -0.6557
   85TMC2     O 1327   1.619   4.503  16.083  0.2104  0.0264  0.3089
   85TMC2     H 1328   1.315   4.720  16.018 -1.0563  0.4251 -0.7731
   85TMC2    H1 1329   1.686   4.597  15.866 -1.8935  0.1649 -2.4363
   85TMC2    H2 1330   1.530   0.250  15.764  0.3934 -0.6389 -0.6088
   85TMC2    C7 1331   1.711   0.062  15.689 -0.3419 -0.1223 -0.3623
   85TMC2    C8 1332   1.349   0.247  15.960  0.5378  0.3857 -0.3814
   85TMC2    O1 1333   1.800   4.712  15.688  0.0322  0.1262  0.1102
   85TMC2    O2 1334   1.313   0.334  15.885  0.6018  0.0532 -0.3794
   85TMC2    O5 1335   1.361   0.266  16.090  0.1788  1.1773 -0.5522
   85TMC2    H5 1336   1.411   0.194  16.134 -0.5769  0.8721 -0.1981
   86MPD2     C 1337   1.265   4.312  16.441  0.2548  0.0205 -0.1308
   86MPD2    C1 1338   1.171   4.323  16.342 -0.0097 -1.2175  0.2730
   86MPD2    C2 1339   1.212   4.380  16.219  0.0467 -0.8364  0.0299
   86MPD2    C3 1340   1.346   4.424  16.206  1.0397 -0.2038 -0.6515
   86MPD2    C4 1341   1.433   4.402  16.311  0.0955  0.0927 -0.0885
   86MPD2    C5 1342   1.390   4.349  16.426  0.6002  0.2936 -0.1748
   86MPD2     H 1343   1.143   4.384  16.135  1.3263  1.0250 -0.9494
   86MPD2    H1 1344   1.537   4.426  16.295 -0.1113  0.4758 -0.8968
   86MPD2    H2 1345   1.245   4.269  16.538 -0.1472 -1.5514 -0.9003
   86MPD2    H3 1346   1.450   4.343  16.516 -1.8472  1.8404  1.5547
   86MPD2     N 1347   1.380   4.501  16.093 -0.3932  0.5803 -0.6237
   86MPD2    H5 1348   1.301   4.530  16.037  2.6760  0.9751 -4.7503
   86MPD2    N1 1349   1.037   4.280  16.360 -0.0490  0.3684 -0.1460
   86MPD2    H7 1350   0.972   4.289  16.283  0.1314  0.0744 -0.3339
   87TMC2    C1 1351   3.670   2.855   0.989 -0.8018  0.0975  0.8131
   87TMC2    C2 1352   3.647   2.769   1.095 -0.1717 -0.0948  0.0843
   87TMC2    C3 1353   3.666   2.816   1.222 -0.4144 -0.6149  0.1052
   87TMC2    C4 1354   3.702   2.985   1.009  0.1172  0.3379 -0.1912
   87TMC2    C5 1355   3.722   3.026   1.134  0.1970 -0.0736 -0.2787
   87TMC2    C6 1356   3.705   2.943   1.241  0.5821 -0.0631 -0.4431
   87TMC2     C 1357   3.668   2.821   0.858 -0.5297 -0.4414  0.9575
   87TMC2     O 1358   3.638   2.902   0.772 -0.5249  0.2395  0.0915
   87TMC2     H 1359   3.601   2.673   1.080 -0.2059  0.2651 -2.0647
   87TMC2    H1 1360   3.728   3.048   0.925  0.7734  1.3249  0.7507
   87TMC2    H2 1361   3.727   2.969   1.344  0.9187 -1.0353 -0.2655
   87TMC2    C7 1362   3.798   3.151   1.146 -0.8901 -0.1091 -1.0703
   87TMC2    C8 1363   3.619   2.748   1.337 -0.2523  0.0239  0.1395
   87TMC2    O1 1364   3.807   3.222   1.044 -0.2856 -0.1112  0.2236
   87TMC2    O2 1365   3.599   2.806   1.444 -0.4884  0.2919 -0.3178
   87TMC2    O5 1366   3.674   2.627   1.335  0.1353  0.4130 -0.4630
   87TMC2    H5 1367   3.710   2.593   1.251 -0.7441 -0.5197 -0.4726
   88MPD2     C 1368   4.024   3.270   1.401 -0.6716  0.4889  0.0340
   88MPD2    C1 1369   3.932   3.283   1.301  0.0765 -0.1872  0.2924
   88MPD2    C2 1370   3.893   3.413   1.247  0.7452  0.1187 -0.0745
   88MPD2    C3 1371   3.951   3.521   1.313 -1.3122 -0.1655 -0.4077
   88MPD2    C4 1372   4.044   3.507   1.409 -0.4173 -0.2225  0.2237
   88MPD2    C5 1373   4.086   3.381   1.447 -0.0555  0.0778  0.1366
   88MPD2     H 1374   3.812   3.420   1.176  1.3128  2.7862 -0.4298
   88MPD2    H1 1375   4.095   3.592   1.453 -0.2438 -0.6064  0.7624
   88MPD2    H2 1376   4.050   3.172   1.441  2.0890  0.2045 -2.4275
   88MPD2    H3 1377   4.173   3.372   1.511 -0.9156  1.4733  1.4936
   88MPD2     N 1378   3.914   3.656   1.291 -0.4537 -0.7207 -0.3651
   88MPD2    H5 1379   3.967   3.721   1.348 -0.3877 -0.3246 -0.8762
   88MPD2    N1 1380   3.860   3.168   1.265 -0.6038  0.0933 -0.1296
   88MPD2    H7 1381   3.873   3.081   1.316  3.6023  1.4443  1.1329
   89TMC2    C1 1382   4.392   1.679   1.760  0.2946  0.0359  0.0038
   89TMC2    C2 1383   4.261   1.698   1.794 -0.1523 -0.3304 -0.5801
   89TMC2    C3 1384   4.229   1.829   1.806 -0.0413 -0.6278 -0.2087
   89TMC2    C4 1385   4.480   1.784   1.757  0.1652  0.1251  0.4830
   89TMC2    C5 1386   4.443   1.904   1.807  0.7768  0.6933  0.5634
   89TMC2    C6 1387   4.311   1.929   1.826  0.1751  0.3545  1.3434
   89TMC2     C 1388   4.420   1.547   1.688 -0.4384  0.4362  0.5226
   89TMC2     O 1389   4.540   1.511   1.684 -0.2269 -0.4758 -0.1475
   89TMC2     H 1390   4.187   1.623   1.819  0.2263 -0.1639  1.0254
   89TMC2    H1 1391   4.586   1.762   1.756 -0.0336 -0.7427 -1.1207
   89TMC2    H2 1392   4.275   2.025   1.864  3.7281  1.6375  1.4551
   89TMC2    C7 1393   4.541   2.010   1.827  0.2066  0.2896 -0.0577
   89TMC2    C8 1394   4.086   1.850   1.822  0.7655 -0.3379 -0.1716
   89TMC2    O1 1395   4.513   2.099   1.900  0.4973 -0.2344  0.3209
   89TMC2    O2 1396   4.029   1.828   1.929 -0.5766  0.3567  0.0429
   89TMC2    O5 1397   4.052   1.951   1.747 -0.2698 -0.0252  0.3969
   89TMC2    H5 1398   4.108   1.960   1.667 -0.3161  1.4298  0.5320
   90MPD2     C 1399   4.280   1.101   1.462  0.7738 -0.3040 -0.6527
   90MPD2    C1 1400   4.161   1.174   1.505  0.1782 -0.3715 -0.0194
   90MPD2    C2 1401   4.179   1.295   1.573  0.2234 -0.4266  0.2574
   90MPD2    C3 1402   4.298   1.352   1.600 -0.0825 -0.4592 -0.2276
   90MPD2    C4 1403   4.409   1.280   1.565  0.5407 -0.3029  0.1024
   90MPD2    C5 1404   4.401   1.157   1.497 -0.4690  0.3848 -0.3301
   90MPD2     H 1405   4.091   1.350   1.606  1.0659  1.0821 -0.0157
   90MPD2    H1 1406   4.510   1.318   1.582  1.2480 -0.8408 -2.7880
   90MPD2    H2 1407   4.284   1.009   1.404  0.2078  0.2019 -1.4965
   90MPD2    H3 1408   4.484   1.094   1.468 -0.2742  1.1214 -1.3601
   90MPD2     N 1409   4.304   1.481   1.658 -0.0893  0.1950 -0.5655
   90MPD2    H5 1410   4.213   1.526   1.668 -0.7274 -1.1826 -0.1567
   90MPD2    N1 1411   4.031   1.130   1.491 -0.4755  0.2973 -0.3809
   90MPD2    H7 1412   3.954   1.191   1.515 -1.5709 -0.5953 -1.6117
   91TMC2    C1 1413   1.135   0.765  16.387  1.4056  0.0010 -1.1537
   91TMC2    C2 1414   1.234   0.705  16.465 -0.3505  0.4468  0.5256
   91TMC2    C3 1415   1.191   0.616  16.563  0.2696  0.1624 -0.1528
   91TMC2    C4 1416   1.002   0.734  16.398 -0.6852 -0.3957 -0.1152
   91TMC2    C5 1417   0.960   0.651  16.496 -0.2191  0.2390 -0.1142
   91TMC2    C6 1418   1.057   0.596  16.580  0.7158  0.3898  0.0120
   91TMC2     C 1419   1.173   0.860  16.284 -0.6641  0.1299  0.5477
   91TMC2     O 1420   1.092   0.861  16.195 -0.6146 -0.3894 -0.2409
   91TMC2     H 1421   1.336   0.730  16.440 -0.0680 -1.8297 -0.6851
   91TMC2    H1 1422   0.936   0.799  16.342 -0.9207  0.8866  1.6691
   91TMC2    H2 1423   1.022   0.516  16.644  0.1757  0.1554 -0.5755
   91TMC2    C7 1424   0.824   0.613  16.504  0.2664  0.4524  0.1380
   91TMC2    C8 1425   1.276   0.566  16.669 -0.4508 -1.0441 -0.2753
   91TMC2    O1 1426   0.801   0.559  16.616  0.6577 -0.6765  0.1960
   91TMC2    O2 1427   1.227   0.500  16.759  0.1051 -0.4367 -0.4950
   91TMC2    O5 1428   1.380   0.649  16.682 -0.1945 -0.2292 -0.0298
   91TMC2    H5 1429   1.380   0.722  16.616  2.9942 -1.2595 -1.1395
   92MPD2     C 1430   1.273   1.054  16.089 -0.2134  0.3992  0.3078
   92MPD2    C1 1431   1.344   1.006  16.199  0.1710 -0.4292  0.0623
   92MPD2    C2 1432   1.474   1.045  16.219  0.1366  0.5038 -0.1729
   92MPD2    C3 1433   1.537   1.139  16.135 -0.3966 -0.1651 -0.1001
   92MPD2    C4 1434   1.470   1.178  16.015 -0.2679 -0.5391 -0.7986
   92MPD2    C5 1435   1.341   1.138  16.002  0.7282 -0.3657  0.5711
   92MPD2     H 1436   1.530   1.005  16.303 -0.8450 -2.5169 -0.9847
   92MPD2    H1 1437   1.513   1.256  15.953 -2.4332 -0.1726 -1.8419
   92MPD2    H2 1438   1.174   1.026  16.056  0.2318  0.6479 -1.2531
   92MPD2    H3 1439   1.287   1.181  15.918  1.8586 -0.7304 -0.3435
   92MPD2     N 1440   1.665   1.179  16.165  0.6495  0.5216 -0.1778
   92MPD2    H5 1441   1.702   1.151  16.255  0.0205 -0.4193 -0.2121
   92MPD2    N1 1442   1.298   0.914  16.292 -0.1356  0.2365 -0.6711
   92MPD2    H7 1443   1.360   0.908  16.372 -0.0472 -3.3242 -1.0007
   93TMC2    C1 1444   3.054   0.587  13.810  0.2295  0.7346  0.3449
   93TMC2    C2 1445   2.968   0.656  13.889 -0.3147 -0.1477  0.0617
   93TMC2    C3 1446   3.012   0.781  13.926 -0.2872  0.4832  0.0184
   93TMC2    C4 1447   3.180   0.624  13.774 -0.2713  0.3655  0.5897
   93TMC2    C5 1448   3.232   0.738  13.828 -0.2072  0.3432  0.5127
   93TMC2    C6 1449   3.144   0.823  13.899  0.1284 -0.2086  0.3452
   93TMC2     C 1450   2.994   0.475  13.732  0.1370  0.1922  0.2196
   93TMC2     O 1451   3.075   0.384  13.710  0.6102  0.1186 -0.1465
   93TMC2     H 1452   2.876   0.613  13.926  0.3157 -1.6682 -0.1453
   93TMC2    H1 1453   3.240   0.552  13.720  0.5392  0.8848  0.7983
   93TMC2    H2 1454   3.185   0.910  13.948 -0.7872 -0.2627  1.2074
   93TMC2    C7 1455   3.375   0.776  13.817 -0.8479 -0.2737  0.1273
   93TMC2    C8 1456   2.930   0.842  14.027  0.6492 -0.7505  0.1557
   93TMC2    O1 1457   3.437   0.723  13.725  0.6573 -0.2622 -0.4055
   93TMC2    O2 1458   2.854   0.783  14.104 -0.0029  0.4521 -0.4817
   93TMC2    O5 1459   2.958   0.977  14.033 -0.3944 -0.6058 -0.2023
   93TMC2    H5 1460   2.982   1.014  13.945 -0.1837  2.1765  1.0006
   94MPD2     C 1461   2.824   0.257  13.642 -0.0785 -0.6406 -0.6490
   94MPD2    C1 1462   2.778   0.381  13.664 -0.3745 -0.2510  0.2693
   94MPD2    C2 1463   2.638   0.408  13.653  0.7192 -0.4657 -0.0939
   94MPD2    C3 1464   2.552   0.313  13.606 -0.3584 -0.2709 -0.1435
   94MPD2    C4 1465   2.603   0.189  13.573 -0.4883  0.1320 -0.0601
   94MPD2    C5 1466   2.738   0.163  13.589  0.6091  0.3898 -0.4983
   94MPD2     H 1467   2.597   0.507  13.671  0.1297 -0.9403  1.1191
   94MPD2    H1 1468   2.537   0.106  13.550 -0.1573  0.2376 -1.4107
   94MPD2    H2 1469   2.927   0.230  13.663 -0.6751 -1.9876  0.5492
   94MPD2    H3 1470   2.779   0.063  13.578 -0.3861 -0.1528  0.6982
   94MPD2     N 1471   2.416   0.336  13.577 -0.1574 -0.3928 -0.3013
   94MPD2    H5 1472   2.366   0.253  13.549 -1.0797 -0.1452  0.6118
   94MPD2    N1 1473   2.857   0.485  13.716  0.7967 -0.7073  0.6974
   94MPD2    H7 1474   2.820   0.578  13.729  1.1767 -0.3098 -0.9836
   95TMC2    C1 1475   3.317   2.616  16.325  0.7340  0.1838 -0.2709
   95TMC2    C2 1476   3.200   2.563  16.348  0.4600 -1.2454  0.1810
   95TMC2    C3 1477   3.144   2.588  16.470 -0.5714  0.0427  0.0565
   95TMC2    C4 1478   3.390   2.676  16.424  0.1873 -0.1474  0.3864
   95TMC2    C5 1479   3.333   2.710  16.544  0.6829  0.0214  0.5185
   95TMC2    C6 1480   3.203   2.666  16.567 -0.5680 -0.0720  0.8030
   95TMC2     C 1481   3.387   2.602  16.198 -0.4687  0.2589  0.6373
   95TMC2     O 1482   3.471   2.682  16.162  0.1457 -0.2016  0.0058
   95TMC2     H 1483   3.143   2.515  16.270  0.1999  1.4019 -1.2487
   95TMC2    H1 1484   3.486   2.721  16.398  0.4225 -1.8137 -1.6071
   95TMC2    H2 1485   3.142   2.695  16.651  0.9360 -0.6148  2.0918
   95TMC2    C7 1486   3.381   2.829  16.609  0.5385  0.2976  0.0980
   95TMC2    C8 1487   3.020   2.520  16.504  0.7359  0.3592  0.1163
   95TMC2    O1 1488   3.499   2.858  16.589 -0.4364  0.0950  0.0436
   95TMC2    O2 1489   2.975   2.540  16.618 -0.2758  0.2091 -0.5998
   95TMC2    O5 1490   2.995   2.410  16.425 -0.1392  0.0525 -0.8055
   95TMC2    H5 1491   3.062   2.375  16.362  0.7236  0.5965 -0.1995
   96MPD2     C 1492   3.393   2.427  15.710  0.0706  0.1985 -0.1564
   96MPD2    C1 1493   3.465   2.529  15.765 -0.6996  0.5052  0.0928
   96MPD2    C2 1494   3.449   2.554  15.901  0.0784  0.0772  0.1366
   96MPD2    C3 1495   3.364   2.482  15.980  0.1481 -0.5333 -0.4801
   96MPD2    C4 1496   3.293   2.384  15.925  0.1665  0.2781 -0.8201
   96MPD2    C5 1497   3.307   2.357  15.796 -0.1257 -0.1330  0.1355
   96MPD2     H 1498   3.491   2.642  15.947  1.6435  0.4376 -1.9547
   96MPD2    H1 1499   3.221   2.333  15.987  2.0722 -0.9009  0.4252
   96MPD2    H2 1500   3.404   2.407  15.604  0.4836  2.7019 -0.6051
   96MPD2    H3 1501   3.247   2.275  15.759 -1.0690  0.3851  0.5289
   96MPD2     N 1502   3.330   2.507  16.116 -0.1011 -1.0253  0.1141
   96MPD2    H5 1503   3.255   2.446  16.146 -0.7697 -0.4167 -0.3451
   96MPD2    N1 1504   3.564   2.589  15.687 -0.1702 -0.4525  0.1276
   96MPD2    H7 1505   3.571   2.561  15.590 -2.2750 -0.5401 -0.0048
   97TMC2    C1 1506   1.798   0.074   0.012  0.4964  0.4985  0.4368
   97TMC2    C2 1507   1.912   0.019  17.699 -0.3567 -0.7147 -1.2390
   97TMC2    C3 1508   1.997   0.112  17.648 -0.0766  0.0157 -0.4425
   97TMC2    C4 1509   1.786   0.210   0.045  0.7895  0.6068  1.0108
   97TMC2    C5 1510   1.882   0.295  17.735  0.4129  0.4834 -0.7592
   97TMC2    C6 1511   1.988   0.248  17.662 -0.0887 -0.1327 -0.1471
   97TMC2     C 1512   1.692   4.719   0.050 -0.2230 -0.3626 -0.0549
   97TMC2     O 1513   1.611   0.017   0.130  0.3069  0.4911  0.2748
   97TMC2     H 1514   1.938   4.652  17.691  1.6937 -0.3720  0.8262
   97TMC2    H1 1515   1.705   0.242   0.109 -0.2676  0.1992 -0.1194
   97TMC2    H2 1516   2.037   0.322  17.599  0.0852  1.1162  1.4437
   97TMC2    C7 1517   1.869   0.433   0.009  0.5148 -0.1843  0.2083
   97TMC2    C8 1518   2.115   0.054  17.589 -0.2516 -1.0944 -0.1570
   97TMC2    O1 1519   1.968   0.501  17.738  0.2778 -0.4465  0.2491
   97TMC2    O2 1520   2.133   4.672  17.575  0.5645 -0.1601 -0.2150
   97TMC2    O5 1521   2.206   0.148  17.610  0.4935 -0.7597  0.0742
   97TMC2    H5 1522   2.176   0.219  17.672  2.9715  1.6399 -1.4865
   98MPD2     C 1523   1.457   4.261  17.714 -0.8868 -0.0944  0.1210
   98MPD2    C1 1524   1.417   4.367   0.044 -0.2851 -0.3390  0.7935
   98MPD2    C2 1525   1.493   4.486   0.054  0.0350 -0.7493  0.1050
   98MPD2    C3 1526   1.610   4.494  17.722  0.1501  0.2710  0.8048
   98MPD2    C4 1527   1.639   4.391  17.629  0.3033 -1.2385  0.0235
   98MPD2    C5 1528   1.563   4.281  17.632 -0.9055 -0.2743  0.1889
   98MPD2     H 1529   1.456   4.569   0.113  1.2426 -1.1771  1.4435
   98MPD2    H1 1530   1.730   4.376  17.571  1.0952 -1.8832  1.4140
   98MPD2    H2 1531   1.398   4.172  17.698  1.5172 -1.1660 -2.8019
   98MPD2    H3 1532   1.610   4.193  17.588  0.1546  0.0631  0.6474
   98MPD2     N 1533   1.696   4.603  17.717 -0.1949  0.4701 -0.3300
   98MPD2    H5 1534   1.764   4.611  17.642 -0.2733  1.0973 -0.3324
   98MPD2    N1 1535   1.304   4.341   0.123  0.2358 -0.4562  0.3737
   98MPD2    H7 1536   1.264   4.248   0.122 -0.1542 -0.3065  3.9954
   99TMC2    C1 1537   4.286   2.333   1.778  0.0083  0.6023 -0.5186
   99TMC2    C2 1538   4.366   2.377   1.880  0.4062  0.4602  0.1973
   99TMC2    C3 1539   4.315   2.357   2.005  0.3493  0.7117  0.4245
   99TMC2    C4 1540   4.167   2.271   1.794 -0.3528 -0.4386 -0.0969
   99TMC2    C5 1541   4.123   2.249   1.923 -1.4404 -0.3218 -0.1056
   99TMC2    C6 1542   4.199   2.300   2.031 -0.3102 -0.7038 -0.0082
   99TMC2     C 1543   4.357   2.357   1.647 -0.5950  0.2952  0.3496
   99TMC2     O 1544   4.449   2.440   1.654 -0.1439 -0.2120 -0.1285
   99TMC2     H 1545   4.456   2.437   1.873  2.1778 -1.8971  3.1752
   99TMC2    H1 1546   4.111   2.236   1.708  0.1301  0.4071 -0.7658
   99TMC2    H2 1547   4.179   2.277   2.135 -0.0298  1.6214  0.5463
   99TMC2    C7 1548   3.981   2.258   1.957 -0.0161 -0.1634  0.3714
   99TMC2    C8 1549   4.408   2.376   2.114 -0.2641  0.1247  0.1312
   99TMC2    O1 1550   3.957   2.309   2.067  0.0061  0.0793  0.3486
   99TMC2    O2 1551   4.388   2.441   2.219  0.1740  0.4705 -0.3527
   99TMC2    O5 1552   4.511   2.302   2.073  0.4175  0.0543  0.4742
   99TMC2    H5 1553   4.484   2.251   1.994 -3.1639  2.9677 -0.1486
  100MPD2     C 1554   4.551   2.254   1.450 -0.2630  0.3054  0.0517
  100MPD2    C1 1555   4.415   2.237   1.439  0.0909 -0.2935 -1.1796
  100MPD2    C2 1556   4.366   2.175   1.332  0.5152  0.2946 -0.1315
  100MPD2    C3 1557   4.444   2.121   1.232 -0.3123 -0.2738  0.3740
  100MPD2    C4 1558   4.579   2.145   1.237 -0.0685  0.2835  0.2979
  100MPD2    C5 1559   4.625   2.202   1.353  0.6064  1.0338 -0.0423
  100MPD2     H 1560   4.259   2.158   1.331  0.6094 -0.3102 -0.6231
  100MPD2    H1 1561   4.644   2.126   1.152  1.1327  2.7934  0.6523
  100MPD2    H2 1562   4.604   2.297   1.534 -0.5842 -0.3228  0.5741
  100MPD2    H3 1563   4.732   2.220   1.365  1.3116 -1.7884 -2.2387
  100MPD2     N 1564   4.384   2.050   1.125  0.2276 -0.8731 -0.2324
  100MPD2    H5 1565   4.283   2.052   1.114  0.5739  1.8025 -2.8674
  100MPD2    N1 1566   4.325   2.277   1.541  0.2037 -0.8769  0.1105
  100MPD2    H7 1567   4.230   2.242   1.529 -0.1338 -0.8819  2.8436
  101TMC2    C1 1568   4.246   3.411  13.157  0.7324  0.0440 -0.3172
  101TMC2    C2 1569   4.108   3.420  13.162 -0.2612 -0.0980 -0.0025
  101TMC2    C3 1570   4.041   3.480  13.064  0.1391 -0.9793  0.3412
  101TMC2    C4 1571   4.311   3.472  13.054  0.0756 -0.6848 -0.4595
  101TMC2    C5 1572   4.240   3.545  12.958  0.3534 -0.7997  0.0679
  101TMC2    C6 1573   4.101   3.546  12.958 -0.6847  0.7970  0.3336
  101TMC2     C 1574   4.310   3.304  13.234 -0.1647 -0.3593 -0.2537
  101TMC2     O 1575   4.252   3.277  13.339  0.1800  0.1273 -0.0481
  101TMC2     H 1576   4.052   3.359  13.232 -0.6187  0.1876 -0.0385
  101TMC2    H1 1577   4.418   3.479  13.063  0.4447 -2.2031 -3.4614
  101TMC2    H2 1578   4.034   3.601  12.894 -1.3214  0.6725  0.8955
  101TMC2    C7 1579   4.298   3.609  12.845 -0.4756  0.3247 -0.1137
  101TMC2    C8 1580   3.902   3.502  13.083 -0.2871 -0.4537 -0.1376
  101TMC2    O1 1581   4.216   3.662  12.767  0.4556 -0.3226 -0.3117
  101TMC2    O2 1582   3.822   3.526  12.994 -0.4853  0.5818 -0.1954
  101TMC2    O5 1583   3.911   3.573  13.194 -0.1236  0.4208  0.2743
  101TMC2    H5 1584   4.000   3.560  13.231  0.1024 -0.0161 -0.4265
  102MPD2     C 1585   4.585   3.095  13.089  0.4379  0.1704 -0.3922
  102MPD2    C1 1586   4.481   3.130  13.176  0.3135 -0.9167  0.4403
  102MPD2    C2 1587   4.458   3.050  13.283 -0.3769  0.4698 -0.2542
  102MPD2    C3 1588   4.507   2.921  13.294 -0.1718  0.2662 -0.7931
  102MPD2    C4 1589   4.614   2.891  13.212 -0.2112 -0.3447 -0.4355
  102MPD2    C5 1590   4.647   2.977  13.112  0.0295 -0.7023  0.4084
  102MPD2     H 1591   4.386   3.077  13.360  0.7870 -0.5507  1.1793
  102MPD2    H1 1592   4.661   2.793  13.204  0.6746 -0.1847  2.7381
  102MPD2    H2 1593   4.613   3.158  13.005  2.1569 -0.0678  0.0166
  102MPD2    H3 1594   4.713   2.945  13.031  1.5314 -0.9407  1.7214
  102MPD2     N 1595   4.463   2.833  13.393 -0.0380 -0.4577 -0.0473
  102MPD2    H5 1596   4.386   2.865  13.452  1.7065 -0.2805  2.1166
  102MPD2    N1 1597   4.414   3.256  13.152  0.1016 -0.4643 -0.4247
  102MPD2    H7 1598   4.439   3.311  13.071  1.0340  0.3060  0.3897
  103TMC2    C1 1599   2.681   3.634  13.092  0.6490  0.2317  0.1270
  103TMC2    C2 1600   2.796   3.678  13.159  1.2785  0.5142  0.6450
  103TMC2    C3 1601   2.784   3.717  13.292 -0.3831 -0.0834  0.4182
  103TMC2    C4 1602   2.559   3.626  13.149 -0.8654 -0.1026 -0.1631
  103TMC2    C5 1603   2.561   3.664  13.289  0.5961  0.3221 -0.1007
  103TMC2    C6 1604   2.665   3.718  13.356 -0.2693 -0.1828 -0.3967
  103TMC2     C 1605   2.682   3.609  12.953 -0.6659 -0.2455  0.3058
  103TMC2     O 1606   2.600   3.536  12.897 -0.0011 -0.1789  0.5833
  103TMC2     H 1607   2.898   3.668  13.123  0.1944 -0.9459 -1.9529
  103TMC2    H1 1608   2.475   3.583  13.096 -0.1791 -0.0841 -1.2519
  103TMC2    H2 1609   2.647   3.734  13.462  0.0683 -0.5460 -0.2853
  103TMC2    C7 1610   2.439   3.631  13.366 -0.4448  0.2696  0.0840
  103TMC2    C8 1611   2.893   3.768  13.373  0.2055 -0.2952  0.2042
  103TMC2    O1 1612   2.325   3.643  13.317 -0.5493  0.0355  0.0775
  103TMC2    O2 1613   2.893   3.772  13.497  0.0804  0.0400 -0.5130
  103TMC2    O5 1614   2.998   3.773  13.292 -0.5722  0.2159 -0.3097
  103TMC2    H5 1615   2.976   3.781  13.197  1.4619  2.3339 -0.6286
  104MPD2     C 1616   2.930   3.731  12.705 -0.0661  0.8433 -0.1796
  104MPD2    C1 1617   2.807   3.683  12.750  0.6319  0.1893  0.4770
  104MPD2    C2 1618   2.709   3.650  12.653 -0.4260 -0.2563  0.4095
  104MPD2    C3 1619   2.735   3.659  12.522 -0.5345 -0.7463 -0.3476
  104MPD2    C4 1620   2.863   3.704  12.476  0.4196  1.0576 -0.7259
  104MPD2    C5 1621   2.953   3.738  12.570 -0.4288  0.3988  0.6519
  104MPD2     H 1622   2.608   3.628  12.684 -0.5276 -0.3187  0.0317
  104MPD2    H1 1623   2.881   3.724  12.372  1.0964  0.1768 -0.7750
  104MPD2    H2 1624   3.006   3.756  12.778 -0.7966  0.6137  0.6639
  104MPD2    H3 1625   3.038   3.793  12.531 -0.1486  0.0070  0.7028
  104MPD2     N 1626   2.623   3.634  12.442  0.0284 -0.3978  0.2495
  104MPD2    H5 1627   2.533   3.609  12.482 -0.6614 -0.1323 -1.1329
  104MPD2    N1 1628   2.787   3.675  12.890 -0.6441 -0.0304  0.1726
  104MPD2    H7 1629   2.855   3.710  12.957  0.3009  0.6320 -1.1307
  105TMC2    C1 1630   3.716   2.606  17.630 -0.1798  0.7985  0.3245
  105TMC2    C2 1631   3.769   2.734  17.614 -0.0288 -0.0739  0.3437
  105TMC2    C3 1632   3.784   2.819  17.726  0.2702  0.4532  0.0202
  105TMC2    C4 1633   3.683   2.567   0.011 -0.0962 -0.2254  0.5420
  105TMC2    C5 1634   3.698   2.654   0.119 -0.1212  0.3285 -0.2721
  105TMC2    C6 1635   3.745   2.778   0.103 -0.2048  0.5915  0.4461
  105TMC2     C 1636   3.766   2.500  17.549 -0.4929 -0.0559  0.5177
  105TMC2     O 1637   3.730   2.380  17.568 -0.6967 -0.2646 -0.5594
  105TMC2     H 1638   3.780   2.781  17.517  2.1810 -0.1189  0.5846
  105TMC2    H1 1639   3.648   2.465   0.026  1.3419 -0.9984 -1.4149
  105TMC2    H2 1640   3.754   2.850   0.184  0.5189 -1.5757  2.2885
  105TMC2    C7 1641   3.734   2.584   0.244  0.2947  0.5465  0.0159
  105TMC2    C8 1642   3.835   2.959  17.711 -0.2804  0.3019  0.4144
  105TMC2    O1 1643   3.773   2.470   0.224  0.4829  0.1163 -0.5013
  105TMC2    O2 1644   3.938   2.992  17.653 -0.3916  0.0025  0.0968
  105TMC2    O5 1645   3.748   3.041   0.022 -0.4392 -0.9630  0.3176
  105TMC2    H5 1646   3.669   2.993   0.054 -1.2984 -1.0964 -1.9447
  106MPD2     C 1647   4.193   2.336  17.306 -0.1316 -0.5571 -0.3302
  106MPD2    C1 1648   4.172   2.467  17.283  0.3621 -0.3179  0.4207
  106MPD2    C2 1649   4.057   2.530  17.320 -0.2537  0.3706 -0.0553
  106MPD2    C3 1650   3.968   2.464  17.398  0.2216  0.8838 -0.0747
  106MPD2    C4 1651   3.989   2.332  17.424  0.6996  0.1339  0.2733
  106MPD2    C5 1652   4.091   2.270  17.358  0.6722 -0.1931 -0.1279
  106MPD2     H 1653   4.038   2.633  17.292 -0.3348  0.0298 -1.2228
  106MPD2    H1 1654   3.917   2.275  17.483  0.8781 -0.6706 -0.2860
  106MPD2    H2 1655   4.277   2.284  17.261  1.3292  0.5195  1.1369
  106MPD2    H3 1656   4.105   2.165  17.384 -0.0902 -0.2182  0.1624
  106MPD2     N 1657   3.867   2.541  17.465  0.2383  0.0398  0.6599
  106MPD2    H5 1658   3.869   2.636  17.427  3.0802 -0.4992 -0.5989
  106MPD2    N1 1659   4.280   2.546  17.234 -0.6856  0.2603  0.5984
  106MPD2    H7 1660   4.262   2.646  17.230  0.1523  0.3826  0.0089
  107TMC2    C1 1661   4.702   2.890  11.655  0.3483  0.9395 -0.7152
  107TMC2    C2 1662   4.717   2.996  11.734 -0.0435 -0.4620  0.2564
  107TMC2    C3 1663   0.004   3.116  11.680 -0.0345 -0.3353 -0.0082
  107TMC2    C4 1664   4.692   2.899  11.518 -0.1510  0.2642 -0.3688
  107TMC2    C5 1665   0.001   3.020  11.465  0.1103 -0.6005 -0.0740
  107TMC2    C6 1666   0.015   3.132  11.548 -0.2494  0.2640 -0.0783
  107TMC2     C 1667   4.646   2.782  11.724  0.3699  0.0550 -0.3047
  107TMC2     O 1668   4.628   2.785  11.844 -0.5887  0.3518  0.4041
  107TMC2     H 1669   4.729   2.978  11.841 -1.3939 -0.6701  0.3731
  107TMC2    H1 1670   4.655   2.823  11.450  0.8364  0.2335 -0.8789
  107TMC2    H2 1671   0.068   3.214  11.501  0.4024  0.3094  0.7311
  107TMC2    C7 1672   0.050   3.025  11.325  1.0377  0.2275  0.5118
  107TMC2    C8 1673   0.048   3.221  11.770 -0.3857  0.0365 -0.1161
  107TMC2    O1 1674   0.072   3.136  11.285 -0.0901 -0.1354 -0.4451
  107TMC2    O2 1675   0.127   3.206  11.862  0.5183  0.7724  0.0346
  107TMC2    O5 1676   0.017   3.336  11.708  0.4161 -0.5377 -0.4929
  107TMC2    H5 1677   4.694   3.322  11.632 -1.5938 -0.4428  1.0992
  108MPD2     C 1678   4.590   2.470  11.550 -0.4568  1.0472  0.3934
  108MPD2    C1 1679   4.586   2.548  11.662 -0.2744 -0.1207  0.1949
  108MPD2    C2 1680   4.521   2.507  11.776  0.3039  0.4324  0.3407
  108MPD2    C3 1681   4.460   2.385  11.769  0.5288  0.1733  0.9824
  108MPD2    C4 1682   4.457   2.310  11.652  0.1818  0.7470  0.0949
  108MPD2    C5 1683   4.531   2.341  11.546  0.2631 -0.0455 -0.2513
  108MPD2     H 1684   4.510   2.571  11.862  1.5898 -0.2226  0.9818
  108MPD2    H1 1685   4.406   2.214  11.648  1.4020  0.0528  0.8598
  108MPD2    H2 1686   4.631   2.513  11.460  1.1126 -1.6535 -0.2053
  108MPD2    H3 1687   4.539   2.281  11.456 -1.3724  2.3699 -2.0058
  108MPD2     N 1688   4.405   2.318  11.878 -0.6147 -0.0316 -0.0727
  108MPD2    H5 1689   4.362   2.227  11.861  0.8446 -0.5701 -0.8864
  108MPD2    N1 1690   4.632   2.678  11.636 -0.5321 -0.0518  0.2996
  108MPD2    H7 1691   4.646   2.707  11.540 -0.4300 -0.7309  0.1080
  109TMC2    C1 1692   0.593   0.282   0.305  0.0005  0.2001  0.0892
  109TMC2    C2 1693   0.578   0.320   0.174 -0.2691 -0.1758  0.3998
  109TMC2    C3 1694   0.597   0.231   0.078  0.6316  0.0006 -0.0410
  109TMC2    C4 1695   0.636   0.155   0.340 -0.4779  0.1408  0.6681
  109TMC2    C5 1696   0.656   0.071   0.238 -0.0946  0.1433 -0.3198
  109TMC2    C6 1697   0.627   0.100   0.109 -0.5096  0.3402  0.0884
  109TMC2     C 1698   0.537   0.372   0.402  0.2522 -0.5498  0.2358
  109TMC2     O 1699   0.507   0.480   0.360  0.1397 -0.6095 -0.4566
  109TMC2     H 1700   0.533   0.414   0.144 -0.0343 -0.9003 -2.2184
  109TMC2    H1 1701   0.660   0.130   0.443  0.7592  2.2681  0.8900
  109TMC2    H2 1702   0.633   0.036   0.022 -1.1109  0.2395  0.1166
  109TMC2    C7 1703   0.678   4.669   0.262 -0.6991  0.7554 -0.1179
  109TMC2    C8 1704   0.572   0.272  17.693 -0.6266  0.1507  0.3434
  109TMC2    O1 1705   0.711   4.606   0.164  0.2864 -0.2415  0.4401
  109TMC2    O2 1706   0.559   0.193  17.598 -0.0558 -0.1058  0.3898
  109TMC2    O5 1707   0.650   0.385  17.687 -0.0088 -0.0777  0.1377
  109TMC2    H5 1708   0.698   0.391   0.024  1.1153  2.6691 -0.6956
  110MPD2     C 1709   0.242   0.500   0.802 -0.0553  0.1146  0.3975
  110MPD2    C1 1710   0.279   0.367   0.816 -0.3842 -0.2958 -0.6361
  110MPD2    C2 1711   0.366   0.313   0.722 -0.0306 -0.1339  0.4565
  110MPD2    C3 1712   0.412   0.389   0.614  0.1219  0.3465 -0.2966
  110MPD2    C4 1713   0.376   0.530   0.606 -0.1197  0.0217  0.2571
  110MPD2    C5 1714   0.298   0.582   0.703 -0.6882 -0.3618 -0.4512
  110MPD2     H 1715   0.385   0.207   0.732 -2.6439 -0.7098 -0.6731
  110MPD2    H1 1716   0.415   0.604   0.537  1.8327  0.0542  1.3933
  110MPD2    H2 1717   0.185   0.556   0.875  2.2351  2.9539  0.0202
  110MPD2    H3 1718   0.280   0.689   0.702 -1.3688 -0.4681 -0.0374
  110MPD2     N 1719   0.494   0.317   0.524 -0.7565 -0.5409  0.1849
  110MPD2    H5 1720   0.516   0.221   0.550  0.9042  0.5167  2.6851
  110MPD2    N1 1721   0.228   0.302   0.930  0.0368  0.3897  0.0542
  110MPD2    H7 1722   0.147   0.349   0.968  0.2319 -2.1295  3.5885
  111TMC2    C1 1723   4.488   4.304  11.990  0.8762  0.0796 -0.1654
  111TMC2    C2 1724   4.427   4.292  12.111  0.4989  0.6826 -0.3185
  111TMC2    C3 1725   4.503   4.281  12.223 -0.3031  0.5791  0.3140
  111TMC2    C4 1726   4.623   4.302  11.970  0.2265  0.1933 -0.6229
  111TMC2    C5 1727   4.693   4.283  12.086  0.1573 -0.0248 -0.3518
  111TMC2    C6 1728   4.639   4.271  12.208 -0.2607  0.6955  0.2047
  111TMC2     C 1729   4.403   4.338  11.884  0.4727  0.4948 -0.5770
  111TMC2     O 1730   4.466   4.379  11.790 -0.0622  0.2036  0.2980
  111TMC2     H 1731   4.324   4.323  12.125  0.4648  0.0390  0.8363
  111TMC2    H1 1732   4.673   4.303  11.874  1.8694 -2.3836  0.2066
  111TMC2    H2 1733   4.696   4.275  12.300  1.7870 -0.4291 -1.0263
  111TMC2    C7 1734   0.097   4.276  12.079 -0.5634 -0.0043  0.6965
  111TMC2    C8 1735   4.439   4.249  12.350  0.0873  0.4455  0.1895
  111TMC2    O1 1736   0.149   4.306  11.972  0.2631  0.7612  0.5323
  111TMC2    O2 1737   4.325   4.274  12.371 -0.4079 -0.0388  0.6304
  111TMC2    O5 1738   4.527   4.200  12.440  0.7849 -0.1229  0.8328
  111TMC2    H5 1739   4.604   4.151  12.406  0.6889  0.2607  0.0717
  112MPD2     C 1740   3.977   4.272  11.592 -0.0977  0.4453 -0.3162
  112MPD2    C1 1741   4.094   4.344  11.572  0.3119 -1.0260  0.5388
  112MPD2    C2 1742   4.183   4.352  11.675 -0.3387  0.2075  0.3880
  112MPD2    C3 1743   4.177   4.276  11.786  0.4924 -0.2955 -0.5328
  112MPD2    C4 1744   4.067   4.196  11.806  0.0556 -0.3697 -0.5424
  112MPD2    C5 1745   3.964   4.204  11.712 -0.2440 -0.0415 -0.2867
  112MPD2     H 1746   4.280   4.395  11.656 -0.6222  0.6982  0.0634
  112MPD2    H1 1747   4.060   4.124  11.886  0.4072  3.2215  2.7321
  112MPD2    H2 1748   3.896   4.250  11.525 -1.4712 -1.5922  2.0028
  112MPD2    H3 1749   3.879   4.138  11.724 -1.1636  1.3248  0.6969
  112MPD2     N 1750   4.273   4.285  11.897 -0.2007  0.8599  0.5638
  112MPD2    H5 1751   4.255   4.235  11.983 -0.3334 -0.2678 -0.1293
  112MPD2    N1 1752   4.119   4.410  11.447  0.5560  0.1767  0.6985
  112MPD2    H7 1753   4.203   4.462  11.424  1.4630 -1.0371  1.2771
  113TMC2    C1 1754   3.083   2.401   0.707 -0.6371 -0.0506  0.0772
  113TMC2    C2 1755   3.081   2.510   0.640 -0.1617 -0.9643 -0.4726
  113TMC2    C3 1756   3.003   2.518   0.527  0.3597 -0.0334 -0.1986
  113TMC2    C4 1757   3.013   2.290   0.668 -0.2569 -0.3456 -0.0354
  113TMC2    C5 1758   2.941   2.304   0.554  0.1130  0.0604  0.2970
  113TMC2    C6 1759   2.937   2.415   0.476 -0.0906 -0.6469 -0.2876
  113TMC2     C 1760   3.152   2.396   0.830  0.6733  0.3138  1.1755
  113TMC2     O 1761   3.188   2.499   0.880  0.2928 -0.0138  0.4881
  113TMC2     H 1762   3.141   2.592   0.678 -1.5292  0.5625 -1.6432
  113TMC2    H1 1763   3.011   2.204   0.734  2.5466 -0.3702  0.0222
  113TMC2    H2 1764   2.854   2.424   0.407  0.1536 -1.4437 -0.6877
  113TMC2    C7 1765   2.891   2.193   0.487 -0.4615 -0.2796 -0.7224
  113TMC2    C8 1766   3.009   2.641   0.451  0.5290 -0.2836  0.1031
  113TMC2    O1 1767   2.849   2.208   0.373  0.3345 -0.2405 -0.2341
  113TMC2    O2 1768   3.037   2.751   0.500 -0.3578 -0.1503 -0.4612
  113TMC2    O5 1769   2.958   2.636   0.330  0.0113  0.0994 -0.2365
  113TMC2    H5 1770   2.975   2.553   0.281 -0.5660 -0.7117  0.9628
  114MPD2     C 1771   3.406   2.153   1.199  0.1556  0.0903  0.0262
  114MPD2    C1 1772   3.355   2.285   1.186 -0.2266 -0.3121 -0.4868
  114MPD2    C2 1773   3.270   2.325   1.087 -0.4159  0.1721 -0.0920
  114MPD2    C3 1774   3.244   2.239   0.984 -0.5082  0.5134 -0.1497
  114MPD2    C4 1775   3.280   2.112   1.001 -0.3895 -0.7463 -0.0875
  114MPD2    C5 1776   3.356   2.064   1.105  0.1950  0.0958 -0.3684
  114MPD2     H 1777   3.222   2.421   1.099 -0.5661 -0.1197  1.7150
  114MPD2    H1 1778   3.268   2.043   0.918  1.2632  0.3168 -1.2115
  114MPD2    H2 1779   3.474   2.116   1.276  1.1992  1.0255 -0.4472
  114MPD2    H3 1780   3.389   1.961   1.113  0.5948  0.4263  2.3812
  114MPD2     N 1781   3.187   2.270   0.862  0.6424  0.7781  0.1551
  114MPD2    H5 1782   3.161   2.190   0.804  0.2514  2.1241 -1.5068
  114MPD2    N1 1783   3.370   2.387   1.287 -0.0758 -0.7457  0.4717
  114MPD2    H7 1784   3.327   2.478   1.276  1.7094  0.0142 -0.2943
  115TMC2    C1 1785   3.947   0.092   0.075  0.8014  1.2814 -0.5950
  115TMC2    C2 1786   4.081   0.077   0.090 -0.3435  0.2487 -0.0211
  115TMC2    C3 1787   4.158   0.177   0.134  1.1081 -0.3963 -0.4272
  115TMC2    C4 1788   3.882   0.208   0.111  0.5067  0.4173  0.1997
  115TMC2    C5 1789   3.969   0.306   0.136  0.0095  0.0945 -1.0166
  115TMC2    C6 1790   4.104   0.298   0.147  0.0375  0.0047  0.1817
  115TMC2     C 1791   3.866   4.718   0.036 -0.1724 -0.1215  0.3521
  115TMC2     O 1792   3.910   4.622  17.723  0.0973 -0.5400 -0.6183
  115TMC2     H 1793   4.126   4.721   0.057  0.4758  1.2161 -1.6511
  115TMC2    H1 1794   3.778   0.232   0.095  0.6176 -0.4054 -1.7836
  115TMC2    H2 1795   4.159   0.386   0.181  1.1825 -1.2152  1.4693
  115TMC2    C7 1796   3.906   0.442   0.137  0.0645  0.2566 -0.0359
  115TMC2    C8 1797   4.301   0.152   0.138 -0.3317  0.6803 -0.9358
  115TMC2    O1 1798   3.789   0.453   0.165  0.4969 -0.3193  0.2129
  115TMC2    O2 1799   4.357   0.040   0.137 -0.6779 -0.2408  0.8774
  115TMC2    O5 1800   4.361   0.262   0.095  0.0436  0.7198  0.3771
  115TMC2    H5 1801   4.303   0.339   0.075 -2.5468 -1.6157 -1.0510
  116MPD2     C 1802   3.411   4.476   0.025 -0.3237  0.1055 -0.2242
  116MPD2    C1 1803   3.532   4.441  17.714 -0.3334 -1.6566  0.8058
  116MPD2    C2 1804   3.637   4.532  17.718 -0.3384 -0.1296 -0.0482
  116MPD2    C3 1805   3.632   4.640   0.056  0.4159  0.1464 -0.1636
  116MPD2    C4 1806   3.516   4.669   0.122 -0.1142  0.0474  0.3159
  116MPD2    C5 1807   3.409   4.590   0.097 -0.4957 -0.0875 -0.5066
  116MPD2     H 1808   3.726   4.500  17.664 -0.1591  1.4889 -0.7276
  116MPD2    H1 1809   3.501   0.016   0.188  1.6575 -0.0202  0.7954
  116MPD2    H2 1810   3.327   4.407   0.023 -0.8981  0.7658  1.1933
  116MPD2    H3 1811   3.312   4.619   0.133 -1.0299 -1.5507 -0.7671
  116MPD2     N 1812   3.737   4.732   0.080  0.1634 -0.1012 -0.4905
  116MPD2    H5 1813   3.724   0.073   0.143  0.2935  0.8901 -1.6967
  116MPD2    N1 1814   3.544   4.312  17.660  0.3709 -0.0019 -0.0019
  116MPD2    H7 1815   3.455   4.264  17.665  0.8129 -0.6465  1.7771
  117TMC2    C1 1816   2.157   1.359  14.130  0.8988  0.3388 -0.6506
  117TMC2    C2 1817   2.208   1.255  14.200  1.1411 -0.5315  0.0951
  117TMC2    C3 1818   2.310   1.278  14.283 -0.6195  0.1092  0.3138
  117TMC2    C4 1819   2.198   1.492  14.143 -0.2348  0.2465 -0.0196
  117TMC2    C5 1820   2.299   1.509  14.239 -0.5040  0.1498  0.2502
  117TMC2    C6 1821   2.360   1.399  14.301  0.2295  0.3145  0.5173
  117TMC2     C 1822   2.028   1.332  14.077  0.3218 -0.9908  0.4085
  117TMC2     O 1823   2.000   1.220  14.048 -0.3804  0.2638 -0.0185
  117TMC2     H 1824   2.168   1.154  14.193 -0.0906 -0.0022 -0.3859
  117TMC2    H1 1825   2.184   1.571  14.070  1.4910 -3.6879 -4.6254
  117TMC2    H2 1826   2.418   1.418  14.391  0.1330  2.6341  0.0868
  117TMC2    C7 1827   2.322   1.635  14.293 -0.7069  0.1924 -0.4495
  117TMC2    C8 1828   2.355   1.170  14.363  0.2093 -0.3255  0.2001
  117TMC2    O1 1829   2.419   1.657  14.369  0.4031  0.1283 -0.0079
  117TMC2    O2 1830   2.317   1.055  14.351  0.3699  0.1466  0.1255
  117TMC2    O5 1831   2.488   1.193  14.380  0.1042  0.2933  0.1642
  117TMC2    H5 1832   2.514   1.275  14.333  1.4412 -0.0281  0.3594
  118MPD2     C 1833   2.045   1.875  14.302  0.4408 -0.2789  0.3367
  118MPD2    C1 1834   2.168   1.828  14.324  0.1112  0.5668 -0.2007
  118MPD2    C2 1835   2.256   1.906  14.404  0.0108  0.3562  0.1896
  118MPD2    C3 1836   2.216   2.027  14.450  0.1161  0.5186  0.2879
  118MPD2    C4 1837   2.088   2.072  14.426 -0.3519  0.2658  0.6124
  118MPD2    C5 1838   2.000   1.993  14.356 -0.6023  0.2850  0.5892
  118MPD2     H 1839   2.354   1.877  14.439 -0.6397  0.0962  1.8461
  118MPD2    H1 1840   2.049   2.171  14.448 -0.9228 -0.2131  1.7562
  118MPD2    H2 1841   1.966   1.824  14.247  1.0119 -1.6206  0.7440
  118MPD2    H3 1842   1.900   2.031  14.343 -0.4245 -0.0676 -1.7860
  118MPD2     N 1843   2.289   2.109  14.531 -0.2681 -0.2720 -0.2459
  118MPD2    H5 1844   2.231   2.185  14.564  1.1416  1.5510 -1.9342
  118MPD2    N1 1845   2.202   1.705  14.273 -0.1786 -0.0624 -0.5747
  118MPD2    H7 1846   2.122   1.658  14.232 -0.5488  0.2107 -0.1724
  119TMC2    C1 1847   0.370   2.354  13.718  0.5007 -0.0058  0.7133
  119TMC2    C2 1848   0.490   2.288  13.760 -0.2943  0.4590 -0.3254
  119TMC2    C3 1849   0.479   2.198  13.863  0.4350 -0.6481 -0.4008
  119TMC2    C4 1850   0.251   2.328  13.788  0.5846 -0.4653  0.3551
  119TMC2    C5 1851   0.246   2.240  13.890 -0.6450  0.9205 -0.5020
  119TMC2    C6 1852   0.362   2.179  13.933 -0.4439  0.0225  0.0531
  119TMC2     C 1853   0.387   2.502  13.696 -0.5001  0.6690  0.0650
  119TMC2     O 1854   0.302   2.572  13.749  0.0155 -0.6917 -0.4338
  119TMC2     H 1855   0.584   2.295  13.706 -0.5582 -1.0462 -0.9604
  119TMC2    H1 1856   0.165   2.392  13.768  1.8203  0.7671 -1.0103
  119TMC2    H2 1857   0.364   2.113  14.019  2.3518 -0.0315 -0.0420
  119TMC2    C7 1858   0.138   2.253  13.987  0.0076  0.5473  0.2988
  119TMC2    C8 1859   0.582   2.099  13.860 -0.2100 -0.1845 -0.4636
  119TMC2    O1 1860   0.041   2.323  13.961  0.2246  0.6540 -0.1811
  119TMC2    O2 1861   0.694   2.127  13.822  0.5670  0.3954  0.9806
  119TMC2    O5 1862   0.545   2.000  13.945  0.4506  0.2452 -0.3358
  119TMC2    H5 1863   0.448   1.982  13.946  0.2734  1.2475  0.9034
  120MPD2     C 1864   0.664   2.911  13.660 -0.2696  0.5925  0.3251
  120MPD2    C1 1865   0.524   2.905  13.676 -0.2310  0.1898 -0.3183
  120MPD2    C2 1866   0.467   2.778  13.656  0.2404 -0.2768  0.0479
  120MPD2    C3 1867   0.543   2.668  13.614  0.0949  0.2868 -1.0137
  120MPD2    C4 1868   0.676   2.687  13.579 -0.2825 -0.3708  0.6097
  120MPD2    C5 1869   0.737   2.809  13.606  0.3165 -0.3090  0.6187
  120MPD2     H 1870   0.360   2.776  13.673  0.3460  0.3263  0.8023
  120MPD2    H1 1871   0.739   2.611  13.534 -0.0154  1.6847 -2.4687
  120MPD2    H2 1872   0.722   2.996  13.694  0.7480 -0.2876  0.7837
  120MPD2    H3 1873   0.844   2.824  13.599  0.4225 -1.0783  0.6438
  120MPD2     N 1874   0.504   2.535  13.628  0.2888  1.0790  0.3432
  120MPD2    H5 1875   0.572   2.472  13.588  0.6140  1.0409  0.9581
  120MPD2    N1 1876   0.455   3.021  13.730 -0.0332 -0.4106 -0.1619
  120MPD2    H7 1877   0.517   3.095  13.760  2.8064 -2.0399 -2.0771
  121TMC2    C1 1878   2.059   4.139  14.204 -0.7754 -0.5856  0.6436
  121TMC2    C2 1879   2.136   4.157  14.316  0.4742  0.7090 -0.0267
  121TMC2    C3 1880   2.066   4.218  14.414 -0.1669 -0.1590  0.6741
  121TMC2    C4 1881   1.923   4.168  14.199 -0.1011 -0.0315 -0.3576
  121TMC2    C5 1882   1.859   4.218  14.307 -0.1893  0.7045 -0.3691
  121TMC2    C6 1883   1.939   4.258  14.403  0.2411  0.3550 -0.1296
  121TMC2     C 1884   2.118   4.071  14.095 -0.2267  0.5936  0.2370
  121TMC2     O 1885   2.222   4.013  14.115  0.1277 -0.0565 -0.0163
  121TMC2     H 1886   2.241   4.133  14.324  0.5451  0.7906 -0.7209
  121TMC2    H1 1887   1.866   4.155  14.108  1.7247 -0.9233 -1.3607
  121TMC2    H2 1888   1.898   4.310  14.490  0.9791 -0.6016  0.7960
  121TMC2    C7 1889   1.741   4.290  14.289 -0.0386  0.5782 -0.5074
  121TMC2    C8 1890   2.134   4.246  14.542 -0.1253  0.4308 -0.8073
  121TMC2    O1 1891   1.749   4.411  14.307 -0.2227 -0.1063 -0.1555
  121TMC2    O2 1892   2.088   4.322  14.623  0.1080 -0.3030 -0.2576
  121TMC2    O5 1893   2.212   4.140  14.585 -0.0356 -0.8192 -1.0351
  121TMC2    H5 1894   2.234   4.069  14.520  0.3389  2.2228 -4.2288
  122MPD2     C 1895   2.195   3.951  13.833  0.1238  0.8120  0.6262
  122MPD2    C1 1896   2.121   4.068  13.857 -0.6229  0.1039  0.2196
  122MPD2    C2 1897   2.085   4.141  13.742 -0.3398 -0.5598 -0.0994
  122MPD2    C3 1898   2.112   4.094  13.618 -0.0928  0.0977  0.3666
  122MPD2    C4 1899   2.182   3.974  13.596 -0.1450  0.3112  0.6384
  122MPD2    C5 1900   2.237   3.913  13.704 -0.3239 -0.1799 -0.1256
  122MPD2     H 1901   2.015   4.222  13.758  0.8469  0.5455 -0.5099
  122MPD2    H1 1902   2.212   3.941  13.497 -1.9475 -0.5791  0.3863
  122MPD2    H2 1903   2.240   3.895  13.915  0.8997 -0.7362 -0.8592
  122MPD2    H3 1904   2.304   3.830  13.685  0.3682  0.5493 -0.9322
  122MPD2     N 1905   2.073   4.172  13.505 -0.4445  0.3241 -0.4682
  122MPD2    H5 1906   2.100   4.132  13.416 -1.5268 -0.9193 -0.2301
  122MPD2    N1 1907   2.069   4.113  13.976 -0.1114  0.4762  0.6171
  122MPD2    H7 1908   2.008   4.194  13.977 -0.8757 -0.0962 -0.1019
  123TMC2    C1 1909   4.736   2.846  10.668 -0.2099 -0.2822 -0.6032
  123TMC2    C2 1910   4.645   2.859  10.766  0.1612 -0.3624 -0.5872
  123TMC2    C3 1911   4.638   2.981  10.828 -0.1495 -0.0856  0.4374
  123TMC2    C4 1912   0.082   2.947  10.634  0.5825  0.0118 -0.4379
  123TMC2    C5 1913   0.060   3.070  10.691  0.0996 -0.6324 -0.0894
  123TMC2    C6 1914   4.699   3.096  10.782 -0.3944 -0.2136 -0.1090
  123TMC2     C 1915   4.737   2.718  10.598  0.3141  0.1300 -0.4626
  123TMC2     O 1916   4.696   2.627  10.665  0.7481  0.1569 -0.4166
  123TMC2     H 1917   4.582   2.777  10.797  0.5492 -0.3787  0.1537
  123TMC2    H1 1918   0.161   2.933  10.561 -1.3438  0.2885 -2.5693
  123TMC2    H2 1919   4.691   3.192  10.832 -1.0589 -0.0902 -0.4396
  123TMC2    C7 1920   0.120   3.177  10.617 -1.1568  0.0828 -0.2228
  123TMC2    C8 1921   4.564   3.002  10.954  0.3054 -0.6178 -0.2930
  123TMC2    O1 1922   0.187   3.157  10.515  0.2819 -0.2072  0.4259
  123TMC2    O2 1923   4.550   3.117  11.000 -0.1395  0.0584 -0.3183
  123TMC2    O5 1924   4.515   2.882  11.000  0.2453  0.0856 -0.2678
  123TMC2    H5 1925   4.555   2.809  10.949  1.7718  0.9561 -0.3196
  124MPD2     C 1926   0.260   2.416  10.263  0.0535 -0.0550 -0.1104
  124MPD2    C1 1927   0.232   2.535  10.202  0.2442  0.0372  0.3834
  124MPD2    C2 1928   0.171   2.635  10.281  0.4352 -0.3288  0.1914
  124MPD2    C3 1929   0.118   2.613  10.409  0.0159  0.1440  0.1414
  124MPD2    C4 1930   0.135   2.493  10.468  0.2282  0.9200  0.7656
  124MPD2    C5 1931   0.208   2.401  10.389 -1.0781 -0.0131 -0.1831
  124MPD2     H 1932   0.160   2.734  10.237  2.3629 -1.0276 -1.8351
  124MPD2    H1 1933   0.101   2.467  10.567 -0.8511 -1.3816 -0.2249
  124MPD2    H2 1934   0.315   2.335  10.218 -0.0671  0.3551 -1.0006
  124MPD2    H3 1935   0.222   2.306  10.440  0.3889  0.2263 -0.1453
  124MPD2     N 1936   0.063   2.728  10.476  0.1451 -0.6706 -0.0228
  124MPD2    H5 1937   0.071   2.815  10.425 -2.3559 -0.3539  0.1261
  124MPD2    N1 1938   0.294   2.557  10.074  0.5033  0.0094 -1.0409
  124MPD2    H7 1939   0.358   2.486  10.043  1.8189  0.6622  0.1826
  125TMC2    C1 1940   1.011   0.298  10.178 -0.1699 -0.3737 -0.0929
  125TMC2    C2 1941   0.920   0.340  10.275 -0.1808  0.7318 -1.0129
  125TMC2    C3 1942   0.869   0.248  10.362 -0.3755 -0.1983  0.3683
  125TMC2    C4 1943   1.027   0.161  10.150  0.4734  0.2103  0.0625
  125TMC2    C5 1944   0.968   0.075  10.235 -0.0525  0.0940 -0.5096
  125TMC2    C6 1945   0.898   0.116  10.345 -0.7587  0.2228  0.4550
  125TMC2     C 1946   1.055   0.397  10.080  0.1595 -0.1202  0.1754
  125TMC2     O 1947   1.024   0.512  10.106  0.2995 -0.1312 -0.3234
  125TMC2     H 1948   0.908   0.447  10.282  0.4564  0.5822  2.0550
  125TMC2    H1 1949   1.074   0.128  10.058 -0.6076 -2.4273  0.4694
  125TMC2    H2 1950   0.845   0.047  10.410 -1.9019 -0.7715 -1.5491
  125TMC2    C7 1951   1.001   4.677  10.218  0.0416  0.1389  0.1593
  125TMC2    C8 1952   0.736   0.271  10.406 -0.3501 -0.3809  0.2171
  125TMC2    O1 1953   0.933   4.583  10.254  0.1533 -0.3016 -0.0894
  125TMC2    O2 1954   0.661   0.354  10.356  0.0149 -0.3624  0.3163
  125TMC2    O5 1955   0.759   0.267  10.539 -0.3390 -0.0556  1.0099
  125TMC2    H5 1956   0.845   0.223  10.557  0.2308  1.5547  2.1842
  126MPD1     C 1957   1.358   0.566   9.698  0.1389 -0.2091 -0.6254
  126MPD1    C1 1958   1.388   0.430   9.715  0.7673 -0.0230  0.6026
  126MPD1    C2 1959   1.310   0.357   9.808  0.1124 -0.2247 -0.0978
  126MPD1    C3 1960   1.212   0.419   9.890  0.3679  0.6462  0.5484
  126MPD1    C4 1961   1.185   0.548   9.866  0.4032  0.2271  0.1752
  126MPD1    C5 1962   1.257   0.620   9.774  0.1723 -0.3855  0.3523
  126MPD1     H 1963   1.324   0.249   9.802 -0.3664 -0.4081  2.0241
  126MPD1    H1 1964   1.103   0.593   9.921  3.0036  2.8332  1.8896
  126MPD1    H2 1965   1.418   0.623   9.627  2.3878 -0.3692  1.1476
  126MPD1    H3 1966   1.219   0.721   9.761 -0.2574 -0.7208 -1.1010
  126MPD1     N 1967   1.133   0.347   9.981 -0.1508 -1.0438 -0.1313
  126MPD1    H5 1968   1.156   0.248   9.979  1.3414 -0.7355  1.4690
  126MPD1    N1 1969   1.461   0.368   9.616 -0.1672 -0.2259  0.8554
  126MPD1    H6 1970   1.520   0.426   9.556 -1.7542  1.2675  0.7319
  126MPD1    H7 1971   1.525   0.303   9.660 -0.6133 -2.0588 -1.1946
  127TMC2    C1 1972   2.255   3.547   9.774  0.3650 -0.6047 -0.4061
  127TMC2    C2 1973   2.299   3.551   9.897  0.3961  0.4171 -0.4647
  127TMC2    C3 1974   2.212   3.506   9.996  0.3063  0.3926 -0.2905
  127TMC2    C4 1975   2.122   3.530   9.738 -0.1594  0.1824  0.2719
  127TMC2    C5 1976   2.041   3.481   9.835  0.0265  0.1734  0.0527
  127TMC2    C6 1977   2.084   3.468   9.965 -0.0287 -0.5901  0.4185
  127TMC2     C 1978   2.332   3.595   9.669 -0.8640  0.1778  0.5185
  127TMC2     O 1979   2.279   3.632   9.566  0.3209  0.6525  0.3242
  127TMC2     H 1980   2.400   3.582   9.923 -1.6166  1.3826  6.0760
  127TMC2    H1 1981   2.089   3.528   9.635  4.3282 -0.1361 -1.1614
  127TMC2    H2 1982   2.016   3.433  10.042 -0.8874 -0.5578 -0.3269
  127TMC2    C7 1983   1.900   3.503   9.819  0.4623  0.8566  0.3238
  127TMC2    C8 1984   2.254   3.471  10.130  0.5021  0.0443  0.6503
  127TMC2    O1 1985   1.872   3.579   9.727  0.2435 -0.0222  0.1182
  127TMC2    O2 1986   2.167   3.500  10.214  0.5888 -0.0167 -0.0951
  127TMC2    O5 1987   2.351   3.379  10.123  0.4777 -0.0704 -0.6142
  127TMC2    H5 1988   2.392   3.370  10.034  0.0268 -2.0062 -0.6184
  128MPD2     C 1989   2.678   3.522   9.603  1.5557  0.1584 -0.4235
  128MPD2    C1 1990   2.561   3.594   9.595  0.0212  0.1200  0.0533
  128MPD2    C2 1991   2.555   3.700   9.504  0.1207 -0.0600  0.4013
  128MPD2    C3 1992   2.660   3.723   9.415 -0.5428  0.1933 -0.7173
  128MPD2    C4 1993   2.778   3.651   9.432 -0.4301  0.4231 -0.3790
  128MPD2    C5 1994   2.781   3.553   9.529 -0.0930 -0.2006  0.1798
  128MPD2     H 1995   2.471   3.767   9.490  1.3470  1.4529  0.2880
  128MPD2    H1 1996   2.871   3.693   9.394  0.5625 -2.0863 -0.7290
  128MPD2    H2 1997   2.690   3.439   9.672  0.9943  0.5964  0.1959
  128MPD2    H3 1998   2.878   3.511   9.553  0.7890  0.0535 -2.8788
  128MPD2     N 1999   2.648   3.836   9.325 -0.3756 -0.2885  0.0457
  128MPD2    H5 2000   2.571   3.899   9.344 -0.4036  0.0325 -1.1419
  128MPD2    N1 2001   2.459   3.566   9.686 -0.1504 -0.5023  0.1975
  128MPD2    H7 2002   2.488   3.519   9.771 -1.2813 -2.9323 -0.7553
  129TMC2    C1 2003   1.373   3.406   1.435 -0.8190  0.2193  0.5451
  129TMC2    C2 2004   1.350   3.525   1.503 -0.1020  0.7372  0.5024
  129TMC2    C3 2005   1.288   3.497   1.622 -0.8477 -0.3553  0.1504
  129TMC2    C4 2006   1.364   3.274   1.479 -0.0416 -0.2894 -0.0975
  129TMC2    C5 2007   1.295   3.262   1.600 -0.0451  0.5674 -0.1724
  129TMC2    C6 2008   1.256   3.375   1.670 -0.2376  1.0358 -0.0421
  129TMC2     C 2009   1.432   3.418   1.295 -0.6960 -0.2529  0.3479
  129TMC2     O 2010   1.486   3.319   1.248  0.2003  0.2799  0.2179
  129TMC2     H 2011   1.400   3.618   1.479  1.4721 -0.4702 -0.8910
  129TMC2    H1 2012   1.385   3.190   1.415 -1.0167 -0.0770 -0.7037
  129TMC2    H2 2013   1.205   3.369   1.765 -0.9748  3.0871 -0.3081
  129TMC2    C7 2014   1.215   3.143   1.617  0.0477 -0.0413  0.1914
  129TMC2    C8 2015   1.255   3.610   1.709  0.2786  0.3734  0.4689
  129TMC2    O1 2016   1.116   3.154   1.681  0.5403  0.0677  0.3348
  129TMC2    O2 2017   1.253   3.602   1.832  0.2205 -0.2996 -0.0794
  129TMC2    O5 2018   1.149   3.658   1.647  0.4042  0.1032  0.3091
  129TMC2    H5 2019   1.160   3.625   1.555 -0.6645  1.3117 -0.2632
  130MPD2     C 2020   1.534   3.523   1.024  0.3964 -0.0328 -0.2729
  130MPD2    C1 2021   1.461   3.594   1.114 -0.1123 -0.2578 -0.2064
  130MPD2    C2 2022   1.407   3.718   1.075 -0.0643 -0.0744  0.0402
  130MPD2    C3 2023   1.433   3.769   0.948  0.5564  0.2404  0.5162
  130MPD2    C4 2024   1.511   3.689   0.863  0.5477 -0.6602  0.0127
  130MPD2    C5 2025   1.554   3.566   0.895 -0.1672  0.4198  0.5452
  130MPD2     H 2026   1.360   3.771   1.157  0.8855  2.5081 -1.0676
  130MPD2    H1 2027   1.529   3.720   0.761  2.7173  0.4885  0.7513
  130MPD2    H2 2028   1.560   3.421   1.051  0.5097  0.6722  2.2124
  130MPD2    H3 2029   1.593   3.505   0.814  2.8241  2.1694  0.6584
  130MPD2     N 2030   1.388   3.904   0.916  0.0421  0.0857 -0.0561
  130MPD2    H5 2031   1.340   3.947   0.995  0.5729  0.3337  0.1295
  130MPD2    N1 2032   1.418   3.545   1.241 -0.2812 -0.5286 -0.6935
  130MPD2    H7 2033   1.370   3.620   1.291  2.1496 -0.1990  1.1941
  131TMC2    C1 2034   4.510   3.461   9.698  0.5841  0.0891  0.2523
  131TMC2    C2 2035   4.381   3.414   9.685  0.2585  0.5702  0.5109
  131TMC2    C3 2036   4.277   3.511   9.667  0.6529  0.5533 -0.3457
  131TMC2    C4 2037   4.534   3.600   9.698 -0.2117 -0.2608  0.2278
  131TMC2    C5 2038   4.430   3.687   9.684 -0.0149 -0.7632 -0.3002
  131TMC2    C6 2039   4.299   3.642   9.669  0.2082  0.3404 -0.6185
  131TMC2     C 2040   4.615   3.356   9.692 -0.8625 -0.1733 -0.2749
  131TMC2     O 2041   4.575   3.243   9.715 -0.4971 -0.2315 -0.5013
  131TMC2     H 2042   4.354   3.309   9.692  2.1590  0.0398 -0.1380
  131TMC2    H1 2043   4.638   3.626   9.715  0.8272 -3.1600 -1.6144
  131TMC2    H2 2044   4.216   3.712   9.665  1.2897  1.6797  0.7714
  131TMC2    C7 2045   4.458   3.806   9.607  0.4349 -0.6731  0.3800
  131TMC2    C8 2046   4.136   3.465   9.652  0.1215 -0.3235 -0.0163
  131TMC2    O1 2047   4.385   3.834   9.509 -0.3225  0.5475  0.5367
  131TMC2    O2 2048   4.040   3.533   9.685  0.4265 -0.1714  0.4465
  131TMC2    O5 2049   4.136   3.338   9.610  0.7612  0.7403  0.2220
  131TMC2    H5 2050   4.219   3.299   9.576  0.4017 -0.9099  1.2781
  132MPD2     C 2051   0.199   3.378   9.511 -0.5493  0.4277 -0.1410
  132MPD2    C1 2052   0.103   3.322   9.592 -0.1274 -0.0093 -0.3805
  132MPD2    C2 2053   0.114   3.192   9.623 -0.5123  0.0083  0.7144
  132MPD2    C3 2054   0.221   3.113   9.589 -0.3711 -0.7496  0.0165
  132MPD2    C4 2055   0.320   3.176   9.506  0.0014  0.6515  0.0006
  132MPD2    C5 2056   0.312   3.314   9.481 -0.2090  0.3728  0.6987
  132MPD2     H 2057   0.042   3.140   9.685 -1.4019 -1.2255 -1.3276
  132MPD2    H1 2058   0.413   3.120   9.495 -0.3671 -0.3860  2.2750
  132MPD2    H2 2059   0.191   3.477   9.467 -0.0097  0.9367  0.8927
  132MPD2    H3 2060   0.381   3.363   9.414 -0.2849 -0.8848 -0.3112
  132MPD2     N 2061   0.229   2.979   9.622 -0.3573 -0.4628  0.2727
  132MPD2    H5 2062   0.151   2.947   9.679  0.7426 -2.0275  0.8853
  132MPD2    N1 2063   4.730   3.400   9.630 -0.1336 -0.0413 -0.6579
  132MPD2    H7 2064   4.732   3.494   9.589  1.0272 -0.4299 -1.5069
  133TMC2    C1 2065   3.856   2.455  10.344  0.2234 -0.0815  0.1617
  133TMC2    C2 2066   3.839   2.417  10.475 -0.6204 -0.0799  0.4079
  133TMC2    C3 2067   3.893   2.304  10.517  0.0014  0.8820  0.9470
  133TMC2    C4 2068   3.925   2.375  10.258  0.0827  0.3597 -0.8564
  133TMC2    C5 2069   3.964   2.252  10.298 -0.2428 -0.1584  0.3612
  133TMC2    C6 2070   3.948   2.212  10.431 -0.5832 -0.3574  0.4756
  133TMC2     C 2071   3.797   2.581  10.305  0.3520 -0.2854  0.4569
  133TMC2     O 2072   3.792   2.672  10.388  0.2165  0.3097  0.0564
  133TMC2     H 2073   3.794   2.490  10.542 -2.0228  0.0583 -0.6712
  133TMC2    H1 2074   3.935   2.396  10.153 -1.3992  2.6110 -0.5492
  133TMC2    H2 2075   3.986   2.117  10.466  0.5266 -1.1397 -2.8855
  133TMC2    C7 2076   4.062   2.192  10.218  0.1088 -0.3401  0.3686
  133TMC2    C8 2077   3.914   2.277  10.655 -0.2510  0.0272  0.4390
  133TMC2    O1 2078   4.138   2.261  10.149  0.1867 -0.1433 -0.0962
  133TMC2    O2 2079   3.956   2.169  10.701 -0.1391 -0.2858 -0.2938
  133TMC2    O5 2080   3.942   2.388  10.716  0.1960  0.1870  0.1652
  133TMC2    H5 2081   3.924   2.471  10.667  0.8226  0.2924  0.1171
  134MPD2     C 2082   3.679   2.656   9.967 -0.3841 -0.3221  0.7773
  134MPD2    C1 2083   3.742   2.683  10.088  0.3311  0.5680 -0.2883
  134MPD2    C2 2084   3.767   2.815  10.125  0.4024 -0.2327  0.2754
  134MPD2    C3 2085   3.743   2.919  10.035 -0.0754 -0.0993 -0.6471
  134MPD2    C4 2086   3.677   2.890   9.917  0.4810  0.1400  0.9061
  134MPD2    C5 2087   3.651   2.761   9.887 -0.2529 -0.1927 -0.0861
  134MPD2     H 2088   3.821   2.842  10.215 -3.4219  2.2646  1.8604
  134MPD2    H1 2089   3.661   2.961   9.837 -0.8677 -0.5587  0.5613
  134MPD2    H2 2090   3.657   2.555   9.932  1.1419 -0.0489 -0.9871
  134MPD2    H3 2091   3.612   2.742   9.788  1.2176 -0.8910 -0.5338
  134MPD2     N 2092   3.779   3.046  10.073 -0.0145  0.6562  0.5250
  134MPD2    H5 2093   3.838   3.057  10.154 -0.8496 -1.0220  1.3448
  134MPD2    N1 2094   3.764   2.574  10.173 -0.6043  0.4115 -0.1713
  134MPD2    H7 2095   3.749   2.481  10.134  2.4877 -0.4398  0.6488
  135TMC2    C1 2096   1.529   0.667  10.092  0.5942  0.6886  0.0306
  135TMC2    C2 2097   1.548   0.757  10.197  0.2917 -0.1044 -0.1463
  135TMC2    C3 2098   1.502   0.711  10.320  0.2004 -0.0850 -0.1972
  135TMC2    C4 2099   1.448   0.558  10.099  0.1610  0.0236 -0.3774
  135TMC2    C5 2100   1.397   0.529  10.220 -0.1886 -0.5557  0.1878
  135TMC2    C6 2101   1.424   0.598  10.335  0.6582  0.1371  0.0586
  135TMC2     C 2102   1.622   0.683   9.984  0.3257  0.3154 -1.2726
  135TMC2     O 2103   1.694   0.782   9.981 -0.2407  0.5144 -0.6813
  135TMC2     H 2104   1.614   0.841  10.176 -0.8829  0.4437 -1.7060
  135TMC2    H1 2105   1.413   0.501  10.014 -0.8873 -1.2251  0.8877
  135TMC2    H2 2106   1.381   0.565  10.429 -1.3085  4.0918  0.5080
  135TMC2    C7 2107   1.396   0.390  10.232 -0.1048 -0.6758  0.2252
  135TMC2    C8 2108   1.559   0.765  10.445  0.2003 -0.2981  0.5452
  135TMC2    O1 2109   1.476   0.334  10.152  0.1991  0.0332 -0.0242
  135TMC2    O2 2110   1.508   0.753  10.557 -0.3537 -0.0688 -0.2046
  135TMC2    O5 2111   1.683   0.811  10.407 -0.4315  0.0232  0.8059
  135TMC2    H5 2112   1.705   0.782  10.316 -0.1792  0.1695  0.8205
  136MPD2     C 2113   1.850   0.627   9.806  0.4098  0.2506  0.1428
  136MPD2    C1 2114   1.739   0.539   9.825 -0.6210  0.3976  0.0714
  136MPD2    C2 2115   1.741   0.411   9.765  0.4697 -0.1891  0.0514
  136MPD2    C3 2116   1.855   0.371   9.700  0.1712 -0.0059 -0.1359
  136MPD2    C4 2117   1.959   0.458   9.684 -0.3842  0.2112  0.3496
  136MPD2    C5 2118   1.959   0.578   9.741 -0.0752 -0.3594  0.3221
  136MPD2     H 2119   1.660   0.339   9.775 -0.7238  0.9421 -1.2880
  136MPD2    H1 2120   2.047   0.425   9.630 -0.2489  0.4245  0.4443
  136MPD2    H2 2121   1.864   0.729   9.840  0.4020  0.0173  0.8627
  136MPD2    H3 2122   2.043   0.641   9.711 -1.7042  1.4681 -0.3953
  136MPD2     N 2123   1.877   0.243   9.638 -0.0037 -0.5002  0.5260
  136MPD2    H5 2124   1.968   0.237   9.595 -0.3073 -1.1032 -0.0439
  136MPD2    N1 2125   1.634   0.566   9.910 -0.5107  0.4242 -0.2607
  136MPD2    H7 2126   1.564   0.494   9.924 -1.5345  1.4979  0.1203
  137TMC2    C1 2127   1.372   3.980   9.785 -0.1815 -0.4056 -0.0397
  137TMC2    C2 2128   1.278   3.878   9.806  0.1797  0.2620  0.1149
  137TMC2    C3 2129   1.157   3.897   9.751  0.1236  0.1099 -0.2415
  137TMC2    C4 2130   1.350   4.090   9.721 -0.0722 -0.2033 -0.1964
  137TMC2    C5 2131   1.224   4.115   9.680  0.1531  0.0098  0.0067
  137TMC2    C6 2132   1.135   4.016   9.685 -0.5831 -0.0979  0.2585
  137TMC2     C 2133   1.484   3.986   9.875  0.3010  0.1761 -0.2897
  137TMC2     O 2134   1.467   3.946   9.991  0.2222 -0.1820  0.3346
  137TMC2     H 2135   1.297   3.793   9.871 -0.1680  0.2170  0.1561
  137TMC2    H1 2136   1.424   4.165   9.696 -1.2802  0.4831 -1.6783
  137TMC2    H2 2137   1.050   4.029   9.620  0.2933  1.7536 -0.5080
  137TMC2    C7 2138   1.185   4.259   9.678 -1.0580  0.5872 -0.0950
  137TMC2    C8 2139   1.088   3.778   9.696  0.2997  0.4647  0.5843
  137TMC2    O1 2140   1.278   4.334   9.703  0.2276  0.2564  0.0581
  137TMC2    O2 2141   1.148   3.669   9.690  0.6490  0.1819 -0.2672
  137TMC2    O5 2142   0.954   3.796   9.717 -0.7941 -0.1333  0.0135
  137TMC2    H5 2143   0.937   3.876   9.772 -1.1722  0.2461 -0.6490
  138MPD2     C 2144   1.811   4.116   9.796 -0.1601 -0.9831  0.3415
  138MPD2    C1 2145   1.712   4.089   9.881  0.3794  0.2541 -0.5471
  138MPD2    C2 2146   1.718   4.130  10.014  0.1898  0.3034 -0.0185
  138MPD2    C3 2147   1.829   4.190  10.066 -0.2505 -0.2709 -0.1180
  138MPD2    C4 2148   1.935   4.210   9.973  0.6872  0.0204 -0.3042
  138MPD2    C5 2149   1.926   4.174   9.842 -0.3919 -0.7839  0.2091
  138MPD2     H 2150   1.626   4.111  10.069 -0.7177  0.9270 -1.3110
  138MPD2    H1 2151   2.031   4.246  10.009  0.0334  0.5594  0.9221
  138MPD2    H2 2152   1.792   4.092   9.692 -1.4687  0.4256  0.2659
  138MPD2    H3 2153   2.001   4.187   9.764 -0.4897  0.5207  0.3328
  138MPD2     N 2154   1.834   4.246  10.193  0.4286  0.2533 -0.4132
  138MPD2    H5 2155   1.767   4.210  10.260  0.1847  0.8875 -0.3187
  138MPD2    N1 2156   1.598   4.039   9.818 -0.0492  0.4052  0.4183
  138MPD2    H7 2157   1.600   4.041   9.717  0.8844 -0.8725  0.4109
  139TMC2    C1 2158   1.717   2.473  13.572 -0.1696 -0.4382 -0.4417
  139TMC2    C2 2159   1.774   2.521  13.459 -0.5050  0.2289 -0.3379
  139TMC2    C3 2160   1.775   2.654  13.448  0.0195 -0.4768  0.5184
  139TMC2    C4 2161   1.656   2.552  13.668 -0.5917 -0.0682 -0.0113
  139TMC2    C5 2162   1.658   2.686  13.645 -0.3485  0.2277 -0.1557
  139TMC2    C6 2163   1.702   2.742  13.529 -0.1555 -0.2790  0.1314
  139TMC2     C 2164   1.761   2.338  13.614  0.4785  0.3621  0.1468
  139TMC2     O 2165   1.744   2.251  13.529  0.2734 -0.4550  0.8682
  139TMC2     H 2166   1.832   2.454  13.397 -0.3572 -1.0024  1.1153
  139TMC2    H1 2167   1.609   2.499  13.751 -0.0759  0.5460  0.6681
  139TMC2    H2 2168   1.676   2.843  13.499 -0.9658 -0.7556 -0.7505
  139TMC2    C7 2169   1.571   2.764  13.721 -0.4180 -0.0550 -0.4267
  139TMC2    C8 2170   1.817   2.711  13.320  0.0145  0.3760  0.2859
  139TMC2    O1 2171   1.526   2.855  13.659 -1.1565 -0.3525  0.0759
  139TMC2    O2 2172   1.827   2.649  13.214 -0.0780 -0.0555  0.0136
  139TMC2    O5 2173   1.907   2.798  13.355  0.9114 -0.7932 -0.3395
  139TMC2    H5 2174   1.903   2.833  13.446  0.4418 -3.4736  0.6652
  140MPD2     C 2175   1.914   2.271  13.948 -0.5049  0.3168 -0.0679
  140MPD2    C1 2176   1.862   2.241  13.823  0.6286 -0.4194  0.1278
  140MPD2    C2 2177   1.871   2.110  13.774 -0.2584 -0.6632  0.0632
  140MPD2    C3 2178   1.923   2.016  13.852  0.0665 -0.7121 -0.1869
  140MPD2    C4 2179   1.968   2.045  13.981  0.1349 -0.2822  0.2922
  140MPD2    C5 2180   1.959   2.170  14.033  0.7157  0.2511 -0.0784
  140MPD2     H 2181   1.830   2.091  13.675  1.4794 -0.1911 -0.7531
  140MPD2    H1 2182   2.016   1.972  14.046  2.0019 -1.0969 -1.9895
  140MPD2    H2 2183   1.900   2.370  13.988  0.1891  0.4568 -0.1623
  140MPD2    H3 2184   2.011   2.189  14.126 -1.4273 -1.3713  1.4707
  140MPD2     N 2185   1.936   1.886  13.796  0.8291  0.1456 -0.1692
  140MPD2    H5 2186   1.910   1.868  13.700 -1.5683 -0.7699  0.6489
  140MPD2    N1 2187   1.804   2.340  13.740  0.5123 -0.2021  0.3388
  140MPD2    H7 2188   1.828   2.435  13.767 -1.3086  1.1424 -2.7567
  141TMC2    C1 2189   2.290   3.775  14.810 -0.3111  0.2784 -0.0796
  141TMC2    C2 2190   2.357   3.658  14.833 -0.0128  0.1558  0.5343
  141TMC2    C3 2191   2.471   3.660  14.909  0.4961  0.1986 -0.4469
  141TMC2    C4 2192   2.326   3.898  14.869  0.3333 -0.3616  0.1112
  141TMC2    C5 2193   2.440   3.886  14.946  0.2714 -0.7090 -0.0038
  141TMC2    C6 2194   2.508   3.774  14.975 -0.0991 -0.1035 -0.7291
  141TMC2     C 2195   2.185   3.774  14.711 -0.6350  0.3940 -0.1941
  141TMC2     O 2196   2.189   3.684  14.629  0.1706  0.0296 -0.5019
  141TMC2     H 2197   2.322   3.563  14.794 -1.9640  0.9268  0.4079
  141TMC2    H1 2198   2.284   3.987  14.825  0.8251 -1.0626 -1.7690
  141TMC2    H2 2199   2.592   3.762  15.042  0.0142 -1.7756 -1.1557
  141TMC2    C7 2200   2.505   4.009  14.971  0.2701 -1.0851  0.3895
  141TMC2    C8 2201   2.540   3.536  14.931 -0.3551  0.0628  0.2600
  141TMC2    O1 2202   2.439   4.110  14.951 -0.1269 -0.2118  0.3740
  141TMC2    O2 2203   2.571   3.487  15.037 -0.1616  0.2187 -0.0636
  141TMC2    O5 2204   2.569   3.484  14.810  0.0878 -0.1127  0.6025
  141TMC2    H5 2205   2.547   3.546  14.737 -0.4502 -0.6787  0.2906
  142TMC2    C1 2206   0.371   3.369   9.851  0.7415  0.2366  1.3306
  142TMC2    C2 2207   0.463   3.467   9.836  0.0657  0.2271 -0.3649
  142TMC2    C3 2208   0.446   3.573   9.918  0.5691 -0.2124  0.4539
  142TMC2    C4 2209   0.268   3.375   9.942 -0.3083 -0.2401  0.2106
  142TMC2    C5 2210   0.266   3.478  10.033 -0.3667 -0.3953  0.6995
  142TMC2    C6 2211   0.360   3.575  10.025  0.1572  0.0341 -0.3991
  142TMC2     C 2212   0.431   3.233   9.841 -0.2429 -0.3006 -0.7370
  142TMC2     O 2213   0.496   3.211   9.741 -0.7251 -0.0371  0.3596
  142TMC2     H 2214   0.549   3.445   9.774  0.6597 -1.2279  0.9830
  142TMC2    H1 2215   0.193   3.297   9.947 -1.9057  1.4450  2.4546
  142TMC2    H2 2216   0.364   3.660  10.092  2.5059 -1.0693  0.8743
  142TMC2    C7 2217   0.209   3.446  10.164  0.2524 -0.2597 -0.4170
  142TMC2    C8 2218   0.558   3.673   9.920 -0.3366 -0.0649 -0.2034
  142TMC2    O1 2219   0.205   3.324  10.186 -0.9461 -0.3187  0.4957
  142TMC2    O2 2220   0.584   3.731  10.021 -0.0798  0.3620  0.4916
  142TMC2    O5 2221   0.619   3.685   9.807 -0.5941  0.3123  0.2506
  142TMC2    H5 2222   0.571   3.655   9.727  2.0340 -2.7715 -0.1705
  143MPD2     C 2223   0.539   2.787  10.087  0.9525  0.7730  0.2098
  143MPD2    C1 2224   0.602   2.837   9.967 -1.4071  0.0323  0.6438
  143MPD2    C2 2225   0.557   2.965   9.922  0.0099  0.0697 -0.2203
  143MPD2    C3 2226   0.466   3.032   9.993  0.1750  0.8620  0.8158
  143MPD2    C4 2227   0.414   2.988  10.113 -0.6710 -0.1724  0.1247
  143MPD2    C5 2228   0.450   2.867  10.155 -0.1910 -0.7169  0.4522
  143MPD2     H 2229   0.590   2.995   9.823 -2.5428 -1.2284 -1.4676
  143MPD2    H1 2230   0.336   3.042  10.165  0.8141 -0.8487  3.0551
  143MPD2    H2 2231   0.557   2.685  10.120 -0.6306  0.6493  0.6602
  143MPD2    H3 2232   0.396   2.830  10.242  1.2005 -0.5790  1.3777
  143MPD2     N 2233   0.420   3.164   9.958 -0.2716 -1.0497  0.4556
  143MPD2    H5 2234   0.362   3.204  10.031 -0.9311  1.5466 -1.4634
  143MPD2    N1 2235   0.690   2.748   9.899  0.4258 -0.3851 -0.5102
  143MPD2    H7 2236   0.707   2.661   9.948  3.7686  0.1046 -0.7802
  144TMC2    C1 2237   3.240   0.960   0.684 -0.4137 -0.2869  0.0394
  144TMC2    C2 2238   3.271   0.827   0.692 -0.3128  0.1696  0.0084
  144TMC2    C3 2239   3.376   0.794   0.778 -0.8705 -0.5326  0.0389
  144TMC2    C4 2240   3.313   1.053   0.756  0.6800  0.2139 -0.3215
  144TMC2    C5 2241   3.410   1.019   0.837 -0.1941 -0.0453 -0.6545
  144TMC2    C6 2242   3.447   0.894   0.848  0.0729  0.0942  0.5012
  144TMC2     C 2243   3.155   0.992   0.573 -0.1872  0.4719 -0.0144
  144TMC2     O 2244   3.120   0.902   0.500  0.0097 -0.1216 -0.2892
  144TMC2     H 2245   3.228   0.747   0.633 -0.8765  0.5875 -0.1484
  144TMC2    H1 2246   3.297   1.159   0.743 -0.2531  0.2152  0.8421
  144TMC2    H2 2247   3.537   0.873   0.904 -0.8586  1.0540  2.3735
  144TMC2    C7 2248   3.503   1.117   0.884  0.0366  0.1255 -0.0457
  144TMC2    C8 2249   3.400   0.655   0.788  0.0370  0.5217 -0.8684
  144TMC2    O1 2250   3.625   1.091   0.900 -0.4272  0.2203  0.1050
  144TMC2    O2 2251   3.331   0.577   0.724 -0.0985  0.1291 -0.3600
  144TMC2    O5 2252   3.471   0.623   0.898 -1.0132 -0.4319 -0.1044
  144TMC2    H5 2253   3.496   0.692   0.962 -0.0221  0.2739 -1.2423
  145MPD2     C 2254   2.966   1.347   0.249 -1.0953  0.4751  0.5042
  145MPD2    C1 2255   3.006   1.214   0.229 -0.1569 -0.0881 -0.3761
  145MPD2    C2 2256   3.052   1.134   0.332  0.0315 -0.2467 -0.0748
  145MPD2    C3 2257   3.081   1.194   0.455 -0.2769 -0.1366 -1.3982
  145MPD2    C4 2258   3.056   1.328   0.470 -0.4615  0.4472 -0.5218
  145MPD2    C5 2259   3.001   1.400   0.370 -0.2033 -0.1381  0.0051
  145MPD2     H 2260   3.081   1.031   0.311 -2.0590 -0.7791 -0.4036
  145MPD2    H1 2261   3.070   1.384   0.562  1.0222 -1.4237  0.4092
  145MPD2    H2 2262   2.927   1.419   0.179 -0.6934  0.2670  0.0636
  145MPD2    H3 2263   2.968   1.500   0.396  0.1550  0.3658 -1.4668
  145MPD2     N 2264   3.134   1.122   0.567 -0.4247 -0.1497 -0.0374
  145MPD2    H5 2265   3.160   1.172   0.651 -0.4996 -0.2395  0.0387
  145MPD2    N1 2266   2.994   1.148   0.106  0.2980 -0.1994 -0.2541
  145MPD2    H7 2267   3.007   1.047   0.104  1.6059 -0.0176 -0.8430
  146TMC2    C1 2268   4.277   0.079  12.320  0.8487 -0.1816  0.0146
  146TMC2    C2 2269   4.194   0.072  12.210  0.0290 -0.4623 -0.0309
  146TMC2    C3 2270   4.253   0.002  12.110 -0.0488  0.1319  0.6269
  146TMC2    C4 2271   4.389   0.004  12.342 -0.0523  0.2422 -0.1797
  146TMC2    C5 2272   4.434   4.666  12.233  0.1272 -0.0718 -0.2611
  146TMC2    C6 2273   4.366   4.664  12.112  0.2369 -0.8006  0.0698
  146TMC2     C 2274   4.221   0.147  12.432 -0.0633  0.3238 -0.0023
  146TMC2     O 2275   4.154   0.245  12.406  0.6954  0.3660  0.1276
  146TMC2     H 2276   4.109   0.139  12.199  0.7733  0.9486  3.0322
  146TMC2    H1 2277   4.454   0.015  12.429  0.0834 -0.4832 -0.1887
  146TMC2    H2 2278   4.387   4.607  12.022 -0.8412  0.8135 -1.1841
  146TMC2    C7 2279   4.575   4.639  12.224 -0.4952  0.0260 -0.1543
  146TMC2    C8 2280   4.189   0.012  11.983 -0.0708 -0.1800  0.8513
  146TMC2    O1 2281   4.617   4.629  12.105  0.4346  0.4623  0.7882
  146TMC2    O2 2282   4.173   4.654  11.901  0.0814 -0.0750  0.3559
  146TMC2    O5 2283   4.199   0.143  11.954  0.3722  0.5782 -0.1230
  146TMC2    H5 2284   4.240   0.209  12.015 -1.4506 -0.5278  2.3133
  147MPD2     C 2285   0.315   4.562  12.426  0.7947 -0.3254  0.0324
  147MPD2    C1 2286   0.223   4.559  12.525  0.3111  0.6473 -0.0856
  147MPD2    C2 2287   0.086   4.580  12.491 -0.1330  0.3179 -0.6859
  147MPD2    C3 2288   0.045   4.597  12.363  0.0593  0.1229  0.9664
  147MPD2    C4 2289   0.140   4.597  12.264  0.4396 -0.3069 -0.6104
  147MPD2    C5 2290   0.272   4.574  12.298 -0.4245 -0.0947  0.1884
  147MPD2     H 2291   0.006   4.574  12.563 -0.8162 -0.9267 -1.5444
  147MPD2    H1 2292   0.112   4.588  12.160 -1.8754 -3.3013  0.2855
  147MPD2    H2 2293   0.420   4.537  12.436  0.8274 -0.6130 -0.9830
  147MPD2    H3 2294   0.342   4.568  12.216  0.6977  1.6387  1.0250
  147MPD2     N 2295   4.641   4.616  12.344 -0.7020 -0.1633 -0.2516
  147MPD2    H5 2296   4.585   4.612  12.428  1.1729  2.1938  1.1207
  147MPD2    N1 2297   0.272   4.534  12.656  0.3070  0.0157 -0.7953
  147MPD2    H7 2298   0.373   4.528  12.660  0.4388  3.3429  0.8891
  148TMC2    C1 2299   4.231   3.462  10.938  0.8256  0.2741  0.3446
  148TMC2    C2 2300   4.275   3.448  11.069  0.1915 -0.2297 -0.4096
  148TMC2    C3 2301   4.292   3.319  11.108 -0.0586  1.0128  0.4330
  148TMC2    C4 2302   4.228   3.357  10.849 -0.1036 -0.3203 -0.6468
  148TMC2    C5 2303   4.241   3.230  10.899  0.3093 -0.2121 -0.8052
  148TMC2    C6 2304   4.273   3.210  11.025 -0.1975 -0.6628  0.2167
  148TMC2     C 2305   4.219   3.599  10.891  0.4311  0.4431 -0.3464
  148TMC2     O 2306   4.292   3.677  10.956  0.2347  0.3692  0.0064
  148TMC2     H 2307   4.288   3.530  11.139  1.8039 -1.3755  0.6368
  148TMC2    H1 2308   4.198   3.386  10.749 -2.8746  2.5794  1.0155
  148TMC2    H2 2309   4.282   3.113  11.073  0.3454 -0.9918 -0.5453
  148TMC2    C7 2310   4.297   3.141  10.797  0.0903 -0.5583  0.7568
  148TMC2    C8 2311   4.352   3.315  11.236  0.0848 -0.6233 -0.2192
  148TMC2    O1 2312   4.261   3.026  10.800 -0.5690 -0.3619 -0.8240
  148TMC2    O2 2313   4.337   3.402  11.319 -0.0412  0.4835  0.3429
  148TMC2    O5 2314   4.465   3.245  11.222  0.0028  0.4182 -0.0142
  148TMC2    H5 2315   4.474   3.209  11.131 -1.4268 -1.8056  0.7249
  149MPD2     C 2316   4.183   3.861  10.763  0.2973  0.2046  0.0398
  149MPD2    C1 2317   4.109   3.750  10.732  0.4917 -0.0703 -0.6199
  149MPD2    C2 2318   4.003   3.758  10.649 -0.2508 -0.5206 -0.7040
  149MPD2    C3 2319   3.959   3.883  10.606  0.6836 -0.4662 -0.2432
  149MPD2    C4 2320   4.043   3.993  10.622 -0.3713  0.6281 -0.6150
  149MPD2    C5 2321   4.156   3.981  10.704 -0.0419  0.2451  0.3322
  149MPD2     H 2322   3.946   3.668  10.628  2.4583 -1.8677 -2.3508
  149MPD2    H1 2323   4.025   4.093  10.584 -2.3252  0.3865 -0.3374
  149MPD2    H2 2324   4.267   3.865  10.832  2.6811 -1.1463 -2.7686
  149MPD2    H3 2325   4.218   4.065  10.733  1.1190 -1.3902  2.6168
  149MPD2     N 2326   3.843   3.906  10.526 -0.3643  0.3381  0.3642
  149MPD2    H5 2327   3.826   4.002  10.497 -2.2313  0.0391  0.4830
  149MPD2    N1 2328   4.131   3.622  10.789  0.2134 -0.0038  0.2734
  149MPD2    H7 2329   4.068   3.547  10.764  0.5862 -0.4170  0.5794
  150TMC2    C1 2330   1.721   3.003  12.099 -0.0270  0.0039  0.1504
  150TMC2    C2 2331   1.632   2.953  12.185 -0.1182  0.2039  0.8751
  150TMC2    C3 2332   1.672   2.883  12.296 -0.4456  0.0890 -0.1355
  150TMC2    C4 2333   1.853   2.983  12.125 -0.2945 -0.5499 -0.6166
  150TMC2    C5 2334   1.891   2.915  12.234  0.0217  0.6605  0.1210
  150TMC2    C6 2335   1.804   2.850  12.316  0.0596 -0.3601  0.4383
  150TMC2     C 2336   1.681   3.095  12.000 -0.1895  0.5569 -1.0046
  150TMC2     O 2337   1.756   3.166  11.935  0.0998  0.0398  0.3475
  150TMC2     H 2338   1.527   2.978  12.174 -0.4489 -0.1484  3.2439
  150TMC2    H1 2339   1.919   3.043  12.064 -1.0352 -0.6179 -1.4821
  150TMC2    H2 2340   1.829   2.818  12.416  3.4179  0.8598 -0.0126
  150TMC2    C7 2341   2.039   2.914  12.262  0.4105  0.3339 -0.0455
  150TMC2    C8 2342   1.564   2.796  12.349 -0.3809  0.5813 -0.4686
  150TMC2    O1 2343   2.116   2.984  12.197  0.4655  0.1725 -0.3299
  150TMC2    O2 2344   1.446   2.798  12.305 -0.0767 -0.4560 -0.1422
  150TMC2    O5 2345   1.620   2.679  12.384 -0.3292  0.3539 -0.0404
  150TMC2    H5 2346   1.716   2.684  12.402  0.0132 -0.3552 -1.7271
  151MPD2     C 2347   1.310   3.324  11.723 -0.1112  0.5337 -0.2706
  151MPD2    C1 2348   1.268   3.202  11.766  0.2332 -0.1352 -1.0610
  151MPD2    C2 2349   1.342   3.125  11.853  0.3014 -0.2614 -0.3625
  151MPD2    C3 2350   1.471   3.169  11.889 -0.7004 -0.1564 -0.5361
  151MPD2    C4 2351   1.512   3.293  11.846 -0.6771 -0.5515 -0.6035
  151MPD2    C5 2352   1.431   3.367  11.773  0.3575 -0.7067 -0.6117
  151MPD2     H 2353   1.317   3.027  11.892 -2.0182 -0.8387 -3.2999
  151MPD2    H1 2354   1.608   3.338  11.871 -1.5893  0.9492  0.2184
  151MPD2    H2 2355   1.238   3.372  11.657 -0.9982  0.0711  0.3602
  151MPD2    H3 2356   1.464   3.464  11.739 -0.4243 -0.4276 -0.5767
  151MPD2     N 2357   1.548   3.080  11.969 -0.2922  0.0857 -0.5389
  151MPD2    H5 2358   1.511   2.994  12.008 -2.0933  1.1315  0.0713
  151MPD2    N1 2359   1.147   3.154  11.708  0.9009  0.3439 -0.1800
  151MPD2    H7 2360   1.116   3.197  11.621  0.6446  1.6842  0.5766
  152TMC2    C1 2361   1.564   2.470  12.772 -0.0401  0.4746  0.0694
  152TMC2    C2 2362   1.628   2.361  12.819  0.2438 -0.8753  0.1517
  152TMC2    C3 2363   1.765   2.378  12.835  0.4235  0.3525  0.2102
  152TMC2    C4 2364   1.631   2.590  12.750  0.7561  0.5001  0.2663
  152TMC2    C5 2365   1.762   2.599  12.771 -0.2035  0.3104 -0.3050
  152TMC2    C6 2366   1.834   2.496  12.825 -0.3315  0.7521 -0.4636
  152TMC2     C 2367   1.416   2.463  12.758  0.8996  0.0781 -0.0048
  152TMC2     O 2368   1.364   2.540  12.682  0.6387 -0.0384 -0.1243
  152TMC2     H 2369   1.583   2.262  12.821 -2.3100  0.3312  1.6495
  152TMC2    H1 2370   1.575   2.677  12.717 -0.2985  0.5724  2.2406
  152TMC2    H2 2371   1.941   2.496  12.806 -0.5139 -2.2319 -1.4406
  152TMC2    C7 2372   1.824   2.724  12.725 -0.3294  0.0425 -0.7453
  152TMC2    C8 2373   1.843   2.269  12.890  0.0953  0.5401 -0.4804
  152TMC2    O1 2374   1.753   2.799  12.663 -0.2563 -0.7015 -0.3161
  152TMC2    O2 2375   1.815   2.150  12.894  0.2277  0.2397 -0.2291
  152TMC2    O5 2376   1.953   2.322  12.953  0.6756 -0.8553  0.0316
  152TMC2    H5 2377   1.950   2.418  12.975  0.9459 -0.8671  0.1130
  153MPD2     C 2378   1.195   2.227  12.925  0.4485  0.4313 -0.6005
  153MPD2    C1 2379   1.221   2.328  12.842  0.3043  0.0910 -0.0102
  153MPD2    C2 2380   1.116   2.395  12.782 -0.5908  0.1187  0.4517
  153MPD2    C3 2381   0.982   2.356  12.804 -0.3270 -0.1280  0.0115
  153MPD2    C4 2382   0.961   2.254  12.894 -0.7216 -0.4252  0.4618
  153MPD2    C5 2383   1.065   2.191  12.958 -0.3036  0.2445 -0.3471
  153MPD2     H 2384   1.133   2.487  12.727 -1.6688  0.2600  0.3595
  153MPD2    H1 2385   0.860   2.221  12.916 -1.4086  1.4025  0.0800
  153MPD2    H2 2386   1.281   2.172  12.963 -0.0551 -0.1032 -0.2340
  153MPD2    H3 2387   1.048   2.113  13.031 -1.1214 -1.8452 -2.7494
  153MPD2     N 2388   0.882   2.428  12.738 -0.1716 -0.5314 -0.2261
  153MPD2    H5 2389   0.904   2.500  12.670 -0.3131 -1.1384 -0.9099
  153MPD2    N1 2390   1.362   2.356  12.824  0.2551 -0.1088  0.1886
  153MPD2    H7 2391   1.412   2.291  12.884  0.2984 -0.0244  0.2427
  154TMC2    C1 2392   3.481   2.127   0.527  0.1950  0.4934 -0.2379
  154TMC2    C2 2393   3.479   2.055   0.648  0.8003  0.7704 -0.0118
  154TMC2    C3 2394   3.490   1.919   0.638 -0.3145 -0.2394  0.1052
  154TMC2    C4 2395   3.502   2.062   0.405  0.4318 -0.3296 -0.0701
  154TMC2    C5 2396   3.524   1.924   0.405 -0.1598  0.1529  0.3120
  154TMC2    C6 2397   3.525   1.851   0.522  0.7498 -0.1768  0.7989
  154TMC2     C 2398   3.455   2.276   0.535 -0.1435 -0.6649  1.0800
  154TMC2     O 2399   3.444   2.334   0.645 -0.0626  0.0501 -0.5457
  154TMC2     H 2400   3.447   2.104   0.740  0.0052  1.0964 -0.4700
  154TMC2    H1 2401   3.509   2.122   0.315  2.5056  0.1309  0.4020
  154TMC2    H2 2402   3.549   1.746   0.520  0.9516 -0.1208  0.2611
  154TMC2    C7 2403   3.555   1.858   0.279 -0.0870  0.2336  0.4289
  154TMC2    C8 2404   3.500   1.855   0.767  0.0139  0.5073  0.6781
  154TMC2    O1 2405   3.547   1.735   0.290 -1.1575  0.1177  0.1558
  154TMC2    O2 2406   3.465   1.740   0.788  0.0832 -0.0228 -0.9122
  154TMC2    O5 2407   3.551   1.936   0.860 -0.4295 -0.1131 -0.5981
  154TMC2    H5 2408   3.589   2.018   0.821  0.2882  0.1731  0.7463
  155MPD2     C 2409   3.372   2.476   0.232 -0.6980 -0.1647  0.0840
  155MPD2    C1 2410   3.391   2.459   0.371 -0.0728  0.1755  0.2965
  155MPD2    C2 2411   3.390   2.566   0.460  0.4104  0.2471  0.3895
  155MPD2    C3 2412   3.360   2.689   0.408  0.1424  0.1136  0.7518
  155MPD2    C4 2413   3.324   2.697   0.273  0.1127 -0.2547 -0.0628
  155MPD2    C5 2414   3.336   2.596   0.183  0.2900  0.2941 -0.3078
  155MPD2     H 2415   3.419   2.568   0.564  3.9756  0.5995 -0.5810
  155MPD2    H1 2416   3.311   2.791   0.221 -0.6114  0.0039  0.5964
  155MPD2    H2 2417   3.369   2.389   0.167 -1.5702 -0.2234  0.2055
  155MPD2    H3 2418   3.318   2.600   0.077  2.9790  3.0349 -0.6468
  155MPD2     N 2419   3.355   2.805   0.488 -0.5142  0.4080 -0.3811
  155MPD2    H5 2420   3.381   2.798   0.586  1.1888  0.3031 -0.8384
  155MPD2    N1 2421   3.431   2.326   0.412 -0.1586 -0.1456 -0.1648
  155MPD2    H7 2422   3.434   2.258   0.336  1.4666 -0.0954 -0.1526
  156TMC2    C1 2423   1.963   0.349  11.834  0.0650  0.1424 -0.6043
  156TMC2    C2 2424   1.993   0.264  11.732  0.8019 -0.2108  0.5291
  156TMC2    C3 2425   1.949   0.297  11.608 -0.5294  0.5343 -0.4059
  156TMC2    C4 2426   1.894   0.465  11.819 -0.9085 -0.3515  0.2747
  156TMC2    C5 2427   1.854   0.493  11.696 -0.0356 -0.1876 -0.4124
  156TMC2    C6 2428   1.874   0.410  11.588 -1.0404  0.7095  0.0541
  156TMC2     C 2429   1.968   0.296  11.968  0.3559  0.1698  0.3006
  156TMC2     O 2430   1.929   0.371  12.063  0.3222  0.3418  0.2865
  156TMC2     H 2431   2.064   0.183  11.748  0.4122 -1.1938 -2.7516
  156TMC2    H1 2432   1.880   0.533  11.902 -1.9346  0.5379 -0.6216
  156TMC2    H2 2433   1.838   0.445  11.491 -0.0903  1.1476 -0.1443
  156TMC2    C7 2434   1.763   0.605  11.684  0.5187 -0.3458 -0.0470
  156TMC2    C8 2435   2.032   0.247  11.501 -0.4841 -0.7369 -0.0728
  156TMC2    O1 2436   1.781   0.694  11.765 -0.1381  0.4559 -0.4866
  156TMC2    O2 2437   2.150   0.210  11.519  0.5827 -0.3018 -0.0857
  156TMC2    O5 2438   1.945   0.164  11.446  0.4890  0.0358  0.3568
  156TMC2    H5 2439   1.850   0.186  11.460  0.7319  1.0724  0.3608
  157MPD2     C 2440   2.028   4.703  12.099  0.7576  0.3533  0.4038
  157MPD2    C1 2441   1.980   0.095  12.102  0.3107 -0.7548 -0.0092
  157MPD2    C2 2442   1.880   0.124  12.200 -0.1465 -0.7172 -0.0433
  157MPD2    C3 2443   1.839   0.026  12.291  0.0050 -0.0686  0.0894
  157MPD2    C4 2444   1.903   4.644  12.297  0.3544  0.2239  0.1786
  157MPD2    C5 2445   1.989   4.611  12.196 -0.1249 -0.3973 -0.3041
  157MPD2     H 2446   1.816   0.211  12.190  0.6100 -0.2175 -0.5556
  157MPD2    H1 2447   1.871   4.565  12.364  1.7787 -2.0572 -1.8531
  157MPD2    H2 2448   2.089   4.665  12.017 -2.7470 -1.5779 -1.2735
  157MPD2    H3 2449   2.042   4.516  12.191 -2.9873 -2.0428  0.3736
  157MPD2     N 2450   1.722   0.046  12.372 -0.1451  0.4751 -0.1837
  157MPD2    H5 2451   1.683   0.138  12.360 -0.2181  0.5611  0.6738
  157MPD2    N1 2452   2.004   0.168  11.983  0.2181 -0.0227 -0.2487
  157MPD2    H7 2453   2.057   0.125  11.909 -1.2108  0.3499 -1.4952
  158TMC2    C1 2454   1.678   3.804  13.220  0.2406 -1.0569 -0.4863
  158TMC2    C2 2455   1.718   3.919  13.148  0.1964  0.1733 -0.1213
  158TMC2    C3 2456   1.630   3.958  13.056 -0.4226  0.2558  0.0958
  158TMC2    C4 2457   1.555   3.748  13.211 -1.1860 -0.3092  0.2998
  158TMC2    C5 2458   1.473   3.800  13.120 -0.2391 -0.4201 -0.5384
  158TMC2    C6 2459   1.507   3.904  13.043  0.1518 -0.2051  0.7565
  158TMC2     C 2460   1.783   3.727  13.267 -0.4241 -0.5824  0.3951
  158TMC2     O 2461   1.897   3.757  13.227 -0.9381 -1.2793  0.2272
  158TMC2     H 2462   1.805   3.978  13.176 -0.8370  1.5270  0.2138
  158TMC2    H1 2463   1.524   3.662  13.269 -0.5137  0.0165  1.1505
  158TMC2    H2 2464   1.440   3.952  12.973 -0.9458 -2.7018  0.0869
  158TMC2    C7 2465   1.326   3.767  13.126  0.4051 -1.2667  0.2007
  158TMC2    C8 2466   1.651   4.074  12.968 -0.2468  0.1761 -0.2906
  158TMC2    O1 2467   1.249   3.811  13.044 -0.4475  0.3092  0.6343
  158TMC2    O2 2468   1.556   4.149  12.941 -0.0365 -0.0811 -0.6119
  158TMC2    O5 2469   1.782   4.102  12.969  0.2299  0.5320  0.1682
  158TMC2    H5 2470   1.845   4.039  13.009  0.3989  0.6612  0.1052
  159MPD2     C 2471   1.969   3.399  13.595  1.4783  0.3162  0.6029
  159MPD2    C1 2472   1.839   3.421  13.629 -0.0165  0.3291  0.1340
  159MPD2    C2 2473   1.767   3.505  13.550 -0.1359  0.1275  0.3211
  159MPD2    C3 2474   1.832   3.568  13.449 -0.0400 -0.6465 -0.4369
  159MPD2    C4 2475   1.960   3.529  13.407  0.5280 -0.4866 -0.0710
  159MPD2    C5 2476   2.029   3.453  13.485 -0.6294  0.1276  0.7984
  159MPD2     H 2477   1.667   3.537  13.579  0.1744  0.8302  0.6039
  159MPD2    H1 2478   2.000   3.566  13.313  0.3529  0.9764  0.4345
  159MPD2    H2 2479   2.029   3.338  13.662  0.6342 -0.7305  0.4096
  159MPD2    H3 2480   2.125   3.420  13.449  0.1645  0.8956  2.2153
  159MPD2     N 2481   1.743   3.652  13.374  0.0263  0.8136  0.4070
  159MPD2    H5 2482   1.653   3.678  13.411 -0.2655  2.5462 -1.5577
  159MPD2    N1 2483   1.799   3.373  13.751 -0.1999 -1.3295  0.1714
  159MPD2    H7 2484   1.869   3.331  13.812 -0.7126  0.7816  2.1782
  160TMC2    C1 2485   2.317   1.637   1.068  0.3760 -0.5076 -0.6368
  160TMC2    C2 2486   2.439   1.596   1.121 -0.0566 -0.1824  0.2766
  160TMC2    C3 2487   2.563   1.644   1.075  0.5077  0.2361 -0.4486
  160TMC2    C4 2488   2.312   1.738   0.969 -0.9901 -0.2466  0.1379
  160TMC2    C5 2489   2.435   1.779   0.923  0.7653 -0.7379  0.7974
  160TMC2    C6 2490   2.555   1.734   0.973 -0.3494  0.1018  0.4304
  160TMC2     C 2491   2.196   1.561   1.106  0.1209 -0.7812  0.0700
  160TMC2     O 2492   2.211   1.441   1.141 -0.1410 -0.9065  0.2081
  160TMC2     H 2493   2.434   1.516   1.195 -1.8095  0.0963  0.4595
  160TMC2    H1 2494   2.220   1.788   0.942 -0.5473  0.2573 -0.4577
  160TMC2    H2 2495   2.651   1.756   0.929 -0.9946  1.3715 -0.3497
  160TMC2    C7 2496   2.432   1.876   0.820  0.5626  0.2753 -0.0269
  160TMC2    C8 2497   2.691   1.580   1.100  0.0598 -0.1380 -0.2794
  160TMC2    O1 2498   2.321   1.875   0.762  0.3334 -0.2235  0.0707
  160TMC2    O2 2499   2.785   1.584   1.020  0.0792  0.1289 -0.3512
  160TMC2    O5 2500   2.697   1.515   1.219 -0.1338  1.2772 -0.6285
  160TMC2    H5 2501   2.619   1.537   1.275  0.0365 -0.7399  0.3732
  161MPD2     C 2502   1.926   1.442   1.086 -0.0074 -0.7287 -0.0052
  161MPD2    C1 2503   1.957   1.575   1.082 -0.2072  0.2731 -0.2886
  161MPD2    C2 2504   1.854   1.661   1.080  0.4957  0.3148 -0.0874
  161MPD2    C3 2505   1.723   1.610   1.085 -0.4978 -0.3893  0.2908
  161MPD2    C4 2506   1.693   1.477   1.084  0.0301 -0.3953 -0.6952
  161MPD2    C5 2507   1.801   1.398   1.088  0.7547 -0.0324  0.1118
  161MPD2     H 2508   1.876   1.767   1.089  1.2010  0.0541  1.3502
  161MPD2    H1 2509   1.594   1.437   1.069 -0.6295  0.9794  0.0134
  161MPD2    H2 2510   2.005   1.368   1.089 -2.3300 -3.1730  0.5825
  161MPD2    H3 2511   1.785   1.291   1.089 -0.8573  0.2066 -0.0400
  161MPD2     N 2512   1.617   1.700   1.074  0.2357  0.1195  0.2081
  161MPD2    H5 2513   1.526   1.660   1.051 -0.8154  1.9895  1.0187
  161MPD2    N1 2514   2.081   1.634   1.089  0.8189 -0.4321  0.0658
  161MPD2    H7 2515   2.093   1.734   1.084  0.7675 -0.4600 -0.6354
  162TMC2    C1 2516   4.323   3.163   1.319  0.3586  0.3713  0.6344
  162TMC2    C2 2517   4.288   3.044   1.377  0.8808  0.7358 -0.2371
  162TMC2    C3 2518   4.365   3.008   1.484 -0.9609 -0.2930  0.4966
  162TMC2    C4 2519   4.430   3.235   1.359  0.2297  0.5687 -0.3555
  162TMC2    C5 2520   4.497   3.199   1.470  0.3756 -0.5064 -0.5104
  162TMC2    C6 2521   4.465   3.083   1.530  0.3007  0.0745 -0.0984
  162TMC2     C 2522   4.276   3.183   1.185 -0.0274  0.1346 -0.5041
  162TMC2     O 2523   4.260   3.082   1.125  0.3694 -0.2677 -0.0313
  162TMC2     H 2524   4.209   2.980   1.341  0.9006  1.0054 -0.7543
  162TMC2    H1 2525   4.475   3.309   1.293 -0.3789 -1.6585 -3.2756
  162TMC2    H2 2526   4.534   3.036   1.599 -0.8324 -4.3882 -2.0570
  162TMC2    C7 2527   4.632   3.253   1.484 -0.0835 -0.1628  0.4098
  162TMC2    C8 2528   4.334   2.873   1.525 -0.0179 -0.2168  0.5030
  162TMC2    O1 2529   4.653   3.373   1.472 -0.3836 -0.5505  0.1242
  162TMC2    O2 2530   4.334   2.781   1.444  0.6549  0.1959 -0.1029
  162TMC2    O5 2531   4.359   2.872   1.657 -0.2009 -0.7007  0.2149
  162TMC2    H5 2532   4.338   2.961   1.692 -2.2060  0.2882 -3.4067
  163MPD2     C 2533   4.122   3.455   0.783  0.8404  0.2597 -0.4493
  163MPD2    C1 2534   4.176   3.326   0.795  0.3157 -0.2504  0.3787
  163MPD2    C2 2535   4.216   3.276   0.919  0.4090 -0.3439 -0.4834
  163MPD2    C3 2536   4.206   3.356   1.029 -0.7722 -0.5232 -0.0595
  163MPD2    C4 2537   4.152   3.485   1.021  0.1103  0.3730 -0.4553
  163MPD2    C5 2538   4.129   3.543   0.897 -0.1163  1.1533 -0.2284
  163MPD2     H 2539   4.264   3.179   0.927 -1.2830 -1.1926 -0.6559
  163MPD2    H1 2540   4.135   3.547   1.109 -0.0920 -0.6496  0.2322
  163MPD2    H2 2541   4.102   3.504   0.689 -2.8491  0.4388  0.4225
  163MPD2    H3 2542   4.092   3.644   0.904 -1.0251  1.0210 -3.2379
  163MPD2     N 2543   4.247   3.310   1.155  0.2676  0.2169  0.4230
  163MPD2    H5 2544   4.261   3.374   1.233  1.5266 -2.4982  2.4083
  163MPD2    N1 2545   4.205   3.258   0.674  0.8099 -0.0961  0.1451
  163MPD2    H7 2546   4.174   3.306   0.590  0.7246 -0.9565 -0.3189
  164TMC2    C1 2547   0.188   3.604  11.742  0.8780 -0.0583 -0.6706
  164TMC2    C2 2548   0.225   3.543  11.857  0.4527 -0.0399 -0.4619
  164TMC2    C3 2549   0.128   3.532  11.950  0.0774 -0.0112 -0.0700
  164TMC2    C4 2550   0.066   3.652  11.707  0.4280 -0.9202 -0.3263
  164TMC2    C5 2551   4.712   3.640  11.807 -0.0501 -0.0686 -0.0785
  164TMC2    C6 2552   0.007   3.596  11.934  0.2738  0.4178 -0.3053
  164TMC2     C 2553   0.300   3.673  11.685  0.3244  0.2577  0.2186
  164TMC2     O 2554   0.392   3.712  11.759  0.0275  0.4685 -0.1740
  164TMC2     H 2555   0.330   3.525  11.878  0.1980  0.7150  1.4387
  164TMC2    H1 2556   0.049   3.693  11.609 -0.2563  2.6745  1.2893
  164TMC2    H2 2557   4.676   3.601  12.017 -1.1312  2.0841 -1.5546
  164TMC2    C7 2558   4.579   3.670  11.765  0.0696  0.6561  0.3191
  164TMC2    C8 2559   0.164   3.507  12.090 -0.2717 -0.3968 -0.3222
  164TMC2    O1 2560   4.554   3.683  11.645  0.2692  0.5953  0.3499
  164TMC2    O2 2561   0.086   3.534  12.182  0.1926 -0.3372 -0.0761
  164TMC2    O5 2562   0.286   3.447  12.092  0.5144  0.0549 -0.0945
  164TMC2    H5 2563   0.321   3.410  12.007  1.8480  2.3251 -0.5411
  165TMC2    C1 2564   1.987   0.501   1.063  0.6734 -0.0688  0.4743
  165TMC2    C2 2565   1.938   0.430   0.955 -0.0309  0.2794  0.0704
  165TMC2    C3 2566   2.026   0.407   0.850 -0.3989  0.1342 -0.1877
  165TMC2    C4 2567   2.113   0.549   1.071 -0.2737 -0.1587  0.0998
  165TMC2    C5 2568   2.189   0.537   0.960 -0.0099  0.2057 -0.2245
  165TMC2    C6 2569   2.153   0.468   0.847 -0.5420  0.1278 -0.1284
  165TMC2     C 2570   1.899   0.577   1.152  0.7496  0.5082 -0.6437
  165TMC2     O 2571   1.961   0.676   1.194 -0.0321  0.2474  0.1242
  165TMC2     H 2572   1.835   0.405   0.935  0.5617  0.6677 -3.4024
  165TMC2    H1 2573   2.163   0.569   1.165 -1.1854  2.2628  0.0808
  165TMC2    H2 2574   2.216   0.454   0.760  0.3431 -1.4448  0.7470
  165TMC2    C7 2575   2.274   0.656   0.943 -0.2565  0.1196  0.0472
  165TMC2    C8 2576   1.981   0.336   0.739  0.4174 -0.1438  0.3189
  165TMC2    O1 2577   2.357   0.654   0.852 -0.2260 -0.7111  0.0245
  165TMC2    O2 2578   1.871   0.285   0.746  0.3904  0.0322  0.0850
  165TMC2    O5 2579   2.033   0.407   0.635 -0.2485  0.2591  0.5183
  165TMC2    H5 2580   2.101   0.475   0.655  1.1987 -1.0083 -0.0783
  166MPD2     C 2581   1.460   0.779   1.300 -0.1297 -0.7280 -0.3944
  166MPD2    C1 2582   1.432   0.663   1.229 -0.0485 -0.2006 -0.0245
  166MPD2    C2 2583   1.536   0.593   1.176 -0.2854 -0.2579  0.4628
  166MPD2    C3 2584   1.668   0.630   1.193  0.3028 -0.2236 -0.0882
  166MPD2    C4 2585   1.691   0.740   1.275 -0.1946 -0.7430 -0.0863
  166MPD2    C5 2586   1.583   0.815   1.324 -0.0593  0.2389  0.1295
  166MPD2     H 2587   1.513   0.513   1.106  2.3431 -1.5198  1.0347
  166MPD2    H1 2588   1.791   0.775   1.298 -0.3751 -1.0704  1.1522
  166MPD2    H2 2589   1.379   0.839   1.337  1.5664  0.2961  1.6243
  166MPD2    H3 2590   1.607   0.901   1.386 -1.0082  1.1048 -0.7175
  166MPD2     N 2591   1.769   0.555   1.135 -0.3654 -0.2888  0.0013
  166MPD2    H5 2592   1.740   0.478   1.074  0.4953  1.5244 -2.7181
  166MPD2    N1 2593   1.296   0.629   1.219 -0.8333  0.4937  0.0847
  166MPD2    H7 2594   1.234   0.702   1.252 -0.8176  0.3750  0.3769
  167TMC2    C1 2595   4.138   3.013  13.046 -0.0014  0.2811 -0.4105
  167TMC2    C2 2596   4.104   3.032  13.180  0.0400 -0.1295 -0.2831
  167TMC2    C3 2597   4.127   2.935  13.269 -0.6983  0.4274  0.2243
  167TMC2    C4 2598   4.174   2.893  13.000 -0.2186  0.8595 -0.0839
  167TMC2    C5 2599   4.205   2.800  13.093  0.0046  0.0289  0.3345
  167TMC2    C6 2600   4.184   2.821  13.225 -0.0830 -0.4283 -1.1593
  167TMC2     C 2601   4.096   3.119  12.953 -0.1025 -0.0223  0.2777
  167TMC2     O 2602   4.020   3.201  13.005  0.0095  0.2087 -0.8598
  167TMC2     H 2603   4.077   3.133  13.210  0.9462 -0.5231  1.8587
  167TMC2    H1 2604   4.191   2.868  12.896 -2.6509  1.6931 -0.6817
  167TMC2    H2 2605   4.197   2.739  13.294  0.3805  1.6612  1.2060
  167TMC2    C7 2606   4.279   2.678  13.063  0.5883 -0.2750  0.4435
  167TMC2    C8 2607   4.126   2.958  13.410 -0.4304  0.3504 -0.0578
  167TMC2    O1 2608   4.281   2.591  13.150 -0.3932 -0.3925 -0.1744
  167TMC2    O2 2609   4.203   2.901  13.488 -0.1846  0.4941 -0.7817
  167TMC2    O5 2610   4.020   3.036  13.441 -0.2900  0.0212  0.6054
  167TMC2    H5 2611   3.961   3.062  13.367 -0.0064 -1.3355 -0.0985
  168MPD2     C 2612   4.019   3.289  12.719  0.4331  0.1698  0.1139
  168MPD2    C1 2613   4.103   3.185  12.712 -0.3157 -0.4713  0.1156
  168MPD2    C2 2614   4.161   3.160  12.589 -0.0812  0.3526 -0.3932
  168MPD2    C3 2615   4.118   3.226  12.469 -0.0800 -0.5529 -0.1125
  168MPD2    C4 2616   4.033   3.328  12.484 -0.4876  0.1916 -0.2740
  168MPD2    C5 2617   3.983   3.358  12.608 -0.5268 -0.2039  0.5006
  168MPD2     H 2618   4.221   3.071  12.579  0.4746  0.6765 -0.0121
  168MPD2    H1 2619   4.009   3.396  12.403  1.6002  0.5719 -0.5671
  168MPD2    H2 2620   3.987   3.322  12.817 -2.8805 -0.5279 -0.7443
  168MPD2    H3 2621   3.915   3.442  12.615  0.5644  0.7850 -0.7589
  168MPD2     N 2622   4.161   3.190  12.343  0.7456 -0.3071  0.1211
  168MPD2    H5 2623   4.131   3.251  12.268 -0.7074 -0.3583  0.6587
  168MPD2    N1 2624   4.147   3.110  12.823 -0.0364  0.4895  0.6808
  168MPD2    H7 2625   4.222   3.046  12.803 -0.8282  0.1636 -1.1999
  169MPD1     C 2626   1.408   3.886   9.459  0.1450  0.4117  0.1036
  169MPD1    C1 2627   1.541   3.869   9.476  0.3999 -0.0618  0.1891
  169MPD1    C2 2628   1.591   3.744   9.484 -0.3010  0.1844  1.2863
  169MPD1    C3 2629   1.506   3.634   9.478 -0.2196  0.0078  0.1267
  169MPD1    C4 2630   1.372   3.650   9.454 -0.0719  0.4439  0.4054
  169MPD1    C5 2631   1.328   3.775   9.452 -0.1319 -0.2844 -0.1569
  169MPD1     H 2632   1.698   3.733   9.491 -0.3223 -0.1909  1.0230
  169MPD1    H1 2633   1.301   3.569   9.450 -0.7981  1.0221  1.9392
  169MPD1    H2 2634   1.359   3.981   9.442  0.5732  0.4344 -0.9884
  169MPD1    H3 2635   1.221   3.790   9.446 -0.2870 -0.5621  1.9034
  169MPD1     N 2636   1.561   3.504   9.482 -0.4714  0.0452 -0.0333
  169MPD1    H5 2637   1.662   3.500   9.489 -0.6223 -0.4998  1.6861
  169MPD1    N1 2638   1.624   3.978   9.510 -0.0112  0.3648  0.1230
  169MPD1    H6 2639   1.592   4.065   9.467  0.2074 -0.0803 -0.9494
  169MPD1    H7 2640   1.721   3.967   9.481 -0.9322 -4.1217 -1.2157
  170MPD1     C 2641   1.151   0.539  13.299 -0.4321  0.0641 -0.3435
  170MPD1    C1 2642   1.085   0.488  13.408  0.0556 -0.7213 -0.0065
  170MPD1    C2 2643   0.978   0.561  13.461  0.3962 -0.1135 -0.8370
  170MPD1    C3 2644   0.935   0.677  13.397  0.4642 -1.0248 -0.8984
  170MPD1    C4 2645   0.989   0.713  13.274  0.0249 -0.5505  0.1768
  170MPD1    C5 2646   1.100   0.643  13.228  0.7065 -0.8570  0.0622
  170MPD1     H 2647   0.948   0.538  13.563 -2.6884 -0.4580 -1.8163
  170MPD1    H1 2648   0.958   0.807  13.230 -0.3194 -0.0644  1.4691
  170MPD1    H2 2649   1.244   0.502  13.259  1.4057  1.2605  2.8024
  170MPD1    H3 2650   1.158   0.678  13.143  1.2497 -2.9218 -0.4215
  170MPD1     N 2651   0.840   0.756  13.468 -0.7975  0.2287  0.0890
  170MPD1    H5 2652   0.831   0.734  13.567 -0.5584 -0.0918  0.0419
  170MPD1    N1 2653   1.143   0.388  13.492  0.1639 -0.1742  0.5413
  170MPD1    H6 2654   1.205   0.322  13.446  1.0396 -1.2186  3.2521
  170MPD1    H7 2655   1.068   0.334  13.536 -1.7198  1.7648 -0.2638
  171MPD1     C 2656   3.856   1.873  15.469 -0.2667 -0.1372  0.2223
  171MPD1    C1 2657   3.810   1.750  15.428  0.2664 -0.0831 -0.2508
  171MPD1    C2 2658   3.883   1.644  15.469 -0.2134 -0.0564  0.4829
  171MPD1    C3 2659   4.002   1.660  15.540 -0.7068 -0.2933  0.4539
  171MPD1    C4 2660   4.045   1.785  15.573  0.7470 -0.2802  0.8108
  171MPD1    C5 2661   3.968   1.890  15.547 -0.3488  0.6464 -0.0997
  171MPD1     H 2662   3.852   1.547  15.434  0.3072 -0.1376  0.2511
  171MPD1    H1 2663   4.136   1.803  15.629  0.6279  2.3914  0.1108
  171MPD1    H2 2664   3.790   1.958  15.455 -0.9906 -0.4066  1.9656
  171MPD1    H3 2665   3.995   1.984  15.593  0.0348  1.2432 -1.5268
  171MPD1     N 2666   4.074   1.559  15.591  0.3559 -0.4696  0.2923
  171MPD1    H5 2667   4.157   1.586  15.642  1.7906 -3.4700 -0.4735
  171MPD1    N1 2668   3.686   1.753  15.363 -0.3429 -0.1012  0.1659
  171MPD1    H6 2669   3.657   1.679  15.300  0.8655 -2.1446  2.0305
  171MPD1    H7 2670   3.674   1.841  15.312 -2.6894  0.3498  1.5337
  172MPD1     C 2671   3.423   0.818  17.523 -0.9662 -0.4789  0.0344
  172MPD1    C1 2672   3.339   0.911  17.474 -0.2406  0.1545 -0.5750
  172MPD1    C2 2673   3.326   1.030  17.540 -0.5387 -0.3607  0.3719
  172MPD1    C3 2674   3.365   1.048  17.671 -0.4124 -0.1421 -0.7230
  172MPD1    C4 2675   3.449   0.952  17.719  0.5377  0.6639  0.2580
  172MPD1    C5 2676   3.471   0.838  17.649  0.3089 -0.4733 -0.3300
  172MPD1     H 2677   3.289   1.115  17.484 -1.2471 -0.7418  0.2549
  172MPD1    H1 2678   3.496   0.966   0.068 -1.5552 -0.4391  1.4340
  172MPD1    H2 2679   3.457   0.728  17.474  1.0410  0.4050 -0.1794
  172MPD1    H3 2680   3.545   0.767  17.684 -0.0478  0.2279  1.8880
  172MPD1     N 2681   3.336   1.167  17.748  0.4219 -0.5002 -0.1554
  172MPD1    H5 2682   3.370   1.156   0.094 -0.5961  0.0587  0.2787
  172MPD1    N1 2683   3.317   0.896  17.340  0.6670 -0.4947 -0.4701
  172MPD1    H6 2684   3.241   0.956  17.308  1.2344  0.2981 -0.3454
  172MPD1    H7 2685   3.298   0.800  17.313 -2.4131 -0.5940  2.0619
  173MPD1     C 2686   4.682   1.242  13.700  0.1078 -0.0921 -0.2756
  173MPD1    C1 2687   4.570   1.234  13.785 -0.2372 -0.2591 -0.9928
  173MPD1    C2 2688   4.583   1.177  13.910 -0.0372 -1.0801  0.0123
  173MPD1    C3 2689   4.706   1.129  13.960  0.5146  0.5811  0.8177
  173MPD1    C4 2690   0.071   1.123  13.869  0.7376 -0.6368  0.2009
  173MPD1    C5 2691   0.059   1.184  13.742  0.0190  0.6751  0.2866
  173MPD1     H 2692   4.492   1.171  13.969 -0.5350  0.2175 -0.6262
  173MPD1    H1 2693   0.169   1.085  13.895  0.6326  0.4622  2.2045
  173MPD1    H2 2694   4.685   1.301  13.609  0.0853  2.8163  1.6109
  173MPD1    H3 2695   0.149   1.196  13.684  0.2513  1.6629  0.8503
  173MPD1     N 2696   4.722   1.082  14.090 -0.1339  0.0990  0.2857
  173MPD1    H5 2697   4.636   1.071  14.143 -0.8786 -2.2081 -1.4141
  173MPD1    N1 2698   4.453   1.295  13.737 -0.3324  0.6061  0.1984
  173MPD1    H6 2699   4.430   1.294  13.638  0.6830 -1.9699 -0.0113
  173MPD1    H7 2700   4.366   1.267  13.782 -0.0446 -0.5364  0.0557
  174MPD1     C 2701   0.632   0.483  14.701 -0.5329  0.1551  0.1077
  174MPD1    C1 2702   0.670   0.603  14.645 -0.0326 -0.3660 -0.5435
  174MPD1    C2 2703   0.569   0.684  14.608 -0.8589 -0.1643 -0.2751
  174MPD1    C3 2704   0.439   0.633  14.605  0.5598  0.5797  0.0251
  174MPD1    C4 2705   0.416   0.511  14.670 -0.8393 -0.1257  0.0985
  174MPD1    C5 2706   0.511   0.428  14.702  0.1105  0.0206  0.5090
  174MPD1     H 2707   0.592   0.786  14.582  3.2609 -0.4275  2.2548
  174MPD1    H1 2708   0.310   0.486  14.678 -1.1557  0.6480 -1.7331
  174MPD1    H2 2709   0.711   0.424  14.746 -0.1310  0.2929 -0.4094
  174MPD1    H3 2710   0.497   0.330  14.746 -0.0489 -1.1788 -2.1730
  174MPD1     N 2711   0.331   0.697  14.545  0.1244 -0.1330  0.6317
  174MPD1    H5 2712   0.248   0.639  14.537  0.2754 -0.3903  0.9416
  174MPD1    N1 2713   0.802   0.646  14.664  0.8163  0.6279  0.3121
  174MPD1    H6 2714   0.870   0.571  14.654 -0.3566 -0.3082 -0.5876
  174MPD1    H7 2715   0.827   0.730  14.610 -0.0016  1.3726  1.0945
  175MPD1     C 2716   3.298   1.470  15.185 -0.2773 -0.4537 -0.5355
  175MPD1    C1 2717   3.354   1.462  15.307 -0.3514  0.1538  0.2296
  175MPD1    C2 2718   3.299   1.520  15.421  0.4745 -0.0828  0.3306
  175MPD1    C3 2719   3.177   1.593  15.411 -0.3801  0.3028 -0.2207
  175MPD1    C4 2720   3.122   1.603  15.281  0.2422  0.9059  0.0189
  175MPD1    C5 2721   3.182   1.540  15.168  0.6326  0.1945 -0.0190
  175MPD1     H 2722   3.360   1.508  15.510  2.0211  0.8361 -0.6050
  175MPD1    H1 2723   3.031   1.657  15.259 -1.5979 -1.9542  0.7312
  175MPD1    H2 2724   3.339   1.421  15.098 -0.6593 -3.8315  1.1757
  175MPD1    H3 2725   3.131   1.542  15.072  0.5621  1.4428  0.0391
  175MPD1     N 2726   3.104   1.641  15.517 -0.4442  0.4303 -0.0083
  175MPD1    H5 2727   3.024   1.702  15.500 -0.9414 -0.2652 -0.1349
  175MPD1    N1 2728   3.468   1.376  15.325 -0.1450 -0.3400 -0.1270
  175MPD1    H6 2729   3.517   1.392  15.413  0.6321 -0.2194 -0.5729
  175MPD1    H7 2730   3.535   1.382  15.248 -2.2051  0.0581 -1.8837
  176MPD1     C 2731   0.251   3.816   0.180  0.2797  0.1159  0.2141
  176MPD1    C1 2732   0.223   3.896   0.287 -0.5148 -0.7714  0.4689
  176MPD1    C2 2733   0.270   4.027   0.284 -0.2683  0.4953  0.5691
  176MPD1    C3 2734   0.333   4.078   0.167  0.4310 -0.5292 -0.2486
  176MPD1    C4 2735   0.369   3.986   0.069  0.5964 -0.3277 -0.2801
  176MPD1    C5 2736   0.331   3.857   0.080 -0.6274  0.4510 -0.4435
  176MPD1     H 2737   0.251   4.089   0.371  1.1338  2.1064 -0.2629
  176MPD1    H1 2738   0.412   4.018  17.723 -0.6661  0.8535 -0.4623
  176MPD1    H2 2739   0.225   3.711   0.180  1.3205 -0.1444 -1.9075
  176MPD1    H3 2740   0.356   3.787   0.001  1.2005 -0.3472  0.8437
  176MPD1     N 2741   0.367   4.211   0.159 -0.2475 -0.2840 -0.7976
  176MPD1    H5 2742   0.320   4.272   0.225  0.4025  1.4427 -1.9348
  176MPD1    N1 2743   0.152   3.847   0.399 -0.5901  0.5129  0.6483
  176MPD1    H6 2744   0.136   3.747   0.398  2.1095  0.0949 -0.8065
  176MPD1    H7 2745   0.204   3.867   0.485  1.9851  0.9382 -1.0253
  177MPD1     C 2746   2.989   4.643   9.775 -0.1050 -0.6938 -0.4593
  177MPD1    C1 2747   2.853   4.649   9.751  0.0313 -0.1831 -0.3797
  177MPD1    C2 2748   2.792   4.579   9.649  0.2361  0.2201 -0.5342
  177MPD1    C3 2749   2.861   4.484   9.579  0.1451 -0.8777 -0.1216
  177MPD1    C4 2750   2.998   4.473   9.603 -0.2885 -0.7338  0.6585
  177MPD1    C5 2751   3.056   4.551   9.699  0.1719 -0.1390  0.5370
  177MPD1     H 2752   2.687   4.590   9.625  0.0779 -0.0591  0.0491
  177MPD1    H1 2753   3.062   4.398   9.557  0.5167 -0.2870  1.0437
  177MPD1    H2 2754   3.039   4.714   9.840 -0.7286  0.3962 -1.1720
  177MPD1    H3 2755   3.160   4.542   9.728  0.0374  0.6559  1.2639
  177MPD1     N 2756   2.789   4.406   9.485 -0.4006 -0.1480  0.1811
  177MPD1    H5 2757   2.687   4.411   9.485 -0.4815 -1.8156  1.5471
  177MPD1    N1 2758   2.776   0.018   9.801 -0.4071  0.0310  0.6443
  177MPD1    H6 2759   2.811   0.028   9.895 -0.3716  0.1082  0.6224
  177MPD1    H7 2760   2.677   4.735   9.813 -0.7421  1.9546  1.1787
  178MPD1     C 2761   1.671   3.854  17.536  0.3236 -0.3626 -0.3229
  178MPD1    C1 2762   1.561   3.861  17.616  0.1421  0.4328 -0.0481
  178MPD1    C2 2763   1.455   3.941  17.580 -0.8903 -0.3468 -0.3739
  178MPD1    C3 2764   1.451   4.014  17.461  0.3086 -0.2941  0.5486
  178MPD1    C4 2765   1.570   4.013  17.389  0.9570  0.8756 -0.1143
  178MPD1    C5 2766   1.673   3.927  17.420  0.0292  0.1538 -1.1593
  178MPD1     H 2767   1.367   3.938  17.643 -1.0408 -1.1819 -0.6202
  178MPD1    H1 2768   1.581   4.070  17.297 -0.9186 -1.8605 -2.0581
  178MPD1    H2 2769   1.758   3.791  17.551 -1.2470 -1.8890  2.5282
  178MPD1    H3 2770   1.756   3.925  17.350  0.7150 -0.9294 -0.3044
  178MPD1     N 2771   1.334   4.091  17.422  0.4086 -0.0518  0.1381
  178MPD1    H5 2772   1.343   4.135  17.331  3.4886 -2.0233 -0.4813
  178MPD1    N1 2773   1.535   3.771  17.720  0.0012 -0.5389 -0.3970
  178MPD1    H6 2774   1.613   3.744   0.031 -0.7916 -0.4267  0.6956
  178MPD1    H7 2775   1.473   3.807   0.044 -0.6671 -1.4220 -0.5255
  179MPD1     C 2776   0.863   1.851  15.589  0.0956 -0.1151  0.2730
  179MPD1    C1 2777   0.751   1.881  15.515 -0.1875 -0.9760 -0.4857
  179MPD1    C2 2778   0.661   1.966  15.572  0.2127 -0.2078  0.4369
  179MPD1    C3 2779   0.694   2.043  15.690  1.1235  0.1926 -0.1916
  179MPD1    C4 2780   0.818   2.009  15.755  0.0439  0.4388 -0.1438
  179MPD1    C5 2781   0.895   1.911  15.706  0.2748 -0.0231  0.1227
  179MPD1     H 2782   0.567   1.989  15.524 -0.9196  0.7732  3.1711
  179MPD1    H1 2783   0.855   2.046  15.850 -0.3998  0.8504 -0.1359
  179MPD1    H2 2784   0.940   1.781  15.560 -0.6925 -0.6724 -0.4927
  179MPD1    H3 2785   0.989   1.880  15.749  0.4440  0.5835  0.1893
  179MPD1     N 2786   0.606   2.139  15.746 -0.1703 -0.1399  0.3441
  179MPD1    H5 2787   0.633   2.177  15.836 -1.3032  0.1109  0.5699
  179MPD1    N1 2788   0.714   1.808  15.397  0.4383  0.0543 -0.0922
  179MPD1    H6 2789   0.800   1.774  15.355 -1.4471 -3.3266 -1.1848
  179MPD1    H7 2790   0.671   1.866  15.325 -0.0206 -0.2264 -0.0448
  180MPD1     C 2791   0.234   3.512  14.948  0.0172 -0.3303  0.6620
  180MPD1    C1 2792   0.314   3.586  14.864  0.2766 -0.1099 -0.2192
  180MPD1    C2 2793   0.254   3.701  14.814  0.4749 -0.0753  0.2324
  180MPD1    C3 2794   0.131   3.751  14.853  0.2075  0.4085  0.5423
  180MPD1    C4 2795   0.058   3.671  14.943  0.2562 -0.0493 -0.4213
  180MPD1    C5 2796   0.108   3.553  14.985  0.4783 -0.4519  0.3473
  180MPD1     H 2797   0.304   3.772  14.748 -0.5181 -0.7764 -1.2834
  180MPD1    H1 2798   4.695   3.706  14.966  0.2280 -0.4801  0.1128
  180MPD1    H2 2799   0.268   3.415  14.985  0.5044 -0.0782  0.8737
  180MPD1    H3 2800   0.056   3.488  15.055  3.1762 -1.4892  1.3712
  180MPD1     N 2801   0.085   3.869  14.789 -0.1194  0.2140 -0.0340
  180MPD1    H5 2802   0.152   3.919  14.732  0.7048 -1.4285 -0.4981
  180MPD1    N1 2803   0.438   3.549  14.814 -0.0345 -0.1803 -0.2543
  180MPD1    H6 2804   0.500   3.624  14.787 -0.8015  1.7190  3.3264
  180MPD1    H7 2805   0.490   3.495  14.883  0.5605  1.0047  0.2067
  181MPD1     C 2806   1.515   1.261  10.460 -0.1373 -0.0363  0.0133
  181MPD1    C1 2807   1.540   1.369  10.543  0.4452 -0.2345 -0.6070
  181MPD1    C2 2808   1.637   1.462  10.504  0.8843  0.1395  0.1015
  181MPD1    C3 2809   1.705   1.448  10.383  0.2918  0.1273  0.7541
  181MPD1    C4 2810   1.678   1.338  10.307 -0.0349 -0.3740 -0.9599
  181MPD1    C5 2811   1.588   1.247  10.345 -0.0655  0.6551  0.0490
  181MPD1     H 2812   1.663   1.544  10.570 -1.5685  0.9213  0.1143
  181MPD1    H1 2813   1.734   1.315  10.218  0.7541  0.6940 -0.7353
  181MPD1    H2 2814   1.440   1.184  10.474 -1.2053  1.0451  0.1468
  181MPD1    H3 2815   1.564   1.164  10.280  2.2507  1.2816 -1.6087
  181MPD1     N 2816   1.792   1.547  10.333  0.6243 -0.2580 -0.2129
  181MPD1    H5 2817   1.844   1.536  10.247 -0.7714  0.7848 -1.1710
  181MPD1    N1 2818   1.478   1.377  10.665 -0.3125  0.1964  0.2335
  181MPD1    H6 2819   1.387   1.334  10.657 -0.6265  0.8446  0.2902
  181MPD1    H7 2820   1.471   1.473  10.699  0.0597  0.6993 -1.0891
  182MPD1     C 2821   2.689   1.184   1.299 -0.0047  0.0169  0.6202
  182MPD1    C1 2822   2.792   1.097   1.260  0.1125  0.7049  0.0771
  182MPD1    C2 2823   2.761   0.963   1.238 -0.3971  0.3115 -0.4759
  182MPD1    C3 2824   2.631   0.923   1.250 -0.0072  0.0283  0.1394
  182MPD1    C4 2825   2.534   1.010   1.290 -0.0049 -0.4481  0.1815
  182MPD1    C5 2826   2.564   1.142   1.311 -0.3506 -0.2741 -0.4425
  182MPD1     H 2827   2.845   0.895   1.234 -0.6231  0.0228 -0.2812
  182MPD1    H1 2828   2.429   0.985   1.296 -0.1576  0.4114  1.0766
  182MPD1    H2 2829   2.710   1.288   1.322 -0.6935  0.4441 -0.6876
  182MPD1    H3 2830   2.481   1.206   1.338  1.9916  2.4290  0.1841
  182MPD1     N 2831   2.595   0.787   1.244  0.3370  0.8423  0.2590
  182MPD1    H5 2832   2.499   0.769   1.270  0.8160 -1.1516  0.6836
  182MPD1    N1 2833   2.925   1.128   1.283  0.2596  0.7952  0.2237
  182MPD1    H6 2834   2.984   1.070   1.224 -2.6053 -1.3064 -0.6089
  182MPD1    H7 2835   2.947   1.227   1.283  2.1264  0.3735  1.3790
  183MPD1     C 2836   2.673   0.147   8.935  0.1039 -0.3408  0.0440
  183MPD1    C1 2837   2.591   0.198   9.027  0.5782 -0.0031  0.2505
  183MPD1    C2 2838   2.640   0.300   9.102 -0.3555  0.7074  0.1156
  183MPD1    C3 2839   2.771   0.345   9.109  0.4726  0.0651 -0.0797
  183MPD1    C4 2840   2.857   0.290   9.016 -0.0639 -0.0437 -0.5502
  183MPD1    C5 2841   2.803   0.195   8.929  0.9926 -0.0683  0.0504
  183MPD1     H 2842   2.570   0.339   9.174 -1.1908 -0.5938  0.0025
  183MPD1    H1 2843   2.963   0.314   9.010 -0.1235  0.4735  0.4457
  183MPD1    H2 2844   2.638   0.076   8.860  1.8372 -0.8667 -0.2578
  183MPD1    H3 2845   2.861   0.163   8.843 -0.1406 -0.8803 -0.4114
  183MPD1     N 2846   2.814   0.430   9.215 -0.3616  0.1682 -0.6010
  183MPD1    H5 2847   2.742   0.472   9.273  0.5753  0.8837  0.0452
  183MPD1    N1 2848   2.459   0.159   9.035  0.1471  0.3167 -0.8578
  183MPD1    H6 2849   2.433   0.070   8.992  2.1304 -0.6131 -0.0877
  183MPD1    H7 2850   2.406   0.179   9.119  0.2533  0.5879 -0.8538
  184MPD1     C 2851   1.739   3.820  10.298 -0.1462  0.1084  0.5035
  184MPD1    C1 2852   1.868   3.869  10.303  0.3288 -0.1216 -0.4926
  184MPD1    C2 2853   1.951   3.855  10.198  0.4767 -0.0199  0.2712
  184MPD1    C3 2854   1.907   3.817  10.072  0.2536 -0.2051  0.1687
  184MPD1    C4 2855   1.770   3.786  10.062 -0.9432 -0.1225 -0.0970
  184MPD1    C5 2856   1.694   3.784  10.173  0.0491 -0.4588  0.5754
  184MPD1     H 2857   2.058   3.856  10.216  0.5524  1.2274 -0.2549
  184MPD1    H1 2858   1.731   3.761   9.964  0.8031  0.0753 -0.8468
  184MPD1    H2 2859   1.670   3.822  10.382 -0.6247 -0.5190  0.1279
  184MPD1    H3 2860   1.591   3.751  10.173 -0.1206  0.0929 -1.0747
  184MPD1     N 2861   1.982   3.814   9.946  0.8600 -0.4637 -0.1302
  184MPD1    H5 2862   1.929   3.786   9.865  0.1741 -2.1134  0.8801
  184MPD1    N1 2863   1.929   3.904  10.423 -0.0408  0.9036 -0.2834
  184MPD1    H6 2864   2.001   3.976  10.417 -1.2052  2.1069  0.2419
  184MPD1    H7 2865   1.854   3.936  10.483 -0.0478  1.0510 -0.3712
  185MPD1     C 2866   1.823   3.951   9.002  0.2043 -1.1629 -0.0367
  185MPD1    C1 2867   1.951   4.000   8.998  0.6699  0.0076  0.5599
  185MPD1    C2 2868   2.031   3.983   9.111  0.7414 -0.2374 -0.2448
  185MPD1    C3 2869   1.978   3.937   9.228 -0.1925  0.3322 -0.3132
  185MPD1    C4 2870   1.847   3.891   9.231 -0.3909  1.0971  0.1110
  185MPD1    C5 2871   1.772   3.900   9.117 -0.9112 -0.7339  1.0389
  185MPD1     H 2872   2.133   4.018   9.114  0.0912  1.8332 -2.1919
  185MPD1    H1 2873   1.801   3.831   9.308  1.6865  0.7275  1.0415
  185MPD1    H2 2874   1.752   3.966   8.921  2.1106 -1.3093 -1.7392
  185MPD1    H3 2875   1.667   3.876   9.122 -1.1348 -0.1734 -1.2192
  185MPD1     N 2876   2.059   3.935   9.342 -0.1234  0.2645  1.2029
  185MPD1    H5 2877   2.155   3.967   9.329 -0.8588  0.0881 -4.7113
  185MPD1    N1 2878   2.010   4.038   8.876 -0.4121 -0.4104 -0.1699
  185MPD1    H6 2879   2.074   4.117   8.872 -0.8667 -0.0561 -0.3492
  185MPD1    H7 2880   1.939   4.048   8.804  0.7545  1.1284 -1.1100
  186MPD1     C 2881   1.022   2.648  16.169 -0.9753  0.0245  0.5185
  186MPD1    C1 2882   0.998   2.620  16.303 -0.2180 -0.4682 -0.5270
  186MPD1    C2 2883   0.967   2.725  16.381 -0.4081  0.3359  0.0748
  186MPD1    C3 2884   0.956   2.859  16.342  0.5025 -0.2623  0.1216
  186MPD1    C4 2885   0.966   2.883  16.201 -0.1597 -0.2133  0.2993
  186MPD1    C5 2886   1.002   2.779  16.122  0.0701 -0.2686 -0.4162
  186MPD1     H 2887   0.964   2.706  16.488 -1.5891  0.7257  0.1132
  186MPD1    H1 2888   0.920   2.972  16.160  1.5146  0.0221 -1.0745
  186MPD1    H2 2889   1.034   2.565  16.100  1.1733  0.2856  0.5742
  186MPD1    H3 2890   1.006   2.782  16.014 -0.3175  0.6673 -0.4060
  186MPD1     N 2891   0.938   2.970  16.428  0.4713  0.4983  0.6748
  186MPD1    H5 2892   0.936   3.063  16.386 -0.1528 -0.9677 -2.5011
  186MPD1    N1 2893   1.024   2.491  16.362 -0.1888 -0.0523  0.1363
  186MPD1    H6 2894   0.999   2.419  16.294 -0.0077 -0.8456  0.9087
  186MPD1    H7 2895   0.970   2.480  16.448 -1.5042  2.6363 -0.3417
  187MPD1     C 2896   4.385   0.906   0.325 -0.2126  0.1532  0.1274
  187MPD1    C1 2897   4.296   0.880   0.225  0.4302 -0.7047 -0.3040
  187MPD1    C2 2898   4.353   0.844   0.105 -0.0285  0.3828 -0.1387
  187MPD1    C3 2899   4.489   0.847   0.082 -0.6671 -0.2686  0.0827
  187MPD1    C4 2900   4.570   0.866   0.191 -0.2610  1.1369 -0.3176
  187MPD1    C5 2901   4.518   0.907   0.312  0.2796  0.5444  0.5445
  187MPD1     H 2902   4.286   0.811   0.027 -0.3667 -0.7905  0.6551
  187MPD1    H1 2903   4.678   0.860   0.185 -0.1701  0.3688  2.0731
  187MPD1    H2 2904   4.347   0.921   0.425  0.9069  0.0497  0.5718
  187MPD1    H3 2905   4.587   0.926   0.394  0.5189  2.5657 -0.1374
  187MPD1     N 2906   4.543   0.797  17.707 -0.0852  0.2743 -0.2568
  187MPD1    H5 2907   4.643   0.796  17.696 -0.1932 -1.2520 -1.1952
  187MPD1    N1 2908   4.161   0.853   0.252  0.9441  0.0265  0.3702
  187MPD1    H6 2909   4.116   0.908   0.326 -2.0564 -1.4611 -0.3318
  187MPD1    H7 2910   4.098   0.855   0.171  0.6780 -0.3911  0.5669
  188MPD1     C 2911   4.299   0.369  11.001  0.2732 -0.6421  0.1226
  188MPD1    C1 2912   4.300   0.375  10.860  0.3334  0.2193 -0.1026
  188MPD1    C2 2913   4.347   0.271  10.790 -0.1033  0.0194  0.3106
  188MPD1    C3 2914   4.405   0.164  10.856 -0.8184 -0.0694 -0.4839
  188MPD1    C4 2915   4.420   0.172  10.994  0.5224  0.1121 -0.2976
  188MPD1    C5 2916   4.360   0.264  11.059 -0.1100 -0.6516  0.2700
  188MPD1     H 2917   4.338   0.273  10.682 -1.7542  1.6767  0.4637
  188MPD1    H1 2918   4.463   0.086  11.044 -1.5892 -1.3904 -1.0320
  188MPD1    H2 2919   4.271   0.460  11.052  1.1315  0.5824 -1.5749
  188MPD1    H3 2920   4.363   0.268  11.167 -0.1297  2.3228  0.1342
  188MPD1     N 2921   4.471   0.057  10.792  0.0417 -0.4422 -0.3411
  188MPD1    H5 2922   4.519   4.723  10.847 -0.9668 -1.4999 -0.8310
  188MPD1    N1 2923   4.241   0.486  10.796 -0.0510  0.1138 -0.2571
  188MPD1    H6 2924   4.278   0.580  10.811  1.1326 -0.7353  2.1547
  188MPD1    H7 2925   4.248   0.480  10.695  1.2999 -1.5340 -0.0667
  189MPD1     C 2926   2.738   1.015   0.557  0.8100 -0.4753 -0.5244
  189MPD1    C1 2927   2.651   0.916   0.582  0.9021  0.2350  0.3252
  189MPD1    C2 2928   2.516   0.934   0.564  0.6293  0.0768 -0.0878
  189MPD1    C3 2929   2.473   1.053   0.512  0.4655  0.2540  0.4831
  189MPD1    C4 2930   2.562   1.151   0.486  0.1708  0.8976  0.9205
  189MPD1    C5 2931   2.692   1.130   0.502 -0.2881  0.3114  0.1977
  189MPD1     H 2932   2.441   0.857   0.578  0.3881  0.1042 -1.2126
  189MPD1    H1 2933   2.531   1.251   0.459 -0.6868  0.1246 -0.9586
  189MPD1    H2 2934   2.846   1.011   0.563  0.7446 -0.3488  0.8371
  189MPD1    H3 2935   2.751   1.214   0.469  0.8092  0.2993  2.1344
  189MPD1     N 2936   2.339   1.077   0.493 -0.1870  0.2063 -0.4072
  189MPD1    H5 2937   2.278   1.016   0.546  0.7566 -0.8211 -0.5131
  189MPD1    N1 2938   2.696   0.808   0.663 -0.1839  0.1387 -0.0556
  189MPD1    H6 2939   2.789   0.787   0.629 -0.5069 -0.3907 -0.6115
  189MPD1    H7 2940   2.637   0.726   0.652 -1.9621  1.1581  1.7402
  190MPD1     C 2941   0.354   4.685  15.459 -0.8363  0.5530 -0.0166
  190MPD1    C1 2942   0.258   4.593  15.488 -0.2084 -0.2743 -0.1327
  190MPD1    C2 2943   0.302   4.473  15.534 -0.2697  0.3339 -0.0547
  190MPD1    C3 2944   0.433   4.447  15.576  0.2629 -0.3990 -0.4710
  190MPD1    C4 2945   0.526   4.546  15.559  0.7380 -0.7230 -0.1519
  190MPD1    C5 2946   0.490   4.664  15.491  0.2206  0.5785  0.3668
  190MPD1     H 2947   0.228   4.399  15.561  0.3564 -1.0453 -2.1043
  190MPD1    H1 2948   0.625   4.525  15.598  1.5735  3.2062 -0.2005
  190MPD1    H2 2949   0.327   0.043  15.417  0.1604  0.9249  0.1806
  190MPD1    H3 2950   0.556   0.011  15.476  1.0328 -0.0488  0.3613
  190MPD1     N 2951   0.478   4.327  15.624  0.8589 -0.1549 -0.2589
  190MPD1    H5 2952   0.575   4.301  15.617  0.5683 -1.1159 -0.6749
  190MPD1    N1 2953   0.128   4.611  15.455 -0.4717  0.1361 -0.0379
  190MPD1    H6 2954   0.094   4.704  15.479  1.3819  0.8192 -0.0673
  190MPD1    H7 2955   0.059   4.542  15.483  0.5264 -1.4817 -1.5968
  191MPD1     C 2956   4.065   1.319  13.114  0.0473  0.2898  0.3739
  191MPD1    C1 2957   3.957   1.382  13.053  0.2970  0.5498  0.0935
  191MPD1    C2 2958   3.993   1.487  12.970 -0.3519  0.3879  0.1458
  191MPD1    C3 2959   4.124   1.508  12.927  0.0404  0.5035 -0.1174
  191MPD1    C4 2960   4.225   1.433  12.987  0.7300  1.3909 -0.0001
  191MPD1    C5 2961   4.190   1.335  13.074  0.3623 -0.1418  0.0487
  191MPD1     H 2962   3.910   1.548  12.935  0.6802  2.2185  0.8678
  191MPD1    H1 2963   4.330   1.456  12.979  0.8754  0.2287 -1.6087
  191MPD1    H2 2964   4.056   1.244  13.192 -2.1783 -0.3552 -0.5059
  191MPD1    H3 2965   4.272   1.286  13.126 -0.6635 -1.3572  0.5212
  191MPD1     N 2966   4.141   1.587  12.817  0.8779 -0.8771 -0.1832
  191MPD1    H5 2967   4.054   1.623  12.778 -0.5245 -1.1202  2.6700
  191MPD1    N1 2968   3.828   1.362  13.111  0.6061 -0.3874 -0.6085
  191MPD1    H6 2969   3.752   1.370  13.043  1.2265  0.2303 -1.2284
  191MPD1    H7 2970   3.817   1.272  13.157  1.5619  0.2534  0.8493
  192MPD1     C 2971   3.510   1.886  12.504 -1.1812 -0.0472  0.0303
  192MPD1    C1 2972   3.598   1.972  12.441  0.9148 -0.3941  0.6484
  192MPD1    C2 2973   3.726   1.929  12.423  0.2195  0.4293  0.0645
  192MPD1    C3 2974   3.773   1.808  12.474 -0.2818  0.2052  0.2450
  192MPD1    C4 2975   3.679   1.724  12.532 -0.0575 -0.1452  0.6091
  192MPD1    C5 2976   3.551   1.760  12.550  0.1816  0.8943 -0.0174
  192MPD1     H 2977   3.799   1.994  12.376  0.5148  0.7108  0.9098
  192MPD1    H1 2978   3.702   1.626  12.571  1.3039 -0.7345 -1.7124
  192MPD1    H2 2979   3.407   1.909  12.529 -0.9348  1.6745 -0.5782
  192MPD1    H3 2980   3.487   1.691  12.602  3.5521 -2.8086 -0.7621
  192MPD1     N 2981   3.907   1.769  12.479 -1.2974 -0.0637 -0.1162
  192MPD1    H5 2982   3.920   1.705  12.557 -1.3934  0.3675  0.2589
  192MPD1    N1 2983   3.571   2.111  12.428  0.4309  0.2873  0.3686
  192MPD1    H6 2984   3.476   2.116  12.391  0.0329 -0.1321  1.3523
  192MPD1    H7 2985   3.635   2.151  12.360  1.8469 -0.1944  1.4179
  193MPD1     C 2986   3.801   1.487  15.915 -0.4447  0.1526 -0.3527
  193MPD1    C1 2987   3.878   1.595  15.942  0.3473  0.5903  0.4093
  193MPD1    C2 2988   3.931   1.609  16.068  0.9156  0.2106 -0.0703
  193MPD1    C3 2989   3.927   1.501  16.159 -0.0999 -1.2105  0.3752
  193MPD1    C4 2990   3.854   1.390  16.120  0.2959  0.3830  0.3003
  193MPD1    C5 2991   3.792   1.384  16.006 -0.0958 -0.5231  0.7271
  193MPD1     H 2992   3.987   1.699  16.090 -1.0551  1.5435 -0.4159
  193MPD1    H1 2993   3.824   1.314  16.192 -1.5757 -0.8573 -1.7951
  193MPD1    H2 2994   3.738   1.469  15.829  2.3090  0.7772 -2.5089
  193MPD1    H3 2995   3.721   1.303  15.995 -1.4415  0.5345  1.4586
  193MPD1     N 2996   3.981   1.503  16.288  0.1999 -0.1317 -0.2507
  193MPD1    H5 2997   3.977   1.415  16.338  0.5615 -0.1406 -0.2397
  193MPD1    N1 2998   3.892   1.706  15.857 -0.5675 -0.9726  0.4515
  193MPD1    H6 2999   3.968   1.765  15.889  0.0253 -1.0624 -0.8324
  193MPD1    H7 3000   3.901   1.682  15.759  0.7720 -1.0647  0.5987
  194MPD1     C 3001   1.916   3.769  17.125 -0.4749 -0.0450 -0.3130
  194MPD1    C1 3002   1.923   3.748  16.987  0.1905  0.5151 -0.2093
  194MPD1    C2 3003   1.942   3.610  16.954  0.4915  0.2785  0.1624
  194MPD1    C3 3004   1.961   3.509  17.050 -0.7763  0.1785 -0.8476
  194MPD1    C4 3005   1.961   3.544  17.184  0.6030 -0.2836  0.1299
  194MPD1    C5 3006   1.928   3.669  17.215  0.1187  0.2439 -0.4923
  194MPD1     H 3007   1.943   3.594  16.847 -2.2497 -1.4835  0.3969
  194MPD1    H1 3008   1.971   3.462  17.255  0.4480  0.1749  0.6757
  194MPD1    H2 3009   1.893   3.867  17.164 -0.6353 -0.7576  1.4115
  194MPD1    H3 3010   1.923   3.694  17.321 -1.3715 -0.1002 -0.4813
  194MPD1     N 3011   1.986   3.373  17.016 -0.6484 -0.3917  0.1431
  194MPD1    H5 3012   2.013   3.310  17.090  0.1380  0.4300  0.5553
  194MPD1    N1 3013   1.889   3.847  16.894 -0.0808 -0.4944  0.0574
  194MPD1    H6 3014   1.933   3.832  16.803  0.5447 -0.2771  0.3234
  194MPD1    H7 3015   1.907   3.941  16.929 -2.8207  0.6989 -1.6443
  195MPD1     C 3016   3.937   0.952   0.797  0.4619  0.5671  0.3321
  195MPD1    C1 3017   4.071   0.976   0.784  0.5929 -0.0838  0.3149
  195MPD1    C2 3018   4.161   0.875   0.748 -0.3895 -0.4745  0.2822
  195MPD1    C3 3019   4.105   0.750   0.737 -0.3266  0.2455 -0.0104
  195MPD1    C4 3020   3.970   0.719   0.756 -0.3410 -0.1432 -0.2641
  195MPD1    C5 3021   3.885   0.825   0.795 -0.1012 -0.5366 -0.5990
  195MPD1     H 3022   4.259   0.892   0.707  0.1897 -0.9356  1.4678
  195MPD1    H1 3023   3.938   0.617   0.742  1.5165 -0.7797  0.0378
  195MPD1    H2 3024   3.872   1.039   0.802 -0.5709 -0.3183  2.2151
  195MPD1    H3 3025   3.778   0.807   0.797 -0.5334  2.0437 -1.2676
  195MPD1     N 3026   4.184   0.643   0.691  0.1384 -0.0742 -0.1854
  195MPD1    H5 3027   4.134   0.566   0.647  2.6471 -2.0564  0.4361
  195MPD1    N1 3028   4.114   1.111   0.779  0.4152 -0.3011 -0.2074
  195MPD1    H6 3029   4.212   1.118   0.807  1.0856 -2.5783 -1.9068
  195MPD1    H7 3030   4.061   1.163   0.848 -0.7394 -0.8935 -0.6376
  196MPD1     C 3031   3.687   3.905   0.428 -0.6726 -0.1826  0.1802
  196MPD1    C1 3032   3.809   3.927   0.497  0.6575  0.8578 -0.0261
  196MPD1    C2 3033   3.805   4.030   0.585 -0.0880 -0.5149  0.0042
  196MPD1    C3 3034   3.708   4.131   0.592  0.2597  0.0699  0.2732
  196MPD1    C4 3035   3.599   4.111   0.517 -0.3955  0.6041  0.1255
  196MPD1    C5 3036   3.593   4.006   0.432 -0.1367 -0.1763 -0.2206
  196MPD1     H 3037   3.890   4.040   0.652  0.0908 -1.1310 -0.1283
  196MPD1    H1 3038   3.522   4.186   0.498 -1.0599 -0.6402 -2.2045
  196MPD1    H2 3039   3.667   3.828   0.354  1.6118 -1.9088  1.3639
  196MPD1    H3 3040   3.509   3.990   0.365 -0.5346 -0.8812  0.4444
  196MPD1     N 3041   3.713   4.253   0.662 -0.3156  0.0271  0.1733
  196MPD1    H5 3042   3.624   4.302   0.669 -0.5152 -0.0360 -2.0697
  196MPD1    N1 3043   3.913   3.830   0.499 -0.4946 -0.1286  0.0860
  196MPD1    H6 3044   4.003   3.874   0.519 -0.4853 -0.3762  0.5711
  196MPD1    H7 3045   3.926   3.773   0.415  2.1532 -2.4255  2.0436
  197MPD1     C 3046   2.597   2.366  17.502 -0.2478  0.2749 -0.6783
  197MPD1    C1 3047   2.641   2.493  17.485  0.0751  0.4717  0.4591
  197MPD1    C2 3048   2.747   2.511  17.396  0.4976  0.3930  0.3986
  197MPD1    C3 3049   2.803   2.404  17.322  0.3689 -0.3188  0.2942
  197MPD1    C4 3050   2.745   2.281  17.322  0.2262  0.2330  0.3478
  197MPD1    C5 3051   2.639   2.267  17.412  0.0723 -0.6997  0.8022
  197MPD1     H 3052   2.781   2.614  17.400 -0.8541  0.9164 -1.3110
  197MPD1    H1 3053   2.785   2.199  17.264 -0.0259 -0.2070  0.8021
  197MPD1    H2 3054   2.524   2.343  17.578 -0.1083 -1.7723 -1.1699
  197MPD1    H3 3055   2.583   2.174  17.416 -0.5173 -0.3534  0.5667
  197MPD1     N 3056   2.916   2.411  17.244  0.6836 -0.8140 -0.3751
  197MPD1    H5 3057   2.942   2.321  17.203  2.7318 -0.3742 -0.0708
  197MPD1    N1 3058   2.591   2.590  17.572 -0.2175 -0.5145 -0.6278
  197MPD1    H6 3059   2.498   2.567  17.609  0.4228  2.1816  2.6392
  197MPD1    H7 3060   2.574   2.677  17.521  0.7126  0.0409  0.0208
  198MPD1     C 3061   0.325   0.403  15.040 -0.8544 -0.1280 -0.7099
  198MPD1    C1 3062   0.372   0.524  15.077  0.0852 -0.5046 -0.5849
  198MPD1    C2 3063   0.349   0.562  15.210 -0.4457  0.4630 -0.7870
  198MPD1    C3 3064   0.266   0.498  15.292  0.2489  0.3159  0.0454
  198MPD1    C4 3065   0.210   0.380  15.257  0.0167 -0.4038 -0.4007
  198MPD1    C5 3066   0.239   0.339  15.132  0.2074 -0.3520  0.6611
  198MPD1     H 3067   0.396   0.655  15.243 -1.4049  1.1354 -1.3163
  198MPD1    H1 3068   0.163   0.319  15.333 -0.1310  0.4919  0.2279
  198MPD1    H2 3069   0.342   0.358  14.943 -0.1824 -1.2519 -0.0639
  198MPD1    H3 3070   0.205   0.239  15.108 -0.1865 -0.2673  0.8678
  198MPD1     N 3071   0.252   0.549  15.428  0.1510 -0.3643 -0.1493
  198MPD1    H5 3072   0.307   0.633  15.446 -1.7595  0.8363  0.0873
  198MPD1    N1 3073   0.469   0.589  14.999 -0.8575 -0.2220  0.0001
  198MPD1    H6 3074   0.482   0.688  15.020  1.4015 -0.3100 -0.9472
  198MPD1    H7 3075   0.462   0.568  14.899  1.0721 -0.0237 -0.1896
  199MPD1     C 3076   2.481   2.705  10.827 -0.7229  0.6157  0.5063
  199MPD1    C1 3077   2.350   2.677  10.868 -0.6207 -0.3911 -0.1899
  199MPD1    C2 3078   2.249   2.649  10.767  0.4659 -0.3457  0.2353
  199MPD1    C3 3079   2.289   2.636  10.635 -0.3271  0.5992 -0.0860
  199MPD1    C4 3080   2.422   2.639  10.605 -0.7147  0.1952 -0.4108
  199MPD1    C5 3081   2.517   2.676  10.697 -0.1078 -0.1023  0.5876
  199MPD1     H 3082   2.143   2.633  10.787  0.3203  0.0261 -0.2455
  199MPD1    H1 3083   2.457   2.627  10.503 -0.8543  1.3006 -0.5938
  199MPD1    H2 3084   2.555   2.740  10.898 -0.3728  0.9202 -0.0057
  199MPD1    H3 3085   2.617   2.689  10.657 -0.5436 -0.2656 -0.5401
  199MPD1     N 3086   2.200   2.603  10.535 -0.0275 -0.0198  0.4290
  199MPD1    H5 3087   2.249   2.600  10.446  1.2347 -1.4453  1.1717
  199MPD1    N1 3088   2.307   2.690  11.004 -0.1963 -0.9804 -0.3265
  199MPD1    H6 3089   2.391   2.703  11.060 -0.4278  0.0670 -0.2289
  199MPD1    H7 3090   2.253   2.605  11.020 -1.7374 -0.1755 -1.2913
  200MPD1     C 3091   1.374   1.257  15.439 -0.1298  0.6034  0.3059
  200MPD1    C1 3092   1.329   1.211  15.313 -0.3695  0.2418 -0.2484
  200MPD1    C2 3093   1.362   1.295  15.207  0.0088 -0.1527 -0.5715
  200MPD1    C3 3094   1.415   1.424  15.221 -0.0899 -0.0317  0.5833
  200MPD1    C4 3095   1.436   1.470  15.353  0.5793 -0.6248 -0.1845
  200MPD1    C5 3096   1.420   1.381  15.457  0.4665 -0.0347 -0.1886
  200MPD1     H 3097   1.351   1.259  15.106  0.9238  4.1235 -2.1857
  200MPD1    H1 3098   1.473   1.570  15.375  2.3962 -1.1472 -0.9602
  200MPD1    H2 3099   1.360   1.188  15.521  2.8526  0.1911  0.4776
  200MPD1    H3 3100   1.447   1.413  15.557  0.5048 -0.1735 -0.1535
  200MPD1     N 3101   1.446   1.500  15.109 -0.2551  0.2471 -0.8249
  200MPD1    H5 3102   1.432   1.450  15.022 -0.7140  1.0812 -1.2260
  200MPD1    N1 3103   1.291   1.076  15.305  0.4564  0.9593 -0.3525
  200MPD1    H6 3104   1.225   1.043  15.236 -0.4991  0.3067  0.8626
  200MPD1    H7 3105   1.242   1.044  15.389 -0.5582  0.6211 -1.0870
  201MPD1     C 3106   2.876   0.836  13.421 -0.1845  0.5267  0.2548
  201MPD1    C1 3107   2.836   0.730  13.345 -0.8699  1.4071  0.0263
  201MPD1    C2 3108   2.925   0.628  13.321 -0.5258  0.0540  0.3593
  201MPD1    C3 3109   3.047   0.629  13.374 -0.0786 -0.3939 -0.0067
  201MPD1    C4 3110   3.090   0.729  13.452  0.6675  0.3367 -0.4473
  201MPD1    C5 3111   3.001   0.835  13.474  0.6607  0.1480 -0.2202
  201MPD1     H 3112   2.904   0.542  13.260 -0.2361 -0.8589  1.5480
  201MPD1    H1 3113   3.188   0.730  13.498 -0.0273 -0.5643  1.0543
  201MPD1    H2 3114   2.801   0.914  13.433 -0.4587 -0.0130  2.0847
  201MPD1    H3 3115   3.030   0.919  13.536 -2.2392  1.0910 -0.1305
  201MPD1     N 3116   3.132   0.524  13.336 -0.1609  0.1531  0.0192
  201MPD1    H5 3117   3.087   0.444  13.293  0.4263 -1.1576  1.8342
  201MPD1    N1 3118   2.713   0.744  13.279 -0.0135  0.1568  0.3044
  201MPD1    H6 3119   2.641   0.799  13.325 -1.1898  1.5483 -3.1699
  201MPD1    H7 3120   2.678   0.652  13.253  0.0122  0.4078 -0.6188
  202MPD1     C 3121   3.779   0.030   8.866 -0.1562  0.2520 -0.4162
  202MPD1    C1 3122   3.800   4.694   8.981 -0.8503  0.3869 -0.1176
  202MPD1    C2 3123   3.871   0.026   9.080  0.5097 -0.5516 -0.2217
  202MPD1    C3 3124   3.897   0.160   9.091 -0.1599 -1.0335  0.3084
  202MPD1    C4 3125   3.857   0.232   8.981  0.0803  0.3458  0.5489
  202MPD1    C5 3126   3.796   0.168   8.878 -0.1607  0.3535  0.3724
  202MPD1     H 3127   3.898   4.706   9.168 -0.4247 -0.4108  0.1517
  202MPD1    H1 3128   3.864   0.339   8.966 -0.3738  0.2985 -0.0211
  202MPD1    H2 3129   3.736   4.725   8.776  0.4880  1.1691 -1.1580
  202MPD1    H3 3130   3.783   0.225   8.787 -0.2896  0.6947  0.6028
  202MPD1     N 3131   3.953   0.232   9.204 -0.1772  0.1634  0.3879
  202MPD1    H5 3132   3.967   0.333   9.206  0.9059  0.0437 -1.2933
  202MPD1    N1 3133   3.813   4.553   8.973  0.0284  0.4903 -0.1324
  202MPD1    H6 3134   3.751   4.511   8.904 -0.3490  1.9074 -0.6454
  202MPD1    H7 3135   3.801   4.509   9.064 -1.2485 -0.0704 -0.5739
  203MPD1     C 3136   1.990   1.275  12.552 -0.8120 -0.6697  0.1085
  203MPD1    C1 3137   2.034   1.201  12.447 -0.8387  0.1762  0.5540
  203MPD1    C2 3138   2.087   1.075  12.467  0.9059  0.1689  0.8470
  203MPD1    C3 3139   2.080   1.017  12.591  0.5013 -0.5800 -0.1000
  203MPD1    C4 3140   2.039   1.097  12.699 -0.0815  0.2993  0.6791
  203MPD1    C5 3141   1.995   1.223  12.676  0.0853  0.2505  0.0799
  203MPD1     H 3142   2.124   1.013  12.386 -2.0646 -0.9546  0.3689
  203MPD1    H1 3143   2.029   1.052  12.797  0.3943 -0.0198  0.5772
  203MPD1    H2 3144   1.945   1.372  12.535  0.3820 -0.0284  0.6030
  203MPD1    H3 3145   1.950   1.274  12.761  1.0381 -0.2870  0.8972
  203MPD1     N 3146   2.126   0.883  12.609 -0.2760 -0.4003 -0.0625
  203MPD1    H5 3147   2.150   0.828  12.527 -1.8882  0.1667 -0.9144
  203MPD1    N1 3148   2.055   1.264  12.328 -0.0315  0.0504 -0.3688
  203MPD1    H6 3149   2.004   1.352  12.322  1.7457  1.1164  0.1595
  203MPD1    H7 3150   2.035   1.205  12.247  1.0487 -1.5690  0.5545
  204MPD1     C 3151   2.076   2.504  17.666  0.8154 -1.5237  0.4266
  204MPD1    C1 3152   2.172   2.484  17.562  1.1018 -0.4348  0.9316
  204MPD1    C2 3153   2.176   2.361  17.502 -0.1007  0.0726  0.1609
  204MPD1    C3 3154   2.074   2.263  17.535  0.3652  0.8707  0.4234
  204MPD1    C4 3155   1.971   2.293  17.617 -0.6322 -0.2274 -0.0615
  204MPD1    C5 3156   1.983   2.411  17.686 -0.3633 -0.5472 -0.3469
  204MPD1     H 3157   2.253   2.328  17.433  1.6516  1.3185  1.5343
  204MPD1    H1 3158   1.876   2.241  17.617 -1.9138  2.0908  0.0330
  204MPD1    H2 3159   2.091   2.589  17.733  0.2805 -1.5907  0.6364
  204MPD1    H3 3160   1.894   2.436  17.744  0.1406  1.8479 -0.6145
  204MPD1     N 3161   2.068   2.140  17.463  0.1100  0.2217  0.6059
  204MPD1    H5 3162   2.127   2.126  17.382  0.5890  1.2101  0.7936
  204MPD1    N1 3163   2.281   2.570  17.546  0.0588  0.4631  0.1605
  204MPD1    H6 3164   2.331   2.548  17.461 -1.6197 -1.2733 -0.3784
  204MPD1    H7 3165   2.249   2.667  17.551 -1.7700 -0.1488  0.5312
  205MPD1     C 3166   2.384   0.408  16.896 -1.0651  0.1976  0.3178
  205MPD1    C1 3167   2.494   0.427  16.964 -0.8973 -0.3596  0.2430
  205MPD1    C2 3168   2.487   0.516  17.074 -0.0206 -0.3760  0.0018
  205MPD1    C3 3169   2.364   0.572  17.112  0.3695  0.6063 -0.0493
  205MPD1    C4 3170   2.256   0.539  17.036 -0.9414  0.7438 -0.5230
  205MPD1    C5 3171   2.261   0.452  16.929 -0.2729  0.2205  0.2527
  205MPD1     H 3172   2.578   0.540  17.127  0.0435  0.1248 -0.3445
  205MPD1    H1 3173   2.166   0.592  17.062 -0.7277 -0.1862  2.0573
  205MPD1    H2 3174   2.384   0.340  16.811 -1.3291  1.8980 -1.0344
  205MPD1    H3 3175   2.178   0.441  16.860 -1.0874 -1.1442  1.4511
  205MPD1     N 3176   2.348   0.662  17.223  0.3186  0.5443 -0.2942
  205MPD1    H5 3177   2.252   0.693  17.235  0.5469  1.6475 -1.3032
  205MPD1    N1 3178   2.614   0.369  16.919 -0.7448 -0.2871  0.1593
  205MPD1    H6 3179   2.676   0.348  16.997 -0.8615  0.4890  0.4607
  205MPD1    H7 3180   2.604   0.289  16.857  2.6960 -1.3403  0.9483
  206MPD1     C 3181   2.406   3.376  17.023  0.1236  0.7074  0.5721
  206MPD1    C1 3182   2.312   3.478  17.010 -0.4881 -0.4291 -0.5422
  206MPD1    C2 3183   2.284   3.529  16.884 -0.2651  0.1770 -0.5057
  206MPD1    C3 3184   2.324   3.468  16.763 -0.5242 -1.0722  0.6679
  206MPD1    C4 3185   2.395   3.356  16.777 -0.0511  0.0359  0.4874
  206MPD1    C5 3186   2.440   3.317  16.904  0.0977 -0.2326  0.3208
  206MPD1     H 3187   2.220   3.616  16.882  0.0267  0.3738 -1.7721
  206MPD1    H1 3188   2.423   3.292  16.694 -1.8157  0.5392 -0.4882
  206MPD1    H2 3189   2.452   3.334  17.111  0.9262 -1.3528 -0.8360
  206MPD1    H3 3190   2.502   3.228  16.911  0.1811 -0.1513  0.6202
  206MPD1     N 3191   2.294   3.525  16.638 -0.0224 -0.9352 -0.6000
  206MPD1    H5 3192   2.357   3.494  16.565 -1.1969 -1.8490 -1.2219
  206MPD1    N1 3193   2.283   3.558  17.123 -0.2025  0.3689  0.8217
  206MPD1    H6 3194   2.274   3.501  17.207  1.1600 -0.6880  0.2386
  206MPD1    H7 3195   2.197   3.611  17.111 -0.0276  0.4231 -0.2237
  207MPD1     C 3196   1.390   2.329   9.171  0.2092 -0.0609 -0.0454
  207MPD1    C1 3197   1.395   2.457   9.219 -0.7414  0.7122 -0.1723
  207MPD1    C2 3198   1.330   2.490   9.337 -0.1243 -0.6683  0.6721
  207MPD1    C3 3199   1.241   2.393   9.398  0.3567  0.4355  0.4635
  207MPD1    C4 3200   1.237   2.271   9.342  0.5969 -0.3814  0.0391
  207MPD1    C5 3201   1.314   2.241   9.230 -0.8369  0.2383 -0.4736
  207MPD1     H 3202   1.340   2.591   9.377  0.7810 -0.3768 -0.2782
  207MPD1    H1 3203   1.176   2.192   9.384  1.5821 -2.0739 -1.7479
  207MPD1    H2 3204   1.453   2.298   9.089  0.1391 -0.5026  0.0646
  207MPD1    H3 3205   1.303   2.140   9.192  0.4729  0.3583 -1.1573
  207MPD1     N 3206   1.161   2.413   9.509  0.4408 -0.1748 -0.6793
  207MPD1    H5 3207   1.100   2.338   9.539  0.8032  0.3462  1.3283
  207MPD1    N1 3208   1.475   2.555   9.162  0.1525  0.9296 -0.4741
  207MPD1    H6 3209   1.438   2.649   9.174  1.7652  1.4293  0.5082
  207MPD1    H7 3210   1.486   2.544   9.061  1.7536 -2.5662  0.0778
  208MPD1     C 3211   3.267   4.503  17.402 -0.4425  0.5280 -0.5155
  208MPD1    C1 3212   3.158   4.457  17.473  0.2082 -0.0732 -0.5971
  208MPD1    C2 3213   3.109   4.538  17.575  0.6332  0.4349  0.6883
  208MPD1    C3 3214   3.158   4.664  17.602  0.5095  1.4402  0.0168
  208MPD1    C4 3215   3.254   4.714  17.517 -0.4517  0.2497 -0.2203
  208MPD1    C5 3216   3.311   4.635  17.416  0.6059 -0.5007  0.2804
  208MPD1     H 3217   3.039   4.498  17.648  1.4731 -0.6148  0.9342
  208MPD1    H1 3218   3.301   0.072  17.535 -0.2708  0.0309  0.4677
  208MPD1    H2 3219   3.312   4.442  17.324  0.6004  0.4784  0.1240
  208MPD1    H3 3220   3.400   4.671  17.366 -0.8432  1.6467 -0.7735
  208MPD1     N 3221   3.100   4.730  17.717 -0.3042  0.0402 -0.0762
  208MPD1    H5 3222   3.038   4.678   0.030 -1.3887  0.8004 -0.5263
  208MPD1    N1 3223   3.120   4.321  17.453  0.0127 -0.6511 -0.1026
  208MPD1    H6 3224   3.023   4.303  17.476  0.0189  2.7241  2.6038
  208MPD1    H7 3225   3.133   4.306  17.353 -0.6485 -0.2653 -0.2409
  209MPD1     C 3226   0.838   1.083  10.323  0.0701  0.1122 -0.4202
  209MPD1    C1 3227   0.879   1.184  10.234 -0.4262 -0.1209  0.4295
  209MPD1    C2 3228   0.862   1.315  10.282 -0.3822 -0.3194  0.0746
  209MPD1    C3 3229   0.831   1.348  10.412 -0.7769 -0.1867  0.4880
  209MPD1    C4 3230   0.801   1.244  10.503 -0.2562  0.0192  0.1575
  209MPD1    C5 3231   0.805   1.116  10.455 -0.2002  0.0976 -0.1653
  209MPD1     H 3232   0.881   1.395  10.211 -0.8608 -0.3477 -0.0864
  209MPD1    H1 3233   0.781   1.274  10.605 -0.7348  1.3947 -0.3348
  209MPD1    H2 3234   0.831   0.977  10.301  0.0461  0.2513 -1.0836
  209MPD1    H3 3235   0.772   1.037  10.521 -0.8035  0.0636 -0.5050
  209MPD1     N 3236   0.826   1.487  10.432  0.1176  0.4278 -0.0358
  209MPD1    H5 3237   0.863   1.537  10.352 -0.6504 -0.5770 -1.0151
  209MPD1    N1 3238   0.924   1.148  10.104  0.4126  0.2284  0.5193
  209MPD1    H6 3239   0.981   1.063  10.101 -3.4971 -2.3820  0.2646
  209MPD1    H7 3240   0.972   1.229  10.065  0.1319 -0.2420 -0.8189
  210MPD1     C 3241   0.694   2.409  10.995  0.4231 -0.1638 -0.2226
  210MPD1    C1 3242   0.683   2.283  11.044  0.3774 -0.7048 -0.3598
  210MPD1    C2 3243   0.704   2.174  10.958  0.0278 -0.1301  0.2091
  210MPD1    C3 3244   0.763   2.190  10.834 -0.5322 -0.1331 -0.1977
  210MPD1    C4 3245   0.783   2.321  10.794  0.0988  0.2081  0.7708
  210MPD1    C5 3246   0.749   2.427  10.871  0.0841 -0.7316 -0.5741
  210MPD1     H 3247   0.690   2.075  10.998 -2.5714  0.7451  1.4839
  210MPD1    H1 3248   0.826   2.339  10.696  0.2459 -0.8796  0.6264
  210MPD1    H2 3249   0.670   2.502  11.046  2.6676  0.6979 -0.7101
  210MPD1    H3 3250   0.759   2.523  10.822 -1.1668 -0.5717 -0.5357
  210MPD1     N 3251   0.799   2.092  10.743 -0.4395 -0.5664  0.1894
  210MPD1    H5 3252   0.844   2.114  10.654  0.2265 -1.1434  0.3854
  210MPD1    N1 3253   0.596   2.268  11.151 -0.5871  0.2768  0.4424
  210MPD1    H6 3254   0.617   2.187  11.209  0.4417  0.8086  0.8098
  210MPD1    H7 3255   0.603   2.343  11.219 -2.2847  1.3447 -0.5513
  211MPD1     C 3256   2.488   0.653  15.853  0.7247 -0.5825 -0.4172
  211MPD1    C1 3257   2.542   0.771  15.892 -0.6674  0.0558 -0.5594
  211MPD1    C2 3258   2.462   0.869  15.945 -0.6589 -0.1862 -0.4937
  211MPD1    C3 3259   2.327   0.847  15.970  0.2474  0.2606 -0.7177
  211MPD1    C4 3260   2.275   0.723  15.935  0.1624 -0.0379 -0.3620
  211MPD1    C5 3261   2.354   0.631  15.880  0.4512  0.1618 -0.2946
  211MPD1     H 3262   2.501   0.965  15.977 -0.0325 -0.1695 -1.3212
  211MPD1    H1 3263   2.170   0.709  15.955  0.4731 -0.6645  0.8487
  211MPD1    H2 3264   2.538   0.577  15.795  2.0752  0.7714 -1.0172
  211MPD1    H3 3265   2.322   0.529  15.864  0.9451  0.2763 -2.0965
  211MPD1     N 3266   2.252   0.945  16.038 -0.8297 -0.2279  0.4720
  211MPD1    H5 3267   2.303   1.033  16.046 -1.1455  0.1209 -1.1751
  211MPD1    N1 3268   2.677   0.800  15.867  0.2507 -0.5585 -0.0392
  211MPD1    H6 3269   2.700   0.883  15.922  2.8883 -1.0161 -0.4468
  211MPD1    H7 3270   2.675   0.827  15.769  0.5188  1.7657  0.5772
  212MPD1     C 3271   1.691   3.932  16.356  0.3938  1.0280  0.6023
  212MPD1    C1 3272   1.578   3.994  16.408  0.0998  0.7016  0.7504
  212MPD1    C2 3273   1.559   3.974  16.545  0.1226 -0.3778  0.5216
  212MPD1    C3 3274   1.640   3.897  16.623 -0.2249  0.7172 -0.8289
  212MPD1    C4 3275   1.753   3.841  16.565  0.4315 -0.3740  0.0629
  212MPD1    C5 3276   1.773   3.853  16.431  0.3113  0.2166 -0.2088
  212MPD1     H 3277   1.472   4.023  16.586  0.6622 -1.2662  2.7618
  212MPD1    H1 3278   1.815   3.772  16.621  1.3099 -0.8467 -1.5027
  212MPD1    H2 3279   1.704   3.933  16.248  0.2159  0.0513  0.5710
  212MPD1    H3 3280   1.850   3.785  16.395  0.7393  0.8466 -0.5013
  212MPD1     N 3281   1.623   3.858  16.759  0.0084  0.8237  0.1339
  212MPD1    H5 3282   1.697   3.808  16.809 -1.2552 -0.5886  0.5935
  212MPD1    N1 3283   1.482   4.055  16.330 -0.0985  0.2005  0.9517
  212MPD1    H6 3284   1.432   4.136  16.367 -1.2275  0.2268 -0.5965
  212MPD1    H7 3285   1.518   4.076  16.237 -1.6504  0.9225  0.5157
  213MPD1     C 3286   0.074   4.104  15.538  0.3063 -0.4836  0.3959
  213MPD1    C1 3287   4.681   4.106  15.588 -0.5348  0.0428 -0.7682
  213MPD1    C2 3288   4.589   4.187  15.518 -0.6107 -0.7999 -0.6037
  213MPD1    C3 3289   4.628   4.257  15.398 -0.2366  0.4172 -0.6464
  213MPD1    C4 3290   0.016   4.240  15.344  0.7693 -0.5986  0.5461
  213MPD1    C5 3291   0.106   4.171  15.419 -0.2240  0.0153 -0.2207
  213MPD1     H 3292   4.488   4.188  15.557 -0.3947 -0.2905 -0.0673
  213MPD1    H1 3293   0.053   4.298  15.260 -0.3412 -0.3084  0.2572
  213MPD1    H2 3294   0.152   4.051  15.591 -0.3000 -1.6212  0.1551
  213MPD1    H3 3295   0.204   4.157  15.375  0.0782  2.6655 -0.4306
  213MPD1     N 3296   4.531   4.342  15.348  0.3192  0.4193  0.5575
  213MPD1    H5 3297   4.436   4.333  15.383 -0.8487 -0.4397 -2.7571
  213MPD1    N1 3298   4.673   4.075  15.724 -0.5399  0.1911  0.5632
  213MPD1    H6 3299   4.730   3.991  15.737  0.7565  0.9994  0.1380
  213MPD1    H7 3300   4.576   4.063  15.753  0.0133 -0.0604  2.3389
  214MPD1     C 3301   3.722   4.390  15.548 -0.3766 -0.7470 -0.6564
  214MPD1    C1 3302   3.690   4.438  15.422  0.3057  0.1070  0.7138
  214MPD1    C2 3303   3.797   4.445  15.325  0.5408 -0.7782  0.4751
  214MPD1    C3 3304   3.925   4.389  15.359 -0.2313 -0.2940 -0.2493
  214MPD1    C4 3305   3.941   4.330  15.482  0.6139  0.3954 -0.4657
  214MPD1    C5 3306   3.847   4.344  15.576  0.2446  0.2881 -0.1114
  214MPD1     H 3307   3.782   4.493  15.229 -1.4175 -0.2312  1.0539
  214MPD1    H1 3308   4.031   4.274  15.507 -0.1308 -1.3962 -1.8359
  214MPD1    H2 3309   3.655   4.402  15.632 -0.8900  2.0581 -1.4438
  214MPD1    H3 3310   3.869   4.299  15.672  0.9366 -1.2361 -0.9893
  214MPD1     N 3311   4.041   4.400  15.281 -0.6122  0.4078 -0.2421
  214MPD1    H5 3312   4.122   4.368  15.333  0.6497  2.2741 -1.0290
  214MPD1    N1 3313   3.564   4.499  15.394  0.3789  0.0300  0.2194
  214MPD1    H6 3314   3.548   4.500  15.293  0.2403  1.0991  0.2533
  214MPD1    H7 3315   3.478   4.460  15.430 -0.3648  1.1163 -0.3782
  215MPD1     C 3316   0.466   0.663  11.187  0.0873  0.1491 -0.7519
  215MPD1    C1 3317   0.383   0.631  11.291 -0.0707  0.5504 -0.1075
  215MPD1    C2 3318   0.321   0.734  11.358 -0.5457  0.0201 -0.1612
  215MPD1    C3 3319   0.348   0.866  11.329  0.0107  0.0754  0.0548
  215MPD1    C4 3320   0.430   0.891  11.223 -0.7430  0.3741 -0.5598
  215MPD1    C5 3321   0.484   0.793  11.150  0.6710  0.1396 -0.1053
  215MPD1     H 3322   0.253   0.712  11.439  3.5297 -2.9436  2.4719
  215MPD1    H1 3323   0.467   0.990  11.202 -0.1117  0.2526 -0.0055
  215MPD1    H2 3324   0.519   0.583  11.135  3.4674  1.1909  1.1006
  215MPD1    H3 3325   0.545   0.824  11.067  1.1502 -2.0383 -0.5592
  215MPD1     N 3326   0.272   0.962  11.399 -0.0993  0.4169 -0.3829
  215MPD1    H5 3327   0.210   0.928  11.471  0.3608 -0.4383 -0.3865
  215MPD1    N1 3328   0.349   0.495  11.319 -0.2510  0.3079 -0.1113
  215MPD1    H6 3329   0.298   0.475  11.405  0.8611 -0.2359  0.4072
  215MPD1    H7 3330   0.296   0.453  11.242  0.4304 -1.1690  0.2350
  216MPD1     C 3331   1.059   3.679   0.131  0.8695 -0.3481  0.5835
  216MPD1    C1 3332   1.101   3.774   0.034 -0.0650  0.2552 -0.3763
  216MPD1    C2 3333   1.196   3.727  17.685  0.2589  0.7565  0.1208
  216MPD1    C3 3334   1.243   3.598  17.695 -0.3457  0.5574  0.0868
  216MPD1    C4 3335   1.212   3.517   0.054 -0.7492 -0.4975 -0.0737
  216MPD1    C5 3336   1.120   3.562   0.145 -0.0807  0.0627 -0.3166
  216MPD1     H 3337   1.224   3.786  17.599 -0.1967  1.1882  0.2650
  216MPD1    H1 3338   1.264   3.424   0.076  0.2008  0.1611  0.4682
  216MPD1    H2 3339   0.976   3.709   0.194  0.3375 -0.4910 -0.0396
  216MPD1    H3 3340   1.082   3.500   0.226 -2.7268  1.2073 -0.6891
  216MPD1     N 3341   1.336   3.558  17.596 -0.0660  0.2536 -0.4619
  216MPD1    H5 3342   1.364   3.629  17.530  1.1885 -1.7993 -2.1291
  216MPD1    N1 3343   1.031   3.892   0.007 -0.5320  0.0841  0.0794
  216MPD1    H6 3344   0.987   3.946   0.082 -0.8089 -1.1560  0.8042
  216MPD1    H7 3345   1.073   3.958  17.690 -1.4937  1.7055  1.0930
  217MPD1     C 3346   1.199   4.425   9.156  0.2451 -0.0230 -0.2400
  217MPD1    C1 3347   1.312   4.423   9.077  0.7476 -0.4020  0.7391
  217MPD1    C2 3348   1.420   4.496   9.118 -0.2807  0.4360 -0.0915
  217MPD1    C3 3349   1.432   4.537   9.249 -0.0757 -0.9353  0.1728
  217MPD1    C4 3350   1.319   4.526   9.337 -0.4311  0.2588 -0.0842
  217MPD1    C5 3351   1.205   4.461   9.287  0.2499 -0.0447  0.5317
  217MPD1     H 3352   1.499   4.495   9.043 -0.6728 -2.2354 -0.4681
  217MPD1    H1 3353   1.313   4.550   9.442  2.7454  2.9858 -0.5298
  217MPD1    H2 3354   1.104   4.392   9.115  1.3429 -2.1030 -1.1304
  217MPD1    H3 3355   1.127   4.437   9.358 -0.5646 -0.4150 -0.4909
  217MPD1     N 3356   1.550   4.598   9.300 -0.0029  0.4907  0.0142
  217MPD1    H5 3357   1.539   4.650   9.387 -0.8040  0.2005  0.0824
  217MPD1    N1 3358   1.310   4.367   8.945 -0.4420  0.7214 -0.1905
  217MPD1    H6 3359   1.242   4.290   8.942 -1.3395  1.5601 -1.3907
  217MPD1    H7 3360   1.401   4.332   8.916 -0.9985  1.9167 -3.2576
  218MPD1     C 3361   3.776   1.374  12.129  0.1059 -0.4785 -0.0885
  218MPD1    C1 3362   3.808   1.245  12.107 -0.1800 -0.6447 -0.0018
  218MPD1    C2 3363   3.918   1.191  12.181  0.1883  0.4624  0.5774
  218MPD1    C3 3364   3.970   1.263  12.291  0.1420 -0.3684  0.1453
  218MPD1    C4 3365   3.922   1.389  12.312 -0.1569  0.2110  0.4556
  218MPD1    C5 3366   3.830   1.441  12.232 -0.3475 -0.1796 -0.8637
  218MPD1     H 3367   3.958   1.093  12.158 -1.3153  0.0558 -0.3505
  218MPD1    H1 3368   3.963   1.451  12.391 -0.8762 -0.6785  1.5315
  218MPD1    H2 3369   3.702   1.430  12.073  1.5510  1.1493 -0.3601
  218MPD1    H3 3370   3.783   1.537  12.248  2.4303  1.1153 -0.4991
  218MPD1     N 3371   4.069   1.203  12.372  0.3709  0.3546 -0.2882
  218MPD1    H5 3372   4.097   1.108  12.348  0.7938  0.6928 -1.1285
  218MPD1    N1 3373   3.752   1.183  11.998 -0.1999  0.3088  0.3378
  218MPD1    H6 3374   3.652   1.202  11.996 -0.2984 -0.3225 -0.4156
  218MPD1    H7 3375   3.770   1.083  11.992 -0.7544  0.1088  1.8702
  219MPD1     C 3376   4.622   0.530  12.361  0.6954 -0.8916  0.6588
  219MPD1    C1 3377   4.504   0.491  12.428  0.2126 -0.0990  0.2390
  219MPD1    C2 3378   4.420   0.590  12.468  0.3733  0.4555 -0.0016
  219MPD1    C3 3379   4.468   0.724  12.487 -0.0616  0.5102 -0.6652
  219MPD1    C4 3380   4.588   0.757  12.428  0.6637 -0.8442 -0.3784
  219MPD1    C5 3381   4.655   0.659  12.354 -0.2284 -0.5327  0.1862
  219MPD1     H 3382   4.327   0.557  12.513  1.5259  1.2132  2.9240
  219MPD1    H1 3383   4.640   0.850  12.444  3.1134 -2.1309 -0.9215
  219MPD1    H2 3384   4.689   0.455  12.322  1.9718 -0.2988  1.7173
  219MPD1    H3 3385   0.010   0.688  12.306 -0.3687 -1.4625 -0.6341
  219MPD1     N 3386   4.393   0.825  12.554  0.4543 -0.7255 -0.0587
  219MPD1    H5 3387   4.443   0.908  12.583  0.1273 -0.6957  0.4126
  219MPD1    N1 3388   4.460   0.363  12.412 -0.4796 -0.4308 -0.8410
  219MPD1    H6 3389   4.395   0.329  12.483 -0.5561 -0.2796 -0.8389
  219MPD1    H7 3390   4.537   0.296  12.414 -2.2975 -2.5263 -2.0123
  220MPD1     C 3391   4.247   0.532  11.367  0.3045 -0.3385 -0.5049
  220MPD1    C1 3392   4.317   0.631  11.309 -0.2368 -0.7653  0.8329
  220MPD1    C2 3393   4.257   0.705  11.216 -0.1714  0.0904  0.2995
  220MPD1    C3 3394   4.126   0.689  11.168  0.1737  0.0917 -0.6511
  220MPD1    C4 3395   4.059   0.578  11.211 -0.1019 -0.4529  0.5324
  220MPD1    C5 3396   4.122   0.503  11.305  0.6018  0.5603  0.0612
  220MPD1     H 3397   4.313   0.785  11.169  0.5063 -0.7845 -0.3884
  220MPD1    H1 3398   3.963   0.541  11.178 -1.0949  2.2116  0.4434
  220MPD1    H2 3399   4.295   0.463  11.437 -0.8065 -1.3014 -0.7008
  220MPD1    H3 3400   4.083   0.409  11.343 -1.6843  0.9964 -1.2106
  220MPD1     N 3401   4.065   0.797  11.097 -0.4450  0.0666  0.5278
  220MPD1    H5 3402   4.123   0.879  11.079 -1.0148  0.5787  1.0310
  220MPD1    N1 3403   4.450   0.650  11.351  0.3228  0.1914  0.3771
  220MPD1    H6 3404   4.500   0.567  11.383  2.0431  0.5520 -1.4240
  220MPD1    H7 3405   4.507   0.720  11.305  0.3789 -0.1247 -0.0349
  221MPD1     C 3406   1.577   0.622  16.166  0.1503  0.3575 -0.5571
  221MPD1    C1 3407   1.687   0.685  16.108 -0.2770  0.2762  0.2468
  221MPD1    C2 3408   1.812   0.639  16.134 -0.0126  0.3362  0.1791
  221MPD1    C3 3409   1.820   0.522  16.206 -0.1873  0.3796  0.6174
  221MPD1    C4 3410   1.708   0.448  16.246 -0.2457  0.2785  0.2915
  221MPD1    C5 3411   1.590   0.505  16.230 -0.5534  0.5321  1.0275
  221MPD1     H 3412   1.901   0.690  16.102 -0.6401  0.2742 -1.6433
  221MPD1    H1 3413   1.726   0.354  16.297 -1.5961  0.8590  1.8136
  221MPD1    H2 3414   1.476   0.650  16.140 -0.7353 -0.8416  1.6428
  221MPD1    H3 3415   1.499   0.455  16.259 -1.2567  1.3762  0.2774
  221MPD1     N 3416   1.952   0.464  16.235 -0.2233  0.1219  0.3933
  221MPD1    H5 3417   1.956   0.381  16.294  0.1102  0.1156  0.3613
  221MPD1    N1 3418   1.687   0.818  16.074 -0.4092  0.1625  0.1683
  221MPD1    H6 3419   1.764   0.823  16.007 -1.4900 -0.0317 -1.0770
  221MPD1    H7 3420   1.606   0.847  16.021 -0.5101  1.1398  0.8624
  222MPD1     C 3421   3.184   3.530   0.166  0.9037  0.0535 -0.3865
  222MPD1    C1 3422   3.112   3.603   0.260  0.4201 -0.1679  0.2472
  222MPD1    C2 3423   2.999   3.677   0.232  0.3017  0.5295  0.2101
  222MPD1    C3 3424   2.967   3.695   0.092 -0.4636 -0.3092 -0.4604
  222MPD1    C4 3425   3.046   3.627  17.748  0.1288  0.5000  0.2999
  222MPD1    C5 3426   3.147   3.547   0.039  0.3466 -0.6484 -0.7185
  222MPD1     H 3427   2.942   3.711   0.317 -1.5293 -1.0730 -0.3710
  222MPD1    H1 3428   3.021   3.626  17.642  2.0834 -0.1074 -0.1561
  222MPD1    H2 3429   3.267   3.471   0.204  1.7385  0.3547 -1.7464
  222MPD1    H3 3430   3.203   3.499  17.707  1.4788 -0.4916 -0.0218
  222MPD1     N 3431   2.867   3.774   0.044  0.3243  0.4130 -0.3335
  222MPD1    H5 3432   2.846   3.771  17.693 -4.9256  1.9090  0.7358
  222MPD1    N1 3433   3.128   3.574   0.392 -0.3322 -0.0303  0.6705
  222MPD1    H6 3434   3.093   3.645   0.457 -0.4130  2.8732 -2.5351
  222MPD1    H7 3435   3.216   3.532   0.422 -0.3568  1.0390  2.2492
  223MPD1     C 3436   2.909   3.789  16.997 -0.5158  0.7781 -0.0079
  223MPD1    C1 3437   2.971   3.896  17.058 -0.6181  0.2734 -0.1705
  223MPD1    C2 3438   2.914   3.936  17.178  0.1065 -0.4041 -0.0674
  223MPD1    C3 3439   2.797   3.877  17.229  0.1202 -0.6262  0.5550
  223MPD1    C4 3440   2.734   3.774  17.158  0.1855 -0.1973 -0.2657
  223MPD1    C5 3441   2.800   3.724  17.053  0.7581 -0.4731 -0.7529
  223MPD1     H 3442   2.961   4.015  17.235 -0.7336  1.0044 -1.3370
  223MPD1    H1 3443   2.654   3.715  17.202  1.3277 -1.1032  0.5787
  223MPD1    H2 3444   2.961   3.744  16.913  0.4086  1.0394  0.4235
  223MPD1    H3 3445   2.771   3.633  17.001  0.5991 -2.6546  3.1821
  223MPD1     N 3446   2.753   3.916  17.358 -0.8041  0.3598  0.0849
  223MPD1    H5 3447   2.817   3.973  17.413 -1.4577 -0.8815  2.1164
  223MPD1    N1 3448   3.088   3.964  17.016 -0.3261  0.9345 -0.9883
  223MPD1    H6 3449   3.103   4.059  17.049  2.5124  0.6664 -1.5366
  223MPD1    H7 3450   3.084   3.976  16.915  2.3452  1.3227 -1.0326
  224MPD1     C 3451   1.480   0.869   9.478  0.6500  0.0767  0.1540
  224MPD1    C1 3452   1.574   0.818   9.393 -0.5952  0.3968 -0.1512
  224MPD1    C2 3453   1.705   0.833   9.432 -0.1475 -0.0369  0.3004
  224MPD1    C3 3454   1.748   0.893   9.553 -0.0738 -0.2614 -0.2002
  224MPD1    C4 3455   1.652   0.941   9.630 -0.0280  0.7694 -0.0244
  224MPD1    C5 3456   1.521   0.925   9.597 -0.9143  0.9241  0.4824
  224MPD1     H 3457   1.773   0.781   9.365 -0.6190  0.9600 -0.9576
  224MPD1    H1 3458   1.679   0.990   9.723  1.3054  1.1175 -0.5872
  224MPD1    H2 3459   1.373   0.860   9.463  0.5815  0.4851  0.3867
  224MPD1    H3 3460   1.450   0.967   9.668 -0.5379 -1.7961  2.4470
  224MPD1     N 3461   1.881   0.906   9.595 -0.8742  0.1102  0.5869
  224MPD1    H5 3462   1.898   0.966   9.675  0.4157 -0.4777  0.7487
  224MPD1    N1 3463   1.542   0.748   9.275 -0.1805  0.1056  0.3092
  224MPD1    H6 3464   1.449   0.755   9.235 -0.1953 -4.3043 -0.5203
  224MPD1    H7 3465   1.606   0.775   9.200 -1.0217  1.4321  0.0768
  225MPD1     C 3466   3.861   1.788  11.622 -0.3623  0.5321  0.2460
  225MPD1    C1 3467   3.858   1.877  11.730  0.0421  0.6613 -0.2210
  225MPD1    C2 3468   3.761   1.852  11.827 -0.3389  0.2536 -0.3917
  225MPD1    C3 3469   3.660   1.758  11.817 -0.0474 -0.1968 -0.3508
  225MPD1    C4 3470   3.654   1.691  11.698  0.0580 -0.0258  0.4646
  225MPD1    C5 3471   3.754   1.706  11.606  0.1223 -0.5159 -0.3110
  225MPD1     H 3472   3.775   1.905  11.920 -0.8190 -1.2750  0.5545
  225MPD1    H1 3473   3.565   1.630  11.683 -1.3583  1.5514  2.3938
  225MPD1    H2 3474   3.935   1.804  11.545  0.4966 -0.5629  0.8460
  225MPD1    H3 3475   3.741   1.657  11.510  1.5632  3.2408 -2.4398
  225MPD1     N 3476   3.554   1.732  11.915  0.4005 -0.4866  0.7451
  225MPD1    H5 3477   3.484   1.663  11.893  1.7474 -0.3511 -3.8603
  225MPD1    N1 3478   3.974   1.954  11.748  0.2258 -0.1480  0.5369
  225MPD1    H6 3479   3.939   2.039  11.792  2.0080  0.4409  0.8494
  225MPD1    H7 3480   4.008   1.980  11.656 -2.5664  0.4697 -0.2930
  226MPD1     C 3481   1.629   1.906   9.674 -0.1281 -0.0547 -0.3753
  226MPD1    C1 3482   1.645   1.774   9.714  0.0255  0.3628 -0.0221
  226MPD1    C2 3483   1.761   1.707   9.686  0.3960 -0.0482  0.2135
  226MPD1    C3 3484   1.872   1.783   9.649 -0.4930 -0.2264  0.0537
  226MPD1    C4 3485   1.859   1.917   9.615 -0.5705 -0.9018  0.8325
  226MPD1    C5 3486   1.738   1.973   9.629  0.0775 -0.6705 -0.4638
  226MPD1     H 3487   1.782   1.603   9.706 -0.6971 -0.8925 -3.1259
  226MPD1    H1 3488   1.937   1.989   9.591 -0.6066 -1.4422 -0.8901
  226MPD1    H2 3489   1.530   1.952   9.677 -0.4460 -0.9344  2.5689
  226MPD1    H3 3490   1.732   2.078   9.603 -1.5433 -1.2269 -2.3822
  226MPD1     N 3491   2.000   1.716   9.648  0.3731  0.4715  0.5066
  226MPD1    H5 3492   2.003   1.616   9.669 -0.1616  0.6992  1.6429
  226MPD1    N1 3493   1.534   1.693   9.751  0.1971  0.0390  0.1425
  226MPD1    H6 3494   1.573   1.607   9.790  0.1768 -0.1528 -0.2573
  226MPD1    H7 3495   1.477   1.744   9.819  1.2312 -0.3144  1.2908
  227MPD1     C 3496   3.105   1.590   9.513  0.5465  0.4033  0.2288
  227MPD1    C1 3497   3.038   1.513   9.424 -0.3046 -0.7531  0.2995
  227MPD1    C2 3498   2.897   1.518   9.423 -0.2405  0.7211  0.7235
  227MPD1    C3 3499   2.829   1.611   9.507 -0.0947  0.0101 -0.2399
  227MPD1    C4 3500   2.904   1.695   9.584  0.2764  0.3749  0.1365
  227MPD1    C5 3501   3.042   1.677   9.594  1.1113 -0.3851  0.5488
  227MPD1     H 3502   2.842   1.451   9.359  2.3970 -0.1085 -0.6761
  227MPD1    H1 3503   2.851   1.770   9.642 -0.6052 -1.1850  1.3149
  227MPD1    H2 3504   3.213   1.592   9.518  0.6210  0.8153 -1.4921
  227MPD1    H3 3505   3.102   1.740   9.659 -0.1687  1.8185 -0.3839
  227MPD1     N 3506   2.692   1.618   9.504  0.1925  0.0495  0.8289
  227MPD1    H5 3507   2.656   1.547   9.441 -0.3315 -0.7667  2.0506
  227MPD1    N1 3508   3.104   1.414   9.354  0.1069  0.3160  0.3419
  227MPD1    H6 3509   3.058   1.371   9.275  0.6270  1.3750 -0.5298
  227MPD1    H7 3510   3.205   1.424   9.347  0.1829 -0.2639  0.5817
  228MPD1     C 3511   1.090   4.208  12.972  0.2395  0.0334  0.0881
  228MPD1    C1 3512   1.015   4.155  13.070  0.5327  0.3994 -0.2654
  228MPD1    C2 3513   0.892   4.206  13.102 -0.0227 -0.7370  0.4720
  228MPD1    C3 3514   0.835   4.307  13.024  0.4729  0.4289 -0.4638
  228MPD1    C4 3515   0.913   4.369  12.926 -1.2524  0.6474 -0.2370
  228MPD1    C5 3516   1.037   4.311  12.900 -0.8448 -0.6725 -0.6490
  228MPD1     H 3517   0.836   4.155  13.180  0.1667 -0.7325  0.6113
  228MPD1    H1 3518   0.880   4.450  12.861 -0.5577  0.8052 -0.3935
  228MPD1    H2 3519   1.192   4.183  12.945 -0.9049 -3.2811 -1.1172
  228MPD1    H3 3520   1.094   4.340  12.813 -2.5912  1.6221 -1.0268
  228MPD1     N 3521   0.698   4.344  13.041 -0.8721  0.2468  0.3489
  228MPD1    H5 3522   0.644   4.269  13.082 -0.0637 -0.5151  0.0289
  228MPD1    N1 3523   1.072   4.068  13.167 -0.4232 -0.7550  0.4626
  228MPD1    H6 3524   1.136   3.999  13.127 -1.0897 -0.5817 -0.9135
  228MPD1    H7 3525   0.988   4.024  13.203 -2.0250  1.0804 -1.0105
  229MPD1     C 3526   0.081   2.555  15.283 -1.3937 -0.5705  0.2644
  229MPD1    C1 3527   0.137   2.646  15.363  0.8375  0.5248  0.3383
  229MPD1    C2 3528   0.270   2.629  15.401  0.0281 -0.1019  0.6917
  229MPD1    C3 3529   0.331   2.507  15.365  0.0218  0.6173 -0.3241
  229MPD1    C4 3530   0.263   2.409  15.295  0.4591  0.8501  0.1531
  229MPD1    C5 3531   0.138   2.435  15.250 -0.2205 -0.3837 -0.4515
  229MPD1     H 3532   0.320   2.698  15.467  2.0037 -0.1638 -0.7467
  229MPD1    H1 3533   0.317   2.318  15.268 -0.1149  0.3243  0.7652
  229MPD1    H2 3534   4.720   2.562  15.239 -0.9631  0.4120 -0.5221
  229MPD1    H3 3535   0.085   2.371  15.180 -1.8208 -0.2098  0.5874
  229MPD1     N 3536   0.468   2.478  15.400  0.9788 -0.7062  0.4793
  229MPD1    H5 3537   0.503   2.394  15.354  2.4481  1.2992 -2.0636
  229MPD1    N1 3538   0.075   2.769  15.392 -0.1499  0.0293  0.1544
  229MPD1    H6 3539   4.711   2.764  15.390 -0.1326 -0.1230 -0.2928
  229MPD1    H7 3540   0.109   2.812  15.478  0.5047 -2.0975  0.9849
  230MPD1     C 3541   1.116   2.156  16.196  0.6384 -0.5819  0.7327
  230MPD1    C1 3542   1.189   2.153  16.078 -0.2841 -0.6437 -0.3547
  230MPD1    C2 3543   1.134   2.219  15.968 -0.5570 -0.2591 -0.0232
  230MPD1    C3 3544   1.015   2.278  15.964 -0.4347 -0.1545  0.6113
  230MPD1    C4 3545   0.942   2.286  16.081 -0.8606  0.2432  0.1778
  230MPD1    C5 3546   0.993   2.224  16.194 -0.7265  0.5522 -0.4970
  230MPD1     H 3547   1.190   2.210  15.876 -0.7190  0.7026 -0.2161
  230MPD1    H1 3548   0.843   2.329  16.089  0.1922  2.5769  0.5240
  230MPD1    H2 3549   1.156   2.105  16.282  0.4711 -0.3277  0.9632
  230MPD1    H3 3550   0.929   2.236  16.280  1.3581  1.2837  0.9662
  230MPD1     N 3551   0.974   2.325  15.834 -0.4391 -0.1567 -0.0177
  230MPD1    H5 3552   1.037   2.314  15.756 -1.8827 -1.2245 -1.0490
  230MPD1    N1 3553   1.300   2.067  16.062 -0.2353 -0.0739 -0.0104
  230MPD1    H6 3554   1.372   2.097  15.997 -0.8471 -0.5181 -0.8883
  230MPD1    H7 3555   1.352   2.052  16.148  1.2197  0.9857 -0.7063
  231MPD1     C 3556   4.444   4.585  15.535 -0.2940 -0.8272  0.4405
  231MPD1    C1 3557   4.310   4.578  15.518 -0.3514  0.3371  0.1040
  231MPD1    C2 3558   4.245   4.676  15.456  0.1258  0.7302  0.0696
  231MPD1    C3 3559   4.321   0.046  15.401  0.6184 -0.8674 -0.0868
  231MPD1    C4 3560   4.451   0.056  15.430  0.2180  0.2390 -0.2009
  231MPD1    C5 3561   4.515   4.696  15.502  0.5213  0.2843 -0.0111
  231MPD1     H 3562   4.138   4.682  15.446  0.0092 -3.8238 -1.2033
  231MPD1    H1 3563   4.524   0.129  15.397  1.4294  0.1712  2.3610
  231MPD1    H2 3564   4.501   4.505  15.580  0.1363 -0.7731  0.0038
  231MPD1    H3 3565   4.621   4.695  15.525  0.6957 -1.2498 -0.8356
  231MPD1     N 3566   4.253   0.137  15.313 -0.1932 -0.2965 -0.2514
  231MPD1    H5 3567   4.160   0.105  15.287 -0.5354  1.1073 -0.7515
  231MPD1    N1 3568   4.240   4.456  15.539  0.1403 -0.4153  0.3877
  231MPD1    H6 3569   4.140   4.471  15.545  0.1778 -0.3681  0.8660
  231MPD1    H7 3570   4.260   4.409  15.627 -0.8297 -0.9007  0.3389
  232MPD1     C 3571   1.015   2.000   0.170 -0.5549 -0.9560 -0.3201
  232MPD1    C1 3572   0.935   2.076   0.087 -0.3827  0.1539 -0.6076
  232MPD1    C2 3573   0.800   2.083   0.108 -0.2747 -0.0225 -0.5228
  232MPD1    C3 3574   0.748   2.010   0.211  0.5525  0.8583  0.0204
  232MPD1    C4 3575   0.830   1.938   0.297  0.2604  0.4878  0.4077
  232MPD1    C5 3576   0.967   1.931   0.276  0.3184 -0.2132  0.3581
  232MPD1     H 3577   0.735   2.148   0.052 -2.0518  0.7253  2.4379
  232MPD1    H1 3578   0.792   1.874   0.376  2.4827  0.7654  1.7161
  232MPD1    H2 3579   1.121   1.984   0.155 -0.6250  1.7266 -3.6886
  232MPD1    H3 3580   1.031   1.869   0.339 -0.4987 -1.3402  0.0732
  232MPD1     N 3581   0.610   1.992   0.236  0.2839 -0.5572  0.1756
  232MPD1    H5 3582   0.578   1.918   0.297  0.7187  0.0761  1.1654
  232MPD1    N1 3583   0.995   2.172   0.008  0.7349 -0.1592 -0.0066
  232MPD1    H6 3584   0.930   2.192  17.679  1.4024  0.6192 -0.3698
  232MPD1    H7 3585   1.092   2.155  17.732  1.0606  0.4280  0.8939
  233MPD1     C 3586   1.290   0.232   0.572  0.6655 -0.5067 -0.3252
  233MPD1    C1 3587   1.317   0.105   0.611  0.0161  0.3739  0.3182
  233MPD1    C2 3588   1.330   0.079   0.746 -0.3821 -0.2895  0.2700
  233MPD1    C3 3589   1.339   0.185   0.836 -0.1258  0.2189 -0.9637
  233MPD1    C4 3590   1.322   0.308   0.794 -0.3380 -0.6216  0.4604
  233MPD1    C5 3591   1.293   0.327   0.669 -0.0134  0.5291  0.7905
  233MPD1     H 3592   1.339   4.713   0.778  0.5195 -0.5136 -0.7097
  233MPD1    H1 3593   1.323   0.388   0.867  2.4769  0.2522 -0.5547
  233MPD1    H2 3594   1.249   0.252   0.473 -2.8116  0.4263  1.3088
  233MPD1    H3 3595   1.265   0.424   0.630  0.3847  1.2375  2.2702
  233MPD1     N 3596   1.374   0.169   0.970  0.6434  0.9319 -0.0831
  233MPD1    H5 3597   1.386   0.255   1.023  1.3262  1.0473 -0.4290
  233MPD1    N1 3598   1.293   4.735   0.516 -0.2283 -0.3112  0.3624
  233MPD1    H6 3599   1.341   4.646   0.529  0.8435  0.0553 -0.9999
  233MPD1    H7 3600   1.316   0.017   0.418  3.3023  2.0481  1.6459
  234MPD1     C 3601   3.685   4.698   9.400 -0.5042 -0.1183 -0.1172
  234MPD1    C1 3602   3.634   4.734   9.522  0.2421 -0.3062 -0.2744
  234MPD1    C2 3603   3.503   0.041   9.533  0.1128  0.6412  0.3741
  234MPD1    C3 3604   3.418   0.032   9.426  0.4242 -0.5491 -0.0031
  234MPD1    C4 3605   3.462   4.716   9.313 -0.8499 -0.0619 -0.1916
  234MPD1    C5 3606   3.596   4.686   9.295 -0.2684 -0.1417 -0.0295
  234MPD1     H 3607   3.461   0.078   9.625  1.1777  0.7338  0.8276
  234MPD1    H1 3608   3.390   4.705   9.232 -0.5405 -0.2498 -0.4393
  234MPD1    H2 3609   3.788   4.678   9.374  0.7699  3.0770  2.4057
  234MPD1    H3 3610   3.636   4.657   9.198  0.2646  0.6852 -0.0601
  234MPD1     N 3611   3.283   0.063   9.446  0.0143  0.6620  0.1035
  234MPD1    H5 3612   3.260   0.095   9.539  0.5811  0.8302  0.1874
  234MPD1    N1 3613   3.727   0.019   9.628  0.9918 -0.1536  0.2711
  234MPD1    H6 3614   3.686   0.015   9.721 -0.0705  1.6943 -0.1171
  234MPD1    H7 3615   3.814   4.704   9.622  1.5334  0.8501 -0.6740
  235MPD1     C 3616   0.873   2.265   9.334  0.0681  0.5053 -0.6739
  235MPD1    C1 3617   0.866   2.404   9.315  0.1885 -0.7721  0.6196
  235MPD1    C2 3618   0.771   2.472   9.382 -0.7735 -0.2555 -0.0966
  235MPD1    C3 3619   0.691   2.407   9.471 -0.1667  0.4625  0.3480
  235MPD1    C4 3620   0.700   2.266   9.492  0.0240  0.2549 -0.0131
  235MPD1    C5 3621   0.794   2.197   9.424 -0.1524  0.4502 -0.1407
  235MPD1     H 3622   0.753   2.577   9.363 -1.5287 -0.3708  0.0154
  235MPD1    H1 3623   0.630   2.212   9.554 -0.7847 -2.1486 -3.0040
  235MPD1    H2 3624   0.942   2.205   9.276  1.2814 -0.0583  1.3463
  235MPD1    H3 3625   0.775   2.090   9.422 -0.2820  0.4550  0.6966
  235MPD1     N 3626   0.584   2.488   9.531 -0.5328 -0.1411 -0.5070
  235MPD1    H5 3627   0.594   2.587   9.512 -1.7384 -0.0271 -0.5366
  235MPD1    N1 3628   0.939   2.467   9.214  0.0894  0.2749 -0.5285
  235MPD1    H6 3629   0.948   2.565   9.238  0.2464 -0.2404  1.5517
  235MPD1    H7 3630   1.034   2.430   9.209  0.4776  1.1775  0.3582
  236MPD1     C 3631   3.601   4.666  10.366 -0.1436 -0.1697  0.0868
  236MPD1    C1 3632   3.528   4.590  10.271  0.1176 -0.3024  1.1227
  236MPD1    C2 3633   3.516   4.452  10.293  0.3638 -0.3372 -0.4638
  236MPD1    C3 3634   3.549   4.392  10.412  0.3116  0.0455  0.1019
  236MPD1    C4 3635   3.612   4.468  10.503  0.3623  0.2995  0.0074
  236MPD1    C5 3636   3.644   4.602  10.479 -0.7540 -1.0017  0.1533
  236MPD1     H 3637   3.465   4.399  10.213  1.0380 -1.9604  0.1734
  236MPD1    H1 3638   3.651   4.430  10.596  0.3250 -0.1878 -0.1756
  236MPD1    H2 3639   3.629   0.027  10.330 -0.3589 -0.1535 -0.0380
  236MPD1    H3 3640   3.707   4.663  10.543  1.4620 -1.9217 -1.1544
  236MPD1     N 3641   3.530   4.254  10.419  0.2618 -0.0569  1.0848
  236MPD1    H5 3642   3.571   4.217  10.504 -0.1875  0.5543  1.5693
  236MPD1    N1 3643   3.491   4.649  10.149  0.0967  0.3197 -0.1244
  236MPD1    H6 3644   3.495   0.013  10.158  1.7718  0.1270  1.1869
  236MPD1    H7 3645   3.399   4.612  10.125  0.7517 -1.6403  0.3943
  237MPD1     C 3646   3.893   0.054  14.211  0.2923  0.3155 -0.1170
  237MPD1    C1 3647   3.777   0.094  14.141 -0.0286  0.3704 -0.0481
  237MPD1    C2 3648   3.723   0.215  14.181  0.0309  0.4612 -0.5426
  237MPD1    C3 3649   3.767   0.274  14.298 -0.3782 -0.8943 -0.1711
  237MPD1    C4 3650   3.874   0.225  14.367  0.0656 -0.0274 -0.4088
  237MPD1    C5 3651   3.948   0.125  14.312 -0.1509 -0.1428 -0.6592
  237MPD1     H 3652   3.642   0.262  14.127  0.7764  1.0970 -1.1011
  237MPD1    H1 3653   3.908   0.274  14.458 -1.5626 -1.3517  0.9097
  237MPD1    H2 3654   3.954   4.707  14.181 -0.9229 -0.9178  0.8343
  237MPD1    H3 3655   4.030   0.078  14.366 -1.5813 -2.3786 -0.4559
  237MPD1     N 3656   3.704   0.390  14.355  0.1970 -0.6880 -0.0428
  237MPD1    H5 3657   3.754   0.416  14.439  0.2444  0.9698 -0.5883
  237MPD1    N1 3658   3.724   0.020  14.030 -0.1312 -0.6629 -0.5072
  237MPD1    H6 3659   3.789   4.695  13.982  1.1428  0.6981 -0.5539
  237MPD1    H7 3660   3.674   0.074  13.960  1.4686  1.7092  0.1589
  238MPD1     C 3661   0.985   4.441  15.142 -0.0776  0.5036 -0.5972
  238MPD1    C1 3662   0.894   4.346  15.168  0.0690 -0.0609 -0.4567
  238MPD1    C2 3663   0.772   4.339  15.100  0.6106 -0.4621  0.3591
  238MPD1    C3 3664   0.735   4.439  15.022  0.8537  0.4232 -0.2518
  238MPD1    C4 3665   0.832   4.540  14.995 -0.3428 -0.0793 -0.0956
  238MPD1    C5 3666   0.959   4.541  15.056  0.4405 -0.6897  0.1802
  238MPD1     H 3667   0.702   4.260  15.125 -0.3436  0.2166 -0.1583
  238MPD1    H1 3668   0.797   4.619  14.929 -0.7590 -1.8763 -2.0159
  238MPD1    H2 3669   1.091   4.431  15.164  0.0968 -1.3653 -2.2401
  238MPD1    H3 3670   1.041   4.602  15.021 -1.2781  1.5452  0.1126
  238MPD1     N 3671   0.605   4.449  14.959 -0.0766 -0.2631 -0.3423
  238MPD1    H5 3672   0.582   4.521  14.893  2.5858 -0.5126 -1.5376
  238MPD1    N1 3673   0.940   4.241  15.248 -0.6005 -0.8860 -0.3073
  238MPD1    H6 3674   1.022   4.263  15.304 -0.5284  2.5558 -1.8085
  238MPD1    H7 3675   0.867   4.186  15.293 -1.4549 -0.2101 -0.8838
  239MPD1     C 3676   0.990   1.297  15.035 -0.8180 -0.4780  0.1980
  239MPD1    C1 3677   1.029   1.386  14.944 -0.5308  0.3437  0.0073
  239MPD1    C2 3678   0.981   1.387  14.814 -0.1698 -0.5312  0.3734
  239MPD1    C3 3679   0.886   1.292  14.776 -0.1651  0.0549 -0.3752
  239MPD1    C4 3680   0.841   1.204  14.869  0.3944 -0.3380  0.3098
  239MPD1    C5 3681   0.892   1.203  14.997  0.3108  0.0972  0.1161
  239MPD1     H 3682   1.014   1.466  14.749 -1.8399  0.7597  1.0753
  239MPD1    H1 3683   0.770   1.125  14.846 -0.6226  0.8023 -0.4443
  239MPD1    H2 3684   1.028   1.289  15.136 -0.9375  1.9508  0.4293
  239MPD1    H3 3685   0.863   1.131  15.073  0.3410  0.4939  0.5071
  239MPD1     N 3686   0.836   1.283  14.646  0.1900 -0.3026  1.0587
  239MPD1    H5 3687   0.757   1.223  14.623  1.0260 -1.3407  0.8522
  239MPD1    N1 3688   1.125   1.482  14.980  0.0123 -0.1518 -0.0287
  239MPD1    H6 3689   1.118   1.566  14.923 -1.1549  0.5427  1.1524
  239MPD1    H7 3690   1.134   1.499  15.080  0.2430  0.6187 -0.1777
  240MPD1     C 3691   0.344   0.731  14.071 -0.3723 -0.0156 -0.0030
  240MPD1    C1 3692   0.213   0.720  14.039 -0.0546  0.6548  0.3087
  240MPD1    C2 3693   0.147   0.619  14.106 -0.3846  0.1288 -0.2025
  240MPD1    C3 3694   0.201   0.550  14.212  0.7491 -0.3734 -0.2146
  240MPD1    C4 3695   0.335   0.568  14.251  0.3917 -0.1685  0.0785
  240MPD1    C5 3696   0.400   0.667  14.178  0.2045 -0.4328 -0.5228
  240MPD1     H 3697   0.043   0.609  14.076 -1.7704  2.4229  3.8373
  240MPD1    H1 3698   0.375   0.507  14.330  0.5747 -0.0345  0.0891
  240MPD1    H2 3699   0.402   0.800  14.011  0.0636 -0.4836 -0.1212
  240MPD1    H3 3700   0.506   0.678  14.197 -0.3496  3.7885  0.1740
  240MPD1     N 3701   0.116   0.450  14.278  0.1987 -0.0176  0.2336
  240MPD1    H5 3702   0.034   0.428  14.222 -0.1201  1.9923 -0.1107
  240MPD1    N1 3703   0.170   0.780  13.920 -0.1870  0.1366  0.1188
  240MPD1    H6 3704   0.075   0.756  13.893  1.0795 -1.2412 -3.1103
  240MPD1    H7 3705   0.180   0.882  13.913 -0.3360  0.3252  2.8183
  241MPD1     C 3706   0.370   4.698  15.093  0.0571  0.7927  0.0204
  241MPD1    C1 3707   0.246   4.659  15.067  0.7574  0.6788  0.5028
  241MPD1    C2 3708   0.183   4.693  14.948 -0.4690 -0.0102 -0.2945
  241MPD1    C3 3709   0.249   0.025  14.853  0.4682  0.1587  0.4397
  241MPD1    C4 3710   0.378   0.066  14.876 -0.6366 -0.7654  0.0970
  241MPD1    C5 3711   0.434   0.031  14.994 -0.5269  1.0396  0.1654
  241MPD1     H 3712   0.079   4.664  14.939 -1.1083  1.8068  1.3218
  241MPD1    H1 3713   0.441   0.125  14.810 -0.3735 -0.3620  0.7136
  241MPD1    H2 3714   0.424   4.666  15.181 -0.2527  2.6724  0.8962
  241MPD1    H3 3715   0.540   0.051  15.006 -0.0932 -1.6795  0.8712
  241MPD1     N 3716   0.191   0.074  14.732  0.4372  0.2527  0.0217
  241MPD1    H5 3717   0.242   0.139  14.673  0.2696 -0.0432 -0.4464
  241MPD1    N1 3718   0.197   4.564  15.153 -0.8559  0.0984  0.0795
  241MPD1    H6 3719   0.227   4.579  15.249  0.2563  0.3043 -0.3033
  241MPD1    H7 3720   0.097   4.544  15.152 -0.7179 -0.7298  3.8269
  242MPD1     C 3721   4.375   3.349  16.286 -0.1710  0.5063  0.1457
  242MPD1    C1 3722   4.395   3.453  16.191  0.0071 -0.3870  0.1949
  242MPD1    C2 3723   4.475   3.419  16.080 -0.0301 -0.0721 -0.6647
  242MPD1    C3 3724   4.509   3.285  16.051  0.5166  0.1244  0.1739
  242MPD1    C4 3725   4.472   3.186  16.142 -0.1962 -0.2192  0.3369
  242MPD1    C5 3726   4.407   3.219  16.266 -0.7753  0.3401  0.3005
  242MPD1     H 3727   4.497   3.498  16.008 -0.6032  0.3065 -0.4240
  242MPD1    H1 3728   4.482   3.081  16.117 -1.1038 -0.0990 -0.5203
  242MPD1    H2 3729   4.330   3.368  16.383 -0.0430  1.8276 -0.0643
  242MPD1    H3 3730   4.368   3.139  16.328 -1.4716  0.8430  0.5008
  242MPD1     N 3731   4.570   3.256  15.928  0.0181 -0.3463 -0.4592
  242MPD1    H5 3732   4.600   3.160  15.914 -2.0906 -1.1369  0.4696
  242MPD1    N1 3733   4.367   3.590  16.223 -0.5148 -0.3750 -0.1083
  242MPD1    H6 3734   4.362   3.648  16.139 -0.9856 -1.9579 -1.1701
  242MPD1    H7 3735   4.283   3.603  16.278  0.5523 -0.1702  1.4626
  243MPD1     C 3736   1.650   2.732   0.021 -0.2639  0.3831  0.4149
  243MPD1    C1 3737   1.682   2.699  17.643 -0.3518 -0.6912 -0.1634
  243MPD1    C2 3738   1.677   2.568  17.595 -0.4313 -0.1277  0.0070
  243MPD1    C3 3739   1.627   2.470  17.670 -0.0597  0.4120  0.0475
  243MPD1    C4 3740   1.588   2.500   0.051 -0.4373  0.5413 -0.2864
  243MPD1    C5 3741   1.607   2.632   0.101  0.4505 -0.8748 -0.5114
  243MPD1     H 3742   1.713   2.533  17.500 -0.7879 -0.5457  0.0264
  243MPD1    H1 3743   1.542   2.425   0.115  1.8207  0.1377  0.8530
  243MPD1    H2 3744   1.660   2.829   0.069  1.2501  0.8832 -0.9048
  243MPD1    H3 3745   1.566   2.665   0.197 -0.1138 -1.7057 -0.4689
  243MPD1     N 3746   1.616   2.335  17.611 -0.5701 -0.3183  0.0657
  243MPD1    H5 3747   1.664   2.323  17.522 -1.8389  2.2075 -0.9602
  243MPD1    N1 3748   1.746   2.801  17.567 -0.4913 -0.8070  0.6371
  243MPD1    H6 3749   1.704   2.888  17.600  2.0123  1.2720 -1.7288
  243MPD1    H7 3750   1.707   2.787  17.474 -0.2574 -1.4486  0.6342
  244MPD1     C 3751   1.362   1.426   0.237  0.0919 -0.5133  0.3095
  244MPD1    C1 3752   1.310   1.550   0.258  0.1609 -0.3549 -0.8208
  244MPD1    C2 3753   1.356   1.654   0.183  0.2858 -0.6061  0.2079
  244MPD1    C3 3754   1.462   1.634   0.095 -0.1988 -0.9063  0.6137
  244MPD1    C4 3755   1.519   1.510   0.084  0.4095 -0.8885 -0.6348
  244MPD1    C5 3756   1.462   1.406   0.152  0.2426  0.2295 -0.6959
  244MPD1     H 3757   1.308   1.751   0.179 -1.1679 -1.3138  0.5748
  244MPD1    H1 3758   1.602   1.484   0.020  0.7583 -1.1014 -0.0972
  244MPD1    H2 3759   1.321   1.335   0.280 -0.9594  0.0874  0.5861
  244MPD1    H3 3760   1.502   1.307   0.132 -0.2482 -0.1359  0.0956
  244MPD1     N 3761   1.505   1.745   0.026 -0.5846 -0.3218 -0.0557
  244MPD1    H5 3762   1.464   1.834   0.051  1.9761  1.0259 -0.6981
  244MPD1    N1 3763   1.191   1.556   0.337 -0.1934 -0.4634 -0.5591
  244MPD1    H6 3764   1.198   1.484   0.409 -2.9990 -0.0691  0.0823
  244MPD1    H7 3765   1.195   1.645   0.386 -1.0204 -0.7926  0.1118
  245MPD1     C 3766   2.502   2.601  13.474  0.0489 -0.0845 -0.3219
  245MPD1    C1 3767   2.599   2.507  13.500 -0.4399 -0.1193  0.0638
  245MPD1    C2 3768   2.722   2.532  13.448  0.2347 -0.3311  0.0267
  245MPD1    C3 3769   2.744   2.639  13.364 -0.3863  0.2114  0.2740
  245MPD1    C4 3770   2.647   2.732  13.341  0.1212 -0.1956  0.7352
  245MPD1    C5 3771   2.524   2.712  13.396 -0.4367 -0.0398  0.9712
  245MPD1     H 3772   2.796   2.454  13.462  0.4123  0.0628  1.2898
  245MPD1    H1 3773   2.656   2.819  13.276  0.8580 -0.9525 -0.1763
  245MPD1    H2 3774   2.398   2.592  13.504 -0.1187  0.2255 -0.8095
  245MPD1    H3 3775   2.446   2.786  13.383 -0.9514 -0.7087  0.2618
  245MPD1     N 3776   2.876   2.668  13.321  0.1723  0.1728 -0.2035
  245MPD1    H5 3777   2.948   2.600  13.342 -1.5695 -1.1687  1.3956
  245MPD1    N1 3778   2.587   2.409  13.596  0.2010 -0.6247  0.7054
  245MPD1    H6 3779   2.664   2.345  13.580  1.0479  0.3483  0.9185
  245MPD1    H7 3780   2.496   2.367  13.615  0.0049 -0.4343  0.1789
  246MPD1     C 3781   4.441   1.834  10.182 -0.2102 -0.1475  0.4189
  246MPD1    C1 3782   4.336   1.779  10.252  0.2988 -0.1181 -0.1658
  246MPD1    C2 3783   4.219   1.851  10.268 -0.4340  0.0507  0.3694
  246MPD1    C3 3784   4.213   1.989  10.242  0.2264  1.1071  0.2537
  246MPD1    C4 3785   4.330   2.047  10.195  0.6448  0.1232  0.1472
  246MPD1    C5 3786   4.440   1.970  10.165  0.3977 -0.4708  0.2439
  246MPD1     H 3787   4.134   1.797  10.307 -1.0496  0.0440 -0.9963
  246MPD1    H1 3788   4.345   2.154  10.204  3.1059 -0.2138  0.1840
  246MPD1    H2 3789   4.528   1.778  10.149 -2.1451 -2.5460 -0.6048
  246MPD1    H3 3790   4.521   2.018  10.111 -0.3786 -0.4573 -0.9039
  246MPD1     N 3791   4.091   2.062  10.263 -0.2538 -0.6682 -0.1954
  246MPD1    H5 3792   4.010   2.011  10.297 -0.7540 -0.3003 -0.8467
  246MPD1    N1 3793   4.337   1.647  10.281 -0.8668  0.1125  0.4467
  246MPD1    H6 3794   4.435   1.622  10.286 -0.3783  2.3045  1.9175
  246MPD1    H7 3795   4.279   1.625  10.363 -3.0949  0.1148 -1.1226
  247MPD1     C 3796   3.281   3.259  16.846 -0.1927 -0.0208  0.0591
  247MPD1    C1 3797   3.393   3.226  16.781 -0.3466 -0.4450 -0.4873
  247MPD1    C2 3798   3.394   3.099  16.720 -0.0791  0.1415  0.3079
  247MPD1    C3 3799   3.290   3.007  16.751  0.5227  0.0415 -0.0524
  247MPD1    C4 3800   3.182   3.044  16.829  0.2432 -0.1174 -0.1946
  247MPD1    C5 3801   3.189   3.169  16.884  0.1533  0.6261 -0.8706
  247MPD1     H 3802   3.480   3.079  16.656 -0.6950  0.8215 -0.7243
  247MPD1    H1 3803   3.114   2.968  16.866  0.3546 -0.5359 -0.8333
  247MPD1    H2 3804   3.283   3.359  16.889 -1.0045  0.2234 -0.4580
  247MPD1    H3 3805   3.111   3.200  16.952  1.8668  0.2409  1.2770
  247MPD1     N 3806   3.284   2.881  16.693 -0.1767  0.1975  0.0438
  247MPD1    H5 3807   3.200   2.827  16.709  0.9691 -1.2581  1.1143
  247MPD1    N1 3808   3.487   3.318  16.760  0.2510 -0.0038  0.0605
  247MPD1    H6 3809   3.505   3.373  16.843 -1.1723 -0.8300  0.9216
  247MPD1    H7 3810   3.567   3.258  16.741  1.1351  0.7917  1.3030
  248MPD1     C 3811   3.781   1.835  17.574  0.6382  0.4641 -0.5062
  248MPD1    C1 3812   3.824   1.950  17.634  0.5178 -0.3382  0.6989
  248MPD1    C2 3813   3.763   1.989   0.003  0.5001  0.4326  0.3150
  248MPD1    C3 3814   3.674   1.905   0.063  0.0268 -0.4335  0.8359
  248MPD1    C4 3815   3.639   1.787  17.746 -0.0705 -0.4543 -0.2453
  248MPD1    C5 3816   3.697   1.745  17.636  0.6426  0.0896 -0.2905
  248MPD1     H 3817   3.794   2.081   0.052  2.4086  1.3154 -2.5294
  248MPD1    H1 3818   3.561   1.718   0.029 -0.7557 -0.7658 -2.7093
  248MPD1    H2 3819   3.834   1.808  17.483 -1.0786 -1.0287 -1.0487
  248MPD1    H3 3820   3.660   1.651  17.597 -0.9769 -0.6105  2.9686
  248MPD1     N 3821   3.614   1.943   0.188  0.1017  0.7873 -0.2386
  248MPD1    H5 3822   3.647   2.036   0.212 -0.4110  0.2892  2.4281
  248MPD1    N1 3823   3.909   2.040  17.567  0.2896 -0.0030  0.4316
  248MPD1    H6 3824   3.953   1.999  17.485 -0.0243  0.0487  0.2383
  248MPD1    H7 3825   3.973   2.083  17.634  1.2905  0.8244 -1.0607
  249MPD1     C 3826   1.769   2.389   9.738 -0.3410  0.2697 -0.0855
  249MPD1    C1 3827   1.787   2.315   9.856  0.5281 -0.7799 -0.3442
  249MPD1    C2 3828   1.670   2.260   9.899  0.0872 -0.2375  0.3198
  249MPD1    C3 3829   1.551   2.261   9.828  0.2585  0.0063  0.1882
  249MPD1    C4 3830   1.540   2.332   9.710 -0.2917  0.1137 -0.6203
  249MPD1    C5 3831   1.652   2.399   9.672 -0.9603 -0.3298  0.0979
  249MPD1     H 3832   1.663   2.195   9.985 -2.8551  0.4911  0.6449
  249MPD1    H1 3833   1.447   2.349   9.657 -1.5539 -1.6303  1.0583
  249MPD1    H2 3834   1.859   2.434   9.696  0.4917 -0.7725  0.5740
  249MPD1    H3 3835   1.655   2.462   9.584 -0.0051 -1.2391 -0.5195
  249MPD1     N 3836   1.438   2.206   9.897  0.6764  0.3784 -0.2718
  249MPD1    H5 3837   1.456   2.180   9.993  3.7016 -0.1756 -0.9933
  249MPD1    N1 3838   1.903   2.311   9.933 -0.1175 -0.4546  0.0111
  249MPD1    H6 3839   1.920   2.224   9.983  1.7079 -0.0793  0.0554
  249MPD1    H7 3840   1.980   2.320   9.867  0.8985 -2.4359  0.9124
  250MPD2     C 3841   1.467   1.447  13.384  0.3707  0.7782  0.1205
  250MPD2    C1 3842   1.480   1.508  13.260 -0.5130 -0.0964  0.0946
  250MPD2    C2 3843   1.428   1.452  13.147 -0.1275 -0.0781 -0.1487
  250MPD2    C3 3844   1.363   1.328  13.158 -0.0638 -0.4352 -0.1556
  250MPD2    C4 3845   1.345   1.270  13.283  0.2574  0.2518  0.0653
  250MPD2    C5 3846   1.395   1.333  13.392  0.2383  0.7809  0.3208
  250MPD2     H 3847   1.413   1.508  13.056  0.8805 -0.5789 -0.6246
  250MPD2    H1 3848   1.285   1.181  13.292 -0.8950  1.0616  0.3808
  250MPD2    H2 3849   1.509   1.495  13.472 -0.6005 -1.1469  1.6434
  250MPD2    H3 3850   1.380   1.290  13.490  1.3758  0.5037  0.3724
  250MPD2     N 3851   1.308   1.254  13.051  0.2742  0.0002 -0.5666
  250MPD2    H5 3852   1.255   1.173  13.080  0.9935 -0.8468 -1.6175
  250MPD2    N1 3853   1.538   1.634  13.272  0.0218  0.3757 -0.0649
  250MPD2    H7 3854   1.559   1.656  13.369  0.2667 -0.1842  0.0076
  251TMC3    C1 3855   1.621   1.838  13.203 -0.2770 -0.6929  0.9187
  251TMC3    C2 3856   1.594   1.951  13.129 -0.2396  0.2578  0.8021
  251TMC3    C3 3857   1.647   2.065  13.171  0.1756 -1.0866 -0.1058
  251TMC3    C4 3858   1.706   1.834  13.315  0.1487  0.6367 -0.6028
  251TMC3    C5 3859   1.753   1.954  13.357  0.6422 -0.1604 -0.5585
  251TMC3    C6 3860   1.732   2.062  13.276 -0.1391  0.3126 -0.1411
  251TMC3     C 3861   1.564   1.714  13.168  0.2942 -0.0974 -0.7935
  251TMC3     O 3862   1.546   1.691  13.048 -0.1366 -0.4675 -0.3970
  251TMC3     H 3863   1.529   1.944  13.043 -1.5505 -1.2279  1.9086
  251TMC3    H1 3864   1.731   1.745  13.373 -2.1304 -0.9520 -2.0628
  251TMC3    H2 3865   1.780   2.156  13.298  0.5091 -0.3280  1.1911
  251TMC3    C7 3866   1.868   1.943  13.443 -0.2067 -0.3292 -0.2670
  251TMC3    C8 3867   1.579   2.195  13.143  0.6335 -0.1286  0.4375
  251TMC3    O1 3868   1.867   1.855  13.529  0.4360  0.0364  0.1667
  251TMC3    O2 3869   1.507   2.198  13.045 -0.3469  0.9116  0.1298
  252TMC3    C1 3870   1.569   3.268   9.524 -0.2815 -0.4179  0.0554
  252TMC3    C2 3871   1.708   3.273   9.543  0.2761  0.5141 -0.7197
  252TMC3    C3 3872   1.763   3.181   9.628  0.1446 -0.7296 -0.1446
  252TMC3    C4 3873   1.498   3.165   9.585 -0.2181  0.7718  0.5003
  252TMC3    C5 3874   1.567   3.075   9.666  0.3117 -0.1675 -0.3225
  252TMC3    C6 3875   1.703   3.084   9.690  0.0570  0.5140 -0.0786
  252TMC3     C 3876   1.493   3.381   9.478 -0.1041 -0.6129 -0.1005
  252TMC3     O 3877   1.372   3.363   9.456 -0.3029 -0.1745  0.1858
  252TMC3     H 3878   1.762   3.348   9.487  0.9096  1.1083  0.6892
  252TMC3    H1 3879   1.392   3.155   9.568  0.3666  1.3333 -3.5683
  252TMC3    H2 3880   1.761   3.008   9.740  0.8343  0.1391 -1.5334
  252TMC3    C7 3881   1.491   2.961   9.707 -0.6635 -1.1890  0.8605
  252TMC3    C8 3882   1.909   3.198   9.650  0.4135  0.3932  0.5654
  252TMC3    O1 3883   1.383   2.945   9.658  0.0903  0.1276  0.1789
  252TMC3    O2 3884   1.968   3.271   9.569 -0.2721  0.0793 -0.7691
  253MPD2     C 3885   3.288   1.014  14.925  0.1147  0.2241  0.3071
  253MPD2    C1 3886   3.154   1.020  14.942 -0.0162 -0.5573 -0.6193
  253MPD2    C2 3887   3.104   1.073  15.063  0.3473 -0.1208  0.0487
  253MPD2    C3 3888   3.197   1.101  15.167  0.2196  0.4919  0.1405
  253MPD2    C4 3889   3.332   1.097  15.140 -0.3985  0.1327  0.5074
  253MPD2    C5 3890   3.375   1.057  15.021  0.6066  0.2240  0.0487
  253MPD2     H 3891   2.995   1.075  15.068  0.2621  0.2183 -1.7621
  253MPD2    H1 3892   3.403   1.126  15.217 -1.4521  1.1240  1.1127
  253MPD2    H2 3893   3.332   0.961  14.841 -0.1506  0.6896 -0.1274
  253MPD2    H3 3894   3.482   1.045  15.002  0.3465 -1.0941 -0.5836
  253MPD2     N 3895   3.166   1.141  15.289  0.3887 -0.3526  0.5719
  253MPD2    H5 3896   3.243   1.159  15.352  1.7095  1.4964 -1.5834
  253MPD2    N1 3897   3.060   0.973  14.849 -0.2118 -0.3173  0.2674
  253MPD2    H7 3898   2.961   0.971  14.871 -0.1231  0.7214  0.7698
  254TMC3    C1 3899   3.035   1.226  15.463  0.4628  0.3827  0.5838
  254TMC3    C2 3900   2.925   1.291  15.509  0.3392 -0.3537  0.0537
  254TMC3    C3 3901   2.918   1.338  15.636  0.0506  0.8058 -0.0560
  254TMC3    C4 3902   3.142   1.208  15.546  0.0837 -0.1630  0.8117
  254TMC3    C5 3903   3.144   1.271  15.672  0.4009  0.0831  0.1633
  254TMC3    C6 3904   3.032   1.324  15.720 -0.8386 -0.1018 -0.1215
  254TMC3     C 3905   3.035   1.163  15.333  0.9066 -0.5725  0.3723
  254TMC3     O 3906   2.937   1.182  15.264  0.0482  0.2875 -0.0451
  254TMC3     H 3907   2.829   1.281  15.460  1.1521 -1.7041 -1.2355
  254TMC3    H1 3908   3.228   1.155  15.507 -0.3755 -0.2785 -0.0304
  254TMC3    H2 3909   3.029   1.340  15.827  0.5646 -0.6056 -0.0093
  254TMC3    C7 3910   3.233   1.212  15.776  0.2688  0.2008  0.0291
  254TMC3    C8 3911   2.812   1.414  15.695  0.0408  0.8925 -0.0964
  254TMC3    O1 3912   3.198   1.110  15.832  0.0390  0.3822  0.5742
  254TMC3    O2 3913   2.817   1.435  15.815 -0.7197  0.1752  0.1186
  255MPD2     C 3914   1.299   4.108  10.915 -0.4135  0.0541 -0.5247
  255MPD2    C1 3915   1.279   4.227  10.849  0.6545  0.2270 -1.0590
  255MPD2    C2 3916   1.389   4.277  10.769  0.0403  0.0114  0.0627
  255MPD2    C3 3917   1.506   4.207  10.753  0.2369 -0.0509 -0.3831
  255MPD2    C4 3918   1.526   4.088  10.824 -0.3438  0.1059  0.0343
  255MPD2    C5 3919   1.426   4.051  10.912  0.5887 -0.3617 -0.7355
  255MPD2     H 3920   1.381   4.377  10.729  0.8532  0.1696  0.3061
  255MPD2    H1 3921   1.626   4.048  10.830 -0.2228  0.4118  0.0871
  255MPD2    H2 3922   1.220   4.065  10.975 -0.8008  0.8142 -0.4982
  255MPD2    H3 3923   1.435   3.962  10.974 -0.6432 -0.0824 -0.1627
  255MPD2     N 3924   1.616   4.261  10.684  0.1303  0.2961  0.0519
  255MPD2    H5 3925   1.598   4.352  10.643  0.8197  0.6502  0.5374
  255MPD2    N1 3926   1.155   4.294  10.867 -1.0225  0.6013 -0.4714
  255MPD2    H7 3927   1.103   4.256  10.946 -2.0994  2.8104 -0.1258
  256TMC3    C1 3928   1.010   4.487  10.843 -0.1447 -0.3070  0.4676
  256TMC3    C2 3929   1.047   4.619  10.837  0.2392  0.2283  0.1088
  256TMC3    C3 3930   0.965   4.709  10.783  0.2341 -0.5034  0.7353
  256TMC3    C4 3931   0.891   4.445  10.793 -0.6836  0.3176 -0.5751
  256TMC3    C5 3932   0.802   4.539  10.750  0.1624  0.0886  0.0349
  256TMC3    C6 3933   0.838   4.671  10.744  0.1691 -1.0189 -0.1272
  256TMC3     C 3934   1.115   4.402  10.791  0.1871  0.2598 -0.5166
  256TMC3     O 3935   1.164   4.442  10.687  0.4397 -0.5229  0.3841
  256TMC3     H 3936   1.141   4.658  10.876  0.7937 -1.1960  0.2032
  256TMC3    H1 3937   0.866   4.343  10.767 -1.0029  0.3695 -0.4692
  256TMC3    H2 3938   0.769   0.008  10.706  0.9868  0.5533  1.4933
  256TMC3    C7 3939   0.713   4.510  10.654 -0.2808 -0.2076 -0.2212
  256TMC3    C8 3940   1.035   0.063  10.689  0.0373  0.5936 -0.3620
  256TMC3    O1 3941   0.693   4.589  10.565 -0.1295  0.5289  0.6567
  256TMC3    O2 3942   0.972   0.148  10.631  0.1450  0.0367  0.4280
  257MPD2     C 3943   0.755   1.700  13.305  0.2437 -0.0372 -0.1081
  257MPD2    C1 3944   0.678   1.627  13.220  0.2280  0.2398 -0.2144
  257MPD2    C2 3945   0.636   1.502  13.260 -0.2140  0.0072 -0.0619
  257MPD2    C3 3946   0.652   1.453  13.388 -0.4521  0.4394  0.0797
  257MPD2    C4 3947   0.708   1.542  13.483  0.4934  0.0657  0.3205
  257MPD2    C5 3948   0.770   1.657  13.435  0.5536  0.7622 -0.5924
  257MPD2     H 3949   0.592   1.429  13.194  1.8842  1.8774 -3.5318
  257MPD2    H1 3950   0.730   1.506  13.583  1.6647 -0.0293  0.0220
  257MPD2    H2 3951   0.789   1.799  13.277 -2.3919  0.6918 -0.7461
  257MPD2    H3 3952   0.822   1.718  13.508 -3.2060  2.3132  0.7868
  257MPD2     N 3953   0.606   1.324  13.418 -0.2395 -0.3880 -0.0766
  257MPD2    H5 3954   0.599   1.259  13.341  1.0261  0.1801 -0.6661
  257MPD2    N1 3955   0.650   1.673  13.088 -0.2963 -0.1466  0.0878
  257MPD2    H7 3956   0.684   1.764  13.059 -0.0669 -0.3674 -0.3386
  258TMC3    C1 3957   0.575   1.132  13.560 -0.0697 -0.5230 -0.4298
  258TMC3    C2 3958   0.641   1.050  13.471 -0.3504 -0.1586 -0.3239
  258TMC3    C3 3959   0.692   0.931  13.510 -0.4167 -0.1052  0.0415
  258TMC3    C4 3960   0.541   1.086  13.679  0.0073 -0.3582  0.0431
  258TMC3    C5 3961   0.578   0.958  13.721 -0.1893 -0.1398 -0.2857
  258TMC3    C6 3962   0.671   0.884  13.643  0.4068  0.0349  0.2036
  258TMC3     C 3963   0.581   1.276  13.544 -0.2982 -0.5096 -0.3924
  258TMC3     O 3964   0.572   1.338  13.644 -0.4392 -0.1124  0.5358
  258TMC3     H 3965   0.657   1.080  13.368 -2.5951  0.6818 -0.4178
  258TMC3    H1 3966   0.468   1.142  13.736 -2.5487 -3.3470 -0.2896
  258TMC3    H2 3967   0.680   0.779  13.672 -0.6096 -0.1685 -0.2483
  258TMC3    C7 3968   0.578   0.950  13.862  0.4262 -0.4484  0.5379
  258TMC3    C8 3969   0.772   0.859  13.412 -0.4125 -0.8702 -0.0361
  258TMC3    O1 3970   0.489   1.008  13.923 -0.2947  0.4583  0.0748
  258TMC3    O2 3971   0.753   0.876  13.291 -0.0121  0.8977 -0.3590
  259MPD2     C 3972   4.033   2.863   0.718  0.2065 -0.5691 -0.4817
  259MPD2    C1 3973   4.119   2.759   0.722  0.0171 -0.3815 -0.8092
  259MPD2    C2 3974   4.151   2.709   0.602 -0.0041 -0.4565  0.6095
  259MPD2    C3 3975   4.096   2.760   0.479 -0.8624 -0.4368 -0.5623
  259MPD2    C4 3976   4.025   2.878   0.478 -0.3485 -0.1373  0.7921
  259MPD2    C5 3977   3.997   2.928   0.604 -0.1909 -0.1711  0.2759
  259MPD2     H 3978   4.217   2.626   0.581 -0.0988  0.4255 -3.2861
  259MPD2    H1 3979   4.006   2.929   0.384 -0.9975 -0.7595  0.5853
  259MPD2    H2 3980   3.997   2.907   0.811  2.3708 -1.2851  0.7090
  259MPD2    H3 3981   3.938   3.019   0.603  0.5619  0.3347  1.7763
  259MPD2     N 3982   4.116   2.687   0.359 -0.1693 -0.3210 -0.1743
  259MPD2    H5 3983   4.171   2.602   0.365 -1.4608 -1.0156  1.8841
  259MPD2    N1 3984   4.168   2.715   0.849  0.0529  0.0839 -0.7394
  259MPD2    H7 3985   4.132   2.760   0.933 -1.6863  0.3917 -1.6691
  260TMC3    C1 3986   4.129   2.636   0.142 -0.5401  0.0747  0.1975
  260TMC3    C2 3987   4.210   2.664   0.038  0.8658 -0.7661  0.6932
  260TMC3    C3 3988   4.227   2.566  17.688  0.5429  0.2837  0.4310
  260TMC3    C4 3989   4.065   2.517   0.161 -0.1201 -0.2492  0.3320
  260TMC3    C5 3990   4.081   2.421   0.062  0.1302  0.2801 -0.2938
  260TMC3    C6 3991   4.175   2.444  17.711 -0.0945 -0.4184  0.6295
  260TMC3     C 3992   4.093   2.736   0.234  0.3050 -0.7424  0.1850
  260TMC3     O 3993   4.092   2.851   0.197 -0.7577 -0.0656  0.1308
  260TMC3     H 3994   4.265   2.757   0.041  1.9736 -1.3854 -0.5806
  260TMC3    H1 3995   4.006   2.499   0.249  0.4958  1.5531  1.1213
  260TMC3    H2 3996   4.181   2.373  17.630 -1.7165  0.2837 -0.1078
  260TMC3    C7 3997   4.053   2.283   0.077  1.0244  0.6044  0.4249
  260TMC3    C8 3998   4.354   2.570  17.610 -0.0554  0.0362 -0.3689
  260TMC3    O1 3999   4.134   2.216   0.018 -0.2710 -0.0281 -0.4073
  260TMC3    O2 4000   4.378   2.661  17.533  0.2640  0.4405 -0.4484
  261MPD2     C 4001   0.867   1.305  12.350 -0.3685 -0.0647  0.7985
  261MPD2    C1 4002   0.979   1.360  12.405 -0.2974 -0.8767 -0.2984
  261MPD2    C2 4003   1.016   1.491  12.367  0.2181 -0.1125  0.1824
  261MPD2    C3 4004   0.933   1.572  12.296 -0.4545 -0.5826 -0.1849
  261MPD2    C4 4005   0.820   1.517  12.246 -0.3956  0.1130  1.0102
  261MPD2    C5 4006   0.785   1.385  12.272 -0.3391 -0.4110 -0.4705
  261MPD2     H 4007   1.112   1.529  12.399 -0.5585  0.8819  1.3444
  261MPD2    H1 4008   0.748   1.573  12.188 -0.2855 -2.1415 -1.2991
  261MPD2    H2 4009   0.837   1.206  12.383 -1.9533  0.6650  1.5237
  261MPD2    H3 4010   0.700   1.329  12.234 -1.2923 -0.1321  1.2699
  261MPD2     N 4011   0.976   1.709  12.272 -0.2128 -0.5197  0.4610
  261MPD2    H5 4012   1.056   1.743  12.322  0.0158 -0.2550 -0.0800
  261MPD2    N1 4013   1.061   1.294  12.499 -0.7002  0.0932  0.1301
  261MPD2    H7 4014   1.138   1.348  12.537 -0.9578  0.5934 -0.0733
  262TMC3    C1 4015   0.998   1.918  12.175 -0.3699  0.2669 -0.7137
  262TMC3    C2 4016   0.938   2.029  12.121 -0.5179  0.3017  0.5026
  262TMC3    C3 4017   1.012   2.136  12.104 -0.1949 -0.0900 -1.0583
  262TMC3    C4 4018   1.131   1.915  12.211  0.3094 -0.1822  0.4616
  262TMC3    C5 4019   1.200   2.022  12.176  0.5155  0.1877  0.7032
  262TMC3    C6 4020   1.143   2.132  12.133  0.1049 -0.0334  0.3069
  262TMC3     C 4021   0.913   1.795  12.183  0.5318 -0.7096  0.5459
  262TMC3     O 4022   0.806   1.788  12.119  0.1919 -0.4499  0.1156
  262TMC3     H 4023   0.832   2.022  12.100 -0.8168 -0.0496  2.1148
  262TMC3    H1 4024   1.185   1.824  12.234  1.8240  0.4798 -0.4775
  262TMC3    H2 4025   1.206   2.219  12.120  1.5885 -1.2236 -0.5424
  262TMC3    C7 4026   1.339   2.003  12.134 -0.0440  0.0103  0.0511
  262TMC3    C8 4027   0.963   2.246  12.033 -0.2638  0.1771  0.0413
  262TMC3    O1 4028   1.399   1.904  12.169 -0.8221  0.1566 -0.6216
  262TMC3    O2 4029   1.046   2.299  11.964 -0.2942  0.8378  0.4328
  263MPD2     C 4030   2.200   0.634  11.665  1.0401 -0.5192 -0.4967
  263MPD2    C1 4031   2.313   0.585  11.601 -0.1132 -0.6284  0.8843
  263MPD2    C2 4032   2.344   0.633  11.474  0.1503 -0.6685 -0.2337
  263MPD2    C3 4033   2.261   0.728  11.415  0.4721  0.3611  0.7035
  263MPD2    C4 4034   2.157   0.781  11.485 -0.1834 -0.3267  0.0901
  263MPD2    C5 4035   2.120   0.726  11.610 -0.1392  0.0279  0.1922
  263MPD2     H 4036   2.416   0.578  11.414  0.9077 -0.1238  0.1805
  263MPD2    H1 4037   2.095   0.858  11.439  0.3016  1.2781  2.1237
  263MPD2    H2 4038   2.175   0.598  11.764 -0.3667  1.5673 -0.1008
  263MPD2    H3 4039   2.034   0.765  11.662 -0.6874  0.1987 -0.8371
  263MPD2     N 4040   2.263   0.762  11.282  0.3005  0.1111 -0.3316
  263MPD2    H5 4041   2.200   0.840  11.264 -0.7493 -0.6372  0.1146
  263MPD2    N1 4042   2.405   0.510  11.679 -0.1055 -0.8304 -0.3666
  263MPD2    H7 4043   2.394   0.511  11.780 -0.7187 -0.0622 -0.4403
  264TMC3    C1 4044   2.367   0.811  11.076  0.1660 -0.4517 -0.5707
  264TMC3    C2 4045   2.333   0.939  11.090  0.8941 -0.0825  0.1961
  264TMC3    C3 4046   2.347   1.024  10.987 -0.0357  0.3304  0.8626
  264TMC3    C4 4047   2.414   0.762  10.959 -0.8263 -0.0321 -0.3457
  264TMC3    C5 4048   2.423   0.850  10.846  0.1871 -0.2087  0.3662
  264TMC3    C6 4049   2.392   0.986  10.862 -0.1762  0.0644 -0.0594
  264TMC3     C 4050   2.359   0.728  11.193  0.6308  0.1517  0.5325
  264TMC3     O 4051   2.432   0.628  11.194  0.1571  0.1448  0.2305
  264TMC3     H 4052   2.323   0.979  11.190 -0.0020  1.1434 -0.3795
  264TMC3    H1 4053   2.445   0.658  10.959 -1.9087 -0.3457  0.6689
  264TMC3    H2 4054   2.412   1.058  10.784  1.4954  0.5911  0.8377
  264TMC3    C7 4055   2.496   0.816  10.722 -0.7101 -0.6457 -0.2022
  264TMC3    C8 4056   2.315   1.162  11.006  0.4742 -0.4633 -1.0340
  264TMC3    O1 4057   2.530   0.906  10.648 -0.0005 -0.0107  0.0495
  264TMC3    O2 4058   2.385   1.240  10.943 -0.4753 -0.6415 -0.2606
  265MPD2     C 4059   4.266   0.758  15.564  0.4413 -0.8273 -0.5383
  265MPD2    C1 4060   4.332   0.879  15.554 -0.9225  0.2020 -0.9326
  265MPD2    C2 4061   4.424   0.891  15.451 -0.3218 -0.7251  0.2693
  265MPD2    C3 4062   4.473   0.784  15.386 -0.5102  0.5308  0.3002
  265MPD2    C4 4063   4.422   0.660  15.422 -0.1800 -0.0560  0.0228
  265MPD2    C5 4064   4.314   0.647  15.507  1.3375 -0.2000 -0.6931
  265MPD2     H 4065   4.459   0.991  15.432 -0.7667 -0.7089 -0.4914
  265MPD2    H1 4066   4.463   0.571  15.377  1.7394  0.4003  0.9030
  265MPD2    H2 4067   4.186   0.749  15.636 -0.6653 -0.8333 -1.7729
  265MPD2    H3 4068   4.274   0.550  15.535 -0.7565  1.6755  2.6743
  265MPD2     N 4069   4.570   0.792  15.285 -0.0264  0.5810 -0.0526
  265MPD2    H5 4070   4.592   0.706  15.235 -1.4400  1.2284 -1.8219
  265MPD2    N1 4071   4.290   1.001  15.609 -0.3032 -0.2611  0.0801
  265MPD2    H7 4072   4.342   1.085  15.586 -0.1809 -0.5478 -0.7064
  266TMC3    C1 4073   4.180   1.151  15.749  0.5325  0.0351 -0.5824
  266TMC3    C2 4074   4.233   1.196  15.867  0.4384 -0.0490  0.5951
  266TMC3    C3 4075   4.217   1.329  15.884 -0.6514  0.1894 -0.0563
  266TMC3    C4 4076   4.131   1.221  15.646 -0.1657  0.4346  0.0901
  266TMC3    C5 4077   4.121   1.359  15.679  0.1105  0.5607 -0.3108
  266TMC3    C6 4078   4.162   1.419  15.794 -0.7236  0.4423 -0.3465
  266TMC3     C 4079   4.204   1.010  15.712 -0.1968  0.1261 -0.0266
  266TMC3     O 4080   4.146   0.918  15.772 -0.6253  0.8469 -0.0353
  266TMC3     H 4081   4.263   1.135  15.952  0.3429 -0.3293  0.4279
  266TMC3    H1 4082   4.088   1.170  15.561  0.7142 -0.5081  0.2014
  266TMC3    H2 4083   4.139   1.523  15.813 -0.9395  0.2598  0.3921
  266TMC3    C7 4084   4.031   1.431  15.591 -0.0578 -0.3979  0.1111
  266TMC3    C8 4085   4.276   1.391  16.004  0.0317 -0.0064  1.1835
  266TMC3    O1 4086   3.939   1.369  15.538 -0.5133 -0.2935 -0.3587
  266TMC3    O2 4087   4.312   1.308  16.091  0.7272 -0.2060  0.5639
  267MPD2     C 4088   2.066   3.701   0.218  0.1660  0.2580  0.2919
  267MPD2    C1 4089   2.131   3.643   0.110 -0.4750  0.1077  0.0684
  267MPD2    C2 4090   2.039   3.584   0.024 -0.9178  0.8131  0.0680
  267MPD2    C3 4091   1.902   3.578   0.046 -0.0371 -0.7347 -0.7091
  267MPD2    C4 4092   1.850   3.635   0.155 -0.1095  0.3127  0.1587
  267MPD2    C5 4093   1.932   3.707   0.240 -0.5828  0.3380 -0.0092
  267MPD2     H 4094   2.084   3.538  17.685  0.1561 -0.4028  1.2587
  267MPD2    H1 4095   1.747   3.642   0.186  0.7476  3.1612  2.3323
  267MPD2    H2 4096   2.131   3.744   0.293  0.2817  1.3102 -0.4270
  267MPD2    H3 4097   1.894   3.764   0.324  0.1542  0.4644  0.2427
  267MPD2     N 4098   1.810   3.531  17.695  0.4103 -0.2617  0.0229
  267MPD2    H5 4099   1.711   3.532  17.719  0.4311 -3.0179  0.2282
  267MPD2    N1 4100   2.267   3.629   0.104  0.0358  0.5261  0.4093
  267MPD2    H7 4101   2.305   3.623   0.198 -0.1170  1.5119  0.5334
  268TMC3    C1 4102   2.451   3.504   0.025  1.5153 -0.0446  0.3632
  268TMC3    C2 4103   2.488   3.417  17.675  0.1286 -0.1873 -0.5378
  268TMC3    C3 4104   2.576   3.316  17.711 -0.5842  0.4231  0.2449
  268TMC3    C4 4105   2.510   3.502   0.149  0.4763 -0.1681  0.4511
  268TMC3    C5 4106   2.597   3.395   0.180  0.4676  0.0984 -0.1431
  268TMC3    C6 4107   2.612   3.290   0.090 -0.1722 -0.4695 -0.7022
  268TMC3     C 4108   2.332   3.579  17.741  0.2135  0.2596 -0.4291
  268TMC3     O 4109   2.298   3.581  17.622  0.4254 -0.1050 -0.3546
  268TMC3     H 4110   2.459   3.432  17.572 -1.2586  0.7783  0.0029
  268TMC3    H1 4111   2.482   3.575   0.224 -3.5022 -2.5521  1.3012
  268TMC3    H2 4112   2.664   3.200   0.120 -2.1737 -1.0967  0.8655
  268TMC3    C7 4113   2.665   3.393   0.308  0.3211 -0.1252 -0.1648
  268TMC3    C8 4114   2.607   3.213  17.617  0.7802 -0.0388 -0.0778
  268TMC3    O1 4115   2.638   3.486   0.384  0.2461  0.0839  0.2832
  268TMC3    O2 4116   2.712   3.153  17.635 -0.1627  0.0048 -0.9995
  269MPD2     C 4117   2.217   1.693  15.317  0.3341 -0.2391 -0.1434
  269MPD2    C1 4118   2.186   1.700  15.453 -0.5488 -1.0329 -0.0322
  269MPD2    C2 4119   2.146   1.819  15.516 -0.8086  0.1452  0.2896
  269MPD2    C3 4120   2.153   1.929  15.436  0.3137  0.3655  0.3159
  269MPD2    C4 4121   2.179   1.924  15.300 -1.1652 -0.0405  0.6318
  269MPD2    C5 4122   2.216   1.804  15.238 -0.5653 -0.5237  0.3251
  269MPD2     H 4123   2.131   1.834  15.623  1.2808 -0.0898  0.6179
  269MPD2    H1 4124   2.175   2.011  15.235  0.0093  0.1291  0.7877
  269MPD2    H2 4125   2.253   1.605  15.264  0.8850 -0.4633  0.5990
  269MPD2    H3 4126   2.245   1.806  15.134 -4.0829 -1.5513 -0.6907
  269MPD2     N 4127   2.125   2.054  15.508 -0.0008  0.4616 -0.0683
  269MPD2    H5 4128   2.111   2.039  15.608  0.7751 -0.7750 -0.1327
  269MPD2    N1 4129   2.214   1.581  15.528 -0.3486 -0.4149 -0.1173
  269MPD2    H7 4130   2.258   1.502  15.481  0.3808  1.9643 -3.3861
  270TMC3    C1 4131   2.197   1.424  15.694  0.1496 -0.9559 -0.3278
  270TMC3    C2 4132   2.079   1.351  15.700  0.5509  0.2388 -0.1592
  270TMC3    C3 4133   2.103   1.215  15.719 -0.7508 -0.1368 -0.1662
  270TMC3    C4 4134   2.318   1.383  15.731  0.3143 -0.0423 -0.7455
  270TMC3    C5 4135   2.337   1.256  15.777  0.3401 -1.0914  0.0614
  270TMC3    C6 4136   2.226   1.172  15.764 -0.4478  0.3263 -0.2833
  270TMC3     C 4137   2.170   1.560  15.658 -0.2661 -0.3488  0.2110
  270TMC3     O 4138   2.106   1.626  15.735 -0.1093 -0.2419 -0.2922
  270TMC3     H 4139   1.991   1.398  15.658 -0.3120 -0.4850  0.8204
  270TMC3    H1 4140   2.405   1.442  15.704  0.6407 -0.2281 -0.1035
  270TMC3    H2 4141   2.230   1.067  15.793  2.6513 -0.2208 -2.6809
  270TMC3    C7 4142   2.462   1.184  15.734 -0.9424 -0.5568 -0.0092
  270TMC3    C8 4143   2.049   1.118  15.623  0.0099 -0.2711  0.2768
  270TMC3    O1 4144   2.570   1.215  15.777  0.3400 -0.7057  0.3059
  270TMC3    O2 4145   2.122   1.029  15.586 -0.3243 -0.0095  0.3443
  271MPD2     C 4146   1.326   1.151  13.840  0.0200  0.6582  0.3610
  271MPD2    C1 4147   1.314   1.174  13.975  0.1813 -0.3452 -0.1901
  271MPD2    C2 4148   1.245   1.287  14.022 -0.0605  0.4665 -0.4756
  271MPD2    C3 4149   1.194   1.379  13.931  0.7340 -0.3168 -1.4398
  271MPD2    C4 4150   1.206   1.353  13.799  0.3361  0.7732  0.3404
  271MPD2    C5 4151   1.271   1.240  13.751  0.1308  0.2410  1.2574
  271MPD2     H 4152   1.224   1.302  14.127  0.6484  0.0372 -0.2780
  271MPD2    H1 4153   1.185   1.429  13.725 -0.8857  1.4247  1.3652
  271MPD2    H2 4154   1.380   1.067  13.796  1.0699  1.3556  0.3165
  271MPD2    H3 4155   1.287   1.221  13.645  1.2629  0.8627  1.3202
  271MPD2     N 4156   1.108   1.483  13.954  0.1012  0.2755  0.2829
  271MPD2    H5 4157   1.069   1.532  13.874  2.5139  0.0661 -1.0481
  271MPD2    N1 4158   1.358   1.087  14.076  0.5704  0.0101  0.0012
  271MPD2    H7 4159   1.355   1.120  14.171  1.3212 -0.4231  0.1825
  272TMC3    C1 4160   1.479   0.920  14.175  0.2514 -0.1798  0.1182
  272TMC3    C2 4161   1.562   0.817  14.159  0.0377 -0.2672  0.4282
  272TMC3    C3 4162   1.628   0.778  14.279  0.2288 -0.2428  0.3050
  272TMC3    C4 4163   1.445   0.970  14.299 -0.3059  0.3088 -0.9193
  272TMC3    C5 4164   1.511   0.926  14.407  0.0209  0.0026 -0.2450
  272TMC3    C6 4165   1.596   0.819  14.407 -0.6776 -0.0479 -0.3709
  272TMC3     C 4166   1.417   0.969  14.056 -0.0784 -0.1748 -0.2146
  272TMC3     O 4167   1.423   0.901  13.953  0.0086  0.5697 -0.1583
  272TMC3     H 4168   1.594   0.781  14.061  2.6046 -0.3752  1.3150
  272TMC3    H1 4169   1.343   1.003  14.317  0.0152  1.1143 -0.6018
  272TMC3    H2 4170   1.651   0.785  14.494  0.3458  1.2861 -0.4970
  272TMC3    C7 4171   1.443   0.940  14.533 -0.1673  0.1935  0.1998
  272TMC3    C8 4172   1.735   0.686  14.261 -0.0754 -0.1243  0.2175
  272TMC3    O1 4173   1.320   0.930  14.534  0.4558 -0.2819 -0.2245
  272TMC3    O2 4174   1.774   0.679  14.141 -0.1404  0.3993  0.2993
  273MPD2     C 4175   2.184   4.191  11.253  0.4304 -0.1422  0.3682
  273MPD2    C1 4176   2.307   4.185  11.311 -0.6732 -0.0231  1.0185
  273MPD2    C2 4177   2.420   4.206  11.230  0.0941  0.9224 -0.5415
  273MPD2    C3 4178   2.407   4.236  11.099  0.5925  0.0808  0.7106
  273MPD2    C4 4179   2.281   4.256  11.047  0.5462 -0.4952 -0.1440
  273MPD2    C5 4180   2.166   4.225  11.119 -0.1235  0.6318  0.6758
  273MPD2     H 4181   2.517   4.198  11.278 -0.5029  2.9676  0.9982
  273MPD2    H1 4182   2.264   4.293  10.946 -1.4367 -2.2681 -0.4644
  273MPD2    H2 4183   2.098   4.164  11.312  0.7623 -1.6517  0.1497
  273MPD2    H3 4184   2.069   4.237  11.071 -1.0288 -0.6509  2.1879
  273MPD2     N 4185   2.508   4.257  11.007 -0.4099 -0.5156  0.3819
  273MPD2    H5 4186   2.480   4.274  10.911 -0.7224 -0.9821  0.3837
  273MPD2    N1 4187   2.310   4.164  11.452 -0.0812 -0.4175 -0.0990
  273MPD2    H7 4188   2.219   4.144  11.493  0.7329  0.5842  2.1722
  274TMC3    C1 4189   2.731   4.310  10.944 -0.0782  0.2464  0.2750
  274TMC3    C2 4190   2.657   4.360  10.847 -0.1678 -0.2809 -0.6192
  274TMC3    C3 4191   2.689   4.489  10.800  0.1300 -0.3877 -0.4059
  274TMC3    C4 4192   2.832   4.377  11.006 -0.9416 -0.0477  0.0414
  274TMC3    C5 4193   2.845   4.512  10.981  0.2716 -0.0433  0.0450
  274TMC3    C6 4194   2.778   4.567  10.869 -0.2582 -0.2119 -0.2690
  274TMC3     C 4195   2.645   4.252  11.041  0.1859  0.4902 -0.2253
  274TMC3     O 4196   2.696   4.233  11.148 -0.3805 -0.3094  0.1931
  274TMC3     H 4197   2.589   4.294  10.794 -0.8921 -1.7880  2.1673
  274TMC3    H1 4198   2.903   4.328  11.071  0.0394  1.0427 -0.2058
  274TMC3    H2 4199   2.764   4.674  10.858 -1.0220 -0.2734  0.1656
  274TMC3    C7 4200   2.827   4.592  11.100 -0.2853 -0.2145  0.1169
  274TMC3    C8 4201   2.568   4.557  10.757 -0.0010  0.1770  0.2951
  274TMC3    O1 4202   2.808   4.712  11.094  0.3558  0.1642  0.4528
  274TMC3    O2 4203   2.471   4.546  10.827  0.2629  0.0013 -0.2132
  275MPD2     C 4204   2.606   2.148  15.065  0.2454 -0.3862  0.4847
  275MPD2    C1 4205   2.655   2.065  14.963 -0.5172 -0.3322 -0.1402
  275MPD2    C2 4206   2.567   1.988  14.898  0.3849 -0.2618 -0.5339
  275MPD2    C3 4207   2.426   1.984  14.931 -0.0611 -0.3780  0.1229
  275MPD2    C4 4208   2.381   2.066  15.034 -0.6017 -0.5966 -0.0121
  275MPD2    C5 4209   2.472   2.154  15.091  0.5801 -0.0571 -0.3316
  275MPD2     H 4210   2.609   1.937  14.813  0.0975 -1.6216  0.1396
  275MPD2    H1 4211   2.276   2.070  15.059 -0.6228 -0.5315 -0.1166
  275MPD2    H2 4212   2.658   2.227  15.117  0.5055 -0.4049  0.2503
  275MPD2    H3 4213   2.435   2.229  15.160  2.6163 -0.2734  1.0239
  275MPD2     N 4214   2.329   1.913  14.857  0.2347  0.1095 -0.3340
  275MPD2    H5 4215   2.229   1.930  14.862  0.2194 -0.1460  0.2374
  275MPD2    N1 4216   2.784   2.060  14.907 -0.4080 -0.2525  0.2904
  275MPD2    H7 4217   2.795   2.004  14.823 -1.1883  2.8285 -1.8559
  276TMC3    C1 4218   3.019   2.117  14.903  0.1877  0.1798  0.0571
  276TMC3    C2 4219   3.067   1.991  14.875 -0.4816  0.5147 -0.8561
  276TMC3    C3 4220   3.201   1.958  14.891  0.0774  0.6059 -0.0793
  276TMC3    C4 4221   3.107   2.212  14.929  0.0845  0.1225  0.0076
  276TMC3    C5 4222   3.245   2.184  14.921  0.2889  0.3967 -0.2208
  276TMC3    C6 4223   3.293   2.059  14.910  0.0274  0.5054 -0.2578
  276TMC3     C 4224   2.889   2.126  14.966  0.2880  0.6352 -0.5749
  276TMC3     O 4225   2.891   2.208  15.062  0.3317  0.3569  0.3492
  276TMC3     H 4226   2.992   1.915  14.859  0.9133 -0.5266 -2.3834
  276TMC3    H1 4227   3.067   2.307  14.963  0.1805  0.0136  0.4230
  276TMC3    H2 4228   3.400   2.038  14.909 -0.1895 -0.5754 -0.2347
  276TMC3    C7 4229   3.329   2.272  14.993  0.1035  0.2549 -0.2435
  276TMC3    C8 4230   3.259   1.833  14.879  1.1352 -0.4917 -0.2596
  276TMC3    O1 4231   3.424   2.240  15.064 -0.6186 -0.3574  0.4454
  276TMC3    O2 4232   3.380   1.820  14.871 -0.3508  0.6227 -0.1131
  277MPD2     C 4233   4.506   1.509  13.299 -0.1308 -0.0588  0.4742
  277MPD2    C1 4234   4.367   1.502  13.309 -0.5387  1.0507  0.0043
  277MPD2    C2 4235   4.309   1.394  13.377 -0.4832 -0.7442  0.0821
  277MPD2    C3 4236   4.391   1.283  13.412  0.8421 -0.1485 -0.0581
  277MPD2    C4 4237   4.525   1.293  13.386  0.0944 -0.9288  0.2735
  277MPD2    C5 4238   4.583   1.408  13.346  0.4938 -0.1095  0.0963
  277MPD2     H 4239   4.202   1.381  13.376 -0.7269  1.1894  1.5773
  277MPD2    H1 4240   4.595   1.211  13.397  0.6139 -0.5229 -0.0129
  277MPD2    H2 4241   4.561   1.593  13.260 -3.5690  2.1817  0.4770
  277MPD2    H3 4242   4.691   1.411  13.345  0.5370 -1.7899  0.8752
  277MPD2     N 4243   4.338   1.173  13.478 -0.6994 -0.3382 -0.2457
  277MPD2    H5 4244   4.237   1.179  13.490 -0.9611  0.7734 -2.8685
  277MPD2    N1 4245   4.299   1.608  13.248  0.5638 -0.2372  0.3020
  277MPD2    H7 4246   4.354   1.676  13.197  0.2059  0.4362  0.8256
  278TMC3    C1 4247   4.319   0.967  13.588  0.3942  0.3459 -0.3523
  278TMC3    C2 4248   4.323   0.834  13.554 -0.5083 -0.5712 -0.3812
  278TMC3    C3 4249   4.220   0.752  13.592 -0.1335 -0.3337  0.2944
  278TMC3    C4 4250   4.209   1.014  13.653 -0.2541  0.1646  0.3324
  278TMC3    C5 4251   4.114   0.927  13.699  0.0056  0.0238 -0.1678
  278TMC3    C6 4252   4.112   0.797  13.667 -0.4788 -0.0155  0.4762
  278TMC3     C 4253   4.400   1.057  13.510 -0.2772  0.5347 -0.9423
  278TMC3     O 4254   4.507   1.011  13.465 -0.6484 -0.0259 -0.1053
  278TMC3     H 4255   4.404   0.787  13.499  0.3577  0.9756 -0.4215
  278TMC3    H1 4256   4.229   1.112  13.697  2.0161 -0.3637  0.4807
  278TMC3    H2 4257   4.047   0.716  13.697  3.4279 -3.1182  0.6792
  278TMC3    C7 4258   4.015   0.972  13.795 -0.1725 -0.9206 -0.3059
  278TMC3    C8 4259   4.215   0.615  13.540 -0.6877  0.1733  0.1134
  278TMC3    O1 4260   4.053   1.070  13.864 -0.4492 -0.0041 -0.8727
  278TMC3    O2 4261   4.318   0.569  13.493 -0.4528 -0.0586  0.5562
  279MPD2     C 4262   3.633   1.256   0.453 -0.6074 -0.5523  0.2658
  279MPD2    C1 4263   3.561   1.354   0.384 -0.2129  1.1869  0.6425
  279MPD2    C2 4264   3.601   1.387   0.257  0.6532 -0.1797 -0.3347
  279MPD2    C3 4265   3.699   1.320   0.188  0.0651  0.2565  0.7955
  279MPD2    C4 4266   3.771   1.221   0.252  0.2103  0.1765  0.7847
  279MPD2    C5 4267   3.730   1.194   0.380 -0.4252 -0.9469 -0.1958
  279MPD2     H 4268   3.552   1.470   0.208  3.9876  0.2838 -2.9414
  279MPD2    H1 4269   3.842   1.155   0.204 -0.4255 -0.3234  0.5241
  279MPD2    H2 4270   3.593   1.218   0.546 -0.6568 -0.6901  0.1886
  279MPD2    H3 4271   3.778   1.109   0.428 -0.9780 -1.1342  0.0253
  279MPD2     N 4272   3.726   1.343   0.052 -0.5207 -0.8516  0.7957
  279MPD2    H5 4273   3.819   1.310   0.030 -0.0656  0.0529  1.3641
  279MPD2    N1 4274   3.443   1.398   0.457 -0.0691  0.0537  0.1696
  279MPD2    H7 4275   3.438   1.371   0.555  1.4362  0.2673  0.3059
  280TMC3    C1 4276   3.314   1.482   0.271 -0.0904 -0.2470 -0.1481
  280TMC3    C2 4277   3.297   1.365   0.188 -0.2265  0.1270 -1.1712
  280TMC3    C3 4278   3.257   1.388   0.060 -0.0600  0.1337  0.1634
  280TMC3    C4 4279   3.267   1.605   0.223 -0.1222  0.8527  0.5134
  280TMC3    C5 4280   3.229   1.618   0.092  0.3601 -0.6826 -0.6796
  280TMC3    C6 4281   3.213   1.510   0.008 -0.3999 -0.7106  0.0626
  280TMC3     C 4282   3.340   1.477   0.408  0.6496 -0.2753  0.2074
  280TMC3     O 4283   3.275   1.556   0.473 -0.0696  0.0027  0.2808
  280TMC3     H 4284   3.306   1.264   0.226 -1.5926  1.1984  2.0299
  280TMC3    H1 4285   3.270   1.695   0.283 -0.8389 -1.3261  3.7896
  280TMC3    H2 4286   3.198   1.513  17.649 -0.2368 -2.0064  0.0026
  280TMC3    C7 4287   3.216   1.756   0.038  0.3372  0.1975 -0.7300
  280TMC3    C8 4288   3.262   1.278  17.704 -0.1926  0.3040 -0.0363
  280TMC3    O1 4289   3.262   1.841   0.113 -0.0974  0.2360  0.0173
  280TMC3    O2 4290   3.207   1.288  17.596 -0.2650  0.1663 -0.0947
  281TMC3    C1 4291   2.014   1.671  13.764 -0.6698 -0.1910 -0.4762
  281TMC3    C2 4292   2.136   1.643  13.714  0.0397  0.6735  0.4211
  281TMC3    C3 4293   2.141   1.577  13.597 -0.7926  0.7199 -0.4231
  281TMC3    C4 4294   1.904   1.604  13.717  0.2833  0.3898  0.2355
  281TMC3    C5 4295   1.922   1.506  13.617  0.6402 -0.4153 -0.2374
  281TMC3    C6 4296   2.040   1.488  13.556  0.1491  0.5180  0.3769
  281TMC3     C 4297   1.999   1.777  13.858  0.5449 -0.1878 -0.4584
  281TMC3     O 4298   2.044   1.761  13.972  0.3824 -0.3626 -0.0424
  281TMC3     H 4299   2.221   1.703  13.744  0.6416  0.3000 -0.5138
  281TMC3    H1 4300   1.809   1.617  13.767  0.0602 -1.9947  0.4298
  281TMC3    H2 4301   2.047   1.431  13.464  0.1923  0.4753  0.4066
  281TMC3    C7 4302   1.821   1.408  13.615  0.1491 -0.4517  0.0259
  281TMC3    C8 4303   2.262   1.582  13.511 -0.1761  0.6093  0.5894
  281TMC3    O1 4304   1.709   1.445  13.628  0.0097 -0.5974  0.4646
  281TMC3    O2 4305   2.305   1.474  13.468  0.3557  0.2916 -0.0677
  282MPD2     C 4306   4.197   2.584  14.736 -0.4428  0.6054  0.1141
  282MPD2    C1 4307   4.160   2.707  14.785 -0.1973 -0.1358 -0.3509
  282MPD2    C2 4308   4.083   2.794  14.714 -0.1812 -0.2084  0.2669
  282MPD2    C3 4309   4.037   2.755  14.591 -0.7595  0.2311  0.9175
  282MPD2    C4 4310   4.082   2.632  14.538 -0.5142  0.1645  0.2812
  282MPD2    C5 4311   4.163   2.549  14.610 -0.6460 -0.4516 -0.0896
  282MPD2     H 4312   4.059   2.894  14.748 -0.1697  0.0166 -0.3900
  282MPD2    H1 4313   4.053   2.604  14.437  0.7001 -0.7999  0.1936
  282MPD2    H2 4314   4.257   2.515  14.795 -1.4617 -1.7217 -1.5697
  282MPD2    H3 4315   4.191   2.450  14.576  0.0643 -0.2391 -0.1336
  282MPD2     N 4316   3.946   2.836  14.518  0.3214  0.3079 -0.3404
  282MPD2    H5 4317   3.943   2.935  14.542  2.8836  0.1219  0.8311
  282MPD2    N1 4318   4.193   2.727  14.922  0.1050  0.5073 -0.7494
  282MPD2    H7 4319   4.240   2.650  14.970 -0.4602  1.7920  1.8714
  283TMC3    C1 4320   4.192   2.822  15.139 -0.2211 -0.2811  0.7846
  283TMC3    C2 4321   4.201   2.939  15.207  0.3868  0.2754 -0.3813
  283TMC3    C3 4322   4.214   2.939  15.344  0.0673  0.2267 -0.4178
  283TMC3    C4 4323   4.160   2.707  15.205 -0.4274 -0.5590 -0.3212
  283TMC3    C5 4324   4.158   2.717  15.343  0.5685  0.5184  0.0751
  283TMC3    C6 4325   4.198   2.830  15.418 -0.4058  0.2948 -0.1786
  283TMC3     C 4326   4.177   2.842  14.996  0.0838  0.2521 -0.4514
  283TMC3     O 4327   4.130   2.947  14.960  0.2629  0.0344  0.7504
  283TMC3     H 4328   4.221   3.029  15.149  0.2887 -0.3964 -1.4628
  283TMC3    H1 4329   4.113   2.623  15.156 -2.2225 -0.5034  1.2796
  283TMC3    H2 4330   4.183   2.844  15.525 -1.7719 -0.2581 -0.3042
  283TMC3    C7 4331   4.091   2.617  15.422  0.7657 -0.9773  0.1251
  283TMC3    C8 4332   4.228   3.062  15.415  0.2606  0.5848  0.0835
  283TMC3    O1 4333   4.120   2.627  15.539  0.1056  0.6185 -0.0642
  283TMC3    O2 4334   4.278   3.064  15.527  0.4667 -0.0890  0.0383
  284MPD2     C 4335   2.351   2.374  12.243 -0.3396 -0.0338  0.7502
  284MPD2    C1 4336   2.383   2.369  12.104  0.2363  0.2397  0.4262
  284MPD2    C2 4337   2.466   2.269  12.056 -0.0472  0.2100 -0.2058
  284MPD2    C3 4338   2.514   2.169  12.141  0.0292  0.1386 -0.1619
  284MPD2    C4 4339   2.480   2.177  12.278 -0.4977 -0.4681 -0.1839
  284MPD2    C5 4340   2.393   2.275  12.324 -0.2733  0.5065  0.0363
  284MPD2     H 4341   2.488   2.258  11.951 -2.4492  0.3850 -0.7201
  284MPD2    H1 4342   2.522   2.109  12.351 -2.5841 -0.6745  0.8322
  284MPD2    H2 4343   2.288   2.448  12.289 -0.2751  1.0857 -0.9773
  284MPD2    H3 4344   2.379   2.270  12.431  0.2218  0.1956  0.0831
  284MPD2     N 4345   2.599   2.060  12.095  0.1962 -0.5463  0.1926
  284MPD2    H5 4346   2.623   1.981  12.153  0.0978 -1.5337 -1.0897
  284MPD2    N1 4347   2.341   2.460  12.008 -0.0225 -0.1563  0.9347
  284MPD2    H7 4348   2.374   2.437  11.915 -1.0735  0.4388  0.4181
  285TMC3    C1 4349   2.251   2.650  11.912 -0.0616 -0.6754  0.2818
  285TMC3    C2 4350   2.263   2.589  11.793 -0.6645 -0.3349  0.3213
  285TMC3    C3 4351   2.301   2.669  11.680 -0.6117  0.5305 -0.0077
  285TMC3    C4 4352   2.285   2.780  11.935  0.6253 -0.3991  0.5586
  285TMC3    C5 4353   2.324   2.856  11.827 -0.1947  0.0416 -0.3651
  285TMC3    C6 4354   2.330   2.807  11.694  0.2611 -0.0895 -0.0212
  285TMC3     C 4355   2.272   2.575  12.032  0.0344 -0.5598  0.0712
  285TMC3     O 4356   2.238   2.612  12.145 -0.5631  0.1251  0.2535
  285TMC3     H 4357   2.240   2.484  11.781 -1.4077 -0.0847 -0.4491
  285TMC3    H1 4358   2.277   2.819  12.035 -2.0610  1.5940 -0.4222
  285TMC3    H2 4359   2.340   2.880  11.615 -1.6109  1.9371  1.5964
  285TMC3    C7 4360   2.378   2.983  11.847  0.5414  0.1877 -0.0560
  285TMC3    C8 4361   2.344   2.592  11.565  0.3006 -0.0570  0.8023
  285TMC3    O1 4362   2.402   3.051  11.747  0.0840  0.3147  0.2047
  285TMC3    O2 4363   2.313   2.474  11.565  0.3576 -0.0613  0.2658
  286MPD2     C 4364   3.209   1.012   1.113  0.0670  0.6915  0.3452
  286MPD2    C1 4365   3.108   0.973   1.027 -0.9757  0.5513 -0.0660
  286MPD2    C2 4366   3.079   0.842   1.015  0.2781  0.2900 -0.1415
  286MPD2    C3 4367   3.155   0.749   1.081  0.2702  0.0544  0.0206
  286MPD2    C4 4368   3.254   0.789   1.162 -0.6481 -0.0132 -0.2088
  286MPD2    C5 4369   3.285   0.918   1.182 -0.1701  0.2038 -0.8114
  286MPD2     H 4370   2.996   0.808   0.954  0.4294 -0.2576 -0.0419
  286MPD2    H1 4371   3.315   0.720   1.219 -2.3275 -0.2683  1.3008
  286MPD2    H2 4372   3.230   1.118   1.125 -1.4307  1.0344 -0.0516
  286MPD2    H3 4373   3.342   0.961   1.263 -0.5622  0.8765 -0.8878
  286MPD2     N 4374   3.146   0.615   1.059  0.6697  0.5996  0.0694
  286MPD2    H5 4375   3.213   0.554   1.104  0.7291  0.4338 -0.2470
  286MPD2    N1 4376   3.024   1.065   0.957  0.2798 -0.6325  0.0919
  286MPD2    H7 4377   2.935   1.034   0.920  0.1278 -1.5768  1.2405
  287TMC3    C1 4378   3.079   0.401   0.987  0.4975 -0.2737 -0.7491
  287TMC3    C2 4379   3.083   0.346   0.857 -0.8238 -0.4751 -0.1750
  287TMC3    C3 4380   3.177   0.251   0.839 -0.1632  0.1570 -0.5677
  287TMC3    C4 4381   3.168   0.369   1.092 -0.5636  0.1255  0.9163
  287TMC3    C5 4382   3.275   0.284   1.054  0.0596  0.0168  0.2301
  287TMC3    C6 4383   3.281   0.231   0.932 -0.5045  0.6786 -0.7790
  287TMC3     C 4384   3.052   0.545   0.983 -0.2357 -0.1639 -0.3432
  287TMC3     O 4385   2.969   0.588   0.907  0.4656 -0.0623 -0.2750
  287TMC3     H 4386   3.005   0.360   0.783  0.5404  0.4784 -1.4343
  287TMC3    H1 4387   3.138   0.409   1.188 -1.1175  1.8036  0.0445
  287TMC3    H2 4388   3.368   0.169   0.917 -0.3773  0.1264  2.3271
  287TMC3    C7 4389   3.398   0.333   1.110  0.4700 -0.3461  0.5316
  287TMC3    C8 4390   3.150   0.150   0.736  0.2451 -0.4345 -0.3762
  287TMC3    O1 4391   3.385   0.422   1.192  0.0848 -0.1671  0.2233
  287TMC3    O2 4392   3.034   0.162   0.699 -0.1110 -0.4473  0.1355
  288TMC3    C1 4393   0.210   0.859  14.437  0.0216  0.2222 -0.0447
  288TMC3    C2 4394   0.095   0.855  14.516  0.1489 -0.5896  0.3740
  288TMC3    C3 4395   4.723   0.923  14.468  0.2659  0.3498 -0.7329
  288TMC3    C4 4396   0.224   0.933  14.321 -0.4155  0.2237  0.4597
  288TMC3    C5 4397   0.108   0.987  14.272  0.0741 -0.1163  0.4966
  288TMC3    C6 4398   4.727   0.980  14.342  0.5426 -1.0261 -0.2437
  288TMC3     C 4399   0.333   0.827  14.502  0.3890 -0.0200 -0.0887
  288TMC3     O 4400   0.425   0.914  14.506 -0.1394 -0.0846 -0.5763
  288TMC3     H 4401   0.087   0.803  14.611 -1.5268 -2.2114 -0.6535
  288TMC3    H1 4402   0.318   0.936  14.268  0.8818  1.5116  2.8813
  288TMC3    H2 4403   4.639   1.032  14.305  0.6996 -0.7967 -0.2929
  288TMC3    C7 4404   0.108   1.065  14.159  0.4925 -0.6265 -0.2807
  288TMC3    C8 4405   4.616   0.957  14.567 -0.0840  0.4894  0.0345
  288TMC3    O1 4406   0.220   1.084  14.123  0.0467 -0.2141  0.5898
  288TMC3    O2 4407   4.531   1.033  14.524  0.5819 -0.0291 -0.2390
  289MPD2     C 4408   4.385   4.451  14.297  0.4952  0.2119  0.0949
  289MPD2    C1 4409   4.435   4.560  14.227  0.8133  0.6188  0.6170
  289MPD2    C2 4410   4.369   4.604  14.110  0.5491 -0.3855  0.2150
  289MPD2    C3 4411   4.247   4.538  14.080  0.2561 -0.4451 -0.6759
  289MPD2    C4 4412   4.200   4.434  14.150 -0.3217  0.0131  0.2796
  289MPD2    C5 4413   4.277   4.381  14.253 -0.0418 -0.1208 -0.6999
  289MPD2     H 4414   4.400   4.694  14.058  0.5138  0.0765  0.9761
  289MPD2    H1 4415   4.106   4.383  14.133  0.8514 -2.7873  2.2027
  289MPD2    H2 4416   4.432   4.414  14.388 -1.1631 -2.3324 -0.0879
  289MPD2    H3 4417   4.246   4.293  14.308  1.8024  0.9328  2.0113
  289MPD2     N 4418   4.161   4.570  13.977  0.3367 -0.6741 -0.6989
  289MPD2    H5 4419   4.077   4.513  13.972  0.4746 -1.0264  0.8754
  289MPD2    N1 4420   4.531   4.642  14.290 -0.2628 -1.2117  0.4016
  289MPD2    H7 4421   4.592   4.588  14.350  2.1476  0.7821 -0.2382
  290TMC3    C1 4422   4.072   4.697  13.803 -0.3336  0.3357  0.3247
  290TMC3    C2 4423   4.031   0.087  13.768  0.2660 -0.0325 -0.0315
  290TMC3    C3 4424   3.912   0.097  13.695  0.3459 -0.6373 -0.5873
  290TMC3    C4 4425   4.016   4.580  13.753 -0.1247 -0.4755  0.2106
  290TMC3    C5 4426   3.905   4.597  13.676  0.4658  0.2505 -0.9279
  290TMC3    C6 4427   3.852   4.718  13.649 -0.1427  0.0219  0.2091
  290TMC3     C 4428   4.175   4.687  13.905  0.4766 -0.2244 -0.4662
  290TMC3     O 4429   4.246   0.049  13.920 -0.4078  0.0769  0.1752
  290TMC3     H 4430   4.095   0.165  13.805 -0.6505 -0.6021  2.7533
  290TMC3    H1 4431   4.046   4.477  13.768 -0.5865 -0.5582  0.5772
  290TMC3    H2 4432   3.756   4.715  13.597 -0.4637 -0.0344  0.8071
  290TMC3    C7 4433   3.833   4.484  13.610 -0.2247 -0.1005  0.0045
  290TMC3    C8 4434   3.831   0.216  13.709 -0.0127  0.1402  0.5152
  290TMC3    O1 4435   3.779   4.522  13.507  0.2119  0.0587 -0.4564
  290TMC3    O2 4436   3.709   0.208  13.696  0.4234 -0.8196 -0.4578
  291MPD2     C 4437   3.777   4.698   0.418  1.0718 -0.4551  0.7165
  291MPD2    C1 4438   3.911   4.651   0.411 -0.1218 -0.1025  0.1486
  291MPD2    C2 4439   4.013   4.737   0.437 -0.5010 -0.6866  0.2505
  291MPD2    C3 4440   3.996   0.134   0.460  0.7714 -0.4438  0.3552
  291MPD2    C4 4441   3.866   0.177   0.474  0.3174 -0.4007 -0.0252
  291MPD2    C5 4442   3.759   0.094   0.443  0.5825 -0.4133 -0.7349
  291MPD2     H 4443   4.114   4.697   0.436  1.1629  3.4420  2.5596
  291MPD2    H1 4444   3.859   0.280   0.507 -1.6876 -0.2809 -0.8272
  291MPD2    H2 4445   3.694   4.632   0.400  0.4400  0.9328 -1.5866
  291MPD2    H3 4446   3.660   0.140   0.449  0.9126 -0.0503  1.8603
  291MPD2     N 4447   4.104   0.228   0.474  0.3674  0.1721 -0.2471
  291MPD2    H5 4448   4.070   0.323   0.487 -1.4757 -0.3737 -1.0764
  291MPD2    N1 4449   3.949   4.521   0.381 -0.6980 -0.4493 -0.2858
  291MPD2    H7 4450   4.047   4.497   0.394 -0.2914  1.7882  0.7285
  292TMC3    C1 4451   3.922   4.297   0.306 -0.2666  0.2947  0.3988
  292TMC3    C2 4452   4.030   4.250   0.376  0.6729  0.6629  0.1679
  292TMC3    C3 4453   4.091   4.133   0.332  0.1531 -0.3484 -0.3541
  292TMC3    C4 4454   3.866   4.224   0.205  0.8613 -0.4152  0.3289
  292TMC3    C5 4455   3.938   4.111   0.161 -0.5942  0.7033 -0.1732
  292TMC3    C6 4456   4.046   4.060   0.226  0.5466 -0.5875 -0.1687
  292TMC3     C 4457   3.858   4.425   0.329  0.7666 -0.1830 -0.4890
  292TMC3     O 4458   3.739   4.433   0.301 -0.1304 -0.0074 -0.6227
  292TMC3     H 4459   4.077   4.302   0.459 -1.9965  0.1110  2.0539
  292TMC3    H1 4460   3.768   4.245   0.164  0.3645 -0.9957  1.2031
  292TMC3    H2 4461   4.093   3.968   0.192  1.3819 -1.1888  2.6367
  292TMC3    C7 4462   3.869   4.002   0.099  0.4593  0.2155  0.4746
  292TMC3    C8 4463   4.182   4.059   0.417  0.0654  0.3411  0.3001
  292TMC3    O1 4464   3.936   3.924   0.031 -0.2124  0.0811 -0.5037
  292TMC3    O2 4465   4.264   3.978   0.375 -0.2786  0.1351  0.4512
  293MPD2     C 4466   0.563   1.357  12.592  0.0296  0.2296  0.1010
  293MPD2    C1 4467   0.527   1.305  12.710 -0.7750  0.6735  0.4618
  293MPD2    C2 4468   0.614   1.311  12.819 -0.4180  0.1442  0.3647
  293MPD2    C3 4469   0.738   1.362  12.809  0.1717  0.5037  0.3163
  293MPD2    C4 4470   0.772   1.428  12.693 -0.0658  0.0534 -0.0639
  293MPD2    C5 4471   0.688   1.427  12.586 -0.2953  0.2884 -0.3789
  293MPD2     H 4472   0.583   1.291  12.920  1.9829 -0.4310  0.9937
  293MPD2    H1 4473   0.865   1.482  12.688 -0.0355  0.2800  2.9287
  293MPD2    H2 4474   0.495   1.369  12.509  0.2391 -1.2388 -0.2728
  293MPD2    H3 4475   0.717   1.489  12.502  2.3736  0.9265  1.0311
  293MPD2     N 4476   0.807   1.373  12.934 -0.5503 -0.1909  0.3991
  293MPD2    H5 4477   0.762   1.344  13.020  0.2636  0.0781  0.9146
  293MPD2    N1 4478   0.394   1.259  12.727 -0.3325  0.4282 -0.3426
  293MPD2    H7 4479   0.333   1.269  12.646 -2.4257  1.2745  1.3351
  294TMC3    C1 4480   0.211   1.137  12.807 -0.0379  0.0425 -0.1796
  294TMC3    C2 4481   0.176   1.030  12.881 -0.3365  0.1885 -0.7881
  294TMC3    C3 4482   0.061   0.966  12.849 -1.3911 -0.8014  0.6153
  294TMC3    C4 4483   0.142   1.178  12.697 -0.0691  0.1145 -0.0578
  294TMC3    C5 4484   0.041   1.095  12.650  0.0563  0.1459 -0.2989
  294TMC3    C6 4485   4.737   0.984  12.727 -0.6682  0.2430  0.0492
  294TMC3     C 4486   0.344   1.194  12.837 -0.6126  0.5878 -0.9095
  294TMC3     O 4487   0.387   1.174  12.948  0.1654 -0.0025 -0.2396
  294TMC3     H 4488   0.237   0.994  12.963  1.3701  1.4152 -1.5277
  294TMC3    H1 4489   0.158   1.276  12.653  0.4888 -1.0474 -2.4479
  294TMC3    H2 4490   4.648   0.925  12.711  1.5087 -4.1112  3.7180
  294TMC3    C7 4491   4.674   1.143  12.563 -0.3248 -0.4927  0.1833
  294TMC3    C8 4492   0.048   0.831  12.905 -0.5666 -0.4062 -0.1898
  294TMC3    O1 4493   4.567   1.085  12.581  0.0670  0.0080  0.3110
  294TMC3    O2 4494   0.054   0.738  12.826  0.2359 -0.6261 -0.8892
  295MPD2     C 4495   1.932   4.728   0.833 -0.0962 -0.3860 -0.8686
  295MPD2    C1 4496   1.900   4.669   0.709 -0.2380  0.7588 -0.5954
  295MPD2    C2 4497   1.783   4.591   0.707 -0.7555 -0.4668 -0.4170
  295MPD2    C3 4498   1.698   4.581   0.818 -0.0697  0.6034  0.2130
  295MPD2    C4 4499   1.733   4.649   0.937 -0.4060  0.0129  0.5942
  295MPD2    C5 4500   1.850   4.714   0.944 -0.6945 -0.0512 -0.0856
  295MPD2     H 4501   1.754   4.544   0.614  0.7836  1.7275 -2.0147
  295MPD2    H1 4502   1.666   4.634   1.021  0.4133  0.7469  1.3781
  295MPD2    H2 4503   2.030   0.035   0.843  0.0041 -1.0833  1.3002
  295MPD2    H3 4504   1.867   0.025   1.039 -0.5448 -1.0356  0.3897
  295MPD2     N 4505   1.572   4.520   0.821  0.4142 -1.1727 -0.4726
  295MPD2    H5 4506   1.525   4.535   0.909  0.7244 -1.9036 -0.1857
  295MPD2    N1 4507   1.985   4.667   0.597  0.3303 -0.1294 -0.5663
  295MPD2    H7 4508   1.945   4.621   0.516 -1.5550  0.1880  0.1803
  296TMC3    C1 4509   1.417   4.356   0.772 -0.6082 -0.1515  0.5027
  296TMC3    C2 4510   1.315   4.398   0.861 -0.6537 -0.4830 -0.4395
  296TMC3    C3 4511   1.246   4.297   0.920  0.4308  0.3811 -0.1661
  296TMC3    C4 4512   1.450   4.217   0.755 -0.4243  1.1240  0.9986
  296TMC3    C5 4513   1.381   4.122   0.822  0.2405  0.6373 -0.0787
  296TMC3    C6 4514   1.280   4.158   0.908 -1.6672  0.0092  0.2651
  296TMC3     C 4515   1.515   4.449   0.721 -0.5224 -0.8994  0.5545
  296TMC3     O 4516   1.559   4.430   0.610  0.3708  0.6109  0.7654
  296TMC3     H 4517   1.296   4.504   0.852  0.7714  0.2126  4.3221
  296TMC3    H1 4518   1.530   4.186   0.690 -0.8395  2.3512 -0.0998
  296TMC3    H2 4519   1.209   4.084   0.942  0.2470 -1.6202  0.7115
  296TMC3    C7 4520   1.425   3.983   0.807  0.5507 -0.0965 -0.5091
  296TMC3    C8 4521   1.132   4.334   1.006 -0.0344  0.0163 -0.3975
  296TMC3    O1 4522   1.489   3.948   0.707 -0.1286 -0.1466 -0.2289
  296TMC3    O2 4523   1.088   4.240   1.070  0.3433  0.2367  0.9496
  297MPD2     C 4524   3.297   1.704  16.361 -0.2690  0.1205 -0.3587
  297MPD2    C1 4525   3.341   1.736  16.236  0.3707  0.5661 -0.0025
  297MPD2    C2 4526   3.470   1.785  16.210  0.2354  0.6100 -0.4907
  297MPD2    C3 4527   3.555   1.800  16.320 -0.6731 -0.2647 -0.5903
  297MPD2    C4 4528   3.506   1.769  16.449  0.3856  0.1902 -0.8118
  297MPD2    C5 4529   3.384   1.722  16.465  1.1532  0.0256  0.4321
  297MPD2     H 4530   3.492   1.817  16.109 -0.2085 -0.3720 -0.8922
  297MPD2    H1 4531   3.563   1.801  16.535  0.5908  1.2962 -1.3575
  297MPD2    H2 4532   3.196   1.667  16.375 -0.7632  0.8389 -2.0900
  297MPD2    H3 4533   3.343   1.702  16.563 -0.2073 -2.2406 -0.5924
  297MPD2     N 4534   3.682   1.850  16.285  0.3868 -0.7860 -0.1078
  297MPD2    H5 4535   3.696   1.875  16.188 -1.1241 -0.3174 -0.2067
  297MPD2    N1 4536   3.255   1.716  16.127  0.7197  0.4225 -0.3252
  297MPD2    H7 4537   3.300   1.713  16.036  0.3975 -0.8307 -0.4504
  298TMC3    C1 4538   3.053   1.712  15.990 -0.5177  0.7764 -0.3299
  298TMC3    C2 4539   3.120   1.667  15.884  0.0083 -0.7799 -0.1361
  298TMC3    C3 4540   3.068   1.684  15.759 -0.2254  0.6699  0.2640
  298TMC3    C4 4541   2.935   1.771  15.977 -0.6619 -1.1269 -0.4051
  298TMC3    C5 4542   2.890   1.794  15.847 -1.1076 -0.3621 -0.1624
  298TMC3    C6 4543   2.949   1.746  15.733  0.4083 -0.2107 -0.5405
  298TMC3     C 4544   3.116   1.720  16.120 -0.2173  0.1003  0.6164
  298TMC3     O 4545   3.043   1.764  16.208  0.1143 -0.8644  0.5447
  298TMC3     H 4546   3.205   1.602  15.899  2.1284  2.6265  2.4459
  298TMC3    H1 4547   2.880   1.791  16.068 -1.2477  1.2526 -1.2596
  298TMC3    H2 4548   2.920   1.777  15.633  0.1990  2.2177  0.2728
  298TMC3    C7 4549   2.780   1.890  15.839  0.5719 -0.3736  0.4527
  298TMC3    C8 4550   3.149   1.629  15.649 -0.2930 -0.7417 -0.0539
  298TMC3    O1 4551   2.755   1.949  15.943  0.1296 -0.1481 -0.7398
  298TMC3    O2 4552   3.248   1.569  15.687  0.0055  0.3467  0.3227
  299MPD2     C 4553   3.601   1.455  10.477 -0.6203 -0.0714  0.9333
  299MPD2    C1 4554   3.595   1.587  10.506  0.4024 -0.1213  0.6363
  299MPD2    C2 4555   3.515   1.672  10.437  0.2830  0.2146  0.0439
  299MPD2    C3 4556   3.430   1.616  10.343 -0.1000  0.5242 -0.0137
  299MPD2    C4 4557   3.433   1.483  10.317 -0.4905  0.8814  0.0628
  299MPD2    C5 4558   3.517   1.400  10.384 -0.1605  0.6651 -0.3771
  299MPD2     H 4559   3.505   1.774  10.471 -0.9950 -0.5117  1.8562
  299MPD2    H1 4560   3.367   1.446  10.240  1.2280 -1.3986 -0.2877
  299MPD2    H2 4561   3.677   1.394  10.525  0.2080  1.4985  1.5971
  299MPD2    H3 4562   3.517   1.294  10.364  2.2185  0.4673  0.7446
  299MPD2     N 4563   3.339   1.695  10.261 -0.0615  0.5594 -0.0945
  299MPD2    H5 4564   3.292   1.653  10.181 -0.6485 -0.5159  0.8173
  299MPD2    N1 4565   3.689   1.635  10.601  0.0152  0.5461  0.1467
  299MPD2    H7 4566   3.748   1.558  10.631 -0.9758 -1.0076 -1.9358
  300TMC3    C1 4567   3.176   1.864  10.217  0.6404 -1.2811  0.1960
  300TMC3    C2 4568   3.188   1.858  10.080  0.0482  0.4064 -0.7070
  300TMC3    C3 4569   3.081   1.846  10.002 -0.6829 -0.5810  1.0234
  300TMC3    C4 4570   3.052   1.836  10.271  0.5131 -0.2161  0.0123
  300TMC3    C5 4571   2.949   1.791  10.193 -0.0194  0.4315 -0.1846
  300TMC3    C6 4572   2.961   1.796  10.055  1.2054  0.4026 -0.6450
  300TMC3     C 4573   3.282   1.813  10.303 -0.7536 -0.3619 -0.2789
  300TMC3     O 4574   3.291   1.872  10.409  0.0492 -0.5641 -0.3041
  300TMC3     H 4575   3.287   1.859  10.037 -0.7133  2.5431 -2.3838
  300TMC3    H1 4576   3.045   1.821  10.378 -0.1141 -1.7462 -0.2411
  300TMC3    H2 4577   2.876   1.778   9.989 -0.4876 -1.0245  1.9268
  300TMC3    C7 4578   2.831   1.721  10.245 -0.7334  0.6403 -0.1922
  300TMC3    C8 4579   3.052   1.971   9.940 -0.4252 -0.0859 -0.5879
  300TMC3    O1 4580   2.791   1.637  10.164  0.1747  0.4864  0.2003
  300TMC3    O2 4581   2.946   1.992   9.883 -0.1133 -0.0950 -0.3704
  301MPD2     C 4582   1.580   2.681   1.269  0.7976  0.3990 -0.4883
  301MPD2    C1 4583   1.474   2.652   1.189 -0.5986  0.7904 -0.2253
  301MPD2    C2 4584   1.458   2.526   1.131  0.4803 -0.1393 -1.1475
  301MPD2    C3 4585   1.554   2.432   1.142 -0.0657 -0.2610 -0.5030
  301MPD2    C4 4586   1.657   2.461   1.236  0.1150 -0.2179 -0.7223
  301MPD2    C5 4587   1.673   2.584   1.296 -0.2376  0.1073 -0.1097
  301MPD2     H 4588   1.377   2.518   1.059 -0.7382 -1.2142  0.3417
  301MPD2    H1 4589   1.737   2.391   1.255  1.8088  2.8667  3.2585
  301MPD2    H2 4590   1.593   2.767   1.333  1.5856 -0.0121 -0.1030
  301MPD2    H3 4591   1.767   2.608   1.345 -0.2787 -0.2508  0.1371
  301MPD2     N 4592   1.543   2.311   1.081  0.3486  0.8266 -0.7933
  301MPD2    H5 4593   1.612   2.244   1.111 -1.5777  0.0147  1.7546
  301MPD2    N1 4594   1.366   2.744   1.163  0.5315  0.3259  0.2816
  301MPD2    H7 4595   1.287   2.713   1.107  0.9788 -0.8709  0.3231
  302TMC3    C1 4596   1.412   2.122   1.020 -0.3681 -0.3354 -0.3746
  302TMC3    C2 4597   1.496   2.040   1.094 -0.1370 -0.2898 -1.1787
  302TMC3    C3 4598   1.494   1.906   1.067 -0.2704 -0.9413  0.4917
  302TMC3    C4 4599   1.307   2.070   0.956  0.0233 -0.0281  0.0709
  302TMC3    C5 4600   1.293   1.934   0.953 -0.3182  0.3695 -0.0210
  302TMC3    C6 4601   1.386   1.848   1.002 -0.3831 -0.3945  0.7759
  302TMC3     C 4602   1.423   2.264   1.021 -0.6642  0.9783 -0.5197
  302TMC3     O 4603   1.336   2.325   0.967 -0.2844 -0.0592  0.6648
  302TMC3     H 4604   1.563   2.094   1.159 -2.2746 -0.0384  0.8188
  302TMC3    H1 4605   1.231   2.132   0.911 -0.0992 -0.0253  0.2845
  302TMC3    H2 4606   1.365   1.742   0.999 -1.5092 -0.1287 -0.6304
  302TMC3    C7 4607   1.189   1.884   0.860 -0.0429 -0.0147  0.7971
  302TMC3    C8 4608   1.627   1.841   1.086 -0.1043  1.0086  0.0975
  302TMC3    O1 4609   1.198   1.767   0.820  0.5332  0.5808 -0.1279
  302TMC3    O2 4610   1.722   1.913   1.128  0.4131 -0.5148  0.1904
  303MPD2     C 4611   1.126   1.847  10.948 -0.2962  0.0183 -0.5257
  303MPD2    C1 4612   1.134   1.713  10.919 -0.1926 -0.0431  0.5167
  303MPD2    C2 4613   1.149   1.670  10.790  0.3533 -0.8866  0.7890
  303MPD2    C3 4614   1.149   1.755  10.681  0.6536 -0.7136  0.2597
  303MPD2    C4 4615   1.145   1.891  10.713  0.5580  0.4613 -0.7746
  303MPD2    C5 4616   1.127   1.938  10.839 -0.0712  0.2591  0.1347
  303MPD2     H 4617   1.139   1.566  10.763 -3.0812  0.1758 -2.0400
  303MPD2    H1 4618   1.141   1.966  10.635  0.3073  1.0510 -0.1971
  303MPD2    H2 4619   1.116   1.882  11.050  0.1362  0.4964 -0.6490
  303MPD2    H3 4620   1.117   2.042  10.867  3.1839  1.1600 -2.1344
  303MPD2     N 4621   1.168   1.705  10.546  0.3117 -0.3800 -0.6977
  303MPD2    H5 4622   1.174   1.777  10.474  0.1741 -3.3123 -3.6466
  303MPD2    N1 4623   1.118   1.620  11.025 -0.4250 -0.1755  0.4237
  303MPD2    H7 4624   1.078   1.657  11.111 -0.2730  2.3872 -0.5969
  304TMC3    C1 4625   1.079   1.414  11.130  0.3916 -1.5458  0.1786
  304TMC3    C2 4626   0.962   1.360  11.083 -0.1879  0.1535 -0.2589
  304TMC3    C3 4627   0.912   1.256  11.154  0.0835  0.8300  0.0754
  304TMC3    C4 4628   1.165   1.335  11.207 -0.4409  0.3047 -0.1010
  304TMC3    C5 4629   1.119   1.223  11.265  0.6260  0.1228  0.0483
  304TMC3    C6 4630   0.986   1.199  11.253 -0.1692 -0.0809  0.2505
  304TMC3     C 4631   1.159   1.489  11.034  0.1302 -0.2025 -0.2099
  304TMC3     O 4632   1.235   1.427  10.956  0.3025 -0.1106  0.2870
  304TMC3     H 4633   0.914   1.396  10.993  1.4289  1.2737 -0.6616
  304TMC3    H1 4634   1.263   1.371  11.237  0.9488 -1.9824 -1.8676
  304TMC3    H2 4635   0.949   1.115  11.312 -2.1614  3.5710  4.1936
  304TMC3    C7 4636   1.208   1.112  11.250  0.6124 -0.5604 -0.0909
  304TMC3    C8 4637   0.835   1.163  11.079 -0.2044 -0.6421 -0.6542
  304TMC3    O1 4638   1.321   1.143  11.287  0.1499  0.7290  0.1976
  304TMC3    O2 4639   0.857   1.048  11.116  0.6785  0.0501  0.5035
  305MPD2     C 4640   4.310   3.173  14.092  0.2721  0.0353 -0.0165
  305MPD2    C1 4641   4.305   3.041  14.138  0.2705  0.2461 -0.2183
  305MPD2    C2 4642   4.306   2.937  14.038  0.8294  0.3200  0.9985
  305MPD2    C3 4643   4.322   2.973  13.906 -0.3432 -0.4397  0.2819
  305MPD2    C4 4644   4.340   3.109  13.865 -0.3120  0.1522 -0.7729
  305MPD2    C5 4645   4.326   3.199  13.961  0.3467 -0.2027 -1.0720
  305MPD2     H 4646   4.298   2.832  14.064  1.1933  0.3886  1.3898
  305MPD2    H1 4647   4.354   3.128  13.760  0.4242 -0.6351 -0.8174
  305MPD2    H2 4648   4.301   3.260  14.156 -2.9679 -0.5026  0.2361
  305MPD2    H3 4649   4.335   3.303  13.933  1.6955  0.3843  1.5756
  305MPD2     N 4650   4.323   2.882  13.801  0.1948  0.6942 -0.2067
  305MPD2    H5 4651   4.369   2.911  13.715 -3.2592  0.6781 -2.0826
  305MPD2    N1 4652   4.306   3.021  14.278  0.6624  0.2133 -0.1623
  305MPD2    H7 4653   4.322   3.101  14.338 -1.5098  0.8147 -0.4048
  306TMC3    C1 4654   4.307   2.882  14.471 -0.0984  0.3635  0.7603
  306TMC3    C2 4655   4.365   2.770  14.515  0.0673 -0.1061 -0.1426
  306TMC3    C3 4656   4.438   2.776  14.636 -0.3082  0.5413 -0.1173
  306TMC3    C4 4657   4.311   2.996  14.547  0.5856  0.0876  0.6342
  306TMC3    C5 4658   4.370   2.996  14.674  0.4970 -0.1722  0.1816
  306TMC3    C6 4659   4.437   2.889  14.715 -0.1545  0.2091  0.0176
  306TMC3     C 4660   4.282   2.894  14.331  0.0546 -0.4343 -0.3397
  306TMC3     O 4661   4.229   2.799  14.282  0.5567  0.4529  0.0041
  306TMC3     H 4662   4.370   2.681  14.452 -1.7550 -1.3361  1.4568
  306TMC3    H1 4663   4.277   3.091  14.507  0.7599 -0.4751 -0.8548
  306TMC3    H2 4664   4.496   2.899  14.806  0.5717  1.5468 -0.5993
  306TMC3    C7 4665   4.348   3.111  14.759  0.3622  0.4566 -1.0081
  306TMC3    C8 4666   4.548   2.684  14.640  0.4446 -0.4060 -0.3466
  306TMC3    O1 4667   4.279   3.198  14.711  0.0124  0.0774 -0.0797
  306TMC3    O2 4668   4.536   2.578  14.574  0.3602 -0.2393  0.0785
  307MPD2     C 4669   2.232   1.623  17.637  0.0671 -0.2955  0.9972
  307MPD2    C1 4670   2.305   1.549  17.731  0.0751  0.1493 -0.2769
  307MPD2    C2 4671   2.302   1.570   0.121  0.3143 -0.0921  0.1722
  307MPD2    C3 4672   2.230   1.679   0.165 -0.7071  0.1534  0.0054
  307MPD2    C4 4673   2.153   1.751   0.070 -0.1947  0.7354  0.3998
  307MPD2    C5 4674   2.161   1.725  17.682  0.6865 -0.1462  0.3018
  307MPD2     H 4675   2.356   1.513   0.196 -1.1336 -1.2649  0.3081
  307MPD2    H1 4676   2.104   1.845   0.093 -1.9157  0.0674 -0.5981
  307MPD2    H2 4677   2.229   1.590  17.534 -1.0632  0.4551  0.7844
  307MPD2    H3 4678   2.123   1.800  17.614  0.3084  0.5052  1.2437
  307MPD2     N 4679   2.239   1.706   0.302  0.4239 -0.3251  0.8437
  307MPD2    H5 4680   2.281   1.633   0.359  0.1540  0.0994  1.5827
  307MPD2    N1 4681   2.390   1.447  17.689  0.5531  0.1159  0.2924
  307MPD2    H7 4682   2.430   1.393   0.017  0.5045  1.0874  1.0148
  308TMC3    C1 4683   2.101   1.668   0.681  0.1461 -0.4864  0.1903
  308TMC3    C2 4684   2.000   1.759   0.715 -0.4656 -0.0661  0.1144
  308TMC3    C3 4685   1.994   1.876   0.654 -1.0643  0.0585 -0.6084
  308TMC3    C4 4686   2.170   1.693   0.567  0.2688  0.1165 -0.2307
  308TMC3    C5 4687   2.161   1.811   0.502  0.2599  0.2375  0.6722
  308TMC3    C6 4688   2.071   1.908   0.548  0.3465 -0.0559  0.7229
  308TMC3     C 4689   2.062   1.528   0.697  0.0872  0.1246 -0.2582
  308TMC3     O 4690   2.131   1.446   0.639  0.0639 -0.1691  0.5396
  308TMC3     H 4691   1.938   1.739   0.801 -0.2728  0.1368  0.3004
  308TMC3    H1 4692   2.232   1.614   0.526  1.1929  0.7317  0.0001
  308TMC3    H2 4693   2.051   1.997   0.489  1.8254 -0.2276 -0.0317
  308TMC3    C7 4694   2.174   1.811   0.357 -0.3605 -0.6355 -0.5561
  308TMC3    C8 4695   1.883   1.957   0.686  0.1178 -0.3045  0.3014
  308TMC3    O1 4696   2.103   1.898   0.302  0.1103  0.3766  0.0470
  308TMC3    O2 4697   1.783   1.904   0.725  0.1253  0.1872 -0.4729
  309MPD2     C 4698   1.375   1.533  17.476  0.5906 -0.0468 -0.5149
  309MPD2    C1 4699   1.327   1.644  17.415  0.8154 -0.3924  0.2985
  309MPD2    C2 4700   1.221   1.704  17.470  0.4005  0.5659 -0.2831
  309MPD2    C3 4701   1.162   1.649  17.583  0.0069 -0.1472  0.0168
  309MPD2    C4 4702   1.227   1.552  17.653 -0.0738  0.1848 -0.1730
  309MPD2    C5 4703   1.325   1.489  17.592 -0.5398  0.3319  0.2343
  309MPD2     H 4704   1.171   1.782  17.413 -1.4218  0.3810  1.0652
  309MPD2    H1 4705   1.189   1.516  17.748  0.3221  1.2355  0.3904
  309MPD2    H2 4706   1.449   1.469  17.430  3.2870  2.7007 -0.0161
  309MPD2    H3 4707   1.373   1.400  17.631  0.6825 -0.0385 -2.0997
  309MPD2     N 4708   1.036   1.683  17.641 -0.5980 -0.2329  0.0935
  309MPD2    H5 4709   1.012   1.641  17.730  0.2288  0.7589  0.7857
  309MPD2    N1 4710   1.366   1.686  17.283  0.6660 -1.1554  0.2705
  309MPD2    H7 4711   1.308   1.747  17.227 -0.3718 -0.4341  2.1117
  310TMC3    C1 4712   1.468   1.655  17.074 -0.0427  0.4693  0.0242
  310TMC3    C2 4713   1.353   1.700  17.010  0.1189  0.2580  0.6678
  310TMC3    C3 4714   1.363   1.722  16.873 -0.4171  0.2185  0.2026
  310TMC3    C4 4715   1.584   1.630  17.006  0.5292 -0.3376  0.1125
  310TMC3    C5 4716   1.583   1.648  16.874  0.3266 -0.8520 -0.1954
  310TMC3    C6 4717   1.478   1.695  16.805 -0.4075 -0.4361  0.6538
  310TMC3     C 4718   1.479   1.640  17.220 -0.1263  0.2525 -0.0967
  310TMC3     O 4719   1.562   1.559  17.249 -0.4267  0.3323 -0.1988
  310TMC3     H 4720   1.258   1.703  17.063  0.7842 -1.0148  1.9575
  310TMC3    H1 4721   1.665   1.585  17.062 -0.4532 -0.2059  1.6763
  310TMC3    H2 4722   1.473   1.675  16.699 -1.9462 -1.2117  0.8674
  310TMC3    C7 4723   1.686   1.595  16.787  0.6079 -0.3131  0.3205
  310TMC3    C8 4724   1.254   1.781  16.797 -0.5114 -0.6388 -0.2808
  310TMC3    O1 4725   1.688   1.620  16.666  0.1583  0.0298 -0.1319
  310TMC3    O2 4726   1.282   1.807  16.681 -0.1431 -0.2109 -0.0560
  311MPD2     C 4727   3.332   2.631  12.772  0.0715  0.0911  0.2494
  311MPD2    C1 4728   3.294   2.755  12.721 -0.7240  0.2490  0.2767
  311MPD2    C2 4729   3.167   2.798  12.744 -0.2273 -0.6270 -0.1364
  311MPD2    C3 4730   3.081   2.719  12.812 -0.6486 -0.3289  0.0240
  311MPD2    C4 4731   3.115   2.598  12.867 -0.5058 -0.1413 -0.1541
  311MPD2    C5 4732   3.242   2.555  12.842  0.3338 -0.1299 -0.5057
  311MPD2     H 4733   3.142   2.895  12.703  1.4771 -0.5485 -1.0241
  311MPD2    H1 4734   3.045   2.535  12.920  2.8412 -1.9408  2.1197
  311MPD2    H2 4735   3.434   2.596  12.762  0.7904  2.5787 -0.9293
  311MPD2    H3 4736   3.273   2.461  12.885 -0.4880  0.5255  1.5172
  311MPD2     N 4737   2.958   2.783  12.839 -0.3527  0.6308 -0.4755
  311MPD2    H5 4738   2.939   2.866  12.783  1.9433  0.9574 -0.7462
  311MPD2    N1 4739   3.383   2.840  12.654  0.4162  0.4834 -0.3091
  311MPD2    H7 4740   3.351   2.936  12.647 -2.7340 -0.4039  2.1366
  312TMC3    C1 4741   2.772   2.862  12.932  0.2355 -0.2332  0.4082
  312TMC3    C2 4742   2.639   2.835  12.961  0.5081 -0.4713  0.6792
  312TMC3    C3 4743   2.559   2.945  12.972 -0.2098  0.6795 -0.9236
  312TMC3    C4 4744   2.821   2.987  12.909 -0.0236  0.2083 -0.0754
  312TMC3    C5 4745   2.734   3.090  12.911  0.0631  0.4777  0.0236
  312TMC3    C6 4746   2.605   3.072  12.943  0.0412 -0.4050  0.4679
  312TMC3     C 4747   2.858   2.743  12.920  0.5064  0.2289  0.6000
  312TMC3     O 4748   2.853   2.647  12.993 -0.1699  0.8557  0.6271
  312TMC3     H 4749   2.604   2.736  12.989  0.1344  0.2763  2.8427
  312TMC3    H1 4750   2.926   3.014  12.915 -0.0175 -0.0646  1.0296
  312TMC3    H2 4751   2.548   3.159  12.972  0.2229 -0.5395  1.2262
  312TMC3    C7 4752   2.807   3.208  12.946 -0.0551 -0.4749  0.1110
  312TMC3    C8 4753   2.420   2.909  12.946  0.3374  1.3274  0.5802
  312TMC3    O1 4754   2.883   3.254  12.862 -0.5752 -0.1753 -0.1840
  312TMC3    O2 4755   2.396   2.787  12.960 -0.0186  0.1030 -0.7026
  313MPD2     C 4756   1.966   2.841  11.791 -0.4946 -0.4998  0.4737
  313MPD2    C1 4757   1.985   2.872  11.656  0.0054 -0.6937  0.1757
  313MPD2    C2 4758   1.980   2.781  11.558 -0.3549  0.2691 -0.0650
  313MPD2    C3 4759   1.963   2.647  11.587  0.4150  0.1838 -0.3816
  313MPD2    C4 4760   1.941   2.613  11.720 -0.0984  0.0934 -0.1372
  313MPD2    C5 4761   1.945   2.704  11.821  0.5072 -0.5765 -0.1268
  313MPD2     H 4762   1.993   2.811  11.454 -1.6180 -1.6365 -0.7829
  313MPD2    H1 4763   1.931   2.510  11.751 -0.8549 -0.0048 -0.7117
  313MPD2    H2 4764   1.976   2.903  11.879  1.5671 -1.2664  0.7815
  313MPD2    H3 4765   1.935   2.679  11.926 -2.0100 -1.6568 -0.6152
  313MPD2     N 4766   1.971   2.559  11.482  0.4244 -0.1326 -0.1494
  313MPD2    H5 4767   1.999   2.604  11.396  1.6049  0.1735  0.3859
  313MPD2    N1 4768   2.007   3.006  11.617 -0.1236  0.2398 -0.2385
  313MPD2    H7 4769   1.997   3.021  11.517 -0.2808  1.1659 -0.0866
  314TMC3    C1 4770   2.060   3.229  11.624 -0.7903  0.5523  0.0841
  314TMC3    C2 4771   2.193   3.267  11.622 -0.0862 -0.5118 -1.3349
  314TMC3    C3 4772   2.241   3.327  11.508 -0.2811  0.3343  0.8956
  314TMC3    C4 4773   1.979   3.267  11.520 -0.6125  0.1701  0.0649
  314TMC3    C5 4774   2.033   3.335  11.412 -0.0389 -0.2929  0.0534
  314TMC3    C6 4775   2.167   3.367  11.401 -0.1561 -0.3839 -0.7767
  314TMC3     C 4776   2.033   3.110  11.703 -0.2743 -0.4282  1.0911
  314TMC3     O 4777   2.089   3.111  11.814  0.4044  0.0146 -0.1126
  314TMC3     H 4778   2.248   3.228  11.706  0.0570  1.3279 -0.5828
  314TMC3    H1 4779   1.878   3.228  11.522 -0.0068 -1.5035 -1.9541
  314TMC3    H2 4780   2.201   3.419  11.312  2.0848  0.1690  0.3751
  314TMC3    C7 4781   1.950   3.355  11.288 -0.1869 -0.3257 -0.0878
  314TMC3    C8 4782   2.386   3.345  11.494  0.6654 -0.2984 -0.5196
  314TMC3    O1 4783   1.833   3.373  11.304  0.3283 -0.3224 -0.2717
  314TMC3    O2 4784   2.428   3.438  11.424  0.2303  0.4658  0.0512
  315MPD2     C 4785   2.734   1.165  17.087 -0.0645 -0.5075 -0.4810
  315MPD2    C1 4786   2.773   1.244  17.194 -0.7638 -0.0811 -0.2325
  315MPD2    C2 4787   2.816   1.373  17.174  0.4467  0.2389  0.7758
  315MPD2    C3 4788   2.810   1.433  17.053 -0.2819 -0.0452 -0.5154
  315MPD2    C4 4789   2.755   1.359  16.943 -0.2519  0.4681  0.1533
  315MPD2    C5 4790   2.731   1.226  16.966  0.1546  0.7933  0.0967
  315MPD2     H 4791   2.843   1.430  17.263  0.5229 -0.7165  1.3610
  315MPD2    H1 4792   2.734   1.403  16.846 -0.0691 -0.6096 -0.3664
  315MPD2    H2 4793   2.705   1.062  17.102 -1.5830 -0.2606 -1.7239
  315MPD2    H3 4794   2.675   1.176  16.888 -2.4468  0.9338  1.9046
  315MPD2     N 4795   2.851   1.573  17.039  0.6466  0.2998 -0.3811
  315MPD2    H5 4796   2.864   1.623  17.126 -0.9120  0.8664 -0.4688
  315MPD2    N1 4797   2.764   1.197  17.331 -0.0269  0.7520 -0.1031
  315MPD2    H7 4798   2.810   1.252  17.403 -1.7036  1.7574  0.1956
  316TMC3    C1 4799   2.869   1.788  16.935 -0.0198 -1.0186  0.8755
  316TMC3    C2 4800   2.944   1.842  17.033  0.3402  0.4971 -0.5474
  316TMC3    C3 4801   2.943   1.977  17.037 -0.5372  0.0165  0.0613
  316TMC3    C4 4802   2.798   1.859  16.844  0.9241  0.7123  0.4733
  316TMC3    C5 4803   2.792   1.996  16.853 -0.1535  0.5410 -0.0899
  316TMC3    C6 4804   2.863   2.055  16.955  0.3912 -0.5403  0.3486
  316TMC3     C 4805   2.866   1.643  16.921 -0.0477  0.2007  0.8297
  316TMC3     O 4806   2.879   1.602  16.808 -0.0504  0.3783 -0.6429
  316TMC3     H 4807   3.008   1.773  17.087  1.1099  2.7720  1.4218
  316TMC3    H1 4808   2.742   1.798  16.774  1.4489  1.0542 -0.2436
  316TMC3    H2 4809   2.861   2.159  16.985  0.2417  0.0549 -1.7366
  316TMC3    C7 4810   2.658   2.047  16.845  0.5044  0.4658 -0.3850
  316TMC3    C8 4811   2.994   2.038  17.158  0.4535  0.1827 -0.3461
  316TMC3    O1 4812   2.619   2.099  16.950  0.2219  0.1608  0.6363
  316TMC3    O2 4813   3.000   2.161  17.155  0.5745  0.0362  0.4407
  317MPD2     C 4814   4.203   0.286  12.699  1.2904  0.3246  0.2332
  317MPD2    C1 4815   4.238   0.154  12.676  0.4884  0.1916 -0.1377
  317MPD2    C2 4816   4.275   0.076  12.781  0.0478  0.1630 -0.1643
  317MPD2    C3 4817   4.276   0.118  12.909 -0.7461 -0.3950  0.0056
  317MPD2    C4 4818   4.249   0.254  12.937  0.1765  0.6962  0.1072
  317MPD2    C5 4819   4.203   0.333  12.830  0.1816  0.1446  0.2218
  317MPD2     H 4820   4.297   4.712  12.749 -2.2549 -0.2389 -0.4701
  317MPD2    H1 4821   4.263   0.291  13.038 -1.6956  1.3406  0.1366
  317MPD2    H2 4822   4.142   0.345  12.632 -0.7938 -0.7072  1.2007
  317MPD2    H3 4823   4.165   0.429  12.860  2.9940  0.9834  1.1130
  317MPD2     N 4824   4.330   0.034  12.998  1.0581 -0.5174  0.0722
  317MPD2    H5 4825   4.327   4.673  12.971 -1.4381 -0.3566 -0.1526
  317MPD2    N1 4826   4.250   0.091  12.550  0.0800 -0.0770  0.1222
  317MPD2    H7 4827   4.286   4.733  12.549 -1.9288 -0.8382 -0.8184
  318TMC3    C1 4828   4.436   4.687  13.182 -0.1670 -0.2073 -0.7767
  318TMC3    C2 4829   4.395   4.554  13.170 -0.3812  0.1186 -0.3470
  318TMC3    C3 4830   4.456   4.456  13.234 -0.2521 -0.4517  1.3260
  318TMC3    C4 4831   4.531   4.709  13.277  0.1532 -0.3849 -0.6662
  318TMC3    C5 4832   4.589   4.606  13.351  0.3496  0.1433 -0.4430
  318TMC3    C6 4833   4.554   4.480  13.325 -0.1993 -0.6675  0.3197
  318TMC3     C 4834   4.378   0.064  13.117 -0.3196  0.1234  0.7672
  318TMC3     O 4835   4.414   0.174  13.159 -0.2650 -0.4993 -0.0076
  318TMC3     H 4836   4.325   4.533  13.090 -0.6268 -1.4415  0.2868
  318TMC3    H1 4837   4.546   0.073  13.312 -0.1084 -0.6834  0.3138
  318TMC3    H2 4838   4.585   4.407  13.399  0.2192 -0.4413  0.3706
  318TMC3    C7 4839   4.704   4.639  13.431  0.4117 -0.2204 -0.3753
  318TMC3    C8 4840   4.437   4.319  13.187  0.3237  0.0504 -0.0730
  318TMC3    O1 4841   4.716   0.017  13.471  0.0079 -0.4812  0.5364
  318TMC3    O2 4842   4.527   4.237  13.208  0.2701  0.5494  0.4039
  319MPD2     C 4843   0.912   1.003  16.555 -0.3529  0.1578  0.5323
  319MPD2    C1 4844   0.847   0.924  16.647 -0.2970 -0.2232 -0.0022
  319MPD2    C2 4845   0.710   0.890  16.625  0.7094  1.1913  0.1849
  319MPD2    C3 4846   0.639   0.954  16.524 -0.1854 -1.0303 -0.4084
  319MPD2    C4 4847   0.697   1.047  16.441  0.3502 -0.0070 -0.0360
  319MPD2    C5 4848   0.833   1.064  16.452 -0.5719 -0.2917 -0.3993
  319MPD2     H 4849   0.665   0.818  16.692  2.9386 -0.9862 -0.6640
  319MPD2    H1 4850   0.646   1.088  16.355  0.8961 -0.3829 -0.5343
  319MPD2    H2 4851   1.018   1.024  16.544 -0.6880  2.3222  1.3245
  319MPD2    H3 4852   0.870   1.129  16.374 -0.7763 -0.9500 -1.0437
  319MPD2     N 4853   0.507   0.908  16.489  0.0277 -0.3993 -0.3851
  319MPD2    H5 4854   0.459   0.965  16.420 -0.5986 -0.8593 -0.3293
  319MPD2    N1 4855   0.915   0.880  16.762  0.3611 -0.0405 -0.2436
  319MPD2    H7 4856   0.868   0.824  16.832 -0.0603 -1.1892 -1.4247
  320TMC3    C1 4857   0.311   0.784  16.495  0.0356  0.7274 -1.4203
  320TMC3    C2 4858   0.258   0.863  16.391  0.4634 -0.2440  0.2494
  320TMC3    C3 4859   0.139   0.818  16.338  0.2693 -0.1508 -0.7564
  320TMC3    C4 4860   0.247   0.670  16.534 -0.6384  0.0135  0.1416
  320TMC3    C5 4861   0.133   0.628  16.471  0.5248  0.0785  0.2297
  320TMC3    C6 4862   0.079   0.706  16.371  0.0417 -0.3509 -0.2313
  320TMC3     C 4863   0.445   0.804  16.553  0.3920 -1.2259  0.1622
  320TMC3     O 4864   0.491   0.717  16.626 -0.2405  0.3671  0.2743
  320TMC3     H 4865   0.314   0.945  16.349 -0.9295  0.1753 -0.7834
  320TMC3    H1 4866   0.296   0.602  16.602 -1.1048  0.2285  0.6899
  320TMC3    H2 4867   4.722   0.688  16.321 -0.6227  0.4302  0.7523
  320TMC3    C7 4868   0.110   0.487  16.448 -0.2390 -0.2103 -0.2997
  320TMC3    C8 4869   0.088   0.891  16.225  0.5262  0.1690  0.0059
  320TMC3    O1 4870   0.065   0.454  16.340 -0.0325 -0.0023  0.5933
  320TMC3    O2 4871   0.114   1.008  16.225  0.2906  0.8014 -0.4756
  321TMC3    C1 4872   1.085   0.842  16.914 -0.0277  0.0123  0.8845
  321TMC3    C2 4873   1.208   0.780  16.921  0.3200  0.0488  0.8061
  321TMC3    C3 4874   1.225   0.702  17.027  0.8480  0.2843  0.2676
  321TMC3    C4 4875   1.011   0.860  17.026  0.5080  0.0004  0.4883
  321TMC3    C5 4876   1.047   0.798  17.142 -0.2844 -0.3673 -0.2684
  321TMC3    C6 4877   1.136   0.698  17.134  0.6190 -0.0922 -0.5580
  321TMC3     C 4878   1.045   0.893  16.788  0.2555  0.2067 -0.4630
  321TMC3     O 4879   1.139   0.924  16.711  0.7381  0.2698 -0.4022
  321TMC3     H 4880   1.277   0.781  16.837  2.2554 -2.1723  2.4141
  321TMC3    H1 4881   0.927   0.929  17.026 -0.2473 -0.9256  2.6538
  321TMC3    H2 4882   1.159   0.635  17.219  1.7680  0.6697 -0.3198
  321TMC3    C7 4883   1.054   0.890  17.259  0.9969 -0.3656  0.9463
  321TMC3    C8 4884   1.357   0.660  17.068 -0.0127  0.1673  0.1020
  321TMC3    O1 4885   0.973   0.986  17.252  0.3169  0.4174  0.2648
  321TMC3    O2 4886   1.380   0.683  17.184  0.2319  0.3213 -0.0739
  322MPD2     C 4887   4.077   2.222  13.730  0.0000 -0.4515 -0.4862
  322MPD2    C1 4888   4.122   2.155  13.845  0.9510 -0.3651  0.0583
  322MPD2    C2 4889   4.178   2.027  13.832 -0.2044 -0.3927  0.2277
  322MPD2    C3 4890   4.196   1.975  13.709 -0.1095  0.5931 -0.3430
  322MPD2    C4 4891   4.165   2.045  13.594 -0.0964 -0.8318 -0.9640
  322MPD2    C5 4892   4.107   2.163  13.607  0.4211  0.1726  0.0750
  322MPD2     H 4893   4.217   1.974  13.918 -0.3352  0.9893  1.1388
  322MPD2    H1 4894   4.183   2.017  13.491  0.2443  1.4462 -1.5158
  322MPD2    H2 4895   4.026   2.318  13.737  2.4436  0.6463  2.3341
  322MPD2    H3 4896   4.074   2.216  13.518  1.6172  1.7749  0.6045
  322MPD2     N 4897   4.262   1.849  13.709 -0.3375  0.2834  0.3743
  322MPD2    H5 4898   4.281   1.803  13.797 -1.1857  1.1001  0.9816
  322MPD2    N1 4899   4.126   2.234  13.958  0.8795  0.9037 -0.2718
  322MPD2    H7 4900   4.090   2.329  13.950 -0.8448  0.4965  2.6887
  323TMC3    C1 4901   4.191   2.298  14.169  0.0620  0.1510 -0.3485
  323TMC3    C2 4902   4.257   2.410  14.127  0.4408 -0.3342  0.5750
  323TMC3    C3 4903   4.362   2.458  14.205 -0.3091 -0.7725  0.2386
  323TMC3    C4 4904   4.223   2.249  14.293 -0.0277  0.6886  0.4626
  323TMC3    C5 4905   4.326   2.304  14.367  0.5314  0.2095  0.6064
  323TMC3    C6 4906   4.398   2.409  14.325 -0.1477 -0.3030  0.5837
  323TMC3     C 4907   4.165   2.191  14.080 -0.0308  0.5484 -0.2188
  323TMC3     O 4908   4.215   2.084  14.107  0.3008  0.0355 -0.0104
  323TMC3     H 4909   4.237   2.460  14.033 -0.2488 -2.1621 -0.2585
  323TMC3    H1 4910   4.162   2.163  14.321  0.5322  0.0347 -0.3349
  323TMC3    H2 4911   4.491   2.449  14.363 -0.0371 -0.8112  0.8346
  323TMC3    C7 4912   4.364   2.232  14.483 -0.7306 -0.3702  0.4590
  323TMC3    C8 4913   4.456   2.547  14.145  0.1193 -0.4125 -0.2574
  323TMC3    O1 4914   4.305   2.127  14.499  0.2378 -0.0164 -0.1242
  323TMC3    O2 4915   4.518   2.626  14.213 -0.5096  1.3312  0.3256
  324MPD2     C 4916   1.007   3.333  14.801  0.0577  0.8096 -0.0731
  324MPD2    C1 4917   1.060   3.424  14.708  0.1747 -0.3376 -0.9276
  324MPD2    C2 4918   0.984   3.463  14.598 -0.2720 -0.1286  0.1158
  324MPD2    C3 4919   0.852   3.416  14.589 -0.0854 -0.2318 -0.5496
  324MPD2    C4 4920   0.798   3.327  14.680  0.1862 -0.1825  0.4057
  324MPD2    C5 4921   0.878   3.286  14.784  0.4394 -0.3256  0.1033
  324MPD2     H 4922   1.031   3.528  14.525 -0.3287 -2.4054 -1.9187
  324MPD2    H1 4923   0.695   3.294  14.676  0.7245 -1.7985 -0.1098
  324MPD2    H2 4924   1.061   3.310  14.892 -0.4631  4.4278  1.1353
  324MPD2    H3 4925   0.831   3.214  14.850 -0.5537 -0.4448 -0.7255
  324MPD2     N 4926   0.773   3.458  14.476  0.2984 -0.0487  0.2012
  324MPD2    H5 4927   0.680   3.417  14.476  0.4462 -0.3657  2.0027
  324MPD2    N1 4928   1.193   3.470  14.712 -0.5557 -0.6069  0.2693
  324MPD2    H7 4929   1.218   3.549  14.654 -1.4730  0.9934  2.0745
  325TMC3    C1 4930   0.682   3.595  14.307  0.1910 -0.4633  0.4642
  325TMC3    C2 4931   0.562   3.536  14.337  0.5468 -0.8983  0.0960
  325TMC3    C3 4932   0.466   3.571  14.246 -0.2971 -0.3673  0.8936
  325TMC3    C4 4933   0.707   3.679  14.202  0.4585 -0.4320 -0.5328
  325TMC3    C5 4934   0.599   3.713  14.127 -0.1053  0.6577 -0.1340
  325TMC3    C6 4935   0.480   3.655  14.144  0.2935 -0.3314  0.0803
  325TMC3     C 4936   0.800   3.552  14.380  0.7348  1.0679  0.0907
  325TMC3     O 4937   0.904   3.603  14.340 -0.4803  0.1563  0.0365
  325TMC3     H 4938   0.542   3.484  14.430 -0.2228  1.6222  1.3283
  325TMC3    H1 4939   0.798   3.732  14.178  1.2545 -2.2508 -1.5248
  325TMC3    H2 4940   0.403   3.665  14.068  1.5553  0.5812 -1.0661
  325TMC3    C7 4941   0.598   3.857  14.094 -0.5074 -0.5617 -0.2337
  325TMC3    C8 4942   0.331   3.536  14.276 -0.1275  1.1185 -0.1813
  325TMC3    O1 4943   0.708   3.912  14.071  0.1480  0.2108  0.0837
  325TMC3    O2 4944   0.283   3.440  14.215  0.5385  0.2922 -0.2576
  326MPD2     C 4945   2.246   4.629  11.167 -0.0711  1.2354  0.3068
  326MPD2    C1 4946   2.213   0.017  11.129 -0.4037  0.3034  0.5654
  326MPD2    C2 4947   2.321   0.090  11.082 -0.0702 -0.4945  0.5100
  326MPD2    C3 4948   2.447   0.052  11.094  0.0754  0.2030 -0.0728
  326MPD2    C4 4949   2.477   4.667  11.134  0.3486 -0.0721  0.7286
  326MPD2    C5 4950   2.375   4.582  11.177 -0.1550 -0.1447 -0.4047
  326MPD2     H 4951   2.308   0.183  11.027  0.7698 -0.4145  0.4431
  326MPD2    H1 4952   2.577   4.626  11.127  0.6632  0.7586  0.3845
  326MPD2    H2 4953   2.166   4.572  11.213  1.0621 -2.0928 -1.8282
  326MPD2    H3 4954   2.397   4.482  11.211  2.4093  0.1876 -1.1208
  326MPD2     N 4955   2.561   0.134  11.054  0.4531 -0.1812  0.1581
  326MPD2    H5 4956   2.649   0.089  11.035  0.5944  0.1201  0.0886
  326MPD2    N1 4957   2.084   0.055  11.109 -0.3548 -0.1022 -0.7076
  326MPD2    H7 4958   2.018   4.716  11.103 -0.3189 -0.3703  2.7323
  327TMC3    C1 4959   1.927   0.197  11.007  0.0134 -0.2680  0.1696
  327TMC3    C2 4960   1.863   0.318  11.033 -0.1428  0.1552  0.8946
  327TMC3    C3 4961   1.856   0.403  10.927  0.1717  0.2391  0.6227
  327TMC3    C4 4962   1.964   0.155  10.889 -0.4453  0.4205 -0.1492
  327TMC3    C5 4963   1.948   0.237  10.781  0.4602 -0.4406  0.2438
  327TMC3    C6 4964   1.890   0.360  10.798  0.6379  0.4840 -0.2576
  327TMC3     C 4965   2.040   0.183  11.099 -0.0702 -0.3860  0.4534
  327TMC3     O 4966   2.102   0.285  11.131  0.0200 -0.6972  0.2478
  327TMC3     H 4967   1.846   0.340  11.138 -2.5182 -1.8902  0.9466
  327TMC3    H1 4968   2.005   0.056  10.875 -2.2673 -0.4370  0.6251
  327TMC3    H2 4969   1.879   0.437  10.722 -0.2727  1.1233  0.5248
  327TMC3    C7 4970   2.056   0.254  10.687  0.4087 -0.3774 -0.4367
  327TMC3    C8 4971   1.807   0.543  10.947 -0.7332  0.1836 -0.3264
  327TMC3    O1 4972   2.065   0.348  10.613 -0.6290  0.0582  0.2164
  327TMC3    O2 4973   1.812   0.621  10.851  0.7362 -0.1038  0.0769
  328MPD2     C 4974   0.605   4.689  17.231  0.3418  0.0143 -0.9926
  328MPD2    C1 4975   0.480   4.668  17.291 -0.2741  0.1487 -0.1442
  328MPD2    C2 4976   0.367   4.682  17.215 -0.0617 -0.1305 -0.1090
  328MPD2    C3 4977   0.378   0.003  17.086 -0.4626 -0.0062  0.3113
  328MPD2    C4 4978   0.501   0.032  17.036 -0.0906 -0.2107  0.0152
  328MPD2    C5 4979   0.613   0.001  17.105 -1.1827  0.0040 -0.2844
  328MPD2     H 4980   0.271   4.658  17.261 -0.1371  0.6824  0.1611
  328MPD2    H1 4981   0.516   0.072  16.937  0.0486  0.8750  0.4741
  328MPD2    H2 4982   0.699   4.682  17.284 -1.0149  0.7886  1.5189
  328MPD2    H3 4983   0.702   0.036  17.055 -1.3400  0.9342  0.0778
  328MPD2     N 4984   0.274   0.055  17.006  0.3696 -0.7617  0.2665
  328MPD2    H5 4985   0.302   0.113  16.928  0.3985 -1.0928  0.0322
  328MPD2    N1 4986   0.483   4.623  17.428 -0.0824  0.5099 -0.6414
  328MPD2    H7 4987   0.575   4.611  17.470 -0.7090  0.3563  0.6875
  329TMC3    C1 4988   0.429   4.578  17.643  0.6336 -0.5786  0.1487
  329TMC3    C2 4989   0.372   4.658  17.741  0.4627  0.2760  0.1650
  329TMC3    C3 4990   0.359   4.596   0.118  0.1200 -0.3821  1.1352
  329TMC3    C4 4991   0.476   4.450  17.673 -0.2529  0.0339  0.6353
  329TMC3    C5 4992   0.447   4.396   0.047 -0.0022  0.5038 -0.4591
  329TMC3    C6 4993   0.388   4.467   0.149  0.0895  0.4550  0.4140
  329TMC3     C 4994   0.382   4.606  17.509 -0.1191  0.1896 -0.2869
  329TMC3     O 4995   0.270   4.657  17.510 -0.8793  0.4729 -0.0490
  329TMC3     H 4996   0.322   0.015  17.725  1.5589  0.8660  0.2891
  329TMC3    H1 4997   0.530   4.398  17.596 -0.1306 -1.3727  1.6735
  329TMC3    H2 4998   0.354   4.438   0.247 -2.7499 -0.2391 -0.7716
  329TMC3    C7 4999   0.459   4.253   0.065  0.1472  0.7749 -0.0584
  329TMC3    C8 5000   0.291   4.683   0.212  1.4694 -0.2920  0.3959
  329TMC3    O1 5001   0.536   4.200  17.735 -0.1755 -0.0276  0.1684
  329TMC3    O2 5002   0.263   0.061   0.176 -0.6692 -0.0828  0.1662
  330TMC3    C1 5003   2.541   4.183   9.256 -0.9084 -0.2286  0.3659
  330TMC3    C2 5004   2.587   4.064   9.202  0.4836  0.4128 -0.0042
  330TMC3    C3 5005   2.720   4.040   9.216 -0.3291  0.2227 -0.6873
  330TMC3    C4 5006   2.622   4.263   9.329  0.0043  0.5977 -0.6012
  330TMC3    C5 5007   2.757   4.229   9.339  0.0859  0.6627  0.3819
  330TMC3    C6 5008   2.808   4.114   9.283  0.4980  0.5557 -0.1335
  330TMC3     C 5009   2.395   4.192   9.249 -0.1428 -0.4570  0.5392
  330TMC3     O 5010   2.331   4.129   9.162 -0.5758 -0.0580  0.2327
  330TMC3     H 5011   2.522   4.005   9.139 -1.5908  1.9107  0.7447
  330TMC3    H1 5012   2.584   4.359   9.362  1.0942  0.6254  0.5370
  330TMC3    H2 5013   2.907   4.075   9.303 -0.7557 -2.2577  0.5365
  330TMC3    C7 5014   2.849   4.322   9.396 -0.7221  0.1629 -0.4005
  330TMC3    C8 5015   2.750   3.893   9.243  0.4849 -0.1841 -0.4756
  330TMC3    O1 5016   2.966   4.307   9.363  1.0979 -0.1556  1.0313
  330TMC3    O2 5017   2.861   3.846   9.231  0.0191  0.0451 -0.1074
  331MPD2     C 5018   4.737   3.004  12.683  0.2078  0.4434 -0.3013
  331MPD2    C1 5019   0.097   3.042  12.589 -0.5106  0.3418 -0.6869
  331MPD2    C2 5020   0.201   2.949  12.553  0.7149 -0.5858  0.5719
  331MPD2    C3 5021   0.205   2.824  12.620  0.0775  0.0656 -0.2878
  331MPD2    C4 5022   0.101   2.797  12.711  0.0920 -0.8405 -0.6171
  331MPD2    C5 5023   4.736   2.884  12.742  0.0504  0.1354 -0.4531
  331MPD2     H 5024   0.288   2.986  12.500 -1.8898  2.7549 -1.3658
  331MPD2    H1 5025   0.096   2.701  12.760  0.5937 -0.7435 -0.3734
  331MPD2    H2 5026   4.654   3.073  12.692 -1.5488 -1.8841  1.2303
  331MPD2    H3 5027   4.665   2.855  12.818  0.4647  1.1781  0.3336
  331MPD2     N 5028   0.310   2.740  12.583 -0.3373 -0.4121  0.1990
  331MPD2    H5 5029   0.377   2.779  12.518 -0.9869 -0.3072 -0.4049
  331MPD2    N1 5030   0.072   3.168  12.530 -0.4131  0.2356  0.2370
  331MPD2    H7 5031   4.732   3.219  12.572  0.1119 -0.1754  1.7256
  332TMC3    C1 5032   0.467   2.563  12.586  0.5922  0.6280  0.3659
  332TMC3    C2 5033   0.527   2.621  12.481  0.7296  0.1692  0.2459
  332TMC3    C3 5034   0.663   2.617  12.464  0.2924 -0.2243 -0.4579
  332TMC3    C4 5035   0.540   2.494  12.679 -0.1417 -0.9355 -0.1743
  332TMC3    C5 5036   0.674   2.485  12.659  0.2490 -0.5790  0.1224
  332TMC3    C6 5037   0.739   2.543  12.551 -0.0681 -0.1147 -0.2438
  332TMC3     C 5038   0.339   2.614  12.635 -0.3593 -0.2653  0.1279
  332TMC3     O 5039   0.280   2.547  12.715  0.1915 -0.2052  0.6346
  332TMC3     H 5040   0.464   2.681  12.417  2.4686  1.6870 -0.0744
  332TMC3    H1 5041   0.495   2.449  12.767 -1.8080  1.8311  0.3928
  332TMC3    H2 5042   0.841   2.526  12.520  0.3964 -0.2936  1.3594
  332TMC3    C7 5043   0.744   2.399  12.745 -0.4977  0.1535 -0.7350
  332TMC3    C8 5044   0.723   2.685  12.348  0.3356  0.4491  0.0402
  332TMC3    O1 5045   0.682   2.324  12.822 -0.8505 -0.3577 -0.8840
  332TMC3    O2 5046   0.834   2.733  12.359  0.0338  0.1046 -0.3951
  333MPD2     C 5047   0.787   3.478  11.413  0.5391  0.1578 -0.2789
  333MPD2    C1 5048   0.765   3.458  11.277  0.4000 -0.3860 -0.2264
  333MPD2    C2 5049   0.692   3.345  11.244 -0.5759 -0.0512  0.9806
  333MPD2    C3 5050   0.662   3.250  11.340 -0.4944  0.2959 -0.4305
  333MPD2    C4 5051   0.691   3.270  11.475 -0.5700 -0.2282 -1.1696
  333MPD2    C5 5052   0.753   3.385  11.512 -0.2388  0.3318  0.2265
  333MPD2     H 5053   0.667   3.322  11.141 -1.6620  0.8564  1.0422
  333MPD2    H1 5054   0.658   3.196  11.547 -0.9337  0.9890 -0.0917
  333MPD2    H2 5055   0.849   3.563  11.443  0.4883 -0.0090  0.3065
  333MPD2    H3 5056   0.769   3.398  11.618 -3.3336  1.6201  0.5335
  333MPD2     N 5057   0.589   3.139  11.291 -0.2863  0.7743 -0.0676
  333MPD2    H5 5058   0.578   3.142  11.191  2.5220 -0.3642 -0.3965
  333MPD2    N1 5059   0.812   3.553  11.188 -0.1614 -0.6857 -0.0073
  333MPD2    H7 5060   0.872   3.627  11.222  0.0275 -0.6272 -0.4614
  334TMC3    C1 5061   0.852   3.662  10.990  0.6811  0.0777 -0.0663
  334TMC3    C2 5062   0.907   3.634  10.872 -0.1665  0.0410  0.4268
  334TMC3    C3 5063   0.981   3.735  10.825 -0.2544 -0.4876 -0.3589
  334TMC3    C4 5064   0.841   3.783  11.050 -0.3062 -0.2919 -0.2238
  334TMC3    C5 5065   0.915   3.883  10.997  0.0945  0.6631 -0.0855
  334TMC3    C6 5066   0.986   3.859  10.882  0.7936 -0.5389 -0.6383
  334TMC3     C 5067   0.793   3.547  11.057 -0.4266  0.5041 -0.3914
  334TMC3     O 5068   0.724   3.477  10.984  0.1290  0.2785  0.3799
  334TMC3     H 5069   0.919   3.534  10.833  1.5015  0.4614 -0.1370
  334TMC3    H1 5070   0.794   3.785  11.148  0.4965 -1.3229  0.1915
  334TMC3    H2 5071   1.048   3.933  10.833  0.4197  0.2624  0.0951
  334TMC3    C7 5072   0.891   4.021  11.039 -0.6120  0.2448  0.2618
  334TMC3    C8 5073   1.076   3.694  10.731 -0.6410  0.7881  0.0891
  334TMC3    O1 5074   0.977   4.105  11.054  0.0225 -0.2275 -0.2204
  334TMC3    O2 5075   1.032   3.637  10.631 -0.5101  0.3233  0.3231
  335TMC3    C1 5076   1.148   4.224  17.436  0.1084  0.2545  0.1638
  335TMC3    C2 5077   1.017   4.233  17.473  0.0702 -0.1486 -0.7523
  335TMC3    C3 5078   0.951   4.355  17.491  0.2705 -0.5646 -0.7752
  335TMC3    C4 5079   1.224   4.339  17.421  0.0957 -0.2389  0.7566
  335TMC3    C5 5080   1.165   4.458  17.462 -0.4321  0.3997  0.2771
  335TMC3    C6 5081   1.028   4.468  17.479  0.9776  0.0590  0.2728
  335TMC3     C 5082   1.221   4.115  17.496  0.7643  0.3794 -0.0628
  335TMC3     O 5083   1.179   4.075  17.606  0.2710 -0.1359 -0.1053
  335TMC3     H 5084   0.963   4.141  17.496 -1.0118  0.5847 -0.3536
  335TMC3    H1 5085   1.332   4.341  17.413  0.0694  1.5078  1.0026
  335TMC3    H2 5086   0.986   4.567  17.495  0.5596 -0.0345 -0.2446
  335TMC3    C7 5087   1.253   4.576  17.438  0.2047 -0.3475 -0.4991
  335TMC3    C8 5088   0.823   4.358  17.420  0.4745  0.5229 -0.2830
  335TMC3    O1 5089   1.342   4.560  17.355  0.0112 -0.5208  0.0018
  335TMC3    O2 5090   0.816   4.456  17.345 -0.6199  0.3264 -0.1602
  336MPD2     C 5091   0.348   2.270  16.431 -0.0513  0.6765 -0.3412
  336MPD2    C1 5092   0.417   2.199  16.338  0.0459 -0.0003 -0.1218
  336MPD2    C2 5093   0.468   2.072  16.374  0.2777 -0.5522 -0.0253
  336MPD2    C3 5094   0.444   2.030  16.505  0.0321 -0.0746 -0.3202
  336MPD2    C4 5095   0.363   2.106  16.591  0.4131  0.0980 -0.0587
  336MPD2    C5 5096   0.322   2.231  16.556 -0.1523 -0.6491 -0.0306
  336MPD2     H 5097   0.517   2.002  16.307  1.4808  0.6884 -0.4372
  336MPD2    H1 5098   0.336   2.077  16.692  1.4855 -0.2044  0.1295
  336MPD2    H2 5099   0.322   2.373  16.407  0.0338  1.0262  1.0837
  336MPD2    H3 5100   0.268   2.291  16.628  0.1141 -0.7634  0.2650
  336MPD2     N 5101   0.462   1.895  16.548 -0.5048  0.1068 -0.0956
  336MPD2    H5 5102   0.428   1.880  16.642  1.3200 -1.4968  0.3019
  336MPD2    N1 5103   0.430   2.227  16.196 -0.0901  0.2526  0.1983
  336MPD2    H7 5104   0.468   2.151  16.141 -2.8037 -0.3731 -0.8397
  337TMC3    C1 5105   0.376   2.355  15.992  0.2773  0.6944  0.1621
  337TMC3    C2 5106   0.280   2.436  15.938 -0.8465  0.0345 -0.1141
  337TMC3    C3 5107   0.255   2.433  15.804 -0.5482  0.3664  0.5446
  337TMC3    C4 5108   0.448   2.276  15.903 -0.1596 -1.1392 -0.1927
  337TMC3    C5 5109   0.418   2.272  15.769  0.1715 -0.3267 -0.1672
  337TMC3    C6 5110   0.320   2.348  15.719 -0.8547  0.2122 -0.3807
  337TMC3     C 5111   0.384   2.345  16.140 -0.5148 -0.3699 -0.0550
  337TMC3     O 5112   0.327   2.436  16.200 -0.2127  0.1865 -0.1269
  337TMC3     H 5113   0.210   2.481  16.006 -2.5371 -2.7742 -0.0177
  337TMC3    H1 5114   0.517   2.205  15.947  0.6323  1.0303  2.1085
  337TMC3    H2 5115   0.292   2.337  15.615  0.5595 -1.1132 -0.6268
  337TMC3    C7 5116   0.491   2.179  15.688 -0.3298 -0.6067  0.2267
  337TMC3    C8 5117   0.129   2.485  15.755  0.1246  0.6319 -0.3832
  337TMC3    O1 5118   0.463   2.182  15.569  0.3604  0.6853  0.2783
  337TMC3    O2 5119   0.091   2.579  15.827 -0.3353  0.1207  0.0225
  338MPD2     C 5120   1.220   1.716   1.265  0.3766  0.8331  0.2863
  338MPD2    C1 5121   1.113   1.695   1.178  0.6042 -0.1336  0.0486
  338MPD2    C2 5122   1.005   1.785   1.169 -0.2575  0.1818  0.5635
  338MPD2    C3 5123   1.000   1.893   1.251  0.6690  0.3884  0.1407
  338MPD2    C4 5124   1.107   1.916   1.340 -0.7154 -0.3412 -0.2658
  338MPD2    C5 5125   1.216   1.829   1.348 -0.2788  0.4743 -0.9024
  338MPD2     H 5126   0.927   1.767   1.097  0.6145  0.0626 -0.3518
  338MPD2    H1 5127   1.116   2.007   1.398 -0.0620 -0.9941  0.6588
  338MPD2    H2 5128   1.293   1.638   1.285  0.7326  1.0816 -0.0500
  338MPD2    H3 5129   1.298   1.847   1.416  0.0086  1.6367 -1.5546
  338MPD2     N 5130   0.887   1.975   1.242 -0.3127  0.6800  0.3553
  338MPD2    H5 5131   0.809   1.946   1.184  1.1439  0.4652 -1.4787
  338MPD2    N1 5132   1.099   1.581   1.092  0.0853  0.0396 -0.1019
  338MPD2    H7 5133   1.011   1.577   1.042  0.0285 -1.4997  0.1111
  339TMC3    C1 5134   0.729   2.134   1.304  0.8577 -0.1398  0.1021
  339TMC3    C2 5135   0.654   2.153   1.415 -0.4504  1.2015  0.2848
  339TMC3    C3 5136   0.517   2.160   1.406  0.3990  0.6174 -0.2120
  339TMC3    C4 5137   0.669   2.109   1.185 -0.6077 -0.4352  0.0212
  339TMC3    C5 5138   0.535   2.111   1.174 -0.1370 -0.9367 -0.1713
  339TMC3    C6 5139   0.455   2.137   1.283  0.1688  0.1136  0.2136
  339TMC3     C 5140   0.867   2.086   1.318 -0.1148 -0.7597  0.2657
  339TMC3     O 5141   0.941   2.152   1.388  0.2616  0.0364 -0.4321
  339TMC3     H 5142   0.704   2.163   1.511  1.4379  1.4173 -0.7204
  339TMC3    H1 5143   0.731   2.083   1.100  0.2729 -1.1887  0.8930
  339TMC3    H2 5144   0.348   2.152   1.278  0.2351  0.3960 -0.3696
  339TMC3    C7 5145   0.480   2.081   1.045  0.0707  1.1376 -0.1306
  339TMC3    C8 5146   0.432   2.214   1.516 -0.0249  0.2617 -0.1266
  339TMC3    O1 5147   0.556   2.089   0.945 -0.3410  0.6058  0.3852
  339TMC3    O2 5148   0.483   2.303   1.585  0.5990 -0.4486  0.0500
  340MPD2     C 5149   0.272   4.299  10.496  0.0415 -0.6142  0.2610
  340MPD2    C1 5150   0.374   4.359  10.425 -0.1000 -0.1918  0.2479
  340MPD2    C2 5151   0.492   4.392  10.487 -0.4731  0.1854  0.0123
  340MPD2    C3 5152   0.506   4.377  10.624 -0.5850  0.3127 -0.0834
  340MPD2    C4 5153   0.404   4.312  10.692  0.1672 -0.2113 -0.0778
  340MPD2    C5 5154   0.286   4.275  10.627  0.7646  0.0863 -0.9710
  340MPD2     H 5155   0.568   4.440  10.427 -0.2832 -3.4572 -2.7072
  340MPD2    H1 5156   0.427   4.284  10.794 -1.6230 -0.0794  0.3550
  340MPD2    H2 5157   0.179   4.277  10.446  1.2546  0.7229 -2.5876
  340MPD2    H3 5158   0.207   4.226  10.682  1.0645 -0.0991 -0.7069
  340MPD2     N 5159   0.620   4.420  10.696  0.3654  0.0588 -0.1696
  340MPD2    H5 5160   0.647   4.377  10.784  1.2935 -0.0965 -0.5296
  340MPD2    N1 5161   0.362   4.357  10.282 -0.0731 -0.0177 -0.3626
  340MPD2    H7 5162   0.273   4.328  10.243 -1.1756  2.7436  0.1162
  341TMC3    C1 5163   0.402   4.419  10.054  0.2665  0.0214  0.4540
  341TMC3    C2 5164   0.326   4.318  10.013 -0.0618  0.1274  0.0737
  341TMC3    C3 5165   0.308   4.286   9.880 -0.9809  0.0816  0.2786
  341TMC3    C4 5166   0.461   4.501   9.959  0.5944 -0.7123  1.1001
  341TMC3    C5 5167   0.449   4.466   9.829  0.2060 -0.2786  0.4775
  341TMC3    C6 5168   0.363   4.371   9.787  0.6201  0.4274  0.0984
  341TMC3     C 5169   0.450   4.419  10.191 -0.2778  0.2059 -0.3585
  341TMC3     O 5170   0.552   4.480  10.214 -0.0871  0.6718 -0.7288
  341TMC3     H 5171   0.281   4.249  10.083  1.5255 -0.8381  0.1408
  341TMC3    H1 5172   0.526   4.582   9.990 -1.9664  1.6557  0.3401
  341TMC3    H2 5173   0.365   4.344   9.682 -0.1550  0.9403 -0.0520
  341TMC3    C7 5174   0.562   4.471   9.737 -0.6085  0.5610 -0.8602
  341TMC3    C8 5175   0.206   4.195   9.840 -0.2065  0.3198  0.1586
  341TMC3    O1 5176   0.579   4.382   9.652 -0.2461 -0.6594  0.5844
  341TMC3    O2 5177   0.184   4.101   9.914  0.2327  0.0008  0.1182
  342MPD2     C 5178   3.326   2.636  17.500  0.5344 -0.2989 -0.3669
  342MPD2    C1 5179   3.441   2.662  17.429  0.2463 -0.3597  0.1390
  342MPD2    C2 5180   3.493   2.790  17.418 -0.3608 -0.3576 -0.4427
  342MPD2    C3 5181   3.443   2.900  17.486  0.1758 -0.0790 -0.1677
  342MPD2    C4 5182   3.333   2.875  17.563 -0.1047  0.2037  0.2361
  342MPD2    C5 5183   3.278   2.751  17.566 -0.3520  0.3511 -0.4177
  342MPD2     H 5184   3.578   2.796  17.352 -1.8533  1.9355 -2.1346
  342MPD2    H1 5185   3.290   2.957  17.619 -1.5590 -0.4047  0.0217
  342MPD2    H2 5186   3.283   2.536  17.501  1.6115 -0.7293  2.2085
  342MPD2    H3 5187   3.190   2.738  17.628 -0.8495 -0.8081 -1.3684
  342MPD2     N 5188   3.505   3.025  17.488 -0.1234 -0.6925 -0.1330
  342MPD2    H5 5189   3.465   3.098  17.545 -1.1125 -0.3647 -1.2593
  342MPD2    N1 5190   3.506   2.562  17.349 -0.4233  0.1438 -0.3746
  342MPD2    H7 5191   3.575   2.597  17.283 -0.0198 -1.4898 -0.8306
  343TMC3    C1 5192   3.506   2.354  17.224 -0.4823  0.3608 -0.1450
  343TMC3    C2 5193   3.588   2.408  17.125 -0.1105  0.3119  0.5602
  343TMC3    C3 5194   3.619   2.323  17.021  0.4419  0.2394  0.5065
  343TMC3    C4 5195   3.450   2.228  17.212 -0.6982  0.1267 -0.1259
  343TMC3    C5 5196   3.474   2.155  17.104  0.0574  0.4724  0.4352
  343TMC3    C6 5197   3.559   2.200  16.999 -0.4431 -0.4616  1.2004
  343TMC3     C 5198   3.463   2.428  17.345  0.3583 -0.1305  0.2317
  343TMC3     O 5199   3.403   2.364  17.433 -0.0375  0.2542  0.2365
  343TMC3     H 5200   3.649   2.497  17.140 -1.1867  1.0596  0.5359
  343TMC3    H1 5201   3.379   2.196  17.287 -0.8143 -1.4875 -0.9154
  343TMC3    H2 5202   3.573   2.132  16.916  2.9808  1.6499  0.0459
  343TMC3    C7 5203   3.426   2.013  17.107 -0.2716  0.2182 -0.6233
  343TMC3    C8 5204   3.768   2.312  17.018 -0.0054  0.1378  0.0723
  343TMC3    O1 5205   3.438   1.938  17.009 -0.3006  0.3344  0.1795
  343TMC3    O2 5206   3.835   2.396  17.079  0.5516 -0.3014  0.2846
  344MPD2     C 5207   4.424   1.949  10.589 -0.5695  0.2364 -0.2450
  344MPD2    C1 5208   4.311   2.017  10.617  0.6479 -0.6207 -0.6607
  344MPD2    C2 5209   4.297   2.146  10.578  0.2458  1.0069  1.0573
  344MPD2    C3 5210   4.399   2.210  10.508  0.2862  0.0651  0.4909
  344MPD2    C4 5211   4.516   2.141  10.486  0.0995 -0.0898  0.0284
  344MPD2    C5 5212   4.526   2.009  10.521 -0.4430  0.0512 -0.0339
  344MPD2     H 5213   4.204   2.198  10.597 -0.1556  0.6653  0.0169
  344MPD2    H1 5214   4.607   2.183  10.444 -1.0068  2.8976  0.6612
  344MPD2    H2 5215   4.430   1.842  10.603 -1.5897 -0.1127 -2.4711
  344MPD2    H3 5216   4.613   1.950  10.494  0.0777  1.7382 -2.0847
  344MPD2     N 5217   4.387   2.339  10.452 -0.2585  0.2397 -0.1528
  344MPD2    H5 5218   4.457   2.359  10.380  0.6273  0.0711  0.6555
  344MPD2    N1 5219   4.201   1.950  10.667  1.2394  0.5089  0.4345
  344MPD2    H7 5220   4.115   2.004  10.664  0.7260 -0.3253  0.0573
  345TMC3    C1 5221   4.309   2.553  10.394  0.4869  0.1117  0.4880
  345TMC3    C2 5222   4.435   2.595  10.363  0.1843 -0.1945  0.7599
  345TMC3    C3 5223   4.445   2.680  10.255 -0.0351 -0.6391  0.1731
  345TMC3    C4 5224   4.198   2.599  10.330  0.4503 -0.4707  0.6074
  345TMC3    C5 5225   4.200   2.694  10.227  0.3913  0.3789 -0.6154
  345TMC3    C6 5226   4.334   2.722  10.181 -0.0217  0.2727  0.8750
  345TMC3     C 5227   4.292   2.434  10.476  0.3425  0.0649 -0.0959
  345TMC3     O 5228   4.187   2.424  10.545  0.0637 -0.3431 -0.6887
  345TMC3     H 5229   4.511   2.575  10.437  1.4033 -0.7666 -0.6575
  345TMC3    H1 5230   4.105   2.568  10.375 -0.2164  0.4616 -0.1251
  345TMC3    H2 5231   4.351   2.795  10.102  0.1281 -3.4776 -2.5676
  345TMC3    C7 5232   4.134   2.823  10.257 -0.6155 -0.1830  0.3435
  345TMC3    C8 5233   4.526   2.800  10.287 -0.1513 -0.3041 -0.0884
  345TMC3    O1 5234   4.177   2.920  10.200  0.2921 -0.6780  0.8526
  345TMC3    O2 5235   4.607   2.850  10.206 -0.4961  0.5008  0.3848
  346MPD2     C 5236   4.120   3.935  14.126  0.4260  0.2725  0.8702
  346MPD2    C1 5237   4.242   3.956  14.067  0.2859  0.1057  1.1598
  346MPD2    C2 5238   4.347   3.985  14.145  0.2253 -0.3251  0.8919
  346MPD2    C3 5239   4.332   4.020  14.274 -0.0396 -0.5532 -0.0051
  346MPD2    C4 5240   4.207   4.000  14.334 -0.4162 -0.0627  0.3237
  346MPD2    C5 5241   4.100   3.964  14.258 -0.6406  0.7221 -0.0325
  346MPD2     H 5242   4.446   3.994  14.101 -0.3041  2.2883  0.1777
  346MPD2    H1 5243   4.188   4.021  14.439  0.3373  3.0334 -0.1503
  346MPD2    H2 5244   4.038   3.894  14.069  0.8816 -0.6359  0.8683
  346MPD2    H3 5245   4.001   3.948  14.297 -0.2534 -0.1766  0.6038
  346MPD2     N 5246   4.449   4.069  14.344  0.0361 -0.2040  0.5366
  346MPD2    H5 5247   4.539   4.060  14.297  0.5476  0.6568  1.3445
  346MPD2    N1 5248   4.269   3.936  13.934 -0.3589  0.3552 -0.3226
  346MPD2    H7 5249   4.360   3.968  13.902 -0.2821  0.5399  0.0806
  347TMC3    C1 5250   4.562   4.141  14.542 -0.1654  0.5553  0.3708
  347TMC3    C2 5251   4.681   4.168  14.471 -0.0061  0.0632 -0.2820
  347TMC3    C3 5252   0.067   4.143  14.537  0.0276 -0.0934 -0.4438
  347TMC3    C4 5253   4.567   4.075  14.663 -0.2822 -0.8709  0.7801
  347TMC3    C5 5254   4.691   4.037  14.712 -0.0310 -0.0194  0.0689
  347TMC3    C6 5255   0.069   4.081  14.657  0.0717  0.2995  0.0008
  347TMC3     C 5256   4.438   4.120  14.471  0.0225 -0.3618  0.4262
  347TMC3     O 5257   4.343   4.128  14.553 -0.5005  0.1023  0.0053
  347TMC3     H 5258   4.674   4.203  14.369 -0.8501 -0.8833 -0.5469
  347TMC3    H1 5259   4.475   4.051  14.716 -0.9221  0.3639  0.2381
  347TMC3    H2 5260   0.165   4.072  14.707  0.4520  1.1421 -0.5577
  347TMC3    C7 5261   4.693   3.917  14.788  0.2370  0.0176 -0.0177
  347TMC3    C8 5262   0.181   4.126  14.463 -0.4719  0.1335  0.0344
  347TMC3    O1 5263   4.587   3.865  14.814 -0.5238 -0.5624  0.1943
  347TMC3    O2 5264   0.257   4.037  14.502  0.1289 -0.0842 -0.3164
  348MPD2     C 5265   3.279   3.631  12.036  0.8777 -0.2724 -0.9954
  348MPD2    C1 5266   3.354   3.582  11.929  0.1793 -0.3124 -0.0127
  348MPD2    C2 5267   3.341   3.651  11.809  0.2568 -0.0658  0.3892
  348MPD2    C3 5268   3.257   3.753  11.802 -0.1287  0.1811 -0.3822
  348MPD2    C4 5269   3.183   3.795  11.910 -0.2295  0.3579 -0.3502
  348MPD2    C5 5270   3.193   3.735  12.030 -0.2184  0.1869 -0.6389
  348MPD2     H 5271   3.405   3.614  11.730 -1.3280 -0.3701 -0.7380
  348MPD2    H1 5272   3.114   3.879  11.903 -2.8792 -1.8416 -0.8447
  348MPD2    H2 5273   3.292   3.589  12.136 -0.0243  0.1353 -0.7099
  348MPD2    H3 5274   3.141   3.772  12.118  0.0602  0.1644 -0.4630
  348MPD2     N 5275   3.236   3.804  11.672  0.0053 -0.0945  0.5611
  348MPD2    H5 5276   3.295   3.770  11.596 -0.7939  0.9148 -0.5154
  348MPD2    N1 5277   3.440   3.471  11.936 -0.0225  0.4872  0.1502
  348MPD2    H7 5278   3.497   3.449  11.855 -1.1285 -0.2909 -0.4057
  349TMC3    C1 5279   3.541   3.273  11.995  0.3458  0.3828  0.5764
  349TMC3    C2 5280   3.511   3.167  12.082 -0.2294 -0.8215  0.9994
  349TMC3    C3 5281   3.485   3.041  12.038  0.0166 -0.2461 -0.5969
  349TMC3    C4 5282   3.547   3.255  11.863 -0.0603  0.1894 -0.1417
  349TMC3    C5 5283   3.506   3.130  11.822 -0.6835 -0.2354  0.4361
  349TMC3    C6 5284   3.491   3.018  11.906  0.2621 -0.1862  0.1731
  349TMC3     C 5285   3.468   3.390  12.039 -0.0032 -0.3497  0.5903
  349TMC3     O 5286   3.433   3.402  12.157 -0.4087 -0.0016  0.1053
  349TMC3     H 5287   3.530   3.176  12.189  0.7872 -0.1103  0.7566
  349TMC3    H1 5288   3.561   3.334  11.790 -0.4794 -1.6148 -2.1624
  349TMC3    H2 5289   3.463   2.924  11.861 -2.1642  0.8334 -0.4646
  349TMC3    C7 5290   3.425   3.126  11.699 -0.0155 -0.4471 -0.4163
  349TMC3    C8 5291   3.536   2.939  12.126 -0.7607 -0.5464  0.5892
  349TMC3    O1 5292   3.472   3.088  11.595 -0.3365 -0.8490  0.1257
  349TMC3    O2 5293   3.513   2.945  12.247  0.5830 -0.1547  0.2196
  350MPD2     C 5294   2.285   2.232  10.581 -0.0243  0.5891  0.3635
  350MPD2    C1 5295   2.177   2.151  10.606  0.3305  0.1238 -0.2862
  350MPD2    C2 5296   2.104   2.160  10.719  0.2217  0.3681  0.6167
  350MPD2    C3 5297   2.139   2.254  10.813 -0.2492  0.0145 -0.0194
  350MPD2    C4 5298   2.244   2.336  10.786 -0.0095  0.4788 -0.4999
  350MPD2    C5 5299   2.318   2.325  10.672  0.2241  0.1690 -0.3709
  350MPD2     H 5300   2.017   2.095  10.721 -1.0798  2.1797  2.6558
  350MPD2    H1 5301   2.275   2.413  10.857 -0.8027 -0.5789  1.0025
  350MPD2    H2 5302   2.346   2.217  10.493  0.0088  2.8090  0.0179
  350MPD2    H3 5303   2.408   2.381  10.646  1.4492 -0.0844  3.4315
  350MPD2     N 5304   2.080   2.251  10.941  0.9929 -1.1156 -0.4066
  350MPD2    H5 5305   2.020   2.169  10.947 -0.4833 -0.0564 -0.6977
  350MPD2    N1 5306   2.140   2.048  10.520 -1.0782  0.0811  0.9505
  350MPD2    H7 5307   2.064   1.987  10.550 -0.7348 -0.3315  0.9885
  351TMC3    C1 5308   2.123   1.886  10.347 -0.2197 -0.0119  0.1405
  351TMC3    C2 5309   2.192   1.815  10.249  0.2816 -0.6989 -0.2662
  351TMC3    C3 5310   2.123   1.713  10.181  0.4826  0.5074  0.4426
  351TMC3    C4 5311   1.996   1.842  10.390  0.3946 -0.4515  0.3584
  351TMC3    C5 5312   1.938   1.726  10.333 -0.5801  0.1492  0.1332
  351TMC3    C6 5313   2.003   1.665  10.227 -0.1631  0.1059 -0.3657
  351TMC3     C 5314   2.196   2.001  10.412  0.0001  0.2288 -0.2662
  351TMC3     O 5315   2.308   2.025  10.369 -0.3502  0.6229  0.6773
  351TMC3     H 5316   2.273   1.870  10.201 -1.6350  1.3080 -1.2136
  351TMC3    H1 5317   1.926   1.888  10.459  1.7977  2.9058 -0.4728
  351TMC3    H2 5318   1.943   1.606  10.159 -1.2254 -1.2508  1.7390
  351TMC3    C7 5319   1.829   1.660  10.400 -0.3047 -0.4271 -0.0945
  351TMC3    C8 5320   2.174   1.637  10.072  0.1646 -0.3258  0.1893
  351TMC3    O1 5321   1.785   1.712  10.503 -0.9530  0.2121  0.2832
  351TMC3    O2 5322   2.093   1.573  10.005 -0.1285  0.1320 -0.5780
  352MPD2     C 5323   1.168   3.608   0.770 -0.3725 -0.1250 -0.3313
  352MPD2    C1 5324   1.121   3.627   0.893 -0.2975 -0.5288 -0.5054
  352MPD2    C2 5325   1.146   3.528   0.989  0.8217 -0.4875  0.2185
  352MPD2    C3 5326   1.198   3.409   0.948  0.3360 -0.3024 -0.4455
  352MPD2    C4 5327   1.244   3.388   0.821 -0.0105 -0.2343 -1.2717
  352MPD2    C5 5328   1.231   3.491   0.733 -0.1399 -0.4535 -0.0604
  352MPD2     H 5329   1.102   3.537   1.087 -1.3731 -1.6608 -0.6314
  352MPD2    H1 5330   1.279   3.290   0.788  0.2312 -0.5201 -0.1886
  352MPD2    H2 5331   1.158   3.687   0.697 -1.7268 -1.2170 -1.3382
  352MPD2    H3 5332   1.266   3.480   0.631  1.5333  4.1288  0.0047
  352MPD2     N 5333   1.191   3.293   1.028  0.0039  0.2432  0.2710
  352MPD2    H5 5334   1.239   3.213   0.988  0.3458 -0.3429  1.8388
  352MPD2    N1 5335   1.077   3.754   0.930 -0.0825  0.2912  0.2260
  352MPD2    H7 5336   1.084   3.827   0.860 -2.0479  0.2178 -0.0388
  353TMC3    C1 5337   1.121   3.137   1.193  0.4806  0.0860 -0.1809
  353TMC3    C2 5338   1.244   3.079   1.191 -0.0149 -0.3755 -0.5441
  353TMC3    C3 5339   1.243   2.943   1.187  0.3353 -0.1689  0.0995
  353TMC3    C4 5340   1.003   3.072   1.210 -0.2451 -0.3474  0.0257
  353TMC3    C5 5341   1.011   2.932   1.211  0.7067  0.4695 -0.6050
  353TMC3    C6 5342   1.132   2.872   1.203  0.1331  0.7030  0.4984
  353TMC3     C 5343   1.114   3.275   1.141  0.8201 -0.0369  0.2235
  353TMC3     O 5344   1.039   3.358   1.187 -0.3062  0.1858 -0.3739
  353TMC3     H 5345   1.330   3.145   1.183 -0.1162  0.0784  2.2601
  353TMC3    H1 5346   0.910   3.127   1.210 -1.0016 -1.6169  0.1636
  353TMC3    H2 5347   1.143   2.765   1.218  0.4574  0.3286 -2.4162
  353TMC3    C7 5348   0.902   2.854   1.167  0.4158  0.3291 -0.9389
  353TMC3    C8 5349   1.373   2.879   1.199 -0.1088  0.0759 -0.2182
  353TMC3    O1 5350   0.939   2.744   1.126 -0.1586  0.3239  0.4411
  353TMC3    O2 5351   1.479   2.945   1.229 -0.0711 -0.4297 -0.0410
  354TMC3    C1 5352   1.991   4.340  13.356 -0.6218 -0.2961  0.5611
  354TMC3    C2 5353   1.977   4.476  13.339 -0.2990  0.4716 -0.7622
  354TMC3    C3 5354   1.963   4.524  13.212  0.7242 -0.1932  0.0502
  354TMC3    C4 5355   1.999   4.248  13.252 -0.9259 -0.8985 -1.3942
  354TMC3    C5 5356   1.999   4.310  13.125 -0.6566  0.1177  0.0329
  354TMC3    C6 5357   1.961   4.439  13.103  0.6968 -0.2317  0.2906
  354TMC3     C 5358   2.024   4.300  13.495 -0.0020  0.1225  0.2685
  354TMC3     O 5359   2.002   4.376  13.587 -0.1470  0.5566 -0.3579
  354TMC3     H 5360   1.984   4.539  13.427 -0.9774  0.2973 -0.5791
  354TMC3    H1 5361   2.043   4.149  13.261 -2.8128 -1.3809  2.5481
  354TMC3    H2 5362   1.943   4.467  13.000  0.4636  0.6995  0.5827
  354TMC3    C7 5363   2.111   4.264  13.041  0.0076  0.1481  0.1581
  354TMC3    C8 5364   2.014   4.652  13.172  0.4086  0.2624 -0.4963
  354TMC3    O1 5365   2.144   4.149  13.037 -0.5413  0.1591  0.2738
  354TMC3    O2 5366   2.066   4.652  13.059  0.2443 -0.3870 -0.3951
  355MPD2     C 5367   2.302   1.186  11.480  0.3967  0.5323  0.6300
  355MPD2    C1 5368   2.420   1.162  11.408 -0.0627  0.2382 -0.2009
  355MPD2    C2 5369   2.510   1.062  11.450 -0.3794  1.1171 -0.2455
  355MPD2    C3 5370   2.479   0.981  11.558 -0.6071  0.2289 -0.7892
  355MPD2    C4 5371   2.353   0.995  11.612 -0.2465  0.1722  0.5121
  355MPD2    C5 5372   2.268   1.106  11.582 -0.2900  0.3835  0.5982
  355MPD2     H 5373   2.611   1.060  11.412 -0.1142 -1.7332  0.5825
  355MPD2    H1 5374   2.329   0.927  11.692 -0.4995 -0.6303 -0.2386
  355MPD2    H2 5375   2.240   1.273  11.460  2.9279  2.8946  3.0754
  355MPD2    H3 5376   2.174   1.112  11.636 -0.4200 -2.8137  0.6892
  355MPD2     N 5377   2.591   0.913  11.615 -0.4089  0.4093  0.4057
  355MPD2    H5 5378   2.677   0.937  11.565 -1.3679 -1.5769 -2.2023
  355MPD2    N1 5379   2.458   1.262  11.316 -0.0027  0.2232 -0.1392
  355MPD2    H7 5380   2.406   1.350  11.318  1.4906  1.0881  1.2130
  356TMC3    C1 5381   2.731   0.827  11.759 -0.4773  1.1641  0.5320
  356TMC3    C2 5382   2.819   0.871  11.657 -0.1103  0.2531  0.3912
  356TMC3    C3 5383   2.894   0.984  11.691  0.4527  0.0179  0.3310
  356TMC3    C4 5384   2.748   0.865  11.891  0.3997  0.6014 -0.3906
  356TMC3    C5 5385   2.831   0.969  11.919 -0.2415 -0.3416 -0.2766
  356TMC3    C6 5386   2.899   1.031  11.818 -0.5868 -0.0348  0.5810
  356TMC3     C 5387   2.591   0.839  11.722 -0.1277 -0.1515 -0.0454
  356TMC3     O 5388   2.502   0.816  11.797 -0.2234  0.2094  0.2141
  356TMC3     H 5389   2.822   0.833  11.556  3.3369 -0.5702  0.8278
  356TMC3    H1 5390   2.684   0.823  11.967  1.2628  0.4488  0.2517
  356TMC3    H2 5391   2.970   1.111  11.833 -1.0298  0.1842  1.5269
  356TMC3    C7 5392   2.843   1.011  12.056  0.5679 -0.6985 -0.9828
  356TMC3    C8 5393   2.905   1.076  11.584 -0.5798 -0.7276 -0.6277
  356TMC3    O1 5394   2.816   0.932  12.145 -0.2632  0.0561 -0.5056
  356TMC3    O2 5395   2.848   1.036  11.489 -0.7085  0.2003 -0.4175
  357MPD2     C 5396   2.100   0.510   1.571  0.0303  0.5705 -0.3732
  357MPD2    C1 5397   2.114   0.440   1.449  0.2105 -0.5129  0.2495
  357MPD2    C2 5398   2.007   0.368   1.400 -0.3141  1.2266  0.3080
  357MPD2    C3 5399   1.889   0.351   1.472  0.0164 -0.5607  0.3529
  357MPD2    C4 5400   1.888   0.419   1.589  0.9391 -0.2532 -0.1411
  357MPD2    C5 5401   1.984   0.499   1.643 -0.3620 -0.0954 -0.3497
  357MPD2     H 5402   2.021   0.317   1.305  1.4373  0.9726  0.7094
  357MPD2    H1 5403   1.799   0.416   1.651 -0.5293  0.7045 -2.1690
  357MPD2    H2 5404   2.184   0.564   1.614  0.2871  1.1870 -1.6616
  357MPD2    H3 5405   1.973   0.542   1.742  0.3616  1.0934 -0.7783
  357MPD2     N 5406   1.769   0.288   1.429  0.2230 -0.7208  0.5804
  357MPD2    H5 5407   1.685   0.286   1.485 -0.4699  3.2836 -0.3359
  357MPD2    N1 5408   2.235   0.458   1.375 -0.4818  0.5122 -0.8062
  357MPD2    H7 5409   2.302   0.517   1.424 -0.8263  0.0183  0.2678
  358TMC3    C1 5410   2.427   0.393   1.235  0.0100  0.2373 -0.1647
  358TMC3    C2 5411   2.465   0.321   1.127  1.1522 -0.2362 -0.3126
  358TMC3    C3 5412   2.582   0.355   1.071 -0.0208  0.5795 -0.1642
  358TMC3    C4 5413   2.493   0.514   1.260  0.0545  0.0163  0.5857
  358TMC3    C5 5414   2.606   0.553   1.192 -0.1296 -0.5828 -0.1527
  358TMC3    C6 5415   2.659   0.463   1.103  0.8135  0.0058  0.2543
  358TMC3     C 5416   2.287   0.376   1.271 -0.2100  0.0578  0.6623
  358TMC3     O 5417   2.233   0.277   1.228  0.2068 -0.2635 -0.3908
  358TMC3     H 5418   2.414   0.229   1.098  1.0305 -0.2779  0.0395
  358TMC3    H1 5419   2.457   0.575   1.343  1.0988 -1.3674  2.0504
  358TMC3    H2 5420   2.734   0.493   1.031 -0.0799  0.2195 -0.5841
  358TMC3    C7 5421   2.674   0.685   1.202 -1.0073  0.4886  0.5247
  358TMC3    C8 5422   2.653   0.262   0.979 -0.0166  0.2470 -0.4811
  358TMC3    O1 5423   2.774   0.689   1.138  0.2650 -0.6944 -0.4418
  358TMC3    O2 5424   2.777   0.272   0.972  0.2120  0.2195 -0.3690
  359MPD2     C 5425   1.914   4.222  12.128 -0.7020 -0.1226 -0.5336
  359MPD2    C1 5426   2.008   4.119  12.140 -0.1017  0.1324 -0.4249
  359MPD2    C2 5427   2.004   4.026  12.240  0.1955  0.4107 -0.0429
  359MPD2    C3 5428   1.901   4.029  12.331  0.1811 -0.1222 -0.1982
  359MPD2    C4 5429   1.804   4.129  12.314 -0.2990  0.4341 -0.0429
  359MPD2    C5 5430   1.813   4.229  12.221 -0.1091 -0.2038  0.2226
  359MPD2     H 5431   2.090   3.960  12.249  0.9019  1.2301 -0.7751
  359MPD2    H1 5432   1.716   4.133  12.377 -0.9744  0.7146 -1.0179
  359MPD2    H2 5433   1.921   4.296  12.049  0.5109  0.0861 -0.2347
  359MPD2    H3 5434   1.744   4.311  12.207  0.5776  0.1981 -0.7929
  359MPD2     N 5435   1.884   3.924  12.421 -0.3907 -0.9889 -0.2947
  359MPD2    H5 5436   1.801   3.931  12.480  0.7445 -0.2895  1.2223
  359MPD2    N1 5437   2.110   4.099  12.042  0.8136 -0.1267  0.4215
  359MPD2    H7 5438   2.184   4.033  12.065  0.1292 -0.4361  1.7156
  360TMC3    C1 5439   2.249   4.131  11.861 -0.1223  0.2001  0.2864
  360TMC3    C2 5440   2.348   4.085  11.944  0.5298 -0.2128 -0.0614
  360TMC3    C3 5441   2.469   4.071  11.879 -0.1197 -0.4005  0.4268
  360TMC3    C4 5442   2.263   4.165  11.729 -0.2299 -0.4666  0.3834
  360TMC3    C5 5443   2.391   4.151  11.678  0.9758  0.6417  0.4544
  360TMC3    C6 5444   2.499   4.099  11.747 -0.4311  1.0582 -0.3925
  360TMC3     C 5445   2.119   4.156  11.920 -0.6844  1.0075 -0.1186
  360TMC3     O 5446   2.028   4.204  11.851  0.3433  0.3622 -0.2968
  360TMC3     H 5447   2.343   4.075  12.052 -1.5863  2.4836  0.0808
  360TMC3    H1 5448   2.191   4.228  11.678  0.1830 -0.1477  0.2019
  360TMC3    H2 5449   2.599   4.106  11.706 -0.1527  3.4553  0.7229
  360TMC3    C7 5450   2.420   4.173  11.538 -0.4140  0.1595 -0.2100
  360TMC3    C8 5451   2.586   4.037  11.963  0.7616 -0.3410  0.8015
  360TMC3    O1 5452   2.537   4.180  11.500  0.0069  0.5059 -0.1745
  360TMC3    O2 5453   2.560   3.984  12.072 -0.5292  0.3336 -0.2500
  361MPD2     C 5454   0.026   3.172  16.758  0.2833 -0.1691  0.2065
  361MPD2    C1 5455   4.696   3.166  16.874  0.3908  0.2033 -0.0186
  361MPD2    C2 5456   0.015   3.091  16.981  0.4972 -0.0192  0.9239
  361MPD2    C3 5457   0.136   3.021  16.965 -0.4421 -0.0875 -0.4033
  361MPD2    C4 5458   0.211   3.038  16.849 -0.4357  0.1668 -0.3569
  361MPD2    C5 5459   0.150   3.118  16.750 -0.2983  0.1247 -0.0340
  361MPD2     H 5460   4.697   3.077  17.074  2.0511  0.2650  1.8838
  361MPD2    H1 5461   0.309   2.994  16.833  0.1035 -0.3909  4.5263
  361MPD2    H2 5462   4.720   3.218  16.670 -1.6938 -2.3516  0.0431
  361MPD2    H3 5463   0.199   3.125  16.653 -0.0185  2.2365  0.2660
  361MPD2     N 5464   0.188   2.920  17.046  0.0885  0.2808  0.4604
  361MPD2    H5 5465   0.270   2.869  17.014 -0.7181 -1.3494  0.9746
  361MPD2    N1 5466   4.565   3.214  16.886  0.1600 -0.5647 -0.5772
  361MPD2    H7 5467   4.518   3.223  16.975 -0.0897  0.1479 -0.7804
  362TMC3    C1 5468   4.371   3.322  16.840 -0.1328  0.1603 -0.0684
  362TMC3    C2 5469   4.370   3.351  16.978 -0.4645 -0.4050 -0.2247
  362TMC3    C3 5470   4.278   3.445  17.021  0.1618  0.1676  0.0963
  362TMC3    C4 5471   4.282   3.374  16.754  0.1928 -0.3957 -0.1256
  362TMC3    C5 5472   4.197   3.467  16.802 -0.1465  0.0602 -0.6602
  362TMC3    C6 5473   4.191   3.508  16.928  0.1690 -0.1376 -0.5140
  362TMC3     C 5474   4.484   3.249  16.783  0.4601  0.2251 -0.0316
  362TMC3     O 5475   4.482   3.226  16.661  0.1920 -0.0713 -0.2735
  362TMC3     H 5476   4.432   3.295  17.047  0.1464  2.1011  1.2361
  362TMC3    H1 5477   4.289   3.345  16.650 -1.5205  1.7565 -0.8265
  362TMC3    H2 5478   4.125   3.589  16.954 -0.4138 -0.9342  0.4700
  362TMC3    C7 5479   4.160   3.569  16.715  0.0085 -0.7252 -0.2168
  362TMC3    C8 5480   4.287   3.494  17.153  0.5104  0.3390  0.6055
  362TMC3    O1 5481   4.201   3.681  16.740  0.0030  0.2549  0.0540
  362TMC3    O2 5482   4.393   3.482  17.212  0.0232 -0.2648  0.0303
  363TMC3    C1 5483   2.953   0.584   9.328  0.2883 -0.2862  0.2225
  363TMC3    C2 5484   3.076   0.623   9.378  0.6449 -0.5612 -0.0975
  363TMC3    C3 5485   3.073   0.734   9.458  0.2435  0.3606  0.5703
  363TMC3    C4 5486   2.844   0.673   9.324 -0.0295  0.6006  0.8501
  363TMC3    C5 5487   2.845   0.784   9.404 -0.1123  0.0011 -0.7636
  363TMC3    C6 5488   2.960   0.811   9.471 -0.7930  0.1235 -0.0626
  363TMC3     C 5489   2.947   0.467   9.236 -0.3761  0.3438  0.1563
  363TMC3     O 5490   3.050   0.449   9.174 -0.2013  0.0034  0.1061
  363TMC3     H 5491   3.154   0.548   9.369 -0.1500 -1.4343  0.3307
  363TMC3    H1 5492   2.765   0.658   9.251 -2.0731  2.6457  2.6911
  363TMC3    H2 5493   2.958   0.897   9.537 -0.3140 -0.3361  0.5537
  363TMC3    C7 5494   2.744   0.886   9.402 -0.3573  0.6739 -0.0600
  363TMC3    C8 5495   3.198   0.785   9.519 -0.0147 -0.2093  0.0405
  363TMC3    O1 5496   2.771   1.001   9.435 -0.3441  0.5266  0.0075
  363TMC3    O2 5497   3.183   0.876   9.601  0.2511  0.2234 -0.0329
  364MPD2     C 5498   1.709   0.939  11.250  0.3714 -0.1035  0.1519
  364MPD2    C1 5499   1.743   0.938  11.110  0.2252  1.0254  0.1271
  364MPD2    C2 5500   1.758   0.817  11.048  0.1047 -0.0880 -0.4341
  364MPD2    C3 5501   1.750   0.695  11.124  0.4328  0.2708 -0.1441
  364MPD2    C4 5502   1.724   0.708  11.261  0.5163  0.4707  0.5318
  364MPD2    C5 5503   1.705   0.828  11.324 -0.2027  0.2401  0.5252
  364MPD2     H 5504   1.785   0.818  10.942 -0.2358 -0.3340 -0.5215
  364MPD2    H1 5505   1.720   0.618  11.321  1.1812 -0.2545 -0.4950
  364MPD2    H2 5506   1.688   1.036  11.293 -1.6460 -0.5769  0.2514
  364MPD2    H3 5507   1.661   0.828  11.423 -1.7872 -0.9416 -0.1683
  364MPD2     N 5508   1.774   0.563  11.076 -0.0439  0.0845 -0.0431
  364MPD2    H5 5509   1.762   0.481  11.134 -0.6448  0.3349  0.1862
  364MPD2    N1 5510   1.752   1.067  11.047  0.3058 -0.5809 -0.3168
  364MPD2    H7 5511   1.698   1.142  11.090  1.1542  0.3965 -0.9367
  365TMC3    C1 5512   1.828   1.223  10.875 -0.5698 -0.3713 -0.1380
  365TMC3    C2 5513   1.885   1.235  10.750 -0.2645 -0.1028 -0.0707
  365TMC3    C3 5514   1.896   1.366  10.710 -0.2600  0.0400  0.3022
  365TMC3    C4 5515   1.793   1.328  10.963  0.3426  0.5744  0.2800
  365TMC3    C5 5516   1.818   1.454  10.916 -0.2613  0.5836  0.9715
  365TMC3    C6 5517   1.862   1.474  10.788  0.0266  0.4919  0.2649
  365TMC3     C 5518   1.831   1.087  10.931 -0.6128 -0.1383  0.3665
  365TMC3     O 5519   1.916   1.006  10.891 -0.4056 -0.3110  0.5488
  365TMC3     H 5520   1.915   1.151  10.689 -0.3397 -0.5616  0.5228
  365TMC3    H1 5521   1.743   1.302  11.056 -2.2548  1.3029 -0.9250
  365TMC3    H2 5522   1.875   1.571  10.741 -0.2874  0.3910 -0.0281
  365TMC3    C7 5523   1.753   1.564  10.987  0.0124  0.1965 -0.3719
  365TMC3    C8 5524   1.973   1.396  10.589 -0.0548 -0.3118 -0.2868
  365TMC3    O1 5525   1.706   1.648  10.915  0.2853  0.5657 -0.2181
  365TMC3    O2 5526   2.048   1.488  10.593  0.4023  0.3907 -0.2250
  366MPD2     C 5527   0.476   0.955  15.247 -0.8016 -0.2310 -0.3580
  366MPD2    C1 5528   0.500   1.011  15.369  0.2416  0.1697 -0.7070
  366MPD2    C2 5529   0.624   1.051  15.409 -0.8426 -0.3318  0.2017
  366MPD2    C3 5530   0.732   1.021  15.330 -0.4353 -0.1607  0.0158
  366MPD2    C4 5531   0.713   0.949  15.211 -0.2492 -0.1346 -0.5305
  366MPD2    C5 5532   0.587   0.915  15.171 -1.0790  0.1542  0.2511
  366MPD2     H 5533   0.634   1.094  15.508 -1.7228 -2.8010  1.3507
  366MPD2    H1 5534   0.796   0.907  15.155 -0.2526  0.2528 -0.8313
  366MPD2    H2 5535   0.376   0.931  15.213 -0.1853  1.2452 -3.1813
  366MPD2    H3 5536   0.566   0.857  15.082 -1.5816 -2.8874  2.3359
  366MPD2     N 5537   0.868   1.056  15.359  0.6772 -0.6577  0.7523
  366MPD2    H5 5538   0.930   1.008  15.295 -0.1989 -0.9514  0.1262
  366MPD2    N1 5539   0.391   1.042  15.459  0.0144  0.2632  0.7720
  366MPD2    H7 5540   0.430   1.083  15.544  0.5298 -2.9847  2.1275
  367TMC3    C1 5541   0.177   1.121  15.523 -0.1809  1.1208 -0.6424
  367TMC3    C2 5542   0.251   1.207  15.604  0.8571 -0.0182 -0.3727
  367TMC3    C3 5543   0.249   1.342  15.578 -0.4378 -0.4494  0.5475
  367TMC3    C4 5544   0.087   1.183  15.435  0.2638  0.1045  1.0530
  367TMC3    C5 5545   0.093   1.314  15.412 -0.2904  0.7353 -0.6290
  367TMC3    C6 5546   0.179   1.400  15.479  0.2790 -0.5288  0.2555
  367TMC3     C 5547   0.256   1.024  15.446 -0.5044 -0.4533  0.3607
  367TMC3     O 5548   0.196   0.935  15.386  0.2482 -0.4523 -0.4448
  367TMC3     H 5549   0.315   1.171  15.684  0.8647 -0.4227 -0.5602
  367TMC3    H1 5550   0.028   1.120  15.369 -0.0818  1.5352 -0.0118
  367TMC3    H2 5551   0.187   1.503  15.447  0.8799 -0.8130 -0.5228
  367TMC3    C7 5552   4.706   1.382  15.364  0.7704 -0.6378 -0.4080
  367TMC3    C8 5553   0.307   1.427  15.681 -0.2576  0.6830 -0.7145
  367TMC3    O1 5554   4.709   1.505  15.367 -0.6782  0.4823  0.1820
  367TMC3    O2 5555   0.379   1.377  15.766 -0.1458  0.4354 -0.1107
  368MPD2     C 5556   0.450   2.983  12.945  0.1230  0.5771  0.1092
  368MPD2    C1 5557   0.516   3.090  12.994  0.3137  0.1361 -0.4117
  368MPD2    C2 5558   0.645   3.113  12.946 -0.2057 -0.6342 -0.0063
  368MPD2    C3 5559   0.714   3.016  12.872  0.0478 -0.6970 -0.4737
  368MPD2    C4 5560   0.641   2.904  12.825 -0.2696 -0.4105 -0.4413
  368MPD2    C5 5561   0.506   2.895  12.859  0.6683 -0.1018 -0.0111
  368MPD2     H 5562   0.706   3.201  12.964  2.7649 -2.1712 -2.4440
  368MPD2    H1 5563   0.688   2.821  12.772  3.2149  0.2646  1.6508
  368MPD2    H2 5564   0.348   2.965  12.977  0.5966 -0.3959  1.0530
  368MPD2    H3 5565   0.443   2.812  12.827 -1.3786  0.9497  1.3689
  368MPD2     N 5566   0.847   3.053  12.840 -0.0281 -0.1888  0.1959
  368MPD2    H5 5567   0.885   3.133  12.891  1.0167 -0.1151 -0.6802
  368MPD2    N1 5568   0.438   3.184  13.065 -0.0534 -0.1715  0.3553
  368MPD2    H7 5569   0.339   3.171  13.083  0.4491 -1.8926  1.8083
  369TMC3    C1 5570   0.413   3.397  13.178  0.0967  0.3447 -0.4626
  369TMC3    C2 5571   0.493   3.503  13.206 -0.3900  0.0564  0.3518
  369TMC3    C3 5572   0.435   3.625  13.204  0.1705  0.1399  0.1204
  369TMC3    C4 5573   0.287   3.414  13.128 -0.7441  0.1975  0.0488
  369TMC3    C5 5574   0.228   3.543  13.120  0.5592  0.6906  0.7208
  369TMC3    C6 5575   0.300   3.647  13.176 -0.8241 -0.6835  0.1168
  369TMC3     C 5576   0.498   3.288  13.126  0.4012 -0.6976 -0.2600
  369TMC3     O 5577   0.617   3.306  13.140  0.1147 -0.2031 -0.2359
  369TMC3     H 5578   0.585   3.485  13.259  0.2037  0.1634 -0.6319
  369TMC3    H1 5579   0.236   3.332  13.078  0.4241  0.4814 -1.6294
  369TMC3    H2 5580   0.255   3.744  13.193 -2.7617 -1.4332 -0.6928
  369TMC3    C7 5581   0.084   3.537  13.146  0.6811 -0.0105 -0.2728
  369TMC3    C8 5582   0.523   3.717  13.128  0.1699 -0.6979  0.7528
  369TMC3    O1 5583   0.030   3.434  13.173 -0.4877  0.0209  0.5795
  369TMC3    O2 5584   0.481   3.829  13.098 -0.0349 -0.0075  0.0313
  370TMC3    C1 5585   0.870   4.119  16.413 -0.2626 -0.8808  0.2284
  370TMC3    C2 5586   0.810   4.054  16.519 -0.1216 -0.1804  0.2283
  370TMC3    C3 5587   0.787   3.923  16.499 -0.2417  0.6425 -0.1108
  370TMC3    C4 5588   0.896   4.055  16.289  0.3922 -0.2021  1.1333
  370TMC3    C5 5589   0.868   3.925  16.282 -0.1214  0.8138  0.5370
  370TMC3    C6 5590   0.818   3.849  16.385 -0.3284  0.2270  0.2216
  370TMC3     C 5591   0.982   4.199  16.455  0.0945  0.3281 -0.2869
  370TMC3     O 5592   1.005   4.198  16.576 -0.1919  0.2639 -0.2077
  370TMC3     H 5593   0.786   4.113  16.607  1.8386  1.7059 -0.5048
  370TMC3    H1 5594   0.946   4.108  16.209 -0.7372 -2.2860 -0.9417
  370TMC3    H2 5595   0.798   3.743  16.374 -0.6635  0.2943  0.1976
  370TMC3    C7 5596   0.913   3.850  16.164  0.3957  0.8297  0.9555
  370TMC3    C8 5597   0.738   3.840  16.605  0.3146 -0.2821 -0.7032
  370TMC3    O1 5598   0.911   3.908  16.052 -0.3913  0.4270 -0.6174
  370TMC3    O2 5599   0.739   3.716  16.598 -0.0065 -0.2281  0.0781
  371TMC3    C1 5600   2.100   2.295  15.522  0.0191  0.5274  0.3750
  371TMC3    C2 5601   2.019   2.281  15.633 -0.1509 -0.1448 -0.3491
  371TMC3    C3 5602   1.982   2.389  15.707 -0.1035  0.2250 -0.0992
  371TMC3    C4 5603   2.156   2.412  15.492  0.2418 -0.2243  0.1586
  371TMC3    C5 5604   2.127   2.521  15.567 -0.7847  0.0300 -0.3536
  371TMC3    C6 5605   2.041   2.512  15.674  0.0971 -0.0770  0.3822
  371TMC3     C 5606   2.137   2.179  15.444  0.6375  0.1303  0.2393
  371TMC3     O 5607   2.155   2.208  15.327 -0.7745 -0.1141 -0.5881
  371TMC3     H 5608   1.993   2.183  15.670 -1.0605 -0.4874 -1.9341
  371TMC3    H1 5609   2.241   2.417  15.425  1.1640  0.0292  1.3358
  371TMC3    H2 5610   2.038   2.586  15.753 -0.3696  1.7069 -1.3140
  371TMC3    C7 5611   2.185   2.652  15.527  0.5064  0.1911  0.3190
  371TMC3    C8 5612   1.910   2.368  15.831 -0.3029  0.1867 -0.6810
  371TMC3    O1 5613   2.177   2.733  15.621 -0.4774 -0.1096  0.4005
  371TMC3    O2 5614   1.940   2.264  15.891 -0.1656 -0.5508 -0.3225
  372MPD2     C 5615   1.037   3.735  13.232 -0.1854 -0.0550 -0.5682
  372MPD2    C1 5616   1.153   3.691  13.291 -0.5104  0.2792  0.8049
  372MPD2    C2 5617   1.140   3.626  13.412 -0.9043  0.4089  0.5954
  372MPD2    C3 5618   1.022   3.596  13.479 -1.2966 -0.2248  0.7491
  372MPD2    C4 5619   0.907   3.640  13.413 -0.7624  0.0364 -0.2170
  372MPD2    C5 5620   0.916   3.711  13.291  0.0752 -0.5489  0.0088
  372MPD2     H 5621   1.228   3.600  13.471 -0.1569  1.3786 -0.0880
  372MPD2    H1 5622   0.807   3.621  13.450  0.8494 -1.8899  3.1837
  372MPD2    H2 5623   1.033   3.786  13.136  0.2704  4.3497  1.7316
  372MPD2    H3 5624   0.830   3.761  13.248  0.2727 -1.1233 -1.0483
  372MPD2     N 5625   1.029   3.514  13.594 -0.3797  0.2488 -0.1321
  372MPD2    H5 5626   1.121   3.483  13.625  0.1869  2.3449  0.2955
  372MPD2    N1 5627   1.287   3.717  13.246  0.3534 -1.0678  0.0360
  372MPD2    H7 5628   1.352   3.665  13.305 -0.0716  0.4348  1.8247
  373TMC3    C1 5629   0.961   3.397  13.790  0.6689  0.7802 -0.1560
  373TMC3    C2 5630   0.870   3.395  13.889 -0.6279  0.1656  0.4140
  373TMC3    C3 5631   0.880   3.292  13.980 -0.2668 -0.0215  0.4876
  373TMC3    C4 5632   1.051   3.291  13.765 -0.2651 -0.2450  1.3168
  373TMC3    C5 5633   1.053   3.190  13.856 -0.3095 -0.3669 -0.3056
  373TMC3    C6 5634   0.970   3.189  13.970  0.7580  0.1835  0.8170
  373TMC3     C 5635   0.922   3.475  13.676 -1.0547  0.3511  0.4043
  373TMC3     O 5636   0.810   3.527  13.684 -0.0407  0.2898  0.6365
  373TMC3     H 5637   0.791   3.468  13.903 -0.9289  0.3580 -2.3295
  373TMC3    H1 5638   1.110   3.287  13.674  2.4644  2.1037  2.9595
  373TMC3    H2 5639   0.955   3.097  14.026 -1.3877 -0.6126 -1.0783
  373TMC3    C7 5640   1.173   3.105  13.867  0.3352 -0.2174  0.3498
  373TMC3    C8 5641   0.787   3.302  14.092  0.0850  0.7472  0.2968
  373TMC3    O1 5642   1.251   3.113  13.773  0.1229  0.3494  0.1648
  373TMC3    O2 5643   0.678   3.363  14.067  0.3143  0.1281 -0.3788
  374TMC3    C1 5644   2.158   3.863   9.798  0.4457  0.0550 -0.0527
  374TMC3    C2 5645   2.282   3.920   9.786 -0.0071 -0.3558  0.1054
  374TMC3    C3 5646   2.315   3.980   9.670  0.0761 -0.1000  0.0720
  374TMC3    C4 5647   2.068   3.862   9.693  0.5673 -0.3978 -0.3016
  374TMC3    C5 5648   2.104   3.930   9.578 -0.5703 -0.6685  0.8095
  374TMC3    C6 5649   2.223   3.983   9.564 -0.1769  0.4662  0.0006
  374TMC3     C 5650   2.111   3.857   9.938 -0.3461 -0.5030 -0.1198
  374TMC3     O 5651   2.186   3.900  10.024 -0.0029  0.2782 -0.3117
  374TMC3     H 5652   2.349   3.901   9.869 -0.3546 -0.4078  0.3767
  374TMC3    H1 5653   1.978   3.802   9.701  0.4298  0.0443  1.5107
  374TMC3    H2 5654   2.245   4.024   9.466  2.1617  1.3667  0.8959
  374TMC3    C7 5655   2.013   3.906   9.470  0.1608 -0.1533  0.0006
  374TMC3    C8 5656   2.451   3.994   9.636 -0.0474 -0.2414 -0.0732
  374TMC3    O1 5657   1.898   3.888   9.504  0.0183  0.2178  0.1795
  374TMC3    O2 5658   2.482   4.018   9.521  0.2525  0.1140  0.6503
  375MPD2     C 5659   2.350   0.123  17.336  0.0644  0.9268  0.8299
  375MPD2    C1 5660   2.290   0.116  17.209  0.1018 -0.2996 -0.2344
  375MPD2    C2 5661   2.334   0.021  17.116  0.1098  0.3369  0.2127
  375MPD2    C3 5662   2.428   4.664  17.158  0.4785  0.4043  0.0973
  375MPD2    C4 5663   2.465   4.662  17.285  0.2301  1.0101  0.4093
  375MPD2    C5 5664   2.436   0.027  17.372 -0.8815 -0.5077  0.2004
  375MPD2     H 5665   2.309   0.035  17.011 -1.4864 -1.2282  0.3826
  375MPD2    H1 5666   2.545   4.595  17.314  0.5750  1.9819  1.7284
  375MPD2    H2 5667   2.322   0.196  17.412  1.3028 -0.0005  2.1754
  375MPD2    H3 5668   2.475   0.023  17.473 -2.6879  0.2124  0.9266
  375MPD2     N 5669   2.484   4.569  17.070  0.4533  0.2949  0.2004
  375MPD2    H5 5670   2.546   4.503  17.116  0.9234  0.6355  0.0646
  375MPD2    N1 5671   2.177   0.198  17.179  0.1846  0.3770 -0.2480
  375MPD2    H7 5672   2.129   0.167  17.095 -0.3265  0.1701  0.1164
  376TMC3    C1 5673   2.458   4.409  16.889  0.1400  0.1322 -1.1087
  376TMC3    C2 5674   2.592   4.365  16.892 -0.6098 -0.0543 -0.1761
  376TMC3    C3 5675   2.626   4.243  16.827  0.0823  0.1671 -0.1403
  376TMC3    C4 5676   2.377   4.349  16.798  0.0175  0.1810  0.5008
  376TMC3    C5 5677   2.431   4.255  16.713 -0.2620  0.2960 -0.6395
  376TMC3    C6 5678   2.545   4.184  16.731 -0.7695 -0.6039 -0.7614
  376TMC3     C 5679   2.439   4.544  16.940 -0.1692 -0.4871 -0.3710
  376TMC3     O 5680   2.378   4.621  16.871 -0.7387  0.8358 -0.0268
  376TMC3     H 5681   2.662   4.423  16.951 -1.3691  1.0321 -0.3469
  376TMC3    H1 5682   2.287   4.403  16.770 -0.4584 -1.2204 -0.7219
  376TMC3    H2 5683   2.583   4.099  16.675  0.3441 -0.1144 -0.7490
  376TMC3    C7 5684   2.406   4.291  16.576 -0.8619  1.0033 -0.1682
  376TMC3    C8 5685   2.770   4.228  16.821 -0.7949  0.4817 -0.4674
  376TMC3    O1 5686   2.384   4.409  16.553  0.0944  0.2430  0.3777
  376TMC3    O2 5687   2.840   4.324  16.852  0.1671 -0.6136  1.0536
  377MPD2     C 5688   4.648   3.933  12.665  0.0238  0.4104  0.0324
  377MPD2    C1 5689   4.708   3.841  12.749  0.0995 -0.2229  0.0585
  377MPD2    C2 5690   4.636   3.736  12.808  0.0118 -0.2519 -0.6180
  377MPD2    C3 5691   4.500   3.737  12.793 -0.2757  0.5396 -1.0031
  377MPD2    C4 5692   4.440   3.838  12.719 -0.2641 -0.0918 -0.2503
  377MPD2    C5 5693   4.515   3.936  12.656 -0.1429 -0.0102 -0.1479
  377MPD2     H 5694   4.683   3.663  12.874 -1.8290  0.0202  1.0074
  377MPD2    H1 5695   4.332   3.845  12.713 -0.5122 -0.6646  3.7728
  377MPD2    H2 5696   4.713   4.005  12.616  0.5420  1.1147  1.7601
  377MPD2    H3 5697   4.468   4.014  12.596  1.8130  1.7020  0.5685
  377MPD2     N 5698   4.432   3.630  12.855  0.7472  0.6214 -0.6361
  377MPD2    H5 5699   4.487   3.567  12.912 -0.6142  0.1363  0.1545
  377MPD2    N1 5700   0.111   3.846  12.769  0.2103  0.4658 -0.9309
  377MPD2    H7 5701   0.152   3.931  12.731 -1.8055  0.7604 -2.4768
  378TMC3    C1 5702   0.425   3.945  12.700  1.1000  0.5899  0.5921
  378TMC3    C2 5703   0.339   3.917  12.810 -0.4471 -0.1413 -0.0049
  378TMC3    C3 5704   0.322   3.786  12.841  0.6452 -0.5850  0.2241
  378TMC3    C4 5705   0.501   3.842  12.641 -0.0933  0.5912  0.1843
  378TMC3    C5 5706   0.500   3.724  12.711 -0.6340 -0.0295 -0.3457
  378TMC3    C6 5707   0.422   3.691  12.812  0.4395 -0.2701 -0.9146
  378TMC3     C 5708   0.370   4.042  12.618 -0.0719 -0.7417  0.2225
  378TMC3     O 5709   0.250   4.057  12.627 -1.1405 -0.1333 -0.1781
  378TMC3     H 5710   0.273   3.995  12.846  0.0636  0.5447 -0.5493
  378TMC3    H1 5711   0.553   3.857  12.547  0.8182  0.3167  0.6464
  378TMC3    H2 5712   0.418   3.593  12.858 -0.2965  0.3471  0.3425
  378TMC3    C7 5713   0.597   3.623  12.687  0.0404  0.0315  0.0153
  378TMC3    C8 5714   0.190   3.742  12.814 -0.0262 -0.0129  0.0449
  378TMC3    O1 5715   0.585   3.510  12.735 -0.3951 -0.3295 -0.3573
  378TMC3    O2 5716   0.179   3.622  12.822 -0.0319 -0.4562  0.1597
  379MPD2     C 5717   0.841   2.051  16.721  0.3542  0.1079  0.5599
  379MPD2    C1 5718   0.896   1.956  16.636 -0.8286  0.1021 -0.3323
  379MPD2    C2 5719   0.993   1.871  16.699 -0.1041 -0.9414 -0.1515
  379MPD2    C3 5720   1.043   1.902  16.826 -0.2913 -0.2584 -0.2179
  379MPD2    C4 5721   0.982   1.997  16.905 -0.6848  0.2405  0.2199
  379MPD2    C5 5722   0.877   2.072  16.850  0.2408  0.2526  0.3811
  379MPD2     H 5723   1.057   1.804  16.642 -0.8841 -0.3989 -1.6700
  379MPD2    H1 5724   1.020   2.018  17.004  0.3730  1.2623 -0.3925
  379MPD2    H2 5725   0.762   2.108  16.675 -0.7146 -1.6166  0.2287
  379MPD2    H3 5726   0.832   2.151  16.908  0.8310 -0.1086  1.3230
  379MPD2     N 5727   1.153   1.834  16.874  0.0321 -0.4969 -0.4786
  379MPD2    H5 5728   1.163   1.838  16.975 -2.2747 -2.0902 -0.1966
  379MPD2    N1 5729   0.864   1.954  16.502 -0.4298 -0.0446  0.3950
  379MPD2    H7 5730   0.803   2.025  16.463  2.8077  2.0666 -0.8485
  380TMC3    C1 5731   0.912   1.901  16.269 -0.1208 -0.2062 -0.4106
  380TMC3    C2 5732   1.002   1.822  16.209  0.3684  0.2390  0.1613
  380TMC3    C3 5733   0.969   1.777  16.079 -0.0624  0.3264  0.5296
  380TMC3    C4 5734   0.795   1.930  16.218 -0.1502  0.1876 -0.5749
  380TMC3    C5 5735   0.757   1.864  16.106  0.4302 -0.3284  0.2763
  380TMC3    C6 5736   0.847   1.803  16.023  0.1014 -0.4356  0.3907
  380TMC3     C 5737   0.923   1.867  16.408 -0.2358  0.4744 -0.3354
  380TMC3     O 5738   0.968   1.754  16.428 -0.0998  0.0538 -0.1275
  380TMC3     H 5739   1.097   1.812  16.260  1.2435  0.9827 -1.3174
  380TMC3    H1 5740   0.718   1.977  16.278  0.0336  0.4184 -0.5225
  380TMC3    H2 5741   0.827   1.755  15.927 -0.5270  2.2486 -0.8209
  380TMC3    C7 5742   0.627   1.897  16.045  0.2577 -0.4536 -0.5922
  380TMC3    C8 5743   1.070   1.702  16.003 -0.1802  0.8485 -0.0019
  380TMC3    O1 5744   0.576   2.010  16.057 -0.3216  0.5740 -0.0992
  380TMC3    O2 5745   1.071   1.721  15.881 -0.0417 -0.6550 -0.0716
  381TMC3    C1 5746   0.915   3.097  16.630 -1.0445  0.5788 -0.4194
  381TMC3    C2 5747   0.935   3.211  16.561  0.4028  0.1937  0.0683
  381TMC3    C3 5748   0.918   3.335  16.627 -0.4510 -0.6121 -0.1592
  381TMC3    C4 5749   0.881   3.095  16.761 -0.1515  0.2769  0.0347
  381TMC3    C5 5750   0.855   3.214  16.822  0.2982 -0.3061 -0.1436
  381TMC3    C6 5751   0.883   3.337  16.762 -0.2021  0.0578 -0.1428
  381TMC3     C 5752   0.932   2.962  16.562  0.0182  0.1863 -0.0060
  381TMC3     O 5753   0.931   2.861  16.631 -0.2154 -0.4686 -0.4048
  381TMC3     H 5754   0.968   3.204  16.458  0.4976  0.7492  0.0592
  381TMC3    H1 5755   0.868   3.002  16.814  0.3651  0.8156  1.1209
  381TMC3    H2 5756   0.872   3.433  16.810  0.5511  0.2971 -0.4361
  381TMC3    C7 5757   0.830   3.209  16.965  0.2179 -0.3542 -0.5272
  381TMC3    C8 5758   1.000   3.449  16.577  0.2587 -0.4719  0.2231
  381TMC3    O1 5759   0.858   3.103  17.019  0.2019 -0.0413  0.5753
  381TMC3    O2 5760   1.043   3.423  16.466  0.4140 -0.6699  0.0407
  382MPD2     C 5761   0.374   1.052  16.908 -0.3879 -0.5003  0.0980
  382MPD2    C1 5762   0.306   1.123  17.006 -0.3346 -0.0159  0.2444
  382MPD2    C2 5763   0.246   1.045  17.109 -0.0729  0.5127  0.3698
  382MPD2    C3 5764   0.257   0.908  17.119 -0.2955  0.1412 -0.2453
  382MPD2    C4 5765   0.343   0.846  17.031  0.1837  0.8501  0.1753
  382MPD2    C5 5766   0.393   0.914  16.923  0.5120 -0.3526  1.0602
  382MPD2     H 5767   0.189   1.107  17.178 -1.3460 -0.1155 -0.1250
  382MPD2    H1 5768   0.381   0.744  17.042  0.9924  1.0385 -0.8355
  382MPD2    H2 5769   0.417   1.100  16.821 -0.0554 -0.0805  0.4960
  382MPD2    H3 5770   0.457   0.861  16.854 -0.8618 -1.2645  0.4839
  382MPD2     N 5771   0.190   0.819  17.209 -0.1665 -0.5594 -0.6015
  382MPD2    H5 5772   0.203   0.722  17.183 -2.4574 -0.5562 -1.7467
  382MPD2    N1 5773   0.293   1.263  16.997  0.0090 -0.2690  0.2684
  382MPD2    H7 5774   0.225   1.316  17.052  0.6921 -0.1340  0.9851
  383TMC3    C1 5775   0.028   0.753  17.366 -0.4430  0.0644  0.1357
  383TMC3    C2 5776   0.011   0.638  17.300  0.1380  0.6108 -0.2465
  383TMC3    C3 5777   4.645   0.555  17.341  0.7075  0.1246 -0.2159
  383TMC3    C4 5778   4.676   0.789  17.466 -0.0300 -0.5136  0.4938
  383TMC3    C5 5779   4.570   0.717  17.485 -0.6492  0.0676 -1.0044
  383TMC3    C6 5780   4.549   0.593  17.430  0.0847 -0.4928 -0.0789
  383TMC3     C 5781   0.113   0.854  17.310  0.2950 -0.3272 -0.4031
  383TMC3     O 5782   0.103   0.965  17.358  1.0249 -0.1270 -0.7332
  383TMC3     H 5783   0.077   0.606  17.220 -0.9666  1.7802 -1.6393
  383TMC3    H1 5784   4.692   0.879  17.524 -4.4016  1.3452 -1.2419
  383TMC3    H2 5785   4.462   0.534  17.455 -2.2817  3.3434  0.6162
  383TMC3    C7 5786   4.477   0.754  17.590 -0.0753  0.5208  0.3150
  383TMC3    C8 5787   4.626   0.431  17.272 -0.3319  0.3197 -0.2244
  383TMC3    O1 5788   4.361   0.721  17.577 -0.9173 -0.4527  0.1423
  383TMC3    O2 5789   4.720   0.382  17.213  0.2256 -0.3985  0.1846
  384MPD2     C 5790   1.846   2.260  12.092 -0.5175 -0.0020 -0.8728
  384MPD2    C1 5791   1.862   2.205  12.217  0.3698  0.8363  0.4546
  384MPD2    C2 5792   1.978   2.140  12.249 -0.4945  1.1121  0.1196
  384MPD2    C3 5793   2.076   2.121  12.160  0.1100 -0.1689 -0.0696
  384MPD2    C4 5794   2.071   2.196  12.043 -0.2484  0.3455  0.5631
  384MPD2    C5 5795   1.958   2.264  12.011 -0.7172 -0.2558  0.0164
  384MPD2     H 5796   1.989   2.090  12.345  2.5308 -0.3498 -1.0001
  384MPD2    H1 5797   2.145   2.194  11.965  0.9414 -1.4625  1.7576
  384MPD2    H2 5798   1.754   2.305  12.057  0.0222  1.5625 -0.3004
  384MPD2    H3 5799   1.951   2.303  11.910 -0.3035  0.0336  0.0975
  384MPD2     N 5800   2.179   2.033  12.189  0.1563 -0.1261  0.7881
  384MPD2    H5 5801   2.163   2.001  12.284  0.3477 -2.1390  0.1345
  384MPD2    N1 5802   1.772   2.217  12.324 -0.3987  0.0425  0.2672
  384MPD2    H7 5803   1.784   2.157  12.405 -1.8983  0.5142  0.8618
  385TMC3    C1 5804   2.329   1.859  12.157 -0.4167 -0.5122 -0.0655
  385TMC3    C2 5805   2.298   1.758  12.085 -0.4254 -0.3230  0.9674
  385TMC3    C3 5806   2.257   1.639  12.147 -0.6825 -0.2401  0.0591
  385TMC3    C4 5807   2.332   1.858  12.296  0.3569 -0.4960  0.2105
  385TMC3    C5 5808   2.282   1.743  12.360  0.1713  0.3525  0.4217
  385TMC3    C6 5809   2.255   1.635  12.284  0.2467  0.1102 -0.4337
  385TMC3     C 5810   2.264   1.979  12.099 -0.4699  0.2763  0.1975
  385TMC3     O 5811   2.269   1.991  11.977  0.0896  0.2675  0.3686
  385TMC3     H 5812   2.287   1.757  11.977 -0.8758 -1.8025  1.0278
  385TMC3    H1 5813   2.357   1.946  12.355  1.1137 -0.9943  0.6388
  385TMC3    H2 5814   2.225   1.543  12.332 -0.6553  0.8467  0.4112
  385TMC3    C7 5815   2.174   1.785  12.445  0.1202  0.5287  0.0268
  385TMC3    C8 5816   2.220   1.536  12.050 -0.3541  0.4212 -0.4089
  385TMC3    O1 5817   2.125   1.892  12.414  0.2936  0.1643  0.1151
  385TMC3    O2 5818   2.287   1.524  11.948 -0.3997 -0.0498  0.0384
  386TMC3    C1 5819   1.713   4.133  11.806  0.2092  0.0661  0.1097
  386TMC3    C2 5820   1.664   4.227  11.717  0.4430 -0.2276 -0.3059
  386TMC3    C3 5821   1.611   4.340  11.770  0.1501  0.1652  1.0881
  386TMC3    C4 5822   1.665   4.122  11.935  0.0823  0.1827 -0.1378
  386TMC3    C5 5823   1.586   4.231  11.970  1.2338  0.4034 -0.4069
  386TMC3    C6 5824   1.575   4.346  11.900 -0.5898 -0.3801 -0.1906
  386TMC3     C 5825   1.747   4.011  11.735  0.3116 -0.1480  0.5469
  386TMC3     O 5826   1.706   3.991  11.621  0.0003 -0.5442 -0.1916
  386TMC3     H 5827   1.678   4.222  11.610  2.4836 -4.5289  0.1763
  386TMC3    H1 5828   1.661   4.029  11.990 -2.7739 -0.0348 -0.7080
  386TMC3    H2 5829   1.539   4.436  11.948  0.0100 -0.1204 -0.2327
  386TMC3    C7 5830   1.458   4.205  12.044 -0.1771  0.4223 -0.0513
  386TMC3    C8 5831   1.533   4.429  11.692  0.1275 -0.2267  1.0882
  386TMC3    O1 5832   1.445   4.146  12.151 -0.0532  0.2319 -0.2947
  386TMC3    O2 5833   1.427   4.465  11.745  0.3390  0.0082  0.1532
  387MPD2     C 5834   4.215   4.345  10.163 -1.0026 -0.0223  0.1454
  387MPD2    C1 5835   4.298   4.305  10.269  1.3468 -0.0087  0.7005
  387MPD2    C2 5836   4.299   4.167  10.296 -0.2151 -0.0301 -0.2704
  387MPD2    C3 5837   4.208   4.081  10.249 -0.5216  0.5595 -0.5292
  387MPD2    C4 5838   4.126   4.117  10.140 -0.3503  0.2743 -0.4828
  387MPD2    C5 5839   4.137   4.248  10.099 -0.1813 -0.5558  0.6325
  387MPD2     H 5840   4.367   4.127  10.370  0.4902  2.5208  0.4725
  387MPD2    H1 5841   4.057   4.055  10.084  0.0596 -1.6193  1.0871
  387MPD2    H2 5842   4.212   4.446  10.124  0.0918  0.5086  1.4281
  387MPD2    H3 5843   4.065   4.288  10.028 -0.4832  2.0055  2.3893
  387MPD2     N 5844   4.228   3.947  10.303 -0.4721  0.1725  0.0395
  387MPD2    H5 5845   4.310   3.941  10.362  0.0725 -0.4929 -0.7827
  387MPD2    N1 5846   4.388   4.396  10.324  0.1401 -0.2671 -1.1649
  387MPD2    H7 5847   4.388   4.491  10.289  0.0915 -0.2387 -1.0901
  388TMC3    C1 5848   4.568   4.480  10.448 -0.1617  0.6223 -0.2478
  388TMC3    C2 5849   4.492   4.585  10.502 -0.0661  0.4752  0.4042
  388TMC3    C3 5850   4.518   4.631  10.624  1.0084  0.7533 -0.4181
  388TMC3    C4 5851   4.669   4.424  10.517  0.5413  0.6783 -0.0781
  388TMC3    C5 5852   4.692   4.468  10.644  0.0718  0.5892  0.1700
  388TMC3    C6 5853   4.624   4.585  10.690 -0.4982 -0.1150  0.7378
  388TMC3     C 5854   4.488   4.362  10.404 -0.4858  0.2170  0.0170
  388TMC3     O 5855   4.538   4.250  10.425  0.0471  0.3304 -0.0975
  388TMC3     H 5856   4.394   4.623  10.477  0.4817  0.7677 -1.3203
  388TMC3    H1 5857   4.728   4.345  10.473 -0.4860 -1.4009  2.2710
  388TMC3    H2 5858   4.626   4.610  10.795 -0.4515  0.4477  0.6073
  388TMC3    C7 5859   4.670   4.365  10.738  0.0602  0.2705  0.0885
  388TMC3    C8 5860   4.438   0.011  10.662 -0.7001 -0.4163 -0.1613
  388TMC3    O1 5861   4.699   4.375  10.857 -0.1590 -0.1517 -0.4443
  388TMC3    O2 5862   4.376   0.076  10.578  0.0466  0.1373 -0.6477
  389MPD2     C 5863   3.712   2.610  10.741 -0.0016  0.7131  0.2070
  389MPD2    C1 5864   3.581   2.604  10.695  0.2206  0.4482 -0.5149
  389MPD2    C2 5865   3.483   2.542  10.765  0.1803 -0.0433 -0.8203
  389MPD2    C3 5866   3.512   2.476  10.889 -0.1956  0.0017 -0.2532
  389MPD2    C4 5867   3.641   2.490  10.941  0.1217  0.4210  0.0828
  389MPD2    C5 5868   3.732   2.552  10.865 -0.5562  0.4053  0.5540
  389MPD2     H 5869   3.389   2.529  10.713  0.3354  1.0295 -1.3728
  389MPD2    H1 5870   3.674   2.441  11.032  0.3615 -1.4651 -1.0247
  389MPD2    H2 5871   3.795   2.655  10.687 -1.2494  0.2256 -2.1303
  389MPD2    H3 5872   3.833   2.552  10.905 -0.4760  2.1682  0.3661
  389MPD2     N 5873   3.419   2.403  10.966 -0.6161  0.0617 -0.5190
  389MPD2    H5 5874   3.456   2.359  11.050  1.1946  1.8110 -0.3899
  389MPD2    N1 5875   3.565   2.677  10.568 -0.0530  0.2332 -0.7332
  389MPD2    H7 5876   3.652   2.714  10.531  0.3111  0.4723  0.3686
  390TMC3    C1 5877   3.203   2.298  11.015 -0.0448  0.3694  0.1941
  390TMC3    C2 5878   3.257   2.256  11.137 -0.2972  0.0771  0.1280
  390TMC3    C3 5879   3.178   2.256  11.247 -0.2169 -0.3343  0.8336
  390TMC3    C4 5880   3.070   2.319  11.005  0.8157  0.2448 -0.5155
  390TMC3    C5 5881   2.987   2.319  11.115  0.5640 -0.0066  0.9865
  390TMC3    C6 5882   3.046   2.300  11.239  0.5092  0.0120  0.3358
  390TMC3     C 5883   3.285   2.378  10.922  0.0608 -0.0661 -0.3532
  390TMC3     O 5884   3.230   2.411  10.817  0.1961  0.3137  0.1336
  390TMC3     H 5885   3.352   2.205  11.141 -2.2008 -3.3066  2.9028
  390TMC3    H1 5886   3.024   2.334  10.908  1.0544 -2.3416 -1.0291
  390TMC3    H2 5887   2.987   2.319  11.327  0.9083 -1.9886  1.0173
  390TMC3    C7 5888   2.877   2.230  11.087  0.2659 -0.4814 -0.1207
  390TMC3    C8 5889   3.175   2.124  11.298  0.1298 -0.1726  0.2224
  390TMC3    O1 5890   2.850   2.205  10.970  0.2581 -0.2880 -0.1619
  390TMC3    O2 5891   3.219   2.033  11.222 -0.2102 -0.5681  0.0537
  391MPD2     C 5892   2.800   3.707  11.017  0.3688 -0.2867 -0.7032
  391MPD2    C1 5893   2.931   3.746  11.016  0.6463  0.5136  0.5935
  391MPD2    C2 5894   3.000   3.755  10.893  0.8407 -0.0721 -0.2992
  391MPD2    C3 5895   2.930   3.735  10.777  0.1263  0.0872  0.7555
  391MPD2    C4 5896   2.808   3.684  10.780  0.1362 -0.8575  0.6665
  391MPD2    C5 5897   2.746   3.668  10.899 -0.5393 -0.2480 -0.4576
  391MPD2     H 5898   3.100   3.795  10.895  1.0200 -0.6355  1.8192
  391MPD2    H1 5899   2.753   3.664  10.689  0.7305 -1.2755  0.3993
  391MPD2    H2 5900   2.748   3.682  11.108 -0.7869  0.7525 -1.0897
  391MPD2    H3 5901   2.651   3.615  10.900  0.6658 -2.4552 -2.6790
  391MPD2     N 5902   2.985   3.786  10.659 -1.0056 -0.3239 -0.0545
  391MPD2    H5 5903   3.073   3.835  10.665 -0.4024 -1.3911 -0.1104
  391MPD2    N1 5904   2.985   3.774  11.145  0.3004 -0.0646 -0.5961
  391MPD2    H7 5905   2.916   3.784  11.218  0.6369 -0.9227 -0.1577
  392TMC3    C1 5906   3.004   3.836  10.429 -0.1740  0.3014  0.4338
  392TMC3    C2 5907   2.977   3.788  10.302  0.6159 -0.6497 -0.4237
  392TMC3    C3 5908   2.984   3.878  10.201  0.3614  0.2930  0.6522
  392TMC3    C4 5909   3.062   3.959  10.446  0.0979 -0.1312  0.1455
  392TMC3    C5 5910   3.074   4.047  10.343 -0.3343 -0.1648  0.1555
  392TMC3    C6 5911   3.035   4.006  10.217 -0.3868  0.7301  0.0116
  392TMC3     C 5912   2.938   3.763  10.531 -0.0560 -0.0971  0.1876
  392TMC3     O 5913   2.841   3.691  10.499  0.0632  0.5636 -0.1842
  392TMC3     H 5914   2.932   3.692  10.280  2.3155 -0.7750 -3.3184
  392TMC3    H1 5915   3.095   3.982  10.546  1.9424 -1.7903 -0.0747
  392TMC3    H2 5916   3.034   4.076  10.134 -1.2030 -0.6523 -1.1508
  392TMC3    C7 5917   3.113   4.176  10.377  0.0816  0.0633 -0.1578
  392TMC3    C8 5918   2.899   3.848  10.092  0.1836  0.1991  0.1681
  392TMC3    O1 5919   3.142   4.197  10.494  0.1849 -0.4002  0.2940
  392TMC3    O2 5920   2.805   3.770  10.103 -0.4004 -0.1346 -0.3028
  393TMC3    C1 5921   1.179   2.515  10.946  0.2007  0.7467 -0.6596
  393TMC3    C2 5922   1.135   2.619  11.026  0.1744 -0.0343  0.3220
  393TMC3    C3 5923   1.044   2.587  11.126 -0.1216  0.2710  0.1681
  393TMC3    C4 5924   1.131   2.382  10.964  0.1028  0.3908  0.4046
  393TMC3    C5 5925   1.046   2.358  11.069  0.1048 -0.4165 -0.2472
  393TMC3    C6 5926   1.000   2.456  11.148  0.0924  0.3007  0.2248
  393TMC3     C 5927   1.245   2.542  10.821  0.0765  0.2533 -0.1729
  393TMC3     O 5928   1.208   2.496  10.715 -0.9588 -0.6365  0.3205
  393TMC3     H 5929   1.173   2.719  11.007  1.7063 -0.2726  2.0495
  393TMC3    H1 5930   1.161   2.301  10.900 -0.1873  0.6288 -0.0282
  393TMC3    H2 5931   0.939   2.435  11.235 -2.0043 -1.8085 -1.7623
  393TMC3    C7 5932   1.045   2.230  11.125 -0.4641  0.6095  0.0430
  393TMC3    C8 5933   1.046   2.664  11.248 -0.1870  0.3043 -0.0260
  393TMC3    O1 5934   0.952   2.196  11.196  0.3194 -0.0423 -0.0574
  393TMC3    O2 5935   0.987   2.616  11.347 -0.0769 -0.4147  0.2036
  394TMC3    C1 5936   3.475   2.715  10.362  0.3722  0.4888 -0.1868
  394TMC3    C2 5937   3.422   2.640  10.265 -0.0138 -0.3690  0.5753
  394TMC3    C3 5938   3.400   2.706  10.145  0.5045  0.3259  0.4195
  394TMC3    C4 5939   3.500   2.848  10.351 -0.6048  0.3346  0.2836
  394TMC3    C5 5940   3.465   2.905  10.233  0.2509 -0.0388 -0.4247
  394TMC3    C6 5941   3.422   2.837  10.126 -0.0089 -0.8212  0.5680
  394TMC3     C 5942   3.444   2.682  10.501  0.3585  0.1757 -1.8222
  394TMC3     O 5943   3.333   2.637  10.520  0.1726  0.2728 -0.3602
  394TMC3     H 5944   3.412   2.534  10.288 -0.1002 -0.2399  1.1311
  394TMC3    H1 5945   3.506   2.913  10.438 -0.1381 -1.1653  1.3643
  394TMC3    H2 5946   3.395   2.884  10.031  1.3252  0.4361  0.8074
  394TMC3    C7 5947   3.467   3.052  10.224 -0.6843  0.4685 -0.4597
  394TMC3    C8 5948   3.348   2.628  10.035  0.2093  0.3297  0.0662
  394TMC3    O1 5949   3.553   3.106  10.292  0.2626 -0.5047 -0.1384
  394TMC3    O2 5950   3.327   2.691   9.930  0.3024  0.2115  0.5674
  395TMC3    C1 5951   3.445   4.147  15.125 -0.2822 -0.1668  0.7226
  395TMC3    C2 5952   3.334   4.122  15.046  0.4542 -0.3553  0.2052
  395TMC3    C3 5953   3.305   4.213  14.944 -0.0553 -0.8480  0.8346
  395TMC3    C4 5954   3.528   4.261  15.106 -0.1996 -0.4092 -0.5498
  395TMC3    C5 5955   3.501   4.337  14.998 -0.0240  0.0785 -0.0525
  395TMC3    C6 5956   3.393   4.315  14.915 -0.3777  0.5301  0.8232
  395TMC3     C 5957   3.454   4.059  15.236 -0.5931 -0.3767 -0.0969
  395TMC3     O 5958   3.369   3.981  15.250 -0.2694 -0.4367 -0.3687
  395TMC3     H 5959   3.267   4.043  15.078 -0.0010 -0.6583 -1.4942
  395TMC3    H1 5960   3.609   4.277  15.176 -0.1129 -1.6462 -0.3620
  395TMC3    H2 5961   3.361   4.383  14.838 -1.0416 -1.3443 -0.5739
  395TMC3    C7 5962   3.558   4.462  14.996 -0.2412  0.5141 -0.7975
  395TMC3    C8 5963   3.165   4.252  14.960 -0.8534 -0.3668 -0.2049
  395TMC3    O1 5964   3.591   4.506  15.106  0.2167 -0.0892 -0.3138
  395TMC3    O2 5965   3.160   4.374  14.975  0.0633 -0.1387 -0.3121
  396MPD2     C 5966   2.926   0.343  16.771 -0.2373  0.0895  0.8067
  396MPD2    C1 5967   3.007   0.398  16.864 -0.0805  0.4771  0.0446
  396MPD2    C2 5968   3.076   0.518  16.832  0.4218 -0.1292  0.2404
  396MPD2    C3 5969   3.053   0.579  16.712 -0.7436  0.3397 -1.0633
  396MPD2    C4 5970   2.965   0.522  16.618 -0.5278  0.3302 -0.3667
  396MPD2    C5 5971   2.898   0.409  16.653 -0.4247 -0.3033 -0.2650
  396MPD2     H 5972   3.134   0.572  16.906 -0.6301  0.5965  0.5324
  396MPD2    H1 5973   2.947   0.562  16.519  0.2336  2.2619  0.2894
  396MPD2    H2 5974   2.873   0.251  16.790  0.8543 -1.1227 -2.0557
  396MPD2    H3 5975   2.831   0.363  16.581 -0.1191  1.0024 -1.3771
  396MPD2     N 5976   3.124   0.698  16.684 -0.1572  0.0654  0.3923
  396MPD2    H5 5977   3.202   0.715  16.747 -0.1713 -0.2978  0.5065
  396MPD2    N1 5978   3.025   0.319  16.990 -0.2143 -0.0469 -0.5471
  396MPD2    H7 5979   2.975   0.231  17.000  0.1093 -0.4738 -2.7552
  397TMC3    C1 5980   3.147   0.251  17.184  0.1412 -0.2861 -0.3039
  397TMC3    C2 5981   3.282   0.230  17.170 -1.0872  0.4476 -0.1261
  397TMC3    C3 5982   3.326   0.125  17.101  0.1806  0.1855 -0.7332
  397TMC3    C4 5983   3.064   0.134  17.181 -0.7049 -0.4725 -0.1636
  397TMC3    C5 5984   3.120   0.022  17.112 -0.3103  1.1196  0.0273
  397TMC3    C6 5985   3.248   0.019  17.072  0.2530  1.1049 -0.6307
  397TMC3     C 5986   3.111   0.363  17.095 -0.5454  0.2048 -0.4291
  397TMC3     O 5987   3.194   0.452  17.086 -0.5454 -0.0921 -0.3301
  397TMC3     H 5988   3.345   0.319  17.169  0.6085 -0.7653 -0.1293
  397TMC3    H1 5989   2.956   0.142  17.181 -0.5662  1.2523  1.0534
  397TMC3    H2 5990   3.276   4.660  17.031 -0.2249 -0.2060  2.1059
  397TMC3    C7 5991   3.039   4.638  17.120  0.5390  0.5256  0.0316
  397TMC3    C8 5992   3.398   0.168  16.985  0.3672  0.3032 -0.1032
  397TMC3    O1 5993   3.077   4.541  17.060 -0.1341 -0.4223 -0.5558
  397TMC3    O2 5994   3.368   0.128  16.874  0.2047 -0.0224  0.2493
  398MPD2     C 5995   1.638   1.583   0.412  0.2492 -0.6593  0.0118
  398MPD2    C1 5996   1.770   1.580   0.390  0.1698 -0.0786 -0.1498
  398MPD2    C2 5997   1.831   1.699   0.360 -0.3101 -0.6979  0.2851
  398MPD2    C3 5998   1.764   1.818   0.346 -0.0473 -0.5662  0.5184
  398MPD2    C4 5999   1.638   1.817   0.398 -0.5874  0.0046 -0.3343
  398MPD2    C5 6000   1.578   1.699   0.428 -0.3118  0.1952  0.0431
  398MPD2     H 6001   1.936   1.689   0.334 -0.4722 -0.7598 -0.3430
  398MPD2    H1 6002   1.578   1.908   0.406  0.5658  0.6965  0.5699
  398MPD2    H2 6003   1.579   1.492   0.420  1.3201 -1.4265 -0.7798
  398MPD2    H3 6004   1.475   1.694   0.462 -0.6054 -0.8444 -1.0162
  398MPD2     N 6005   1.829   1.929   0.296  0.4369  0.0526 -0.0289
  398MPD2    H5 6006   1.928   1.933   0.272  0.4630 -3.1209 -0.4882
  398MPD2    N1 6007   1.840   1.460   0.370 -0.6815 -0.0971 -0.6536
  398MPD2    H7 6008   1.939   1.463   0.348 -0.7566  0.0579 -0.9604
  399TMC3    C1 6009   1.921   1.235   0.407  0.4376 -0.3774 -0.3104
  399TMC3    C2 6010   2.055   1.265   0.394  0.0528  0.7070 -0.1048
  399TMC3    C3 6011   2.141   1.155   0.390 -0.7432  0.1287  0.0634
  399TMC3    C4 6012   1.880   1.103   0.412  0.4213  0.2508  0.0159
  399TMC3    C5 6013   1.976   1.010   0.395  0.4565 -0.4028  0.2949
  399TMC3    C6 6014   2.108   1.029   0.392  0.1644  0.1639  0.2849
  399TMC3     C 6015   1.804   1.332   0.400  0.8094  0.2760 -0.6612
  399TMC3     O 6016   1.693   1.294   0.440  0.1318  0.3178 -0.2702
  399TMC3     H 6017   2.091   1.367   0.389 -1.2153  1.0497 -2.1929
  399TMC3    H1 6018   1.776   1.082   0.431  0.9026 -1.3107  0.8923
  399TMC3    H2 6019   2.180   0.948   0.383 -0.5701 -0.4406 -0.1021
  399TMC3    C7 6020   1.917   0.888   0.329 -0.4297 -0.8087 -0.5651
  399TMC3    C8 6021   2.285   1.176   0.411 -0.1738  0.7053  0.4566
  399TMC3    O1 6022   1.979   0.783   0.341 -0.3930 -0.1974  0.3511
  399TMC3    O2 6023   2.328   1.272   0.350 -0.1242  0.6358 -0.2769
  400TMC3    C1 6024   0.064   0.139  16.963 -0.3772 -0.3957  0.4245
  400TMC3    C2 6025   4.670   0.111  16.943 -0.2964  0.2206  0.8451
  400TMC3    C3 6026   4.594   0.212  16.897 -0.0029 -0.6755  0.0634
  400TMC3    C4 6027   0.121   0.254  16.918  0.4585 -0.1120 -0.4820
  400TMC3    C5 6028   0.037   0.358  16.879 -0.5222  0.1361 -0.4022
  400TMC3    C6 6029   4.638   0.339  16.875  0.1533 -0.2210 -0.1952
  400TMC3     C 6030   0.142   0.056  17.039  0.4198 -0.3282 -1.5370
  400TMC3     O 6031   0.085   0.006  17.133 -0.1528 -0.1833  0.1275
  400TMC3     H 6032   4.634   0.013  16.973  0.6163 -0.0944  0.9133
  400TMC3    H1 6033   0.214   0.288  16.961 -0.4512  0.8673  0.7516
  400TMC3    H2 6034   4.574   0.423  16.849 -0.2144 -0.4151  0.0793
  400TMC3    C7 6035   0.080   0.493  16.872  0.3850 -0.0044  0.7791
  400TMC3    C8 6036   4.451   0.185  16.863  0.5036 -0.6330  0.2503
  400TMC3    O1 6037   0.183   0.513  16.810  0.4490  0.0130 -0.5204
  400TMC3    O2 6038   4.377   0.278  16.842  0.2826  0.5371  0.6422
  401MPD2     C 6039   3.458   3.881   0.752 -0.3381 -0.1792 -0.0922
  401MPD2    C1 6040   3.490   3.796   0.857 -0.0072 -0.0477 -0.2420
  401MPD2    C2 6041   3.465   3.661   0.853 -0.4331 -0.6480 -0.0199
  401MPD2    C3 6042   3.413   3.602   0.740  0.1836 -0.3457  0.3649
  401MPD2    C4 6043   3.373   3.686   0.638  0.4658  0.1454  0.1737
  401MPD2    C5 6044   3.403   3.820   0.648 -0.2507  0.8021  0.4703
  401MPD2     H 6045   3.487   3.598   0.938  2.0723 -1.2978 -1.1706
  401MPD2    H1 6046   3.320   3.654   0.549 -0.4944 -1.2623  1.2644
  401MPD2    H2 6047   3.458   3.990   0.750 -0.6337 -0.1852 -0.5770
  401MPD2    H3 6048   3.371   3.890   0.572  0.1475  1.2798  0.7459
  401MPD2     N 6049   3.398   3.465   0.731  0.5032  0.0840  0.2076
  401MPD2    H5 6050   3.446   3.423   0.810 -2.7435 -1.7897  1.1866
  401MPD2    N1 6051   3.554   3.843   0.971 -0.0549 -0.6637 -0.5475
  401MPD2    H7 6052   3.580   3.776   1.043 -1.2747  0.4838  0.9749
  402TMC3    C1 6053   3.334   3.248   0.649 -0.5964  0.3729 -0.6817
  402TMC3    C2 6054   3.317   3.199   0.786 -0.6006 -0.0313  0.4098
  402TMC3    C3 6055   3.321   3.063   0.806 -0.1641 -0.2657  0.3642
  402TMC3    C4 6056   3.333   3.149   0.546 -0.3628  0.4190 -0.0480
  402TMC3    C5 6057   3.321   3.019   0.574  0.1965 -0.2602 -0.6023
  402TMC3    C6 6058   3.323   2.969   0.700 -0.3170 -0.1576 -0.0104
  402TMC3     C 6059   3.352   3.393   0.621  0.3809  0.3851  0.0682
  402TMC3     O 6060   3.350   3.431   0.506 -0.5685 -0.1473  0.2132
  402TMC3     H 6061   3.303   3.268   0.868  1.2553  0.3827  0.3701
  402TMC3    H1 6062   3.344   3.178   0.442  1.7355  0.0004  0.0594
  402TMC3    H2 6063   3.321   2.863   0.722  0.5853 -0.7343 -2.6972
  402TMC3    C7 6064   3.333   2.933   0.452 -0.6016  0.1452 -0.2678
  402TMC3    C8 6065   3.316   3.010   0.945  0.8137 -0.4505 -0.1924
  402TMC3    O1 6066   3.327   2.980   0.337  0.6633 -0.5289  1.1001
  402TMC3    O2 6067   3.307   2.889   0.960 -0.1183  0.0254 -0.1691
  403MPD2     C 6068   1.226   1.977  13.240  0.1991 -0.3935 -0.1683
  403MPD2    C1 6069   1.227   1.866  13.319 -0.0507 -0.1777 -0.1493
  403MPD2    C2 6070   1.289   1.871  13.448  0.2977 -0.0639 -0.6420
  403MPD2    C3 6071   1.348   1.989  13.490 -0.1734 -0.3887 -0.3984
  403MPD2    C4 6072   1.326   2.102  13.408 -0.0919 -0.9151  0.3253
  403MPD2    C5 6073   1.274   2.090  13.286 -0.5353  0.2603 -0.3078
  403MPD2     H 6074   1.297   1.780  13.506 -0.8302  0.1510 -0.1499
  403MPD2    H1 6075   1.369   2.200  13.425  0.9881 -0.6795 -3.8076
  403MPD2    H2 6076   1.176   1.980  13.144 -1.3954  0.4011  0.6826
  403MPD2    H3 6077   1.261   2.176  13.221  1.5540 -0.5005 -1.7391
  403MPD2     N 6078   1.396   2.004  13.623  0.0948  0.2238  0.1978
  403MPD2    H5 6079   1.416   1.918  13.672 -1.3990  0.2642  0.8755
  403MPD2    N1 6080   1.147   1.754  13.283  0.2275  0.6978 -0.2166
  403MPD2    H7 6081   1.112   1.765  13.189 -0.5719  1.6535  0.2011
  404TMC3    C1 6082   1.060   1.529  13.277 -0.1440 -0.4281  0.4976
  404TMC3    C2 6083   1.025   1.426  13.352  0.3093  0.0496  0.0666
  404TMC3    C3 6084   0.966   1.317  13.292 -1.1714  0.9646  0.0980
  404TMC3    C4 6085   1.019   1.538  13.150 -1.0260 -0.0304  0.3344
  404TMC3    C5 6086   0.966   1.434  13.087  0.5575 -0.1659 -0.3758
  404TMC3    C6 6087   0.942   1.322  13.160 -0.4376  0.7303 -0.2420
  404TMC3     C 6088   1.126   1.637  13.352 -0.6000  0.3840 -0.3020
  404TMC3     O 6089   1.170   1.607  13.464 -0.3896  0.2685  0.2462
  404TMC3     H 6090   1.058   1.415  13.455 -0.1014 -1.3609  0.0502
  404TMC3    H1 6091   1.037   1.630  13.096  1.7499  0.4078  1.9984
  404TMC3    H2 6092   0.895   1.240  13.108  1.6020 -0.7114  0.1816
  404TMC3    C7 6093   0.922   1.438  12.946  0.4927 -0.0238 -0.3054
  404TMC3    C8 6094   0.943   1.198  13.370 -0.8076 -0.0683  0.4294
  404TMC3    O1 6095   0.975   1.525  12.880 -0.0824 -0.2595 -0.8021
  404TMC3    O2 6096   0.954   1.086  13.318  0.3443  0.1823 -0.4390
  405MPD2     C 6097   1.484   2.235  15.137 -0.0835  0.1026  0.4256
  405MPD2    C1 6098   1.442   2.169  15.022 -0.3357  0.4889  0.1456
  405MPD2    C2 6099   1.323   2.207  14.965 -0.2284 -0.1972  0.2760
  405MPD2    C3 6100   1.240   2.293  15.027 -0.5725 -0.0086  0.1965
  405MPD2    C4 6101   1.285   2.357  15.144 -0.1689  0.3276  0.2780
  405MPD2    C5 6102   1.402   2.326  15.203 -0.0468 -0.1606  0.0502
  405MPD2     H 6103   1.285   2.160  14.875  0.6131 -2.7072  1.2356
  405MPD2    H1 6104   1.235   2.433  15.203 -0.4504  0.7745 -0.5380
  405MPD2    H2 6105   1.578   2.201  15.180 -1.2386  0.4650  3.2354
  405MPD2    H3 6106   1.432   2.370  15.298  3.0050  0.2493 -1.1100
  405MPD2     N 6107   1.116   2.318  14.960  0.1180  0.3106  0.2972
  405MPD2    H5 6108   1.096   2.276  14.870  1.2083  0.2071  0.0994
  405MPD2    N1 6109   1.529   2.072  14.966 -0.1659 -0.2354  0.3730
  405MPD2    H7 6110   1.598   2.024  15.023  0.5619  0.5045  0.1073
  406TMC3    C1 6111   0.731   2.459  14.806 -0.5802 -0.6451  0.1666
  406TMC3    C2 6112   0.714   2.353  14.732  0.1710  0.4483  0.9750
  406TMC3    C3 6113   0.808   2.255  14.754 -0.0474 -1.1324 -0.0966
  406TMC3    C4 6114   0.815   2.468  14.911  0.5552  0.1336 -0.4878
  406TMC3    C5 6115   0.895   2.366  14.931 -0.1082  0.0735  0.2520
  406TMC3    C6 6116   0.892   2.248  14.858 -0.1653  0.7584  0.6917
  406TMC3     C 6117   0.661   2.580  14.760 -0.4170  0.6004  0.3415
  406TMC3     O 6118   0.611   2.655  14.842 -0.1549 -0.1881 -0.1689
  406TMC3     H 6119   0.652   2.348  14.643  1.3910  1.8564  0.0394
  406TMC3    H1 6120   0.830   2.567  14.954  3.1519 -0.4586 -0.0015
  406TMC3    H2 6121   0.958   2.164  14.876  0.6506  0.8047 -2.1438
  406TMC3    C7 6122   1.009   2.386  15.015 -0.8155  0.0725  0.1798
  406TMC3    C8 6123   0.829   2.166  14.636  0.5194 -0.4205 -0.6426
  406TMC3    O1 6124   1.005   2.460  15.114 -0.2883  0.2677 -0.8526
  406TMC3    O2 6125   0.813   2.215  14.527  0.3805  0.0939 -0.3027
  407MPD2     C 6126   3.623   3.905   9.966 -0.0806  0.1037  0.0772
  407MPD2    C1 6127   3.722   3.880  10.059  0.0031 -0.2525  0.5789
  407MPD2    C2 6128   3.778   3.988  10.132 -0.3373  0.1919  0.1871
  407MPD2    C3 6129   3.742   4.121  10.106 -0.7675  0.2924  0.6896
  407MPD2    C4 6130   3.643   4.139  10.016  0.4552 -0.5191  0.7475
  407MPD2    C5 6131   3.583   4.033   9.944  1.0483  0.1586  0.5079
  407MPD2     H 6132   3.861   3.966  10.198 -1.2932 -2.2390  0.5940
  407MPD2    H1 6133   3.619   4.239   9.984  1.9396 -1.2687 -2.7260
  407MPD2    H2 6134   3.565   3.828   9.915  2.4352 -1.6215 -0.2067
  407MPD2    H3 6135   3.510   4.052   9.866  0.6105 -1.3849  0.5345
  407MPD2     N 6136   3.781   4.233  10.172 -0.5249  0.1230 -0.0186
  407MPD2    H5 6137   3.747   4.320  10.133  0.2597  0.1770 -0.5813
  407MPD2    N1 6138   3.779   3.753  10.093  0.5587  0.0524 -0.1304
  407MPD2    H7 6139   3.864   3.766  10.147  1.2590 -0.3357 -1.1414
  408TMC3    C1 6140   3.802   3.519  10.095 -0.0626  0.0320 -0.1485
  408TMC3    C2 6141   3.943   3.518  10.093 -0.1870 -0.1602 -0.0114
  408TMC3    C3 6142   4.005   3.397  10.097  0.3722  0.1324 -0.0575
  408TMC3    C4 6143   3.739   3.401  10.069 -0.2401 -0.0990 -0.1027
  408TMC3    C5 6144   3.805   3.281  10.066 -0.1320 -0.2529  0.4523
  408TMC3    C6 6145   3.944   3.283  10.079 -0.3356 -0.2015  0.3111
  408TMC3     C 6146   3.737   3.628  10.047  0.3291 -0.0309  0.8531
  408TMC3     O 6147   3.646   3.610   9.967 -0.3412  0.0537  0.7122
  408TMC3     H 6148   3.999   3.609  10.111 -1.9614  0.7725  0.9035
  408TMC3    H1 6149   3.632   3.394  10.051 -0.3047 -2.6419  1.1781
  408TMC3    H2 6150   4.005   3.194  10.080  0.5035  0.3763 -0.0550
  408TMC3    C7 6151   3.733   3.160  10.015  0.2357 -0.2637 -1.3267
  408TMC3    C8 6152   4.149   3.390  10.103 -0.5027 -0.5179  0.0373
  408TMC3    O1 6153   3.635   3.169   9.939  0.1826 -0.4592 -0.0390
  408TMC3    O2 6154   4.197   3.298  10.172 -0.5881  0.3957  0.4356
  409MPD2     C 6155   3.367   4.273  16.982 -0.2613 -0.9737 -0.2453
  409MPD2    C1 6156   3.448   4.319  17.081 -0.3905  0.4809  0.2807
  409MPD2    C2 6157   3.505   4.447  17.061  0.2944  0.1307 -0.3062
  409MPD2    C3 6158   3.503   4.519  16.947  0.5158  0.6310 -0.0027
  409MPD2    C4 6159   3.426   4.471  16.849 -0.3306  0.2083  0.5102
  409MPD2    C5 6160   3.353   4.351  16.868 -0.2137 -0.7983 -0.1808
  409MPD2     H 6161   3.563   4.485  17.144  1.2943  0.2602 -1.0728
  409MPD2    H1 6162   3.421   4.517  16.751  1.8875  0.2988  0.4511
  409MPD2    H2 6163   3.318   4.177  16.993 -3.6500  0.8262  0.5208
  409MPD2    H3 6164   3.280   4.329  16.791 -1.8650 -0.7471  1.3488
  409MPD2     N 6165   3.585   4.638  16.924  0.2439  0.1745  0.0549
  409MPD2    H5 6166   3.574   4.697  16.843 -0.4594 -0.9200 -0.6533
  409MPD2    N1 6167   3.481   4.251  17.202  0.1783  0.3500 -0.5824
  409MPD2    H7 6168   3.536   4.298  17.272 -0.7866 -0.8292  0.9565
  410TMC3    C1 6169   3.769   0.045  16.946  0.1446 -0.3490  0.2649
  410TMC3    C2 6170   3.857   0.110  17.031 -0.3483 -0.4457  0.0991
  410TMC3    C3 6171   3.915   0.225  16.997  0.0397  0.3438  0.1455
  410TMC3    C4 6172   3.746   0.099  16.820 -1.0444  1.1722 -0.4015
  410TMC3    C5 6173   3.807   0.216  16.785  0.7771 -0.4418  0.2958
  410TMC3    C6 6174   3.893   0.282  16.871 -0.2614  0.3098  0.4983
  410TMC3     C 6175   3.691   4.676  17.001  0.5017 -0.2356  0.9684
  410TMC3     O 6176   3.733   4.625  17.105 -0.5418 -0.0768 -0.2152
  410TMC3     H 6177   3.873   0.071  17.131  1.4198  1.4429  0.5499
  410TMC3    H1 6178   3.682   0.049  16.748 -1.4766  0.8005  0.2444
  410TMC3    H2 6179   3.935   0.380  16.850  0.0815  0.3631  1.4066
  410TMC3    C7 6180   3.811   0.243  16.642 -0.1004 -0.8163 -0.9758
  410TMC3    C8 6181   4.042   0.260  17.062  0.2681  0.7347 -0.0083
  410TMC3    O1 6182   3.765   0.153  16.574  0.2234  0.1428 -0.2339
  410TMC3    O2 6183   4.066   0.380  17.053  0.5474 -0.5186  0.2299
  411MPD2     C 6184   3.434   4.286  14.485 -0.0458 -0.0624 -0.1026
  411MPD2    C1 6185   3.338   4.375  14.527 -0.5840 -0.5402  0.1257
  411MPD2    C2 6186   3.219   4.334  14.575 -0.2036  0.7088  0.3312
  411MPD2    C3 6187   3.198   4.189  14.582 -0.2575  0.1471 -0.7620
  411MPD2    C4 6188   3.301   4.107  14.540  0.4793  0.6848 -0.5731
  411MPD2    C5 6189   3.424   4.149  14.508 -0.7437  0.8884 -0.7870
  411MPD2     H 6190   3.141   4.404  14.602  0.7443  1.9277 -0.1066
  411MPD2    H1 6191   3.298   3.999  14.549 -4.0010  0.8868  0.2745
  411MPD2    H2 6192   3.532   4.319  14.453 -0.4433  0.0735 -1.1604
  411MPD2    H3 6193   3.511   4.090  14.482 -1.4706 -0.4462 -0.1675
  411MPD2     N 6194   3.080   4.136  14.626 -0.2733  0.3284  0.1359
  411MPD2    H5 6195   3.070   4.036  14.642 -2.3349 -0.0277 -3.2150
  411MPD2    N1 6196   3.364   4.513  14.512 -0.0493  0.1935  0.2719
  411MPD2    H7 6197   3.438   4.540  14.448 -0.1549 -0.3078 -0.0693
  412TMC3    C1 6198   2.849   4.125  14.676  0.7923 -0.0130  0.3167
  412TMC3    C2 6199   2.726   4.179  14.677 -0.1123 -0.3239  0.4439
  412TMC3    C3 6200   2.626   4.092  14.645  0.6852  0.2101 -0.6461
  412TMC3    C4 6201   2.871   3.990  14.669 -0.0018 -0.0953  0.0863
  412TMC3    C5 6202   2.762   3.898  14.656  0.2604 -0.0713  0.3286
  412TMC3    C6 6203   2.643   3.956  14.632  0.4130  0.0704  0.5180
  412TMC3     C 6204   2.964   4.210  14.650  0.7491  0.3746  0.3123
  412TMC3     O 6205   2.936   4.326  14.641 -0.1462 -0.0550  0.2513
  412TMC3     H 6206   2.709   4.286  14.677  0.1586 -0.2857 -0.0978
  412TMC3    H1 6207   2.965   3.935  14.666 -0.7439 -1.2086 -3.0739
  412TMC3    H2 6208   2.556   3.903  14.597  0.3255  0.1724  0.5809
  412TMC3    C7 6209   2.795   3.796  14.566  0.0122  0.1112  0.0775
  412TMC3    C8 6210   2.559   4.134  14.531  0.0334 -0.2565 -0.1889
  412TMC3    O1 6211   2.895   3.722  14.587 -0.4136 -0.1030 -0.1864
  412TMC3    O2 6212   2.563   4.049  14.441  0.3470  0.3369 -0.0752
  413MPD2     C 6213   0.460   3.100  15.914  0.1739 -0.3456  0.2742
  413MPD2    C1 6214   0.408   3.056  15.792 -0.3633  0.1394  0.6486
  413MPD2    C2 6215   0.497   2.981  15.720  0.4957  0.0850 -0.4371
  413MPD2    C3 6216   0.629   2.956  15.756 -0.2758 -0.7748 -0.0263
  413MPD2    C4 6217   0.674   2.985  15.880 -0.7761 -0.1824 -0.1129
  413MPD2    C5 6218   0.587   3.061  15.954  0.3127 -0.1392  0.0803
  413MPD2     H 6219   0.464   2.939  15.626 -1.2632  0.2667  0.1140
  413MPD2    H1 6220   0.774   2.970  15.920 -1.0774 -0.6109  0.4795
  413MPD2    H2 6221   0.387   3.155  15.972  0.2570  2.0894 -1.9464
  413MPD2    H3 6222   0.620   3.099  16.050 -2.1162  1.7246  0.1971
  413MPD2     N 6223   0.717   2.884  15.669  0.4085 -0.1591 -0.1012
  413MPD2    H5 6224   0.675   2.840  15.587  1.9842 -2.9773  0.5818
  413MPD2    N1 6225   0.274   3.088  15.761 -0.4698 -0.4020 -0.6971
  413MPD2    H7 6226   0.228   3.159  15.817 -0.7784 -0.7559 -0.4986
  414TMC3    C1 6227   0.902   2.740  15.594  0.4104  0.2469  0.1596
  414TMC3    C2 6228   1.003   2.667  15.634  0.4137 -0.0201 -0.3867
  414TMC3    C3 6229   1.081   2.606  15.535 -0.0653  0.9457 -0.1359
  414TMC3    C4 6230   0.875   2.765  15.460 -0.4537 -1.1320  0.0576
  414TMC3    C5 6231   0.956   2.712  15.370  0.0427 -0.2872  0.6679
  414TMC3    C6 6232   1.056   2.627  15.396  0.2764  0.1294 -0.3066
  414TMC3     C 6233   0.842   2.824  15.702  0.0166 -0.4107  0.0622
  414TMC3     O 6234   0.897   2.817  15.809  0.2607 -0.0095  0.5216
  414TMC3     H 6235   1.018   2.648  15.739 -1.8807 -0.1684 -0.0919
  414TMC3    H1 6236   0.788   2.820  15.425  0.3102 -0.4206 -0.7212
  414TMC3    H2 6237   1.100   2.559  15.324 -1.0174 -0.2870 -0.7036
  414TMC3    C7 6238   0.983   2.789  15.254  1.1555  0.0922 -0.4780
  414TMC3    C8 6239   1.170   2.500  15.573 -0.0942  0.6609  0.2289
  414TMC3    O1 6240   0.950   2.904  15.252 -0.8159 -0.4253  0.1545
  414TMC3    O2 6241   1.172   2.402  15.500 -0.0718  0.2849  0.0204
  415TMC3    C1 6242   1.223   1.550  10.365  0.0822 -0.0402 -0.2974
  415TMC3    C2 6243   1.327   1.625  10.317  0.0932  0.3374  0.1573
  415TMC3    C3 6244   1.393   1.582  10.205 -0.6856 -0.4014 -0.4553
  415TMC3    C4 6245   1.200   1.421  10.317 -0.7078  0.0666 -0.6517
  415TMC3    C5 6246   1.269   1.381  10.208 -0.8004  0.0521  0.0505
  415TMC3    C6 6247   1.362   1.461  10.145  0.7561 -0.8582 -0.0138
  415TMC3     C 6248   1.172   1.576  10.504 -0.1097  0.1227  0.7934
  415TMC3     O 6249   1.140   1.479  10.570 -0.2398 -0.2461 -0.6802
  415TMC3     H 6250   1.357   1.713  10.373  1.4848 -0.4743  0.6915
  415TMC3    H1 6251   1.127   1.362  10.371 -0.5605 -1.5329 -2.1948
  415TMC3    H2 6252   1.408   1.431  10.052  2.5600 -0.5157  0.7702
  415TMC3    C7 6253   1.261   1.242  10.164 -0.7344 -0.6932  0.4796
  415TMC3    C8 6254   1.487   1.660  10.130  0.3060 -0.5657 -0.2185
  415TMC3    O1 6255   1.326   1.206  10.066 -0.0758 -0.1442 -0.4434
  415TMC3    O2 6256   1.541   1.606  10.032 -0.3614 -0.0311 -0.3550
  416MPD2     C 6257   2.748   4.563  11.620  0.4286 -0.2663  0.1905
  416MPD2    C1 6258   2.790   4.673  11.545 -0.4428  0.7127 -0.2342
  416MPD2    C2 6259   2.795   4.663  11.405 -0.1766  0.0255  0.5545
  416MPD2    C3 6260   2.781   4.537  11.345 -0.1704  0.2326  0.4810
  416MPD2    C4 6261   2.744   4.429  11.424  0.4438 -0.8022  0.1811
  416MPD2    C5 6262   2.729   4.445  11.560  0.5932 -0.4934 -0.5794
  416MPD2     H 6263   2.824   0.007  11.340  1.1251  0.9473  2.3024
  416MPD2    H1 6264   2.713   4.338  11.374  0.1832 -1.3007  1.2534
  416MPD2    H2 6265   2.731   4.565  11.727 -1.0806 -0.9968 -0.0369
  416MPD2    H3 6266   2.699   4.357  11.616  1.0622 -1.3093 -1.5959
  416MPD2     N 6267   2.802   4.509  11.208 -0.4499 -0.0335  0.1330
  416MPD2    H5 6268   2.796   4.411  11.182  3.2202 -0.0032 -0.8590
  416MPD2    N1 6269   2.814   0.069  11.600 -0.0867 -0.0174  0.3835
  416MPD2    H7 6270   2.820   0.144  11.532 -0.7753  1.9857  2.5512
  417TMC3    C1 6271   2.773   0.227  11.763  0.5453 -0.4558 -0.0705
  417TMC3    C2 6272   2.755   0.249  11.897  0.0946  0.0701  0.0597
  417TMC3    C3 6273   2.677   0.354  11.931 -0.0130  0.2105  0.0196
  417TMC3    C4 6274   2.697   0.290  11.669  0.1085 -0.1157 -0.1361
  417TMC3    C5 6275   2.614   0.393  11.714 -1.0285  0.2376  0.4429
  417TMC3    C6 6276   2.606   0.431  11.848 -0.7520 -0.4843 -0.2023
  417TMC3     C 6277   2.821   0.088  11.731 -1.1574 -0.2632  0.2462
  417TMC3     O 6278   2.827   0.012  11.825 -0.7136  0.1778  0.1819
  417TMC3     H 6279   2.810   0.184  11.965  2.4426  2.0043  0.0128
  417TMC3    H1 6280   2.713   0.279  11.563 -4.0160  0.3119 -0.8225
  417TMC3    H2 6281   2.538   0.506  11.886  2.1740  0.4886  3.0027
  417TMC3    C7 6282   2.518   0.446  11.620 -0.3174  0.5379 -0.3932
  417TMC3    C8 6283   2.653   0.378  12.076  0.0267 -0.2125 -0.6123
  417TMC3    O1 6284   2.546   0.417  11.500 -0.0032 -0.4052  0.6855
  417TMC3    O2 6285   2.555   0.443  12.102 -0.1603 -0.0101 -0.3416
  418TMC3    C1 6286   2.057   2.249   0.222  0.0515 -0.0332  0.1542
  418TMC3    C2 6287   1.975   2.142   0.207 -0.4429  0.7467 -0.5794
  418TMC3    C3 6288   1.844   2.156   0.236 -0.0197  0.7292  1.0544
  418TMC3    C4 6289   2.014   2.373   0.263  0.7031 -0.5358 -0.4281
  418TMC3    C5 6290   1.880   2.382   0.286  0.2455 -0.3456 -0.1685
  418TMC3    C6 6291   1.794   2.274   0.273  0.1103 -0.0309  0.3294
  418TMC3     C 6292   2.202   2.228   0.211  0.0071  0.0157 -0.2421
  418TMC3     O 6293   2.270   2.315   0.265  0.0711 -0.3440  0.0611
  418TMC3     H 6294   2.000   2.047   0.161 -1.4850  1.0553 -1.7734
  418TMC3    H1 6295   2.081   2.458   0.273 -0.4321  0.5048 -1.5890
  418TMC3    H2 6296   1.690   2.285   0.302  0.5828  1.1322  1.5781
  418TMC3    C7 6297   1.837   2.499   0.355 -0.4237 -0.0854  0.4452
  418TMC3    C8 6298   1.756   2.043   0.263  0.3324 -0.3067  0.2066
  418TMC3    O1 6299   1.887   2.605   0.317 -0.1485 -0.3557  0.1663
  418TMC3    O2 6300   1.635   2.066   0.269  0.0472 -0.0790 -0.5589
  419MPD2     C 6301   0.383   0.431  12.871 -0.3588  0.1844  0.4025
  419MPD2    C1 6302   0.291   0.413  12.974  0.1654  0.3476 -0.3506
  419MPD2    C2 6303   0.278   0.508  13.073  0.1636  0.0153 -0.0011
  419MPD2    C3 6304   0.353   0.627  13.070  0.4810  0.1262  0.0296
  419MPD2    C4 6305   0.447   0.643  12.976  0.3709 -0.2472 -0.4983
  419MPD2    C5 6306   0.454   0.545  12.874 -0.7708 -0.2272 -0.3955
  419MPD2     H 6307   0.198   0.509  13.146 -0.0309 -1.4184 -0.1865
  419MPD2    H1 6308   0.508   0.732  12.963  1.1531 -0.7694 -0.4049
  419MPD2    H2 6309   0.404   0.358  12.794  4.2119  0.7061  1.1537
  419MPD2    H3 6310   0.527   0.551  12.794 -2.0209  0.8528 -1.4482
  419MPD2     N 6311   0.328   0.720  13.169 -0.0756 -0.4656 -0.2832
  419MPD2    H5 6312   0.250   0.690  13.227 -0.1794  3.2421  1.5026
  419MPD2    N1 6313   0.206   0.306  12.977 -0.1019 -0.1862  0.0374
  419MPD2    H7 6314   0.123   0.322  13.033  0.1760  2.9040 -0.4611
  420TMC3    C1 6315   0.341   0.924  13.288  0.0488  0.2332  0.2822
  420TMC3    C2 6316   0.294   1.048  13.252 -0.2922  0.6204  0.3783
  420TMC3    C3 6317   0.180   1.098  13.308 -0.8112 -0.3133  0.1225
  420TMC3    C4 6318   0.278   0.854  13.383  0.0993 -0.0137  0.5345
  420TMC3    C5 6319   0.174   0.902  13.451 -0.1836 -0.3443  0.2524
  420TMC3    C6 6320   0.118   1.026  13.410 -0.1669  0.0772 -0.2512
  420TMC3     C 6321   0.396   0.844  13.181 -0.1027  0.3642  0.3028
  420TMC3     O 6322   0.457   0.903  13.094  0.5627 -0.5867 -0.4765
  420TMC3     H 6323   0.339   1.100  13.167  3.2253 -3.6541 -0.4107
  420TMC3    H1 6324   0.323   0.761  13.415 -1.2210 -0.3396  1.4490
  420TMC3    H2 6325   0.017   1.048  13.442 -1.0141 -1.5447 -1.7760
  420TMC3    C7 6326   0.116   0.800  13.533 -0.4164  0.6878 -0.5135
  420TMC3    C8 6327   0.083   1.144  13.211  0.4381 -0.2952 -1.2335
  420TMC3    O1 6328   0.154   0.684  13.523 -0.8136 -0.0794  0.3576
  420TMC3    O2 6329   4.735   1.058  13.193 -0.3507  0.4199 -0.6969
  421TMC3    C1 6330   1.493   2.107  13.809  0.3376 -0.7924  0.0079
  421TMC3    C2 6331   1.514   2.222  13.878 -0.6172 -0.0786 -0.8366
  421TMC3    C3 6332   1.558   2.217  14.013 -0.0080 -0.1937 -0.2011
  421TMC3    C4 6333   1.536   1.987  13.855  0.8452 -0.2766  0.5600
  421TMC3    C5 6334   1.587   1.986  13.984  0.6100  0.5814  0.1378
  421TMC3    C6 6335   1.609   2.098  14.062 -0.2577  0.4495 -0.2911
  421TMC3     C 6336   1.431   2.125  13.679  0.4180 -0.9105 -0.0343
  421TMC3     O 6337   1.417   2.239  13.641 -0.1373  0.4713  0.7227
  421TMC3     H 6338   1.476   2.316  13.840  1.0778  0.9187 -0.0381
  421TMC3    H1 6339   1.545   1.898  13.793 -1.5758 -0.4831  0.4965
  421TMC3    H2 6340   1.664   2.098  14.156  1.1873  0.9255 -1.1394
  421TMC3    C7 6341   1.639   1.858  14.035 -0.3052 -0.4417 -0.4082
  421TMC3    C8 6342   1.612   2.341  14.056 -0.6584  0.4010 -0.1932
  421TMC3    O1 6343   1.723   1.862  14.122 -0.0183 -0.2230 -0.2623
  421TMC3    O2 6344   1.630   2.429  13.971 -0.1092  0.1779 -0.2729
  422TMC3    C1 6345   3.814   2.970  12.480  0.0989 -0.0024  0.3597
  422TMC3    C2 6346   3.759   3.093  12.453  0.5790 -0.0914 -0.0409
  422TMC3    C3 6347   3.631   3.128  12.498  0.2441 -0.5564  0.4903
  422TMC3    C4 6348   3.726   2.873  12.528  0.8238  0.4689 -0.2105
  422TMC3    C5 6349   3.600   2.906  12.569 -0.5244  0.5450 -0.4190
  422TMC3    C6 6350   3.558   3.032  12.559  0.2208  0.2159 -0.0317
  422TMC3     C 6351   3.928   2.912  12.407  0.3124  0.4186 -0.3162
  422TMC3     O 6352   3.954   2.956  12.293 -0.2488  0.1164  0.7945
  422TMC3     H 6353   3.824   3.175  12.423 -0.6113  0.7670 -0.2891
  422TMC3    H1 6354   3.768   2.775  12.546 -3.1575 -1.1087  0.4822
  422TMC3    H2 6355   3.459   3.061  12.595 -2.1382 -3.4608 -3.5594
  422TMC3    C7 6356   3.505   2.801  12.606 -0.8680  0.0109 -0.3501
  422TMC3    C8 6357   3.587   3.261  12.521  0.6092 -0.0941  0.3558
  422TMC3    O1 6358   3.539   2.689  12.572 -0.5586  0.2146  0.1480
  422TMC3    O2 6359   3.682   3.335  12.534 -0.4688  0.4578  0.5473
  423MPD2     C 6360   0.403   3.848   0.776 -0.8294 -0.7034 -0.1502
  423MPD2    C1 6361   0.518   3.904   0.720  0.8302  0.2953  0.1073
  423MPD2    C2 6362   0.545   3.876   0.588  0.0305 -0.6492 -0.2165
  423MPD2    C3 6363   0.470   3.778   0.521 -0.2790 -0.1261  0.0654
  423MPD2    C4 6364   0.360   3.722   0.581 -0.3717  0.6461 -0.2176
  423MPD2    C5 6365   0.320   3.762   0.707 -0.3544  0.7531  0.8159
  423MPD2     H 6366   0.638   3.904   0.539  1.1874 -2.0699  1.1740
  423MPD2    H1 6367   0.299   3.651   0.527  0.0138  1.5311 -1.8291
  423MPD2    H2 6368   0.370   3.883   0.874 -0.9250  0.7247 -0.6819
  423MPD2    H3 6369   0.240   3.718   0.765 -1.7796  0.4723 -1.3479
  423MPD2     N 6370   0.503   3.729   0.391 -0.6433 -0.1565 -0.3577
  423MPD2    H5 6371   0.447   3.653   0.353 -0.2584 -0.2037 -0.8222
  423MPD2    N1 6372   0.595   3.991   0.801  0.2375 -0.3306  0.6053
  423MPD2    H7 6373   0.568   3.995   0.899 -0.3259 -0.5785  0.4592
  424TMC3    C1 6374   0.802   4.043   0.908  0.0727 -0.2664  0.2443
  424TMC3    C2 6375   0.910   3.963   0.913 -0.2042  0.6158 -0.8297
  424TMC3    C3 6376   0.956   3.920   1.038  0.1550 -0.1829  0.1396
  424TMC3    C4 6377   0.731   4.086   1.019 -0.4952 -0.1371  0.9743
  424TMC3    C5 6378   0.785   4.047   1.137  0.2642  0.0116 -0.1105
  424TMC3    C6 6379   0.893   3.961   1.148  0.1187  0.0342  0.8460
  424TMC3     C 6380   0.731   4.018   0.785  0.0990 -0.0043 -0.9284
  424TMC3     O 6381   0.792   4.020   0.682 -0.8221 -0.6809 -0.2749
  424TMC3     H 6382   0.959   3.933   0.821  0.0694 -0.7579 -0.2406
  424TMC3    H1 6383   0.639   4.144   1.009 -0.1109  0.2495 -0.3834
  424TMC3    H2 6384   0.926   3.927   1.246  2.5716 -0.4087 -0.1248
  424TMC3    C7 6385   0.739   4.106   1.265 -0.1749  0.0032  0.4859
  424TMC3    C8 6386   1.013   3.788   1.050  0.0248  0.6393 -0.6191
  424TMC3    O1 6387   0.798   4.076   1.366 -0.1083 -0.0957 -0.3611
  424TMC3    O2 6388   0.987   3.722   1.147  1.0183 -0.2976 -0.1205
  425MPD2     C 6389   4.466   3.157  17.484  0.1606  0.1137 -0.3161
  425MPD2    C1 6390   4.406   3.118  17.362  0.2973 -1.0595 -0.0388
  425MPD2    C2 6391   4.277   3.163  17.337 -0.1935  0.5452 -0.3336
  425MPD2    C3 6392   4.215   3.252  17.420  0.6059 -0.2782 -0.7903
  425MPD2    C4 6393   4.282   3.300  17.528  0.1458  0.1170 -0.5050
  425MPD2    C5 6394   4.412   3.259  17.550  0.0284  0.5487  0.6175
  425MPD2     H 6395   4.228   3.124  17.249 -1.6721 -0.6621  1.0348
  425MPD2    H1 6396   4.248   3.373  17.601 -2.6891 -1.6757 -0.0370
  425MPD2    H2 6397   4.565   3.121  17.510  0.3910  1.3662  0.5273
  425MPD2    H3 6398   4.472   3.298  17.632 -0.3480 -0.4768  1.3839
  425MPD2     N 6399   4.075   3.271  17.402 -0.5389 -0.0284  0.4166
  425MPD2    H5 6400   4.024   3.220  17.331  1.5755 -1.5015 -0.0687
  425MPD2    N1 6401   4.471   3.020  17.285 -0.5575  0.4094  0.6657
  425MPD2    H7 6402   4.555   2.974  17.319 -1.3949 -1.1451  0.6383
  426TMC3    C1 6403   4.468   2.859  17.124 -0.0444  0.5781  0.1444
  426TMC3    C2 6404   4.492   2.851  16.991 -0.5529  0.9724  0.4377
  426TMC3    C3 6405   4.529   2.729  16.953 -0.4755  0.0908 -0.9286
  426TMC3    C4 6406   4.458   2.746  17.208 -0.2364 -0.6964 -0.2746
  426TMC3    C5 6407   4.477   2.619  17.154  0.0523 -0.0567 -0.5067
  426TMC3    C6 6408   4.522   2.614  17.026  0.2771 -0.3707  0.8515
  426TMC3     C 6409   4.422   2.978  17.168 -0.2745  0.1293  0.2528
  426TMC3     O 6410   4.352   3.030  17.083 -0.0612 -0.4736  0.4310
  426TMC3     H 6411   4.492   2.940  16.929  0.2624  0.1448 -0.7473
  426TMC3    H1 6412   4.449   2.768  17.313 -0.7440 -0.4810 -0.3657
  426TMC3    H2 6413   4.535   2.512  16.991 -0.9829 -0.0701 -0.5101
  426TMC3    C7 6414   4.401   2.507  17.203  0.0265 -0.6475 -0.6289
  426TMC3    C8 6415   4.549   2.712  16.810  0.4946  0.3618 -0.0103
  426TMC3    O1 6416   4.463   2.402  17.221  0.2150  0.2665  0.1067
  426TMC3    O2 6417   4.552   2.595  16.772 -0.3409 -0.1360 -0.0702
  427MPD2     C 6418   2.827   4.609  14.780  0.4810  0.0712 -0.7919
  427MPD2    C1 6419   2.791   4.670  14.900  0.1941 -0.4913  0.4878
  427MPD2    C2 6420   2.670   4.734  14.922 -0.4816  0.2102  0.1329
  427MPD2    C3 6421   2.576   4.728  14.816 -0.6839  1.1618 -0.5106
  427MPD2    C4 6422   2.607   4.664  14.700  0.3059 -0.1714 -0.0855
  427MPD2    C5 6423   2.725   4.606  14.683 -0.2183 -0.3763  0.1144
  427MPD2     H 6424   2.643   0.032  15.021 -0.9825  0.3571 -0.0547
  427MPD2    H1 6425   2.532   4.660  14.621  0.7550 -1.3727 -0.4517
  427MPD2    H2 6426   2.922   4.560  14.764  0.1001 -1.2248  0.8918
  427MPD2    H3 6427   2.746   4.559  14.587  0.6039 -2.2930  1.2384
  427MPD2     N 6428   2.443   0.044  14.828 -0.2200 -0.2365 -0.4177
  427MPD2    H5 6429   2.379   0.029  14.751 -0.1740  0.2572 -0.5482
  427MPD2    N1 6430   2.883   4.660  15.008  0.2534  0.4301 -0.4499
  427MPD2    H7 6431   2.973   4.616  14.990  0.2894  1.0002 -1.6544
  428TMC3    C1 6432   2.971   4.664  15.227  0.5523 -0.3011 -0.5657
  428TMC3    C2 6433   2.946   4.616  15.358  1.0813 -0.6063 -0.1346
  428TMC3    C3 6434   3.048   4.599  15.445 -0.6104  0.3117  0.3606
  428TMC3    C4 6435   3.095   4.705  15.188 -0.4265  0.1245  0.1899
  428TMC3    C5 6436   3.197   4.684  15.279  0.1221  0.0382  0.2579
  428TMC3    C6 6437   3.178   4.625  15.401 -0.0787  0.0073  0.4246
  428TMC3     C 6438   2.856   4.680  15.142 -0.2244  0.2749  0.5009
  428TMC3     O 6439   2.752   4.686  15.206 -0.2798  0.2761  0.6970
  428TMC3     H 6440   2.850   4.589  15.400  1.1995 -1.5674 -0.5013
  428TMC3    H1 6441   3.111   0.019  15.094  1.4277 -0.0154  0.4347
  428TMC3    H2 6442   3.260   4.628  15.472 -0.0832 -0.4391  0.4478
  428TMC3    C7 6443   3.318   0.018  15.255 -0.3598 -0.1929  0.3321
  428TMC3    C8 6444   3.032   4.499  15.550  0.1740 -0.8825  0.2591
  428TMC3    O1 6445   3.388   0.043  15.352  0.0521 -0.2149  0.1273
  428TMC3    O2 6446   3.134   4.445  15.588 -0.8381  0.1213  0.0242
  429MPD2     C 6447   3.817   0.715   0.036 -0.2017  0.0595  0.0834
  429MPD2    C1 6448   3.938   0.664   0.019 -0.4314 -0.2956  0.5496
  429MPD2    C2 6449   4.022   0.742  17.687 -0.2032  0.0951  0.3432
  429MPD2    C3 6450   3.981   0.856  17.623 -0.5214  0.5459 -0.0619
  429MPD2    C4 6451   3.856   0.906  17.647  0.0089 -0.5859  0.0199
  429MPD2    C5 6452   3.783   0.840  17.743  0.2048  0.3478  0.1729
  429MPD2     H 6453   4.119   0.705  17.655  0.4153 -0.1025  2.4082
  429MPD2    H1 6454   3.820   0.996  17.598 -1.2844 -1.7883 -1.2286
  429MPD2    H2 6455   3.747   0.673   0.107 -1.1082 -1.0885 -1.5001
  429MPD2    H3 6456   3.693   0.889   0.031 -0.4947 -1.2588  0.5877
  429MPD2     N 6457   4.067   0.910  17.523  0.5103  0.1912 -0.3510
  429MPD2    H5 6458   4.156   0.863  17.514  1.4200  1.9434 -0.6135
  429MPD2    N1 6459   3.981   0.538   0.069  0.8578  0.4569 -0.1953
  429MPD2    H7 6460   4.077   0.513   0.048  0.6469 -0.1629 -0.4063
  430TMC3    C1 6461   4.146   1.051  17.345 -0.4835 -0.3440  0.3450
  430TMC3    C2 6462   4.127   1.154  17.263 -0.1852  0.0586  0.1534
  430TMC3    C3 6463   4.240   1.190  17.197  0.1035  0.3840 -0.2242
  430TMC3    C4 6464   4.262   0.972  17.345  0.0845  0.4999 -0.2321
  430TMC3    C5 6465   4.378   1.026  17.288 -0.1054 -0.5937  0.0622
  430TMC3    C6 6466   4.367   1.136  17.216  0.3505 -0.1885  0.0455
  430TMC3     C 6467   4.033   1.013  17.431  0.0870 -0.2924 -0.2364
  430TMC3     O 6468   3.930   1.077  17.426 -0.5626 -0.4439 -0.1166
  430TMC3     H 6469   4.030   1.201  17.251  1.0226  2.8391  1.3706
  430TMC3    H1 6470   4.275   0.880  17.400  1.5855  0.0227 -1.3999
  430TMC3    H2 6471   4.452   1.190  17.175  0.5710  0.7416  1.7207
  430TMC3    C7 6472   4.469   0.936  17.216  0.1081  0.1421 -0.8701
  430TMC3    C8 6473   4.223   1.239  17.055 -0.3372  0.1547 -1.1154
  430TMC3    O1 6474   4.445   0.816  17.226  0.0967  0.1612  0.0271
  430TMC3    O2 6475   4.313   1.195  16.979  0.4052  0.3049  0.4519
  431MPD2     C 6476   4.629   0.738  13.231 -1.1689  0.5750 -0.6047
  431MPD2    C1 6477   4.664   0.732  13.100  0.4235  0.6064  0.1979
  431MPD2    C2 6478   4.642   0.606  13.041  0.6688  0.1055 -0.5268
  431MPD2    C3 6479   4.578   0.497  13.105 -0.5359 -0.1593  0.5402
  431MPD2    C4 6480   4.553   0.511  13.241  0.2668 -0.3137 -0.0090
  431MPD2    C5 6481   4.577   0.632  13.301  0.0698 -0.3524  0.3530
  431MPD2     H 6482   4.663   0.598  12.935 -0.7513  0.7812 -0.8614
  431MPD2    H1 6483   4.501   0.437  13.300  0.5114 -0.1442  0.4174
  431MPD2    H2 6484   4.641   0.826  13.293  2.1162 -2.1801  2.7132
  431MPD2    H3 6485   4.533   0.646  13.399  0.2927  0.5277  0.3204
  431MPD2     N 6486   4.563   0.371  13.042 -0.1918 -0.1270  0.4131
  431MPD2    H5 6487   4.529   0.299  13.104  0.6276  0.1785  1.2169
  431MPD2    N1 6488   4.730   0.836  13.033 -0.4489  0.0156 -0.2259
  431MPD2    H7 6489   4.729   0.927  13.078 -1.6629 -0.4384  0.6759
  432TMC3    C1 6490   4.612   0.207  12.879  0.0365 -0.8215  0.1926
  432TMC3    C2 6491   4.602   0.170  12.742  0.3572  0.3923 -0.1283
  432TMC3    C3 6492   4.704   0.106  12.684  0.5263 -1.0119 -0.2683
  432TMC3    C4 6493   4.720   0.166  12.948  0.9067  0.2715 -0.9727
  432TMC3    C5 6494   0.099   0.119  12.889  0.7328 -0.0136 -0.1668
  432TMC3    C6 6495   0.089   0.077  12.752  0.7900  0.0202  0.4455
  432TMC3     C 6496   4.574   0.345  12.907 -0.3195 -0.2183  0.5546
  432TMC3     O 6497   4.556   0.418  12.812 -0.4325  0.4387 -0.5502
  432TMC3     H 6498   4.532   0.217  12.674 -1.6969 -3.2309 -0.5397
  432TMC3    H1 6499   4.734   0.185  13.054  2.5141  0.4848 -1.2304
  432TMC3    H2 6500   0.178   0.047  12.698  1.0713  1.5966  0.0364
  432TMC3    C7 6501   0.223   0.188  12.905 -0.2174 -0.4787  0.8910
  432TMC3    C8 6502   4.722   0.159  12.546 -0.5395  0.4936  0.6027
  432TMC3    O1 6503   0.321   0.151  12.839 -0.1103  0.4546 -0.3130
  432TMC3    O2 6504   4.621   0.139  12.475 -0.0291 -0.4350  0.4582
  433MPD2     C 6505   3.522   4.359  10.938 -0.2280 -0.0843  0.6556
  433MPD2    C1 6506   3.592   4.250  10.985  0.5363 -0.0369 -0.1070
  433MPD2    C2 6507   3.600   4.231  11.119  0.0613 -0.1369 -0.1541
  433MPD2    C3 6508   3.534   4.318  11.208 -0.8846 -0.3000  0.2115
  433MPD2    C4 6509   3.471   4.432  11.161 -0.2318 -1.0655 -0.2766
  433MPD2    C5 6510   3.461   4.451  11.021 -0.1806  0.0912  0.0736
  433MPD2     H 6511   3.654   4.150  11.167  1.9426  1.5503  0.5692
  433MPD2    H1 6512   3.431   4.500  11.236 -1.5008 -0.6667 -1.3099
  433MPD2    H2 6513   3.519   4.380  10.832  0.5568  0.4663  0.7429
  433MPD2    H3 6514   3.405   4.540  10.995 -1.2570  0.2915  3.0264
  433MPD2     N 6515   3.524   4.287  11.349  0.4913 -0.1267 -0.4279
  433MPD2    H5 6516   3.533   4.188  11.372  1.6632  0.3090  1.0063
  433MPD2    N1 6517   3.645   4.147  10.905  0.4876 -0.0438 -0.1620
  433MPD2    H7 6518   3.701   4.081  10.958 -0.2766  0.7561  1.6090
  434TMC3    C1 6519   3.623   3.970  10.758 -0.2451 -0.9035 -0.3408
  434TMC3    C2 6520   3.717   3.904  10.839  0.3985  0.1732 -0.6550
  434TMC3    C3 6521   3.694   3.768  10.860 -0.4411  0.0274  0.1635
  434TMC3    C4 6522   3.512   3.916  10.706  0.3192 -0.4019 -0.6086
  434TMC3    C5 6523   3.495   3.780  10.726 -0.3224  0.3744  0.2646
  434TMC3    C6 6524   3.585   3.709  10.802  0.0419 -0.5202 -0.7244
  434TMC3     C 6525   3.612   4.113  10.775 -0.8794  0.0475  0.1372
  434TMC3     O 6526   3.540   4.175  10.698  0.1951  0.1972  0.0355
  434TMC3     H 6527   3.796   3.958  10.891 -0.9484  0.1159  1.4359
  434TMC3    H1 6528   3.430   3.976  10.669 -0.1818 -1.5550 -1.3813
  434TMC3    H2 6529   3.565   3.609  10.837 -2.0903  0.5928  1.2738
  434TMC3    C7 6530   3.401   3.709  10.636  0.3394  0.3325  0.0661
  434TMC3    C8 6531   3.794   3.680  10.927  0.6112 -0.0329 -0.3673
  434TMC3    O1 6532   3.320   3.772  10.572  0.3804  0.0416  0.2419
  434TMC3    O2 6533   3.875   3.731  11.011 -0.2909  0.1911  0.1172
  435MPD2     C 6534   1.042   3.839  15.550 -0.6267  0.3216  0.0528
  435MPD2    C1 6535   1.010   3.887  15.672  0.3300 -0.3585  0.7669
  435MPD2    C2 6536   1.106   3.896  15.775 -0.0184  0.1571 -0.1154
  435MPD2    C3 6537   1.243   3.858  15.756  0.3285 -0.0913 -0.0678
  435MPD2    C4 6538   1.272   3.799  15.632  0.2433  1.0613  0.3488
  435MPD2    C5 6539   1.174   3.796  15.534 -0.0133  0.0290  0.1572
  435MPD2     H 6540   1.060   3.938  15.863 -0.2758 -0.4566  0.0401
  435MPD2    H1 6541   1.369   3.764  15.599 -0.0497 -0.8660  1.5185
  435MPD2    H2 6542   0.968   3.815  15.475  0.6620 -1.9327 -0.5060
  435MPD2    H3 6543   1.201   3.749  15.440 -1.9419 -1.3488  0.2757
  435MPD2     N 6544   1.330   3.873  15.864 -0.6633  0.1208 -0.3339
  435MPD2    H5 6545   1.288   3.901  15.952 -1.1393  1.4523 -0.9818
  435MPD2    N1 6546   0.877   3.929  15.700 -0.0622 -0.1421  0.6141
  435MPD2    H7 6547   0.866   3.949  15.799 -2.1573 -2.3597  0.8127
  436TMC3    C1 6548   0.529   3.948  15.879 -0.0293  0.2219  0.2609
  436TMC3    C2 6549   0.639   3.911  15.807  0.3236  0.8325  0.7057
  436TMC3    C3 6550   0.665   3.976  15.689 -0.6372 -0.8166 -0.2352
  436TMC3    C4 6551   0.441   4.046  15.837  0.5569  0.0348 -0.0180
  436TMC3    C5 6552   0.475   4.104  15.717  0.1866 -0.1330  0.5290
  436TMC3    C6 6553   0.584   4.073  15.636  0.1457 -0.1129 -0.1450
  436TMC3     C 6554   0.519   3.875  16.007  0.0322  0.0347  0.3751
  436TMC3     O 6555   0.555   3.754  16.007 -0.3024  0.2623 -0.2895
  436TMC3     H 6556   0.694   3.822  15.835 -1.0604 -0.0025  0.7534
  436TMC3    H1 6557   0.353   4.079  15.891 -0.3662 -1.0416 -0.8651
  436TMC3    H2 6558   0.595   4.108  15.535  1.5032 -1.0362 -0.3203
  436TMC3    C7 6559   0.401   4.230  15.686  0.1961 -0.1149 -0.2850
  436TMC3    C8 6560   0.777   3.940  15.610  0.2602 -0.0818  1.1688
  436TMC3    O1 6561   0.284   4.237  15.730  0.1310 -0.1465 -0.3339
  436TMC3    O2 6562   0.780   3.962  15.492  0.0504  0.4032  0.4607
  437TMC3    C1 6563   4.254   1.671  12.626 -0.2646  0.1805  0.3538
  437TMC3    C2 6564   4.138   1.739  12.587 -0.1764 -0.5776 -0.2992
  437TMC3    C3 6565   4.132   1.790  12.459  0.6056 -0.2554 -0.3114
  437TMC3    C4 6566   4.362   1.655  12.547 -0.5993 -0.6154 -0.6348
  437TMC3    C5 6567   4.353   1.711  12.417 -0.4048  0.0643  0.0719
  437TMC3    C6 6568   4.235   1.773  12.368  0.6525 -0.1974  0.6808
  437TMC3     C 6569   4.266   1.619  12.762 -0.2760 -0.3746 -0.1595
  437TMC3     O 6570   4.379   1.595  12.804 -0.2029 -0.0575  0.8556
  437TMC3     H 6571   4.074   1.772  12.668  1.7114  1.3741  0.3888
  437TMC3    H1 6572   4.451   1.605  12.582 -2.2515 -2.4006  0.9980
  437TMC3    H2 6573   4.230   1.802  12.264  2.9581 -2.0710  0.0337
  437TMC3    C7 6574   4.471   1.746  12.333  0.2309  0.7150  0.3956
  437TMC3    C8 6575   4.004   1.824  12.405  0.0728 -0.6841  0.3422
  437TMC3    O1 6576   4.456   1.817  12.236  0.3443 -0.5439 -0.5180
  437TMC3    O2 6577   3.995   1.901  12.311 -0.6020  0.0298 -0.5082
  438MPD2     C 6578   1.971   1.888  16.541  0.6606 -0.1758 -0.8907
  438MPD2    C1 6579   2.082   1.813  16.585 -0.1202 -0.0702 -0.2732
  438MPD2    C2 6580   2.100   1.789  16.722  0.0869 -0.0031  0.1206
  438MPD2    C3 6581   2.016   1.847  16.812 -0.4809 -1.1062 -0.5096
  438MPD2    C4 6582   1.908   1.923  16.768  0.2103  0.0181 -0.0027
  438MPD2    C5 6583   1.888   1.942  16.632 -0.2169  0.7951  0.1088
  438MPD2     H 6584   2.187   1.732  16.753 -0.1559  0.8923  2.4796
  438MPD2    H1 6585   1.844   1.966  16.844  0.6142  0.0265  0.3384
  438MPD2    H2 6586   1.946   1.909  16.437 -0.1807  0.4239 -0.5658
  438MPD2    H3 6587   1.810   2.012  16.605  1.8369  2.2416 -2.0447
  438MPD2     N 6588   2.037   1.822  16.949 -0.7968 -0.1670  0.0582
  438MPD2    H5 6589   2.105   1.752  16.978  0.9830  1.0922 -1.1219
  438MPD2    N1 6590   2.192   1.770  16.506  0.0209  0.0410 -0.2140
  438MPD2    H7 6591   2.270   1.735  16.562  0.1222  2.7521  1.3275
  439TMC3    C1 6592   2.333   1.776  16.320  0.1708  0.0260  0.3399
  439TMC3    C2 6593   2.345   1.770  16.180 -0.2947 -0.3191 -0.3261
  439TMC3    C3 6594   2.472   1.782  16.130  0.3680 -0.2404 -0.1264
  439TMC3    C4 6595   2.437   1.793  16.403  0.0534 -0.8422 -0.3663
  439TMC3    C5 6596   2.565   1.797  16.344  1.1159 -0.1707 -0.6743
  439TMC3    C6 6597   2.580   1.801  16.213 -0.2960 -0.2873  0.2038
  439TMC3     C 6598   2.194   1.775  16.370  0.2811  0.0485 -0.2516
  439TMC3     O 6599   2.096   1.761  16.299  0.3780 -0.6122  0.2508
  439TMC3     H 6600   2.266   1.731  16.117  1.0633 -2.3708 -0.7830
  439TMC3    H1 6601   2.434   1.806  16.511  0.8952  2.9628 -0.7992
  439TMC3    H2 6602   2.674   1.835  16.173 -0.9024  0.8004 -0.3043
  439TMC3    C7 6603   2.662   1.722  16.411  0.5449  0.2836  1.0700
  439TMC3    C8 6604   2.510   1.706  16.015  0.0640  0.5191 -0.2089
  439TMC3    O1 6605   2.682   1.745  16.531 -0.7735  0.0852  0.7306
  439TMC3    O2 6606   2.602   1.632  16.039 -0.1866  0.1281  0.0568
  440MPD2     C 6607   0.998   2.004  15.186  0.0933  0.1912  0.1401
  440MPD2    C1 6608   1.052   2.083  15.285 -0.9251  0.1148  0.1241
  440MPD2    C2 6609   1.190   2.068  15.314  0.0956  0.1834 -0.1989
  440MPD2    C3 6610   1.261   1.969  15.258 -0.1267 -0.9145 -0.5856
  440MPD2    C4 6611   1.202   1.895  15.158 -0.5023 -0.5924 -0.3940
  440MPD2    C5 6612   1.074   1.918  15.115  0.4019  0.8895 -0.1010
  440MPD2     H 6613   1.229   2.119  15.402  1.5157 -0.9265 -0.1981
  440MPD2    H1 6614   1.261   1.819  15.107 -3.0199 -2.4719 -0.5383
  440MPD2    H2 6615   0.899   2.025  15.150 -0.7921  1.2768  3.2108
  440MPD2    H3 6616   1.045   1.869  15.023 -3.6720 -0.3365  1.8238
  440MPD2     N 6617   1.388   1.934  15.302  0.4045  0.3560  0.9282
  440MPD2    H5 6618   1.425   1.843  15.276 -1.7316  0.2405 -1.6795
  440MPD2    N1 6619   0.983   2.178  15.361 -0.4412  0.2934 -0.2902
  440MPD2    H7 6620   1.044   2.214  15.433  0.5083 -0.9643 -0.4530
  441TMC3    C1 6621   1.572   1.934  15.460 -0.2073  0.0515 -0.7312
  441TMC3    C2 6622   1.656   2.021  15.527  0.0154  1.0472 -0.8205
  441TMC3    C3 6623   1.697   1.979  15.649  0.2112 -0.0108  0.0070
  441TMC3    C4 6624   1.549   1.809  15.502  0.1388  0.6436 -0.5155
  441TMC3    C5 6625   1.600   1.761  15.622 -0.0383 -0.6672  0.4070
  441TMC3    C6 6626   1.677   1.850  15.693  0.0433 -0.1568  0.6893
  441TMC3     C 6627   1.456   2.005  15.403  0.2259 -0.0005  0.2614
  441TMC3     O 6628   1.441   2.119  15.451 -0.2368  0.1110 -0.1286
  441TMC3     H 6629   1.679   2.121  15.491  1.3150  0.9165 -0.3532
  441TMC3    H1 6630   1.472   1.746  15.460  0.2983 -0.0863  0.2927
  441TMC3    H2 6631   1.713   1.831  15.793 -2.7154 -1.7270  1.3749
  441TMC3    C7 6632   1.520   1.678  15.702  0.3785  0.2872 -0.0109
  441TMC3    C8 6633   1.647   2.069  15.751  0.3857  0.6646  0.3087
  441TMC3    O1 6634   1.409   1.663  15.654 -0.0213  0.0620  0.0945
  441TMC3    O2 6635   1.669   2.043  15.871 -0.8314 -0.4825  0.8788
  442MPD2     C 6636   4.239   2.464  16.826 -0.6680 -0.4840 -0.0155
  442MPD2    C1 6637   4.160   2.533  16.734 -0.5568 -0.0631  0.0607
  442MPD2    C2 6638   4.114   2.462  16.624  1.0472 -0.7869 -0.1187
  442MPD2    C3 6639   4.133   2.325  16.617  0.2459  0.3747 -0.0399
  442MPD2    C4 6640   4.190   2.251  16.726 -0.1756  0.1634  0.4006
  442MPD2    C5 6641   4.250   2.328  16.825  0.0695  0.1402  0.6798
  442MPD2     H 6642   4.053   2.505  16.546  0.0392 -1.0057  0.5451
  442MPD2    H1 6643   4.191   2.143  16.729 -3.4332  0.0652 -1.6107
  442MPD2    H2 6644   4.301   2.517  16.898  1.7955 -3.5778  0.1322
  442MPD2    H3 6645   4.311   2.282  16.902  1.5614 -0.3362 -0.7869
  442MPD2     N 6646   4.092   2.248  16.503  0.4203  0.4401 -0.4451
  442MPD2    H5 6647   4.094   2.146  16.505 -1.4256  0.4383  0.8351
  442MPD2    N1 6648   4.132   2.671  16.754 -1.0982  0.2188 -0.3625
  442MPD2    H7 6649   4.094   2.717  16.672 -0.5951 -0.9932 -1.2737
  443TMC3    C1 6650   4.125   2.892  16.842  0.2419  0.4797  0.1338
  443TMC3    C2 6651   4.163   2.941  16.720  0.8213 -0.4717 -0.1365
  443TMC3    C3 6652   4.119   3.069  16.694 -0.2218  0.1387  0.0261
  443TMC3    C4 6653   4.041   2.964  16.927  0.0537 -0.5114  0.5203
  443TMC3    C5 6654   3.992   3.085  16.889 -0.1062  0.2457 -0.1316
  443TMC3    C6 6655   4.032   3.141  16.777 -0.0133 -0.0979 -0.0127
  443TMC3     C 6656   4.158   2.756  16.866 -0.4995 -0.4427  0.4147
  443TMC3     O 6657   4.189   2.724  16.980  0.2602 -0.1859  0.0755
  443TMC3     H 6658   4.242   2.890  16.664 -0.8879  0.4228 -3.3558
  443TMC3    H1 6659   4.010   2.910  17.016  0.0300 -0.0731  0.7766
  443TMC3    H2 6660   3.975   3.223  16.734  0.6828  0.9885  1.1416
  443TMC3    C7 6661   3.862   3.136  16.948  0.3068  0.5066  0.6783
  443TMC3    C8 6662   4.105   3.108  16.554 -0.3662 -0.3149 -0.0522
  443TMC3    O1 6663   3.829   3.250  16.922 -0.6289  0.0048  0.1497
  443TMC3    O2 6664   4.090   3.229  16.532  0.1009  0.3393  0.3798
  444MPD2     C 6665   4.031   2.165  17.031  0.6855 -0.9286 -0.2133
  444MPD2    C1 6666   3.933   2.136  16.944 -0.1887 -0.3300 -0.3376
  444MPD2    C2 6667   3.945   2.026  16.860 -0.1812 -0.1400  0.0151
  444MPD2    C3 6668   4.059   1.953  16.868 -0.2621  0.1768 -0.0972
  444MPD2    C4 6669   4.163   1.989  16.949 -0.8932 -0.2874  0.2364
  444MPD2    C5 6670   4.153   2.097  17.030  0.2170 -0.3709 -0.2342
  444MPD2     H 6671   3.859   1.991  16.803  0.4438  0.9091 -1.5611
  444MPD2    H1 6672   4.249   1.924  16.938  0.9853  2.0527  1.1042
  444MPD2    H2 6673   4.015   2.239  17.108 -3.1137  1.4984 -3.2928
  444MPD2    H3 6674   4.227   2.117  17.106  0.4218  0.4215 -0.6455
  444MPD2     N 6675   4.073   1.847  16.776 -0.1516  0.4115 -0.1670
  444MPD2    H5 6676   3.997   1.841  16.709 -0.6817 -1.2280  0.5975
  444MPD2    N1 6677   3.806   2.193  16.949 -0.8815 -0.0572 -0.4067
  444MPD2    H7 6678   3.727   2.157  16.895  0.4615 -2.5946 -0.6548
  445TMC3    C1 6679   4.170   1.654  16.674 -0.1956  0.1549  0.7204
  445TMC3    C2 6680   4.083   1.667  16.570  0.3030 -0.1003 -0.0458
  445TMC3    C3 6681   4.090   1.580  16.473  0.2457 -0.3825 -0.3096
  445TMC3    C4 6682   4.269   1.564  16.677 -0.1371  0.4260  0.0646
  445TMC3    C5 6683   4.261   1.466  16.582  0.0552 -0.2229  0.5516
  445TMC3    C6 6684   4.176   1.479  16.478 -0.8296 -0.3553 -0.5635
  445TMC3     C 6685   4.158   1.739  16.794  0.6989 -0.1697  0.1600
  445TMC3     O 6686   4.232   1.705  16.885  0.5460  0.1488 -0.0479
  445TMC3     H 6687   4.003   1.740  16.574 -0.2504 -0.8341  2.1908
  445TMC3    H1 6688   4.321   1.547  16.771 -1.2710 -1.3470  0.3750
  445TMC3    H2 6689   4.178   1.419  16.387 -2.9466 -1.7614  0.3070
  445TMC3    C7 6690   4.360   1.365  16.567  0.1586  0.3356 -0.4120
  445TMC3    C8 6691   4.036   1.615  16.349 -0.1021  0.0390  0.5328
  445TMC3    O1 6692   4.338   1.279  16.483 -0.0108 -0.2045  0.7373
  445TMC3    O2 6693   4.053   1.730  16.316 -0.1012  0.8497 -0.5370
  446MPD2     C 6694   3.479   3.325  11.096  0.7135  0.0342  0.7308
  446MPD2    C1 6695   3.423   3.450  11.073  0.4701  0.1147  0.0116
  446MPD2    C2 6696   3.478   3.563  11.130 -0.4438  0.3953 -0.2216
  446MPD2    C3 6697   3.594   3.555  11.213 -0.2206  0.3396 -0.1808
  446MPD2    C4 6698   3.645   3.428  11.234 -0.0336  0.4726  0.1531
  446MPD2    C5 6699   3.593   3.321  11.173 -0.3305 -0.7884  0.1159
  446MPD2     H 6700   3.430   3.658  11.107 -0.6685  0.2840 -0.2161
  446MPD2    H1 6701   3.741   3.408  11.279  0.1320 -1.2615 -0.9597
  446MPD2    H2 6702   3.427   3.235  11.064  1.5134 -1.3896  3.4424
  446MPD2    H3 6703   3.633   3.223  11.194  0.0050 -0.7321 -0.2506
  446MPD2     N 6704   3.665   3.675  11.251 -0.1286  0.1582  0.1495
  446MPD2    H5 6705   3.638   3.766  11.215  0.5077 -1.6816 -4.9562
  446MPD2    N1 6706   3.299   3.467  10.999 -0.3252  0.0907 -0.0270
  446MPD2    H7 6707   3.251   3.556  11.011  4.7892  2.8159  0.1726
  447TMC3    C1 6708   3.830   3.803  11.366  0.4948 -0.3548 -0.6465
  447TMC3    C2 6709   3.820   3.903  11.273 -0.0328  0.0528 -0.6003
  447TMC3    C3 6710   3.924   3.997  11.272  0.0178  0.5057 -0.3164
  447TMC3    C4 6711   3.913   3.810  11.472 -0.0782  0.1283 -0.3416
  447TMC3    C5 6712   4.007   3.912  11.475  0.3589 -0.0891 -0.3232
  447TMC3    C6 6713   4.018   4.005  11.373 -0.7624 -0.0120 -0.6656
  447TMC3     C 6714   3.767   3.674  11.345 -0.0139 -0.0035  0.1327
  447TMC3     O 6715   3.773   3.591  11.434  0.2358  0.5416  0.4560
  447TMC3     H 6716   3.745   3.901  11.195  0.1599  2.0632 -0.8481
  447TMC3    H1 6717   3.934   3.725  11.536 -2.3256 -0.5232 -0.4844
  447TMC3    H2 6718   4.095   4.081  11.376 -1.2990  0.5075  0.1254
  447TMC3    C7 6719   4.120   3.888  11.555  0.2167 -1.5195 -0.2027
  447TMC3    C8 6720   3.946   4.067  11.149 -0.5805 -0.1002  0.0618
  447TMC3    O1 6721   4.230   3.905  11.508  0.6129  0.8794 -0.1893
  447TMC3    O2 6722   3.861   4.067  11.065 -0.5521  0.2460 -0.1125
  448TMC3    C1 6723   2.016   3.179  16.884 -0.2872  0.1210  0.0169
  448TMC3    C2 6724   1.995   3.108  16.768 -0.0869 -0.0239 -0.1235
  448TMC3    C3 6725   2.045   2.985  16.746 -0.5251  0.5692  0.3966
  448TMC3    C4 6726   2.111   3.128  16.968  0.8652 -0.5676  0.5644
  448TMC3    C5 6727   2.158   2.996  16.946 -0.2285 -0.1581 -0.0791
  448TMC3    C6 6728   2.108   2.916  16.844  0.1431 -0.3584  0.1721
  448TMC3     C 6729   1.986   3.320  16.888  0.0603 -0.3250 -0.3344
  448TMC3     O 6730   1.974   3.378  16.780 -0.3948  0.2640 -0.6738
  448TMC3     H 6731   1.914   3.148  16.709 -1.3711 -0.5926  1.2448
  448TMC3    H1 6732   2.164   3.192  17.038 -0.4188  1.5563 -0.3924
  448TMC3    H2 6733   2.136   2.812  16.834  0.0607  0.0163 -3.6708
  448TMC3    C7 6734   2.266   2.953  17.033  0.1369  0.2101  0.5341
  448TMC3    C8 6735   2.032   2.920  16.616  1.4013 -0.3804  0.2720
  448TMC3    O1 6736   2.314   2.842  17.009 -0.1402 -0.1366  0.3505
  448TMC3    O2 6737   2.040   2.802  16.625  0.0165  0.2608 -0.1674
  449MPD2     C 6738   3.635   1.840  14.147  0.1909  0.9082 -0.2329
  449MPD2    C1 6739   3.558   1.961  14.136 -0.2053 -0.2265  0.2511
  449MPD2    C2 6740   3.424   1.952  14.157 -0.5922  0.6200 -0.0916
  449MPD2    C3 6741   3.360   1.842  14.190 -0.9973  0.2265 -0.1637
  449MPD2    C4 6742   3.433   1.723  14.208  0.1544 -0.4051  0.9981
  449MPD2    C5 6743   3.568   1.730  14.181  0.4606 -0.0221  0.3501
  449MPD2     H 6744   3.359   2.038  14.147 -0.1484  1.0781  0.8579
  449MPD2    H1 6745   3.388   1.626  14.226  0.4427 -1.2183 -2.7295
  449MPD2    H2 6746   3.741   1.835  14.127  0.4728 -1.2221  1.7993
  449MPD2    H3 6747   3.618   1.634  14.188 -0.7243 -0.6342  0.3420
  449MPD2     N 6748   3.219   1.844  14.195 -0.4647 -0.2858  0.6156
  449MPD2    H5 6749   3.184   1.937  14.173  1.5256  0.3583  0.1275
  449MPD2    N1 6750   3.615   2.085  14.124  0.0245  0.0210  0.4938
  449MPD2    H7 6751   3.563   2.168  14.149 -0.2865  0.1511 -0.5588
  450TMC3    C1 6752   3.773   2.248  14.078  0.2568  0.2673 -0.4149
  450TMC3    C2 6753   3.769   2.285  13.948 -0.4791  0.1406  0.1940
  450TMC3    C3 6754   3.698   2.391  13.913 -0.0088 -0.4862  0.0293
  450TMC3    C4 6755   3.689   2.309  14.167 -0.1321 -0.3573  0.4802
  450TMC3    C5 6756   3.613   2.417  14.124  0.3174  0.7086  0.5463
  450TMC3    C6 6757   3.610   2.450  13.996 -0.3111 -0.0747 -0.2618
  450TMC3     C 6758   3.752   2.106  14.089  0.0166  0.1375 -0.0951
  450TMC3     O 6759   3.819   2.035  14.019 -0.2330 -0.2408  0.2360
  450TMC3     H 6760   3.848   2.241  13.887 -0.2356 -4.2615  3.7320
  450TMC3    H1 6761   3.687   2.272  14.269 -0.7288 -2.1250 -0.1612
  450TMC3    H2 6762   3.544   2.528  13.960 -0.7835 -0.3007  0.1250
  450TMC3    C7 6763   3.483   2.404  14.183 -0.8877  0.1991 -0.4905
  450TMC3    C8 6764   3.684   2.424  13.775 -0.0636  0.4546 -0.3286
  450TMC3    O1 6765   3.456   2.300  14.244 -0.0197  0.0838  0.6157
  450TMC3    O2 6766   3.606   2.517  13.745  0.1353  0.4698  0.0532
  451MPD2     C 6767   0.584   4.553   0.924 -0.2635  0.4919  0.3492
  451MPD2    C1 6768   0.687   4.633   0.882 -0.4058 -0.4459 -0.7510
  451MPD2    C2 6769   0.797   4.590   0.805 -0.3910  0.2819  0.0956
  451MPD2    C3 6770   0.780   4.464   0.751 -0.2035  0.1756 -0.1416
  451MPD2    C4 6771   0.668   4.385   0.780  0.2620  0.1476 -0.0693
  451MPD2    C5 6772   0.576   4.425   0.868  0.1457  0.4234  0.1848
  451MPD2     H 6773   0.880   4.657   0.786  2.5188 -3.2447  0.4885
  451MPD2    H1 6774   0.656   4.289   0.730 -0.4401  0.3291 -0.2396
  451MPD2    H2 6775   0.499   4.586   0.983  0.2804  0.7416  0.9966
  451MPD2    H3 6776   0.484   4.370   0.885 -0.0136  0.6073 -0.0825
  451MPD2     N 6777   0.866   4.404   0.648  0.1497 -0.3152 -0.3193
  451MPD2    H5 6778   0.837   4.319   0.600  1.0942 -1.3427  0.9625
  451MPD2    N1 6779   0.686   0.029   0.935 -0.1319 -0.1187  0.2771
  451MPD2    H7 6780   0.603   0.049   0.989 -0.0594  0.9864 -0.0290
  452TMC3    C1 6781   1.029   4.367   0.495 -0.9646 -0.1619 -1.2659
  452TMC3    C2 6782   0.956   4.258   0.453 -0.7947  0.0133  0.7252
  452TMC3    C3 6783   0.954   4.229   0.317 -0.7328  0.0819 -0.1706
  452TMC3    C4 6784   1.116   4.427   0.409  0.0606 -0.1237 -0.0041
  452TMC3    C5 6785   1.128   4.374   0.284 -0.9776  0.6104 -0.0956
  452TMC3    C6 6786   1.058   4.277   0.233 -0.5424 -0.1882 -0.3059
  452TMC3     C 6787   0.981   4.451   0.601  0.4527 -0.6144 -0.0526
  452TMC3     O 6788   1.044   4.549   0.645  0.5455  0.9629  0.4540
  452TMC3     H 6789   0.884   4.199   0.508 -0.2134  0.8649  2.4045
  452TMC3    H1 6790   1.180   4.504   0.452 -2.1748  1.6845  0.0799
  452TMC3    H2 6791   1.065   4.247   0.129  0.9249  1.4260 -0.6744
  452TMC3    C7 6792   1.246   4.424   0.213  0.3301 -0.1600  0.0529
  452TMC3    C8 6793   0.855   4.146   0.255  0.1535  0.2906 -0.4226
  452TMC3    O1 6794   1.286   4.535   0.245  0.5421  0.2541  0.2700
  452TMC3    O2 6795   0.904   4.062   0.182  0.2789  0.4684  0.3193
  453TMC3    C1 6796   0.979   3.005  11.660  0.2562 -0.0293 -0.4999
  453TMC3    C2 6797   0.936   2.882  11.685  0.4037 -0.8951  0.3108
  453TMC3    C3 6798   0.854   2.824  11.591 -0.0181 -0.9270 -0.1036
  453TMC3    C4 6799   0.972   3.059  11.536 -0.1159  0.5414  0.4067
  453TMC3    C5 6800   0.917   2.988  11.436 -0.7395  0.1443 -0.4597
  453TMC3    C6 6801   0.831   2.882  11.468  0.3352 -0.3560 -0.2594
  453TMC3     C 6802   1.087   3.041  11.743  0.0845  0.1500 -0.2475
  453TMC3     O 6803   1.094   2.975  11.842  0.6477  0.6847 -1.1282
  453TMC3     H 6804   0.942   2.834  11.782 -0.5062 -0.1397  0.7453
  453TMC3    H1 6805   1.000   3.161  11.511  0.1617  0.1726 -0.7565
  453TMC3    H2 6806   0.768   2.827  11.400  0.0876 -0.6381  0.1979
  453TMC3    C7 6807   0.921   3.022  11.297 -0.6653 -0.2873  0.0278
  453TMC3    C8 6808   0.756   2.724  11.627  0.4060  0.1913 -0.6248
  453TMC3    O1 6809   0.861   2.951  11.219  0.3773  0.1192 -0.3066
  453TMC3    O2 6810   0.652   2.717  11.566 -0.2962 -0.1743 -0.1753
  454MPD2     C 6811   0.091   1.808  16.233  0.0391 -0.2310  0.2664
  454MPD2    C1 6812   0.045   1.847  16.105  0.0129 -0.0752 -0.0739
  454MPD2    C2 6813   0.024   1.981  16.088  0.3084  0.3397 -0.2089
  454MPD2    C3 6814   0.041   2.080  16.182 -0.0698  0.4289 -0.0762
  454MPD2    C4 6815   0.077   2.040  16.309  0.0513 -0.8572 -0.5239
  454MPD2    C5 6816   0.116   1.912  16.325  0.1780  0.3811 -0.6661
  454MPD2     H 6817   4.720   2.005  15.991  2.3134  0.9613 -0.9090
  454MPD2    H1 6818   0.122   2.100  16.387 -0.8956 -1.2294  0.3155
  454MPD2    H2 6819   0.125   1.710  16.264 -1.0989 -0.4428  0.8513
  454MPD2    H3 6820   0.163   1.889  16.421  1.8905  0.7672 -1.4208
  454MPD2     N 6821   0.010   2.211  16.150  0.6543 -0.4389  0.5754
  454MPD2    H5 6822   4.718   2.275  16.223  0.1566 -0.5577  0.4780
  454MPD2    N1 6823   0.009   1.765  15.996 -0.1546 -0.0878 -0.4277
  454MPD2    H7 6824   0.011   1.814  15.907 -1.0835  0.2221 -0.2714
  455TMC3    C1 6825   4.593   2.315  16.034 -0.5626 -0.8092  0.1354
  455TMC3    C2 6826   4.594   2.414  16.131  0.0156 -0.1744  0.0601
  455TMC3    C3 6827   4.493   2.418  16.228  0.3298 -0.2650  0.3816
  455TMC3    C4 6828   4.507   2.211  16.049 -0.5055 -0.3417  0.4679
  455TMC3    C5 6829   4.408   2.210  16.145 -0.3644 -0.6238 -0.5304
  455TMC3    C6 6830   4.406   2.312  16.238  0.2670 -0.2555  0.5675
  455TMC3     C 6831   4.717   2.255  16.020  0.7908 -0.2159  0.7874
  455TMC3     O 6832   0.013   2.209  15.909  0.1699 -0.2331 -0.1792
  455TMC3     H 6833   4.674   2.487  16.125 -0.2325  0.0844 -0.1196
  455TMC3    H1 6834   4.527   2.121  15.992  1.8783  0.3752  0.2006
  455TMC3    H2 6835   4.336   2.301  16.320  1.1577 -1.3535  1.1803
  455TMC3    C7 6836   4.401   2.083  16.204 -0.6118  0.3418 -0.3216
  455TMC3    C8 6837   4.487   2.528  16.327  0.0403 -0.0350 -1.2900
  455TMC3    O1 6838   4.411   2.087  16.324  0.5882  0.2153 -0.0090
  455TMC3    O2 6839   4.411   2.506  16.420 -0.5879 -1.3745 -0.1981
  456MPD2     C 6840   2.658   2.092  15.555 -0.4616  0.5228 -0.1786
  456MPD2    C1 6841   2.656   2.032  15.677  0.5736 -0.1964 -0.0463
  456MPD2    C2 6842   2.568   2.073  15.776  0.2962  0.4093 -0.4612
  456MPD2    C3 6843   2.482   2.178  15.744  0.4416  0.0526  0.0498
  456MPD2    C4 6844   2.486   2.251  15.630 -0.0443  0.3760 -0.2579
  456MPD2    C5 6845   2.573   2.204  15.534  0.5555 -0.8894 -0.1422
  456MPD2     H 6846   2.559   2.022  15.871 -0.7997  0.9954 -0.2518
  456MPD2    H1 6847   2.427   2.341  15.614 -3.4586 -1.7387  0.4492
  456MPD2    H2 6848   2.721   2.049  15.477 -0.7408 -0.3054  0.0637
  456MPD2    H3 6849   2.568   2.247  15.435 -1.5711 -0.2433  0.2485
  456MPD2     N 6850   2.387   2.207  15.850  0.2343  0.2961 -0.1594
  456MPD2    H5 6851   2.367   2.133  15.918 -0.5097  0.5314 -0.1244
  456MPD2    N1 6852   2.747   1.927  15.708  0.3474 -0.5214  0.3477
  456MPD2    H7 6853   2.792   1.872  15.635 -0.1911 -0.4788 -0.0173
  457TMC3    C1 6854   2.267   2.331  15.995 -0.6723  0.4107 -0.2118
  457TMC3    C2 6855   2.197   2.444  16.035  0.2849 -0.3025  0.3908
  457TMC3    C3 6856   2.138   2.448  16.163 -0.0505 -0.1589  0.4347
  457TMC3    C4 6857   2.277   2.219  16.082  0.0862 -0.2612  0.1138
  457TMC3    C5 6858   2.215   2.227  16.209  0.3790  0.4430 -0.2271
  457TMC3    C6 6859   2.139   2.337  16.243 -0.2836 -0.5437  0.3892
  457TMC3     C 6860   2.316   2.327  15.861 -0.4580 -0.3181  0.0186
  457TMC3     O 6861   2.325   2.426  15.795  0.5189 -0.4817  0.0495
  457TMC3     H 6862   2.218   2.532  15.975  0.5690  0.5614  1.7647
  457TMC3    H1 6863   2.348   2.138  16.076  1.0902  0.6400 -0.1285
  457TMC3    H2 6864   2.097   2.334  16.343 -0.0580  0.6427  0.5209
  457TMC3    C7 6865   2.284   2.149  16.317 -0.2107  0.2119 -0.1659
  457TMC3    C8 6866   2.123   2.576  16.233  0.8719  0.1647 -0.0545
  457TMC3    O1 6867   2.398   2.110  16.291 -0.0512 -0.4930  0.1902
  457TMC3    O2 6868   2.133   2.572  16.353  0.1764  0.7583  0.0713
  458MPD2     C 6869   0.245   1.778  12.247  0.3257 -0.4981 -0.0869
  458MPD2    C1 6870   0.224   1.734  12.378 -0.0181  0.0070  0.5843
  458MPD2    C2 6871   0.091   1.705  12.419 -0.2020  0.6257 -0.0501
  458MPD2    C3 6872   4.714   1.734  12.338 -0.2582  0.0857  0.1160
  458MPD2    C4 6873   0.006   1.787  12.219 -0.6220  0.0746  0.0043
  458MPD2    C5 6874   0.132   1.808  12.174 -1.0927  0.2836  0.1504
  458MPD2     H 6875   0.059   1.652  12.508 -1.4174  0.8671 -0.3531
  458MPD2    H1 6876   4.665   1.812  12.148 -0.5489 -1.8743 -0.7695
  458MPD2    H2 6877   0.339   1.819  12.210 -0.3055  0.7938 -0.2588
  458MPD2    H3 6878   0.141   1.847  12.073  0.1340 -0.3664  0.0074
  458MPD2     N 6879   4.586   1.705  12.386 -0.1292 -0.0844 -0.1992
  458MPD2    H5 6880   4.572   1.666  12.479 -1.7624 -0.5798 -0.6400
  458MPD2    N1 6881   0.340   1.717  12.455 -0.1761 -0.2180 -0.2078
  458MPD2    H7 6882   0.429   1.728  12.409  0.0627  1.7709  0.7314
  459TMC3    C1 6883   0.477   1.652  12.645 -0.2177  0.0864 -0.1737
  459TMC3    C2 6884   0.580   1.728  12.595  0.4694  0.0091 -0.4685
  459TMC3    C3 6885   0.682   1.763  12.688  0.3731  0.2023 -0.7242
  459TMC3    C4 6886   0.469   1.631  12.781  0.3126 -0.0998 -0.6897
  459TMC3    C5 6887   0.560   1.683  12.870  0.0425  0.7045 -0.0826
  459TMC3    C6 6888   0.674   1.736  12.821  0.0668 -0.3407 -0.0999
  459TMC3     C 6889   0.343   1.661  12.585 -1.2557  0.6732  0.1903
  459TMC3     O 6890   0.243   1.626  12.646  0.3782  0.3767 -0.4776
  459TMC3     H 6891   0.599   1.735  12.488 -0.3459 -0.4185 -0.6422
  459TMC3    H1 6892   0.381   1.580  12.819  0.4400 -0.3055 -0.6751
  459TMC3    H2 6893   0.740   1.786  12.891 -1.5936  1.2539  0.3315
  459TMC3    C7 6894   0.570   1.611  13.000 -0.2683  0.5031 -0.1591
  459TMC3    C8 6895   0.797   1.842  12.646 -0.2987 -0.2151  0.0294
  459TMC3    O1 6896   0.498   1.518  13.016 -0.2323  0.0059 -0.0123
  459TMC3    O2 6897   0.901   1.846  12.709 -0.2993 -0.3039 -0.1547
  460MPD2     C 6898   4.271   4.173  11.028 -0.0434 -0.6782 -0.0262
  460MPD2    C1 6899   4.136   4.169  11.033  0.0377 -0.0937  0.0724
  460MPD2    C2 6900   4.069   4.240  10.939 -0.1123 -0.5458  0.2505
  460MPD2    C3 6901   4.134   4.311  10.836  0.3786 -0.2830 -0.1044
  460MPD2    C4 6902   4.270   4.312  10.838 -0.4596  1.5106  0.1934
  460MPD2    C5 6903   4.342   4.243  10.935 -0.2393  0.6610 -0.0808
  460MPD2     H 6904   3.961   4.241  10.940 -0.0803  3.5817  0.1552
  460MPD2    H1 6905   4.321   4.335  10.745 -0.2796  0.0624 -0.0750
  460MPD2    H2 6906   4.321   4.105  11.097  0.7836 -0.3698 -0.3304
  460MPD2    H3 6907   4.449   4.240  10.949  0.1591  1.5160 -2.9283
  460MPD2     N 6908   4.062   4.382  10.737  0.3435 -0.0710  0.0113
  460MPD2    H5 6909   3.962   4.385  10.754  0.2935 -1.6384 -0.0072
  460MPD2    N1 6910   4.077   4.095  11.139 -0.2328 -0.2305 -0.1810
  460MPD2    H7 6911   4.146   4.066  11.207  0.4327 -1.7825 -1.5065
  461TMC3    C1 6912   4.008   4.480  10.525  0.2291  0.8223  0.6023
  461TMC3    C2 6913   3.924   4.375  10.482 -0.3002  0.0726 -0.2679
  461TMC3    C3 6914   3.880   4.374  10.352  0.0969  0.2844  0.3236
  461TMC3    C4 6915   4.049   4.580  10.439 -0.0297 -0.9471 -0.4071
  461TMC3    C5 6916   4.004   4.572  10.313  0.1310 -0.0562 -0.1118
  461TMC3    C6 6917   3.921   4.473  10.264  0.1175  0.6436  0.2432
  461TMC3     C 6918   4.108   4.446  10.625 -0.5109  0.0516 -0.1509
  461TMC3     O 6919   4.223   4.493  10.610  0.0191  0.0123 -0.5852
  461TMC3     H 6920   3.891   4.296  10.548  1.0896 -0.6110 -0.3941
  461TMC3    H1 6921   4.113   4.657  10.481 -1.6455 -0.4140  1.0814
  461TMC3    H2 6922   3.904   4.474  10.157 -1.5392  0.8274  0.5117
  461TMC3    C7 6923   4.056   4.660  10.213  0.7461 -0.9890  0.0388
  461TMC3    C8 6924   3.850   4.241  10.290  0.3682 -0.9859  0.2740
  461TMC3    O1 6925   4.016   4.633  10.101 -0.7574 -0.0413  0.1708
  461TMC3    O2 6926   3.880   4.150  10.366 -0.2556  0.2158  0.5281
  462TMC3    C1 6927   4.362   0.519   0.617 -0.3460  0.2685 -0.0944
  462TMC3    C2 6928   4.500   0.494   0.590 -0.5104  0.5633  0.3750
  462TMC3    C3 6929   4.540   0.371   0.534  0.0652  0.7780 -0.0366
  462TMC3    C4 6930   4.271   0.425   0.569 -0.5616 -0.6047 -0.4215
  462TMC3    C5 6931   4.321   0.312   0.512 -0.2000  1.3460  0.1955
  462TMC3    C6 6932   4.450   0.288   0.473  0.0560 -0.2595 -0.2271
  462TMC3     C 6933   4.323   0.641   0.681  0.1502 -0.0359  0.6762
  462TMC3     O 6934   4.406   0.723   0.722  0.0165 -0.6013  0.3767
  462TMC3     H 6935   4.578   0.549   0.641  1.1796 -0.7520 -0.8145
  462TMC3    H1 6936   4.167   0.425   0.597 -0.0896  3.0860  1.3462
  462TMC3    H2 6937   4.473   0.183   0.454  0.3154 -0.5238  1.5497
  462TMC3    C7 6938   4.237   0.193   0.501 -0.0198 -0.4856 -0.2632
  462TMC3    C8 6939   4.647   0.303   0.595 -0.2210 -0.6629  0.4962
  462TMC3    O1 6940   4.284   0.080   0.497 -0.3965  0.2971  0.6349
  462TMC3    O2 6941   4.661   0.318   0.717 -0.0967  0.0622  0.1874
  463MPD2     C 6942   1.172   2.633   1.563 -0.0721 -0.3603  0.0168
  463MPD2    C1 6943   1.081   2.733   1.588  0.3590  0.1666  0.3577
  463MPD2    C2 6944   1.119   2.861   1.602 -0.0963 -0.2556 -1.0034
  463MPD2    C3 6945   1.251   2.900   1.596 -0.3305 -0.1030  0.3228
  463MPD2    C4 6946   1.346   2.808   1.571 -0.3662  0.2730 -0.1700
  463MPD2    C5 6947   1.311   2.672   1.554  0.4506  0.0851  0.1945
  463MPD2     H 6948   1.038   2.930   1.625  1.2920  1.0308  0.0305
  463MPD2    H1 6949   1.451   2.831   1.563 -0.3066 -0.6417 -2.0711
  463MPD2    H2 6950   1.134   2.532   1.553 -0.5795 -0.0237 -1.4118
  463MPD2    H3 6951   1.391   2.598   1.543  0.8316  0.8333 -2.0257
  463MPD2     N 6952   1.296   3.034   1.600 -0.1402  0.0710 -0.5825
  463MPD2    H5 6953   1.393   3.058   1.586  0.7180 -2.9871  0.0396
  463MPD2    N1 6954   0.940   2.701   1.592 -0.7583 -0.0927 -0.5929
  463MPD2    H7 6955   0.877   2.781   1.588 -1.5047 -0.6866 -0.8003
  464TMC3    C1 6956   0.733   2.603   1.530  0.1284  0.4031  0.0232
  464TMC3    C2 6957   0.672   2.711   1.587 -0.0146 -0.3095  0.0052
  464TMC3    C3 6958   0.549   2.745   1.533 -0.8548 -0.4994 -0.1913
  464TMC3    C4 6959   0.682   2.531   1.419 -0.3440  0.7240  0.6468
  464TMC3    C5 6960   0.562   2.586   1.360  0.0352 -0.7440  0.6233
  464TMC3    C6 6961   0.502   2.692   1.417 -0.3880 -0.4146 -0.4384
  464TMC3     C 6962   0.877   2.585   1.556  0.2607  0.2722  0.2408
  464TMC3     O 6963   0.915   2.479   1.507  0.2271  0.2255 -0.5311
  464TMC3     H 6964   0.720   2.764   1.668 -1.2139  1.0295 -0.1606
  464TMC3    H1 6965   0.732   2.447   1.372  1.4822  1.2176  1.7148
  464TMC3    H2 6966   0.418   2.741   1.368  0.6638  1.7763 -0.0912
  464TMC3    C7 6967   0.518   2.529   1.233 -0.3584 -1.1957  0.3883
  464TMC3    C8 6968   0.504   2.882   1.557  0.0211  0.3293  0.0631
  464TMC3    O1 6969   0.602   2.476   1.164  0.0628 -0.1889  0.1566
  464TMC3    O2 6970   0.589   2.958   1.608  0.4078 -0.1810  0.0333
  465MPD2     C 6971   1.578   1.973  16.960  0.5084 -0.3125 -0.4443
  465MPD2    C1 6972   1.494   2.035  17.054  0.6104  0.1320 -0.0196
  465MPD2    C2 6973   1.390   2.111  17.003 -0.1828 -0.0990 -0.0312
  465MPD2    C3 6974   1.390   2.151  16.870 -0.0841  0.3676 -0.1437
  465MPD2    C4 6975   1.475   2.091  16.782  0.0839 -0.6818  0.3553
  465MPD2    C5 6976   1.561   1.992  16.822  0.5783  0.0932  0.0635
  465MPD2     H 6977   1.318   2.155  17.071 -1.0868 -0.2890 -0.8662
  465MPD2    H1 6978   1.474   2.105  16.675 -0.8597 -0.9964  0.3231
  465MPD2    H2 6979   1.649   1.900  16.996  0.7293  0.3525  0.4635
  465MPD2    H3 6980   1.611   1.937  16.743 -0.6770 -1.0058  0.0325
  465MPD2     N 6981   1.298   2.242  16.827  0.1991 -0.0325 -0.4431
  465MPD2    H5 6982   1.237   2.279  16.899  0.3514  0.3648 -0.5181
  465MPD2    N1 6983   1.512   2.031  17.190  0.2193 -0.3476  0.1875
  465MPD2    H7 6984   1.443   2.078  17.248  1.7403  1.5992  0.4126
  466TMC3    C1 6985   1.049   2.537  16.876  0.6103  0.1738 -0.2046
  466TMC3    C2 6986   1.084   2.649  16.816 -0.7290  0.1799 -0.4139
  466TMC3    C3 6987   1.155   2.634  16.699 -0.1945 -0.2272  0.1158
  466TMC3    C4 6988   1.093   2.411  16.843  0.2020 -0.1927 -0.3347
  466TMC3    C5 6989   1.170   2.403  16.729 -0.1612  0.0475  0.5880
  466TMC3    C6 6990   1.198   2.515  16.653  0.5479 -0.2611  0.3751
  466TMC3     C 6991   0.988   2.539  17.011 -0.2871 -0.3872  0.0227
  466TMC3     O 6992   1.040   2.465  17.093 -0.1424  0.6835  0.1551
  466TMC3     H 6993   1.044   2.742  16.854 -0.5488 -0.0716  0.3843
  466TMC3    H1 6994   1.065   2.332  16.911 -0.6901  1.2697  1.0027
  466TMC3    H2 6995   1.244   2.508  16.555  1.9503 -2.4208  1.1742
  466TMC3    C7 6996   1.269   2.296  16.703  0.1508  0.3640  0.5906
  466TMC3    C8 6997   1.223   2.752  16.649  0.0796  0.7216 -0.5377
  466TMC3    O1 6998   1.332   2.290  16.598  0.6354  0.0648 -0.1085
  466TMC3    O2 6999   1.273   2.749  16.535 -0.5801  0.7787 -0.0845
  467TMC3    C1 7000   2.211   0.464  13.579  0.1884 -0.5709  0.1030
  467TMC3    C2 7001   2.160   0.590  13.562  0.0957  0.0027  0.2670
  467TMC3    C3 7002   2.046   0.633  13.624 -0.2526  0.0782  0.2597
  467TMC3    C4 7003   2.155   0.384  13.668 -0.2416  0.6398 -0.6499
  467TMC3    C5 7004   2.029   0.422  13.709 -0.0734 -0.1711  0.0216
  467TMC3    C6 7005   1.963   0.538  13.679 -0.4465 -0.8714 -0.1282
  467TMC3     C 7006   2.356   0.462  13.582 -0.3215  0.1357 -0.5885
  467TMC3     O 7007   2.407   0.571  13.581  0.0689  0.2114 -0.2016
  467TMC3     H 7008   2.210   0.666  13.504 -0.4724  0.2248  0.0682
  467TMC3    H1 7009   2.196   0.287  13.692  0.0281  1.0802  0.6356
  467TMC3    H2 7010   1.869   0.566  13.726 -1.1677 -1.5120 -1.2028
  467TMC3    C7 7011   1.951   0.314  13.762  0.2129  0.5449  0.3145
  467TMC3    C8 7012   2.004   0.774  13.608  0.8831  0.6721 -0.2391
  467TMC3    O1 7013   1.998   0.203  13.746 -0.4184  0.1014 -0.3873
  467TMC3    O2 7014   2.094   0.855  13.576 -0.3465 -0.1884 -0.0742
  468MPD2     C 7015   0.530   4.379  11.161  0.8003  0.2830 -0.0231
  468MPD2    C1 7016   0.673   4.394  11.152  0.5013 -0.0914 -0.1261
  468MPD2    C2 7017   0.752   4.281  11.114  0.6892  0.4414  0.0076
  468MPD2    C3 7018   0.690   4.161  11.086 -0.2259 -0.4539  0.5630
  468MPD2    C4 7019   0.554   4.151  11.103  0.8811 -0.0713  0.4095
  468MPD2    C5 7020   0.475   4.255  11.142 -0.2859  0.6298  0.3080
  468MPD2     H 7021   0.858   4.298  11.099  0.6359  1.7100  1.0209
  468MPD2    H1 7022   0.509   4.061  11.064 -0.0951  0.5986  0.0033
  468MPD2    H2 7023   0.461   4.458  11.189  0.1702 -0.3950  0.3371
  468MPD2    H3 7024   0.368   4.244  11.135 -0.5013  2.3106  0.8436
  468MPD2     N 7025   0.757   4.040  11.045  0.2702  0.3023  0.3245
  468MPD2    H5 7026   0.698   3.962  11.018 -1.2453  2.2608 -2.0704
  468MPD2    N1 7027   0.736   4.520  11.175 -0.6587 -0.3403 -0.6077
  468MPD2    H7 7028   0.836   4.525  11.189 -0.9486  1.7018  0.6768
  469TMC3    C1 7029   0.771   4.732  11.253 -0.3908 -0.9397  0.2924
  469TMC3    C2 7030   0.900   4.726  11.214  0.0560 -0.0171 -0.3575
  469TMC3    C3 7031   0.998   0.044  11.291  0.7065  0.6230  0.2088
  469TMC3    C4 7032   0.731   0.055  11.371 -0.4015  0.1238 -0.3174
  469TMC3    C5 7033   0.833   0.113  11.450  0.2553  0.3603  0.6701
  469TMC3    C6 7034   0.967   0.100  11.416  0.6808 -0.1033 -0.2718
  469TMC3     C 7035   0.676   4.642  11.197  0.0923 -1.0233 -0.1554
  469TMC3     O 7036   0.558   4.678  11.180 -0.0609  0.8972  0.0833
  469TMC3     H 7037   0.938   4.687  11.120 -0.1491 -1.5497  0.1923
  469TMC3    H1 7038   0.627   0.061  11.402  0.3039 -0.2430  2.1397
  469TMC3    H2 7039   1.038   0.152  11.479  0.6363 -0.4286  0.0451
  469TMC3    C7 7040   0.799   0.156  11.591  0.6576  0.9549 -0.5132
  469TMC3    C8 7041   1.132   4.726  11.258 -0.0787 -0.2175  0.0477
  469TMC3    O1 7042   0.687   0.202  11.615 -0.3794  0.3563 -0.3406
  469TMC3    O2 7043   1.168   4.718  11.140  0.4118  0.0025  0.0585
  470TMC3    C1 7044   3.803   4.439   0.749  0.5517  0.6618  0.6558
  470TMC3    C2 7045   3.897   4.537   0.735  0.2294 -0.5137 -0.1675
  470TMC3    C3 7046   3.873   4.664   0.781  0.3723 -0.6927  0.2194
  470TMC3    C4 7047   3.686   4.468   0.809  0.7610 -0.3056 -0.9599
  470TMC3    C5 7048   3.663   4.605   0.840 -0.5502  0.1643 -0.2805
  470TMC3    C6 7049   3.761   4.699   0.839 -0.0188  0.1800  0.8715
  470TMC3     C 7050   3.827   4.306   0.706 -0.1225 -0.5079 -0.2185
  470TMC3     O 7051   3.937   4.280   0.662 -0.3199 -0.1210  0.1011
  470TMC3     H 7052   3.985   4.507   0.679  0.3326 -1.8410  0.7087
  470TMC3    H1 7053   3.620   4.384   0.825 -1.2426  1.3942 -0.3392
  470TMC3    H2 7054   3.745   0.065   0.867 -1.7880 -0.2329  1.4268
  470TMC3    C7 7055   3.545   4.640   0.919  0.5647 -0.2762  0.1174
  470TMC3    C8 7056   3.986   0.015   0.800 -0.6015 -0.7442 -0.0663
  470TMC3    O1 7057   3.553   0.001   0.989 -0.1965  0.1514  0.0939
  470TMC3    O2 7058   3.956   0.127   0.838  0.8889 -0.0441 -0.0388
  471MPD2     C 7059   3.888   1.335  16.673  0.4225 -1.0060  0.1966
  471MPD2    C1 7060   4.010   1.263  16.677  0.5843 -0.6190 -0.3939
  471MPD2    C2 7061   4.085   1.259  16.793 -1.0006 -1.0649 -0.2923
  471MPD2    C3 7062   4.032   1.317  16.907  0.5786 -0.3514  0.0890
  471MPD2    C4 7063   3.910   1.386  16.904  0.2599  0.1211 -0.4342
  471MPD2    C5 7064   3.845   1.399  16.783  0.6451  0.7079 -0.5487
  471MPD2     H 7065   4.183   1.214  16.785 -0.7041 -0.4081 -0.3595
  471MPD2    H1 7066   3.871   1.430  16.995 -0.5335 -0.5873 -0.4293
  471MPD2    H2 7067   3.825   1.350  16.587 -0.6734 -1.6621  0.8805
  471MPD2    H3 7068   3.754   1.455  16.767 -0.7044 -1.8638 -1.9168
  471MPD2     N 7069   4.102   1.305  17.032 -0.9444 -0.5390 -0.1392
  471MPD2    H5 7070   4.063   1.342  17.118 -0.2853  3.6766 -1.6358
  471MPD2    N1 7071   4.064   1.189  16.570  0.1677  0.0221  0.0368
  471MPD2    H7 7072   4.150   1.139  16.589 -0.4535 -0.3048  2.0248
  472TMC3    C1 7073   4.075   1.098  16.355 -0.0200 -0.0172  0.4203
  472TMC3    C2 7074   4.044   1.103  16.223  0.5602 -0.2965 -0.4539
  472TMC3    C3 7075   4.079   0.999  16.138 -0.6422  0.6007 -0.0399
  472TMC3    C4 7076   4.139   0.987  16.408  0.2656 -0.1286 -0.4418
  472TMC3    C5 7077   4.173   0.881  16.329  0.0656 -0.2554  0.1858
  472TMC3    C6 7078   4.149   0.895  16.196  0.1871  0.2323  0.4920
  472TMC3     C 7079   4.007   1.184  16.444  0.2829  0.0081  0.4919
  472TMC3     O 7080   3.913   1.246  16.403 -0.3601 -0.2656 -0.3562
  472TMC3     H 7081   3.991   1.185  16.177 -1.5347 -1.3976  0.0037
  472TMC3    H1 7082   4.153   0.968  16.514  0.0502  0.8404 -0.2382
  472TMC3    H2 7083   4.172   0.813  16.129 -1.6237  0.9082 -0.9336
  472TMC3    C7 7084   4.127   0.759  16.389 -0.9550  0.5104 -0.4178
  472TMC3    C8 7085   3.977   0.944  16.055 -0.2455  0.0223 -0.2418
  472TMC3    O1 7086   4.160   0.736  16.504  0.3916  0.1652 -0.6735
  472TMC3    O2 7087   3.955   0.826  16.077  0.2128 -0.5798  0.1358
  473MPD2     C 7088   3.578   2.820  13.680  0.0012  0.6044 -0.3368
  473MPD2    C1 7089   3.528   2.927  13.601 -0.4989  0.5287  0.8994
  473MPD2    C2 7090   3.591   3.049  13.601 -0.5372 -0.8476 -0.3893
  473MPD2    C3 7091   3.698   3.067  13.691  0.7412 -0.4620  0.2290
  473MPD2    C4 7092   3.748   2.961  13.770  0.3305 -0.4366 -0.0080
  473MPD2    C5 7093   3.696   2.835  13.753  0.6745  0.7332 -0.6175
  473MPD2     H 7094   3.555   3.123  13.531 -2.4864 -1.5446 -0.1044
  473MPD2    H1 7095   3.836   2.982  13.830 -0.1612 -1.7432  1.1715
  473MPD2    H2 7096   3.542   2.718  13.691  2.3492  0.0738  2.5504
  473MPD2    H3 7097   3.732   2.747  13.807 -1.0411  0.5078  0.1658
  473MPD2     N 7098   3.756   3.193  13.721 -0.3382  0.7549  0.2843
  473MPD2    H5 7099   3.826   3.199  13.794 -0.0730 -2.5643  0.3268
  473MPD2    N1 7100   3.423   2.912  13.509  0.3359  0.7995  0.0193
  473MPD2    H7 7101   3.394   2.992  13.453 -0.1615  0.0827 -0.7575
  474TMC3    C1 7102   3.781   3.424  13.727 -0.3089 -0.9360 -0.0571
  474TMC3    C2 7103   3.732   3.547  13.683 -0.0383  0.7496 -0.0019
  474TMC3    C3 7104   3.777   3.655  13.755 -0.2109  0.1728  0.4469
  474TMC3    C4 7105   3.873   3.406  13.831 -0.1823  1.2163 -0.1669
  474TMC3    C5 7106   3.904   3.523  13.908  0.1243 -0.0925  0.2108
  474TMC3    C6 7107   3.863   3.645  13.861  0.3843 -0.3022  0.0885
  474TMC3     C 7108   3.719   3.313  13.664 -0.2635 -0.2089  0.2473
  474TMC3     O 7109   3.662   3.337  13.559  0.0639 -0.5606  0.0908
  474TMC3     H 7110   3.658   3.556  13.604  3.3760  3.0236 -2.8996
  474TMC3    H1 7111   3.911   3.313  13.871  0.0471  0.8336 -1.2816
  474TMC3    H2 7112   3.886   3.731  13.922 -0.1345 -1.7674  2.3380
  474TMC3    C7 7113   4.014   3.510  14.000  0.6712 -0.1174  0.2778
  474TMC3    C8 7114   3.721   3.772  13.709  0.6052  0.3479  0.7947
  474TMC3    O1 7115   4.100   3.420  13.982  0.1535  0.1082 -0.1102
  474TMC3    O2 7116   3.604   3.763  13.675  0.0475  0.0806 -0.5011
  475MPD2     C 7117   1.425   2.029  11.417 -0.2011 -0.1157  0.1533
  475MPD2    C1 7118   1.477   2.094  11.309 -0.3044  0.2669  0.1639
  475MPD2    C2 7119   1.390   2.144  11.219 -0.0846 -0.1318 -0.0919
  475MPD2    C3 7120   1.254   2.124  11.225  0.5075  0.3175  0.0067
  475MPD2    C4 7121   1.199   2.049  11.336 -0.2164 -0.5333  0.4687
  475MPD2    C5 7122   1.289   2.002  11.429 -0.0767  0.3248 -0.4440
  475MPD2     H 7123   1.439   2.206  11.144 -0.2933  0.7488  0.4906
  475MPD2    H1 7124   1.096   2.015  11.340 -0.4158 -0.1015 -0.8479
  475MPD2    H2 7125   1.494   1.984  11.488  3.4671  0.8910 -2.7647
  475MPD2    H3 7126   1.249   1.957  11.519  1.4347 -0.7163 -0.2994
  475MPD2     N 7127   1.176   2.187  11.121  0.4630  0.0906  0.3164
  475MPD2    H5 7128   1.233   2.254  11.071  0.8285  0.1814  0.8543
  475MPD2    N1 7129   1.615   2.131  11.311  0.3311  0.4956  0.5202
  475MPD2    H7 7130   1.671   2.092  11.386  1.0008  0.0080 -0.2297
  476TMC3    C1 7131   1.820   2.214  11.231  0.1812 -0.0337  0.2293
  476TMC3    C2 7132   1.892   2.252  11.127 -0.1977  0.0360 -0.0385
  476TMC3    C3 7133   1.995   2.334  11.146 -0.5348  0.1691 -0.4359
  476TMC3    C4 7134   1.846   2.258  11.356 -0.1146 -0.3296  0.3793
  476TMC3    C5 7135   1.943   2.350  11.371  0.3103 -0.2844 -0.3025
  476TMC3    C6 7136   2.013   2.400  11.265  0.1047 -0.2618  0.2119
  476TMC3     C 7137   1.688   2.168  11.198 -0.1097 -0.4652 -0.4967
  476TMC3     O 7138   1.658   2.149  11.077  0.6840 -0.7247  0.3744
  476TMC3     H 7139   1.867   2.210  11.030 -0.3126  0.4335 -0.1784
  476TMC3    H1 7140   1.782   2.229  11.439  0.7755 -0.9669  0.8315
  476TMC3    H2 7141   2.095   2.472  11.268  1.0535 -1.3456  0.3593
  476TMC3    C7 7142   1.942   2.423  11.499  0.1838 -0.4526 -0.6463
  476TMC3    C8 7143   2.082   2.357  11.037  0.9009 -0.1406  0.8717
  476TMC3    O1 7144   1.872   2.376  11.589 -1.1266 -0.3478 -0.3604
  476TMC3    O2 7145   2.140   2.464  11.044  0.4362 -0.0558  0.5370
  477MPD2     C 7146   4.512   3.324  12.009  0.3495 -0.5185 -0.1803
  477MPD2    C1 7147   4.473   3.214  11.931  0.5081  0.8914 -0.1699
  477MPD2    C2 7148   4.514   3.085  11.958  0.4598  0.8420  0.1808
  477MPD2    C3 7149   4.589   3.058  12.072  1.4022  0.3161  0.0293
  477MPD2    C4 7150   4.611   3.164  12.158  0.4217 -0.2994 -1.5425
  477MPD2    C5 7151   4.573   3.292  12.127 -0.5216 -0.2428  0.2614
  477MPD2     H 7152   4.481   3.004  11.894 -0.4305  1.0391  0.3838
  477MPD2    H1 7153   4.677   3.161  12.243  0.9569  0.6349 -1.9309
  477MPD2    H2 7154   4.495   3.427  11.980 -2.3896 -0.8634  0.2449
  477MPD2    H3 7155   4.605   3.379  12.183 -1.6752 -0.1916  0.8341
  477MPD2     N 7156   4.628   2.922  12.102 -0.0238  0.1656 -0.1635
  477MPD2    H5 7157   4.618   2.850  12.032  2.5829 -0.6008  0.2477
  477MPD2    N1 7158   4.391   3.248  11.825 -0.5817 -0.2420  0.4866
  477MPD2    H7 7159   4.360   3.345  11.820  0.3941 -0.0535 -1.9667
  478TMC3    C1 7160   4.217   3.230  11.666 -0.4392 -0.2168 -0.0003
  478TMC3    C2 7161   4.148   3.316  11.747 -0.4221 -0.5960 -0.3320
  478TMC3    C3 7162   4.051   3.384  11.676  0.6092  0.1982  0.2112
  478TMC3    C4 7163   4.187   3.195  11.542 -0.1112 -0.5669 -0.0048
  478TMC3    C5 7164   4.076   3.257  11.483 -0.1669 -0.1862  0.2287
  478TMC3    C6 7165   4.012   3.362  11.547 -0.3354  0.1095 -0.1329
  478TMC3     C 7166   4.336   3.163  11.730 -0.2091 -0.5414 -0.7139
  478TMC3     O 7167   4.368   3.052  11.688  0.0310  0.4661  0.6239
  478TMC3     H 7168   4.176   3.350  11.846 -0.8108  1.3907 -0.9005
  478TMC3    H1 7169   4.226   3.106  11.494 -1.7426 -0.9285 -0.6643
  478TMC3    H2 7170   3.912   3.395  11.518 -1.3283 -2.3594  0.4826
  478TMC3    C7 7171   4.037   3.216  11.348 -0.5211 -0.4442 -0.9918
  478TMC3    C8 7172   3.952   3.431  11.771 -0.1356  0.3509  0.8087
  478TMC3    O1 7173   4.062   3.102  11.310  0.3091 -0.6059 -0.4619
  478TMC3    O2 7174   3.953   3.368  11.877 -0.1365 -0.1558  0.3843
  479MPD2     C 7175   3.438   0.166  14.941  0.4718  0.7897  0.2701
  479MPD2    C1 7176   3.423   0.150  15.075  0.2186  0.1718  0.2277
  479MPD2    C2 7177   3.500   0.232  15.150 -0.3700 -0.5194  0.2634
  479MPD2    C3 7178   3.573   0.339  15.104  0.1978  0.2414  0.2952
  479MPD2    C4 7179   3.569   0.363  14.964 -1.1514  0.2317 -0.3258
  479MPD2    C5 7180   3.511   0.268  14.885 -0.0056  0.2403  0.7637
  479MPD2     H 7181   3.498   0.211  15.257  0.4596 -0.0950  0.3572
  479MPD2    H1 7182   3.629   0.443  14.923 -1.8632  1.0503  0.2278
  479MPD2    H2 7183   3.395   0.093  14.872  1.4612  1.5569 -1.1607
  479MPD2    H3 7184   3.528   0.273  14.779  1.1660  0.9586  0.9865
  479MPD2     N 7185   3.655   0.422  15.189  0.2246 -0.4710 -0.1946
  479MPD2    H5 7186   3.724   0.476  15.138  0.8352  0.7385  1.8819
  479MPD2    N1 7187   3.340   0.047  15.121  0.4668  0.0903  0.1014
  479MPD2    H7 7188   3.298   4.731  15.045  1.0263 -0.5847  0.2639
  480TMC3    C1 7189   3.408   0.357  15.579 -0.2281  0.9488 -0.0339
  480TMC3    C2 7190   3.292   0.413  15.524  0.6840  0.2997  0.7008
  480TMC3    C3 7191   3.305   0.480  15.399 -1.1166  0.8255 -0.2602
  480TMC3    C4 7192   3.537   0.369  15.525 -0.0700 -0.4518 -0.1400
  480TMC3    C5 7193   3.528   0.417  15.395 -0.4103  0.7314  0.1097
  480TMC3    C6 7194   3.424   0.475  15.332  0.4584  0.1937 -0.1010
  480TMC3     C 7195   3.390   0.273  15.694 -0.1945  0.0753 -0.2075
  480TMC3     O 7196   3.473   0.265  15.779  0.6668  0.6438 -0.3103
  480TMC3     H 7197   3.195   0.403  15.571  0.0519  1.2451 -0.4045
  480TMC3    H1 7198   3.623   0.313  15.560  2.0786  3.9875  1.6912
  480TMC3    H2 7199   3.440   0.510  15.231  2.2016  2.8806  1.1067
  480TMC3    C7 7200   3.655   0.425  15.330 -0.1222  1.0225  0.0862
  480TMC3    C8 7201   3.184   0.459  15.320  0.1751 -1.0927 -0.1383
  480TMC3    O1 7202   3.744   0.465  15.404  0.2396  0.0356 -0.1551
  480TMC3    O2 7203   3.080   0.468  15.375  0.2919  0.1026  0.3792
  481MPD2     C 7204   0.434   0.198  14.280  0.1377 -0.1392  0.0990
  481MPD2    C1 7205   0.339   0.101  14.265 -0.6906 -0.1766  0.4224
  481MPD2    C2 7206   0.329   0.004  14.361  0.5889 -0.0881 -0.0452
  481MPD2    C3 7207   0.412   4.733  14.473 -0.3863  0.2732 -0.7521
  481MPD2    C4 7208   0.485   0.111  14.498 -0.8500  0.3474  0.8558
  481MPD2    C5 7209   0.497   0.211  14.401  0.0205 -0.3659 -0.0525
  481MPD2     H 7210   0.258   4.661  14.343 -0.8345  0.1578  4.5013
  481MPD2    H1 7211   0.537   0.117  14.593  1.7192  1.3481 -0.6098
  481MPD2    H2 7212   0.447   0.276  14.206 -0.6979 -0.0327  0.0656
  481MPD2    H3 7213   0.570   0.290  14.417 -0.3186 -0.1870  0.6061
  481MPD2     N 7214   0.395   4.631  14.570 -0.4093  0.3004  0.0125
  481MPD2    H5 7215   0.457   4.644  14.649 -2.0125  1.1284  1.1406
  481MPD2    N1 7216   0.260   0.116  14.153 -0.2393 -0.5209 -0.7324
  481MPD2    H7 7217   0.276   0.191  14.086  2.3675  1.2790  1.9177
  482TMC3    C1 7218   0.081   0.086  14.003  0.8802 -0.6360 -0.2037
  482TMC3    C2 7219   0.004   4.735  13.936  0.3310  0.2579  0.5216
  482TMC3    C3 7220   4.635   0.045  13.864 -0.3603 -0.0108 -0.2076
  482TMC3    C4 7221   0.039   0.216  14.018  0.8452  0.2155  0.0495
  482TMC3    C5 7222   4.663   0.259  13.955  0.6811  0.3441  0.5272
  482TMC3    C6 7223   4.598   0.179  13.872  0.4838  0.7912  0.8173
  482TMC3     C 7224   0.166   0.028  14.110  0.0601  0.6479  0.0019
  482TMC3     O 7225   0.129   4.661  14.163 -0.1206 -0.3389  0.0978
  482TMC3     H 7226   0.019   4.629  13.952  0.3917  0.3068  0.7994
  482TMC3    H1 7227   0.098   0.284  14.078  0.6051 -0.2220  0.7834
  482TMC3    H2 7228   4.504   0.212  13.828  1.1890 -0.1865 -1.3622
  482TMC3    C7 7229   4.626   0.397  13.964 -0.1781 -0.1603 -0.5696
  482TMC3    C8 7230   4.557   4.684  13.791  0.6458  1.0341  0.2154
  482TMC3    O1 7231   4.612   0.440  14.078  0.1716 -0.4635 -0.1966
  482TMC3    O2 7232   4.583   4.570  13.828 -0.6590 -0.7867 -0.1612
  483TMC3    C1 7233   3.658   4.009   1.113 -0.3974 -0.1583 -0.9212
  483TMC3    C2 7234   3.782   4.077   1.078 -0.3376 -0.4908 -0.1429
  483TMC3    C3 7235   3.903   4.033   1.118  0.0130 -0.3866 -0.3853
  483TMC3    C4 7236   3.679   3.886   1.181  0.0345 -0.5511  0.0799
  483TMC3    C5 7237   3.805   3.849   1.223 -0.6990  0.2369  0.7182
  483TMC3    C6 7238   3.918   3.920   1.193 -0.3844 -0.0208 -0.5497
  483TMC3     C 7239   3.580   3.977   0.993  0.4848  0.0575  0.2901
  483TMC3     O 7240   3.542   4.075   0.930  0.1644  0.1697  0.1407
  483TMC3     H 7241   3.773   4.157   1.005 -1.9249  0.4995  1.1369
  483TMC3    H1 7242   3.600   3.852   1.247  1.5768 -2.2156  1.0830
  483TMC3    H2 7243   4.013   3.882   1.229 -1.6202 -0.9004  1.7628
  483TMC3    C7 7244   3.822   3.707   1.204 -0.6179 -0.2449 -0.4772
  483TMC3    C8 7245   4.005   4.077   1.021 -0.1378  0.4343  0.0765
  483TMC3    O1 7246   3.752   3.655   1.121  0.0559 -0.0381 -1.0583
  483TMC3    O2 7247   3.985   4.186   0.970 -0.0314 -0.3884 -0.0751
  484MPD2     C 7248   0.778   2.148  12.446  0.3399  0.9996 -0.0622
  484MPD2    C1 7249   0.837   2.044  12.509  0.4404  0.2767 -0.2346
  484MPD2    C2 7250   0.976   2.054  12.535  0.5148 -0.6394 -0.3179
  484MPD2    C3 7251   1.046   2.166  12.479 -0.6463  0.0551  0.1525
  484MPD2    C4 7252   0.978   2.265  12.414  0.0685  0.5714 -0.1330
  484MPD2    C5 7253   0.847   2.251  12.387  0.0099 -0.1633  0.1940
  484MPD2     H 7254   1.033   1.981  12.591 -1.0116 -1.9676 -0.4809
  484MPD2    H1 7255   1.009   2.363  12.379 -2.9505  0.0494 -4.2432
  484MPD2    H2 7256   0.671   2.166  12.438  0.6485  2.5453 -0.7649
  484MPD2    H3 7257   0.793   2.336  12.345 -2.0594 -0.6851  1.7670
  484MPD2     N 7258   1.187   2.178  12.486 -0.0135 -0.0915 -0.0592
  484MPD2    H5 7259   1.221   2.260  12.437  1.9020 -1.6486 -1.3336
  484MPD2    N1 7260   0.760   1.939  12.555 -0.1350  0.3480  0.0998
  484MPD2    H7 7261   0.660   1.937  12.534 -0.1399 -1.7403  0.3291
  485TMC3    C1 7262   1.410   2.115  12.502 -0.0763 -0.3738  0.5805
  485TMC3    C2 7263   1.497   2.036  12.577  0.3891 -0.5078  0.4045
  485TMC3    C3 7264   1.621   2.092  12.595 -0.6178  0.8680 -0.3876
  485TMC3    C4 7265   1.447   2.233  12.439  0.5811 -0.4965 -0.2822
  485TMC3    C5 7266   1.574   2.277  12.450 -0.3350 -0.0895  0.3052
  485TMC3    C6 7267   1.654   2.214  12.537 -0.2057  0.4598 -0.0921
  485TMC3     C 7268   1.274   2.088  12.537 -0.1063 -0.0817  0.2504
  485TMC3     O 7269   1.252   1.979  12.589 -0.2936  0.4354  0.1685
  485TMC3     H 7270   1.463   1.945  12.625  0.8910 -2.3594 -2.7682
  485TMC3    H1 7271   1.386   2.290  12.371  1.5118 -0.1517 -0.8267
  485TMC3    H2 7272   1.748   2.262  12.561  0.5585 -1.7843  1.4129
  485TMC3    C7 7273   1.652   2.295  12.321 -0.2454  0.8554  0.3098
  485TMC3    C8 7274   1.740   2.011  12.607  0.4547 -0.1989  0.0231
  485TMC3    O1 7275   1.601   2.347  12.222  0.6373 -0.2341  0.4768
  485TMC3    O2 7276   1.839   2.056  12.546 -0.5218 -0.9033  0.0404
  486MPD2     C 7277   2.408   0.553  13.181  0.7539 -0.2103  0.0529
  486MPD2    C1 7278   2.480   0.533  13.064 -0.3269 -0.1525 -0.2322
  486MPD2    C2 7279   2.482   0.638  12.966  0.0080  0.1964  0.0471
  486MPD2    C3 7280   2.434   0.762  13.007  0.2280  0.4121 -1.4030
  486MPD2    C4 7281   2.366   0.779  13.131 -0.2663  0.8417  0.4492
  486MPD2    C5 7282   2.352   0.675  13.214 -0.1883  0.3640  0.8881
  486MPD2     H 7283   2.532   0.616  12.872 -0.7373  1.9379 -0.7731
  486MPD2    H1 7284   2.326   0.871  13.171  0.1074  1.2324 -0.0769
  486MPD2    H2 7285   2.390   0.473  13.253 -0.3085  2.0355  2.2641
  486MPD2    H3 7286   2.304   0.683  13.311 -2.6692  0.0776 -0.3204
  486MPD2     N 7287   2.444   0.869  12.911 -0.6129 -0.2432  0.1783
  486MPD2    H5 7288   2.507   0.847  12.835  0.2462 -0.3547  0.9263
  486MPD2    N1 7289   2.529   0.404  13.040 -0.3236  0.5271  0.3882
  486MPD2    H7 7290   2.524   0.336  13.115  3.0494  0.6784  0.7490
  487TMC3    C1 7291   2.666   0.234  12.948  0.0571  0.6279  0.6885
  487TMC3    C2 7292   2.654   0.140  12.850 -0.1218  0.1866 -0.2604
  487TMC3    C3 7293   2.729   0.024  12.870 -0.4976  0.4702  0.1054
  487TMC3    C4 7294   2.739   0.213  13.065  0.0672 -0.2699 -0.4905
  487TMC3    C5 7295   2.804   0.097  13.075  0.0238  0.9208 -0.1169
  487TMC3    C6 7296   2.818   0.007  12.972 -0.1204 -1.0710  0.3657
  487TMC3     C 7297   2.600   0.363  12.928 -0.7990  0.3822 -0.5370
  487TMC3     O 7298   2.621   0.418  12.823 -0.2348 -0.2166 -0.2629
  487TMC3     H 7299   2.569   0.152  12.783  0.0029  1.8049 -0.1409
  487TMC3    H1 7300   2.721   0.271  13.155  0.4803  0.5385 -0.9332
  487TMC3    H2 7301   2.850   4.641  12.985 -0.5129 -1.2210  0.1472
  487TMC3    C7 7302   2.805   0.034  13.199 -0.7324 -0.0756 -0.0033
  487TMC3    C8 7303   2.675   4.634  12.818 -0.8702 -0.0755  0.6842
  487TMC3    O1 7304   2.709   0.061  13.276 -0.2943  0.4459 -0.1982
  487TMC3    O2 7305   2.754   4.549  12.775  0.7330  0.6042 -0.2921
  488MPD2     C 7306   3.390   2.137  16.407 -0.8231  0.8187  0.2577
  488MPD2    C1 7307   3.460   2.247  16.434  0.5384 -0.0448  0.1306
  488MPD2    C2 7308   3.427   2.323  16.541  0.6132 -0.7794 -0.5378
  488MPD2    C3 7309   3.323   2.279  16.623 -0.0553 -0.3423 -0.8978
  488MPD2    C4 7310   3.254   2.164  16.593  0.1312 -0.3334  0.5067
  488MPD2    C5 7311   3.293   2.092  16.487  0.2297 -0.2169  0.3346
  488MPD2     H 7312   3.490   2.408  16.565 -1.1277  0.6118 -0.9518
  488MPD2    H1 7313   3.172   2.127  16.653  1.3073 -1.6981  1.2672
  488MPD2    H2 7314   3.411   2.076  16.320  1.0100 -2.7613  3.2204
  488MPD2    H3 7315   3.247   1.996  16.468  2.2015 -0.9101 -1.0288
  488MPD2     N 7316   3.289   2.363  16.734 -0.3965  0.3513  0.3323
  488MPD2    H5 7317   3.361   2.433  16.751 -1.5894  0.9589  2.8742
  488MPD2    N1 7318   3.561   2.289  16.343 -0.4819  0.2454 -0.2216
  488MPD2    H7 7319   3.619   2.364  16.380  0.4452  0.6821 -2.5603
  489TMC3    C1 7320   3.176   2.450  16.929  0.0192 -0.3156 -0.2588
  489TMC3    C2 7321   3.258   2.560  16.918 -0.1723 -0.1463 -0.0158
  489TMC3    C3 7322   3.267   2.636  17.033  0.9045 -0.2052 -0.1319
  489TMC3    C4 7323   3.090   2.432  17.033 -0.1140  0.1066 -0.2432
  489TMC3    C5 7324   3.102   2.513  17.140  0.3998  0.6417 -0.0225
  489TMC3    C6 7325   3.187   2.625  17.141 -0.5037  0.1996  0.3192
  489TMC3     C 7326   3.179   2.349  16.822  0.1382  0.2790 -0.0418
  489TMC3     O 7327   3.071   2.284  16.809  0.4721  0.0429  0.4962
  489TMC3     H 7328   3.312   2.594  16.830 -0.2969 -0.5864 -0.2624
  489TMC3    H1 7329   3.021   2.348  17.023  0.5622 -0.5581  0.6705
  489TMC3    H2 7330   3.184   2.694  17.225 -0.5661  0.9752 -0.3165
  489TMC3    C7 7331   2.997   2.522  17.237  0.5905  0.1186  0.2561
  489TMC3    C8 7332   3.374   2.730  17.032 -0.2648 -0.2852 -0.0929
  489TMC3    O1 7333   2.977   2.626  17.288  0.2051 -0.1828  0.6502
  489TMC3    O2 7334   3.475   2.681  16.974 -0.5728  0.4219  0.0099
  490MPD2     C 7335   4.317   1.440  17.396 -0.6610  0.0721  0.2533
  490MPD2    C1 7336   4.242   1.423  17.517 -0.3094  0.1453  0.1912
  490MPD2    C2 7337   4.305   1.422  17.638 -0.0184  0.1900  0.2459
  490MPD2    C3 7338   4.437   1.448  17.654  0.0995  0.2111  0.1758
  490MPD2    C4 7339   4.514   1.471  17.539 -0.2238  0.1411 -0.2023
  490MPD2    C5 7340   4.457   1.466  17.411  0.3812 -0.2496 -0.6761
  490MPD2     H 7341   4.244   1.393  17.723 -1.0700 -2.3717 -1.3933
  490MPD2    H1 7342   4.620   1.496  17.543 -0.1004  0.0096 -2.5604
  490MPD2    H2 7343   4.273   1.432  17.297  0.1818 -0.0759 -0.1159
  490MPD2    H3 7344   4.523   1.474  17.325  2.8580 -0.1465  1.2298
  490MPD2     N 7345   4.498   1.452   0.029 -0.3146 -0.4905 -0.5159
  490MPD2    H5 7346   4.597   1.469   0.015 -0.3915  0.3364 -0.0603
  490MPD2    N1 7347   4.105   1.395  17.516  0.1367 -0.0745  0.5509
  490MPD2    H7 7348   4.061   1.363  17.602  0.3826 -1.5920  0.1153
  491TMC3    C1 7349   3.884   1.397  17.437  0.1875  0.0495 -0.3832
  491TMC3    C2 7350   3.827   1.403  17.562 -0.0605 -0.0522 -0.8101
  491TMC3    C3 7351   3.693   1.395  17.575 -0.5270 -0.0812 -0.9546
  491TMC3    C4 7352   3.800   1.403  17.327  0.2150  0.0600  0.5606
  491TMC3    C5 7353   3.667   1.399  17.351 -0.1188 -0.0518 -0.7670
  491TMC3    C6 7354   3.610   1.370  17.469 -0.3505  0.5557 -0.1574
  491TMC3     C 7355   4.025   1.430  17.409  0.4235  0.1227  0.2013
  491TMC3     O 7356   4.045   1.484  17.300  0.2767 -0.1557 -1.2173
  491TMC3     H 7357   3.893   1.422  17.646 -1.2279  1.9275 -0.3421
  491TMC3    H1 7358   3.847   1.415  17.229 -0.1289  0.2334  0.4191
  491TMC3    H2 7359   3.506   1.349  17.490  0.2773 -2.5916 -0.3356
  491TMC3    C7 7360   3.583   1.372  17.238 -0.2096 -0.3569 -0.2361
  491TMC3    C8 7361   3.639   1.400  17.706 -0.5881  0.2120  0.0234
  491TMC3    O1 7362   3.480   1.303  17.244  0.7135 -0.1727 -0.2440
  491TMC3    O2 7363   3.528   1.451  17.720  0.4959  0.0672 -0.3916
  492MPD2     C 7364   4.081   1.574  11.341 -0.2046 -0.7636 -0.6117
  492MPD2    C1 7365   3.978   1.550  11.256 -0.0760  0.7940  0.5023
  492MPD2    C2 7366   3.874   1.476  11.303 -0.3684 -0.0004  0.2490
  492MPD2    C3 7367   3.880   1.422  11.433 -0.4651 -0.1224  0.4245
  492MPD2    C4 7368   3.990   1.440  11.516 -0.1821  0.0525  0.0795
  492MPD2    C5 7369   4.082   1.530  11.473  0.1098  0.1332  0.0142
  492MPD2     H 7370   3.791   1.462  11.235  0.1645 -0.0050 -0.3964
  492MPD2    H1 7371   3.998   1.403  11.617  0.6941  1.3552  0.4895
  492MPD2    H2 7372   4.165   1.635  11.309  0.4381 -0.6567  1.2404
  492MPD2    H3 7373   4.161   1.561  11.542 -0.4904 -2.5478  1.8789
  492MPD2     N 7374   3.777   1.337  11.489  0.0904  0.1210  0.4777
  492MPD2    H5 7375   3.785   1.322  11.589  0.7758  1.9013  0.6965
  492MPD2    N1 7376   3.988   1.605  11.125 -0.2252 -0.2342 -0.0620
  492MPD2    H7 7377   4.070   1.660  11.100 -0.1321  0.0192  0.7796
  493TMC3    C1 7378   3.924   1.680  10.919 -0.2176  0.1430 -0.3833
  493TMC3    C2 7379   4.056   1.719  10.884 -0.4127 -0.1365  0.6325
  493TMC3    C3 7380   4.071   1.785  10.763  0.0435  0.0343  0.2734
  493TMC3    C4 7381   3.822   1.698  10.831 -0.3469  0.0562 -0.1800
  493TMC3    C5 7382   3.832   1.772  10.725 -0.1871  0.0003 -0.2337
  493TMC3    C6 7383   3.960   1.811  10.681 -0.4680  0.9069  0.3343
  493TMC3     C 7384   3.899   1.588  11.024  0.2680  0.3237 -0.3812
  493TMC3     O 7385   3.793   1.527  11.026  0.2976 -0.1417 -0.4342
  493TMC3     H 7386   4.146   1.676  10.928  0.1879  1.7958  1.2964
  493TMC3    H1 7387   3.721   1.674  10.863  0.9152 -1.0027  3.0864
  493TMC3    H2 7388   3.973   1.857  10.584  2.6727 -1.0962 -0.1950
  493TMC3    C7 7389   3.732   1.763  10.623  0.0287  0.5049  0.0892
  493TMC3    C8 7390   4.201   1.826  10.726 -0.2262  0.2296 -0.0369
  493TMC3    O1 7391   3.729   1.856  10.539  0.5207 -0.0714  0.0435
  493TMC3    O2 7392   4.284   1.738  10.747  0.0653  0.2310  0.0788
  494TMC3    C1 7393   4.298   3.103   0.522  0.7363 -0.3878  0.0314
  494TMC3    C2 7394   4.353   2.982   0.498  0.1294 -0.0584 -0.4604
  494TMC3    C3 7395   4.416   2.958   0.383 -0.2297 -0.0501 -0.0983
  494TMC3    C4 7396   4.306   3.198   0.424  0.3605  0.2300  0.2901
  494TMC3    C5 7397   4.383   3.174   0.309 -0.3014  0.1561  0.5925
  494TMC3    C6 7398   4.435   3.047   0.283  0.0743  0.2870 -0.2858
  494TMC3     C 7399   4.266   3.136   0.661 -0.4436 -0.3901 -0.2335
  494TMC3     O 7400   4.319   3.059   0.746  0.0240 -0.0714  0.2122
  494TMC3     H 7401   4.341   2.896   0.564 -0.0971  0.7681  0.5741
  494TMC3    H1 7402   4.289   3.303   0.445  0.6528  0.1807  0.7787
  494TMC3    H2 7403   4.499   3.033   0.197  0.4688 -5.0161  0.8569
  494TMC3    C7 7404   4.446   3.284   0.239  0.1895  0.0853 -0.2255
  494TMC3    C8 7405   4.482   2.825   0.371 -0.0927  0.1075  1.1242
  494TMC3    O1 7406   4.532   3.260   0.157  0.0018  0.0645 -0.2353
  494TMC3    O2 7407   4.491   2.764   0.477 -0.2183 -0.3112 -0.6754
  495TMC3    C1 7408   3.317   0.011  14.547  0.1278 -0.4333 -0.1312
  495TMC3    C2 7409   3.350   0.046  14.422  0.3982 -0.2791 -0.0509
  495TMC3    C3 7410   3.351   0.171  14.381  0.5289 -0.4511  0.1565
  495TMC3    C4 7411   3.261   0.095  14.634  0.2788  0.2549  0.6522
  495TMC3    C5 7412   3.270   0.231  14.593 -0.0750  0.1880  0.3971
  495TMC3    C6 7413   3.314   0.270  14.466 -0.4439  0.0289 -0.0701
  495TMC3     C 7414   3.293   4.611  14.585  0.9040  0.6836 -0.4676
  495TMC3     O 7415   3.205   4.599  14.666  0.2405  0.1607 -0.7617
  495TMC3     H 7416   3.398   4.708  14.360  2.7020  1.3094 -0.2209
  495TMC3    H1 7417   3.233   0.066  14.735  1.1661 -1.7325  0.3281
  495TMC3    H2 7418   3.329   0.374  14.442  0.1262 -0.3222 -1.2140
  495TMC3    C7 7419   3.224   0.324  14.691 -0.2402 -0.9401 -0.4546
  495TMC3    C8 7420   3.289   0.199  14.252 -0.1349  0.4446  0.5468
  495TMC3    O1 7421   3.281   0.430  14.707 -0.4585  0.4665 -0.4641
  495TMC3    O2 7422   3.232   0.304  14.234 -0.2048  0.5844 -0.5837
  496MPD2     C 7423   0.921   0.990  15.754  0.5033 -0.2544  0.2196
  496MPD2    C1 7424   0.874   0.875  15.688 -0.6539  0.5449  0.5947
  496MPD2    C2 7425   0.742   0.845  15.702  0.1600 -0.2246 -0.4674
  496MPD2    C3 7426   0.655   0.928  15.776  0.1936  0.6800 -0.1887
  496MPD2    C4 7427   0.698   1.042  15.848  0.2586 -0.1704  0.2188
  496MPD2    C5 7428   0.832   1.069  15.832  0.0567  0.1382 -0.2490
  496MPD2     H 7429   0.699   0.764  15.645  0.9118  0.3586 -1.8631
  496MPD2    H1 7430   0.630   1.117  15.887 -0.0427 -0.7961  0.9026
  496MPD2    H2 7431   1.024   1.024  15.758  0.6042 -0.6257  0.7700
  496MPD2    H3 7432   0.879   1.151  15.883  0.9447  0.1412 -1.0622
  496MPD2     N 7433   0.515   0.905  15.777  0.0402  0.7685  0.5860
  496MPD2    H5 7434   0.454   0.954  15.842 -2.1720 -0.2624 -0.7004
  496MPD2    N1 7435   0.973   0.804  15.620  0.4686  0.1101  0.9646
  496MPD2    H7 7436   1.068   0.840  15.626  0.1800  1.2003 -1.0109
  497TMC3    C1 7437   0.316   0.773  15.745  0.0023  0.1650 -0.0397
  497TMC3    C2 7438   0.245   0.714  15.643  0.2002 -0.0717 -0.1984
  497TMC3    C3 7439   0.194   0.591  15.650 -0.4721  0.1974 -0.6592
  497TMC3    C4 7440   0.330   0.699  15.860  0.2105 -0.4477  0.1583
  497TMC3    C5 7441   0.267   0.580  15.884  0.0001 -0.5361  0.7944
  497TMC3    C6 7442   0.202   0.522  15.774 -0.1859 -0.0909  0.0541
  497TMC3     C 7443   0.443   0.823  15.689  0.0962  0.3345  0.5346
  497TMC3     O 7444   0.476   0.758  15.591  0.1788 -0.1041  0.2845
  497TMC3     H 7445   0.242   0.766  15.548  0.2434 -1.7096 -1.0953
  497TMC3    H1 7446   0.388   0.749  15.937 -1.6859  1.0408  0.6329
  497TMC3    H2 7447   0.173   0.418  15.776 -0.6085  0.0228 -0.0877
  497TMC3    C7 7448   0.305   0.490  15.990 -0.8973 -0.3028  1.0392
  497TMC3    C8 7449   0.165   0.512  15.528 -0.3771  0.9589 -0.5302
  497TMC3    O1 7450   0.257   0.379  15.991  0.3347  0.2516  0.0257
  497TMC3    O2 7451   0.074   0.431  15.515 -0.1310  0.1890  0.4425
  498MPD2     C 7452   1.881   1.996  10.091 -0.3045 -0.2282  0.0905
  498MPD2    C1 7453   1.794   2.033  10.190  0.7262 -0.5745  0.5461
  498MPD2    C2 7454   1.683   1.959  10.224  0.3664 -0.7811  0.1394
  498MPD2    C3 7455   1.648   1.847  10.150 -0.7459  0.8339 -0.6969
  498MPD2    C4 7456   1.729   1.819  10.036 -0.2142  0.0671  0.2608
  498MPD2    C5 7457   1.845   1.892  10.017 -0.5450 -0.2407  0.4151
  498MPD2     H 7458   1.630   1.986  10.315  1.1758 -0.4991  0.5193
  498MPD2    H1 7459   1.712   1.742   9.961  0.3894  0.8319 -0.6538
  498MPD2    H2 7460   1.971   2.050  10.067 -0.4241 -0.3416 -0.6397
  498MPD2    H3 7461   1.914   1.839   9.951  2.7790  0.1533  3.5444
  498MPD2     N 7462   1.534   1.768  10.195 -0.0199  0.2405 -0.3459
  498MPD2    H5 7463   1.499   1.787  10.289 -3.4144 -2.0170 -1.1807
  498MPD2    N1 7464   1.825   2.151  10.266  0.1850  0.1034 -0.1660
  498MPD2    H7 7465   1.757   2.169  10.340 -1.2334 -0.7507 -1.2618
  499TMC3    C1 7466   1.901   2.360  10.332 -0.2263  0.5237 -0.0207
  499TMC3    C2 7467   2.008   2.422  10.384 -0.0609  0.2137 -0.1080
  499TMC3    C3 7468   2.001   2.560  10.407 -0.1794  0.0026 -0.1121
  499TMC3    C4 7469   1.785   2.421  10.304  0.7053  0.2143  0.5617
  499TMC3    C5 7470   1.783   2.555  10.319 -0.0780  0.0134  0.2749
  499TMC3    C6 7471   1.880   2.622  10.382 -0.2251  0.1836  0.2409
  499TMC3     C 7472   1.927   2.238  10.263 -0.1191 -0.4431 -0.6709
  499TMC3     O 7473   2.043   2.229  10.216  0.3192  0.6481  0.7833
  499TMC3     H 7474   2.101   2.373  10.411  0.9961  1.5922 -1.2519
  499TMC3    H1 7475   1.701   2.368  10.261 -0.4952  2.1742  0.4960
  499TMC3    H2 7476   1.876   2.729  10.394 -0.4562  0.2631 -0.5696
  499TMC3    C7 7477   1.699   2.636  10.238 -0.2532  0.9053 -0.0977
  499TMC3    C8 7478   2.059   2.604  10.537 -0.5702  0.0083 -0.3372
  499TMC3    O1 7479   1.698   2.756  10.259  1.4300  0.0996  1.4153
  499TMC3    O2 7480   1.986   2.621  10.635 -0.0418  0.6613  0.0122
  500MPD2     C 7481   2.866   2.983  11.073  0.2909  0.0086 -0.1059
  500MPD2    C1 7482   2.903   2.943  10.943  0.5883  0.2892 -1.3603
  500MPD2    C2 7483   2.805   2.951  10.846 -0.4285 -0.5757  0.0012
  500MPD2    C3 7484   2.681   3.005  10.874  0.0552 -0.3466  0.1297
  500MPD2    C4 7485   2.647   3.038  11.004 -0.4819  0.1655 -0.8486
  500MPD2    C5 7486   2.740   3.021  11.100 -0.3272  0.0709  0.2029
  500MPD2     H 7487   2.833   2.925  10.745  0.5374 -0.0475  0.1290
  500MPD2    H1 7488   2.550   3.077  11.034  0.0793  0.2378  0.8741
  500MPD2    H2 7489   2.942   2.987  11.150 -0.6631 -0.6342  0.8741
  500MPD2    H3 7490   2.703   3.054  11.197 -0.4049 -1.8836  0.8498
  500MPD2     N 7491   2.588   3.044  10.781 -0.0717  0.0224  0.0983
  500MPD2    H5 7492   2.507   3.092  10.817 -0.8265  1.1383 -3.0798
  500MPD2    N1 7493   3.040   2.915  10.902  0.1484  0.2867 -0.6955
  500MPD2    H7 7494   3.061   2.897  10.804  1.6833 -2.5145  0.1348
  501TMC3    C1 7495   3.267   2.870  10.911 -0.0989  0.3345  0.8425
  501TMC3    C2 7496   3.284   2.928  10.790  0.1944 -0.1699 -0.1484
  501TMC3    C3 7497   3.413   2.945  10.739  0.8591 -0.7667 -0.6213
  501TMC3    C4 7498   3.376   2.845  10.988 -0.0611  0.0010 -0.4087
  501TMC3    C5 7499   3.501   2.870  10.939 -0.0564  0.2143 -0.5281
  501TMC3    C6 7500   3.524   2.906  10.808 -0.0005  0.0446 -0.2326
  501TMC3     C 7501   3.146   2.893  10.987 -0.5124  0.6155 -0.8273
  501TMC3     O 7502   3.153   2.904  11.108  0.4554  0.5847 -0.2582
  501TMC3     H 7503   3.198   2.973  10.741 -0.0093  0.5285  0.8514
  501TMC3    H1 7504   3.355   2.811  11.089 -4.2890  1.3923 -0.8056
  501TMC3    H2 7505   3.623   2.931  10.773 -0.6179  0.6730 -1.5431
  501TMC3    C7 7506   3.616   2.831  11.013 -0.4984  0.4405  0.7401
  501TMC3    C8 7507   3.436   3.068  10.657  0.4035 -0.2312  0.7843
  501TMC3    O1 7508   3.723   2.832  10.954 -0.4271  0.3025 -0.1472
  501TMC3    O2 7509   3.547   3.113  10.659  0.8026  0.2559  0.0175
  502TMC3    C1 7510   2.967   0.988  14.644  0.9466  0.1370 -0.3442
  502TMC3    C2 7511   2.970   1.105  14.573 -1.1081  0.1795 -0.0027
  502TMC3    C3 7512   2.875   1.199  14.589  1.2121  0.6328  0.1368
  502TMC3    C4 7513   2.858   0.960  14.721 -0.1286 -0.5917  0.8613
  502TMC3    C5 7514   2.755   1.051  14.733 -0.5673 -0.0751 -0.1935
  502TMC3    C6 7515   2.759   1.172  14.667  0.3350 -0.8068  0.0989
  502TMC3     C 7516   3.088   0.973  14.717 -0.1320  0.1304  0.0445
  502TMC3     O 7517   3.189   1.012  14.664 -0.2353  0.5090  0.1165
  502TMC3     H 7518   3.047   1.126  14.500 -1.1065 -1.5974 -0.5212
  502TMC3    H1 7519   2.849   0.860  14.762 -0.5341 -1.2549 -0.8217
  502TMC3    H2 7520   2.699   1.257  14.697  1.5170 -0.3557  1.1794
  502TMC3    C7 7521   2.722   1.060  14.876 -0.0070 -0.4426  0.7565
  502TMC3    C8 7522   2.934   1.325  14.638  0.0203 -0.5348 -0.1803
  502TMC3    O1 7523   2.779   0.984  14.949 -0.2338 -0.3506  0.1348
  502TMC3    O2 7524   2.860   1.417  14.654  0.0748  0.3926  0.0438
  503MPD2     C 7525   0.213   2.182  17.235 -0.1371 -0.0821 -0.6450
  503MPD2    C1 7526   0.330   2.244  17.282  0.1232  0.4048 -0.1510
  503MPD2    C2 7527   0.418   2.170  17.363  0.0632  0.0186  0.1806
  503MPD2    C3 7528   0.388   2.039  17.403  0.7387  0.0916  0.5273
  503MPD2    C4 7529   0.264   1.991  17.378 -0.5917 -0.2061 -1.0103
  503MPD2    C5 7530   0.181   2.061  17.284  0.8467  0.2127 -0.3871
  503MPD2     H 7531   0.507   2.227  17.387  0.6211 -1.1535  0.8848
  503MPD2    H1 7532   0.238   1.889  17.404  0.4303 -0.1868  0.0805
  503MPD2    H2 7533   0.136   2.213  17.165  0.0662  0.0208 -0.8231
  503MPD2    H3 7534   0.106   1.997  17.238  0.0515 -0.0187  1.2345
  503MPD2     N 7535   0.484   1.971  17.489 -0.4463 -0.9043  0.7598
  503MPD2    H5 7536   0.574   2.016  17.496 -1.3261  0.6292  2.1535
  503MPD2    N1 7537   0.366   2.375  17.255  0.0128  0.0991  0.1591
  503MPD2    H7 7538   0.458   2.405  17.287 -1.4570  4.3194  0.3851
  504TMC3    C1 7539   0.581   1.825  17.630 -0.2237 -0.6163  0.1937
  504TMC3    C2 7540   0.553   1.751  17.738 -0.1468 -0.4266 -0.4704
  504TMC3    C3 7541   0.663   1.706   0.063  0.4618  0.3724 -0.1640
  504TMC3    C4 7542   0.704   1.829  17.580  0.3880 -0.3783 -0.7513
  504TMC3    C5 7543   0.812   1.777  17.651  0.5692  0.7065 -0.1161
  504TMC3    C6 7544   0.793   1.721   0.024 -0.6413 -0.7998 -0.1019
  504TMC3     C 7545   0.468   1.848  17.547 -0.4144  0.3061  0.0821
  504TMC3     O 7546   0.372   1.774  17.562  0.2117  0.1096 -0.1536
  504TMC3     H 7547   0.450   1.749   0.022 -0.4094 -0.6509 -1.3296
  504TMC3    H1 7548   0.727   1.869  17.482  0.6627  1.3985  0.0328
  504TMC3    H2 7549   0.875   1.689   0.088 -1.2328  0.6798  1.3873
  504TMC3    C7 7550   0.939   1.758  17.579  0.2842 -0.0152  0.3894
  504TMC3    C8 7551   0.617   1.658   0.196  0.0070  0.5591 -0.0945
  504TMC3    O1 7552   0.942   1.811  17.469  0.1605 -0.4490 -0.3832
  504TMC3    O2 7553   0.516   1.709   0.237  0.5263 -0.3440 -0.4010
  505MPD2     C 7554   0.533   0.976  10.716 -0.6760  0.3058  0.3607
  505MPD2    C1 7555   0.635   0.920  10.800 -0.6795  0.1039 -0.3892
  505MPD2    C2 7556   0.709   1.000  10.882  0.1099  1.1050 -0.0456
  505MPD2    C3 7557   0.683   1.136  10.890  0.8297  0.0651 -0.6430
  505MPD2    C4 7558   0.567   1.189  10.823  0.0958 -0.0781 -0.0831
  505MPD2    C5 7559   0.505   1.105  10.735  0.1541 -0.5792 -0.7802
  505MPD2     H 7560   0.801   0.961  10.926  0.0858  0.0085 -0.9756
  505MPD2    H1 7561   0.532   1.290  10.841 -2.7857 -0.9980 -0.5948
  505MPD2    H2 7562   0.491   0.916  10.636 -0.8806 -0.3259  0.9445
  505MPD2    H3 7563   0.423   1.147  10.677  1.0658  2.8494  0.3733
  505MPD2     N 7564   0.749   1.219  10.984  0.4058 -0.7818 -0.0025
  505MPD2    H5 7565   0.725   1.317  10.975  1.6862 -0.4124  0.4611
  505MPD2    N1 7566   0.673   0.788  10.766 -0.0070  0.2070 -0.4058
  505MPD2    H7 7567   0.635   0.744  10.683  0.4093 -0.0116 -0.4801
  506TMC3    C1 7568   0.821   0.611  10.762 -0.6545  0.1039 -0.7857
  506TMC3    C2 7569   0.877   0.646  10.647  0.6773  0.2326  0.5819
  506TMC3    C3 7570   0.985   0.576  10.604 -0.4069  0.3713  0.4435
  506TMC3    C4 7571   0.885   0.520  10.845 -0.1954 -0.7490 -0.1411
  506TMC3    C5 7572   1.000   0.463  10.807  0.1972  0.7377 -0.0962
  506TMC3    C6 7573   1.044   0.481  10.678 -0.0927 -0.6107 -0.0674
  506TMC3     C 7574   0.771   0.720  10.835 -0.6948 -0.0111 -0.0649
  506TMC3     O 7575   0.807   0.726  10.953  0.4671  0.4468 -0.3465
  506TMC3     H 7576   0.833   0.723  10.586 -0.8232  0.5800  2.0809
  506TMC3    H1 7577   0.853   0.514  10.949  1.1975  1.8849  0.4355
  506TMC3    H2 7578   1.136   0.440  10.636  0.4924 -1.6666  2.2498
  506TMC3    C7 7579   1.111   0.487  10.899  0.4003 -0.2699 -0.3443
  506TMC3    C8 7580   1.056   0.613  10.482  0.6924  0.2339 -0.5160
  506TMC3    O1 7581   1.218   0.426  10.877  0.2387 -0.2999  0.1748
  506TMC3    O2 7582   1.119   0.522  10.428 -0.4194 -0.0263  0.4259
  507TMC3    C1 7583   1.491   1.684  14.978  0.7123  0.2962  0.6232
  507TMC3    C2 7584   1.409   1.636  14.885 -0.6206 -0.4955 -0.1195
  507TMC3    C3 7585   1.404   1.696  14.766 -0.3384  0.1234  0.5354
  507TMC3    C4 7586   1.562   1.797  14.961  0.0969  0.1659  0.3251
  507TMC3    C5 7587   1.541   1.867  14.845 -0.2446  0.1717 -0.1846
  507TMC3    C6 7588   1.473   1.812  14.742  0.2330  0.1396 -0.1251
  507TMC3     C 7589   1.479   1.629  15.108 -1.0358 -0.3819 -0.4450
  507TMC3     O 7590   1.500   1.712  15.190 -0.3276 -0.4330  0.0974
  507TMC3     H 7591   1.333   1.559  14.892 -0.2107 -0.9550 -0.6388
  507TMC3    H1 7592   1.603   1.847  15.049  0.6469  1.3410 -0.6029
  507TMC3    H2 7593   1.465   1.871  14.651  0.5695  0.7599  0.2414
  507TMC3    C7 7594   1.493   2.001  14.854 -0.7251 -0.1229  0.3334
  507TMC3    C8 7595   1.272   1.697  14.709  0.1837  0.2311  0.2507
  507TMC3    O1 7596   1.426   2.052  14.768 -0.6692  0.0930  0.2559
  507TMC3    O2 7597   1.177   1.682  14.790  0.0089 -0.3625 -0.1591
  508MPD2     C 7598   2.465   4.073  16.286 -0.0398 -0.1808  0.3921
  508MPD2    C1 7599   2.466   4.190  16.354  0.7540 -0.5998  0.1852
  508MPD2    C2 7600   2.487   4.313  16.292 -0.7600  0.3289 -0.6182
  508MPD2    C3 7601   2.514   4.318  16.155 -0.3948  0.9179 -0.8976
  508MPD2    C4 7602   2.515   4.201  16.088 -0.2267  1.2568  0.6424
  508MPD2    C5 7603   2.489   4.079  16.151  0.6893  0.4126  0.0641
  508MPD2     H 7604   2.491   4.407  16.346  0.8555 -1.0640  1.6833
  508MPD2    H1 7605   2.531   4.204  15.980 -1.0997  0.8683  0.4993
  508MPD2    H2 7606   2.445   3.973  16.324  0.1512 -0.9093 -1.4325
  508MPD2    H3 7607   2.487   3.983  16.099 -3.3246  0.5391 -0.0653
  508MPD2     N 7608   2.524   4.445  16.091 -0.0119  0.1510  0.0461
  508MPD2    H5 7609   2.542   4.524  16.153 -1.2975 -0.5286  1.2822
  508MPD2    N1 7610   2.431   4.185  16.495  0.1001 -0.5634  0.0872
  508MPD2    H7 7611   2.430   4.091  16.533  1.0098 -0.2088  1.0046
  509TMC3    C1 7612   2.473   0.096  15.875  0.3919 -0.1250  0.3813
  509TMC3    C2 7613   2.584   0.146  15.946 -0.6294 -0.2597 -0.0856
  509TMC3    C3 7614   2.664   0.057  16.015 -0.2020 -0.5195  0.9659
  509TMC3    C4 7615   2.448   4.699  15.868  0.2658  0.2505  1.1279
  509TMC3    C5 7616   2.536   4.613  15.935 -0.0374  0.2540 -0.1696
  509TMC3    C6 7617   2.645   4.662  16.010  0.4371 -0.8803  0.6392
  509TMC3     C 7618   2.379   0.196  15.832  0.1050 -0.3433 -0.9082
  509TMC3     O 7619   2.372   0.296  15.900  0.7803  0.4963 -0.2792
  509TMC3     H 7620   2.590   0.254  15.951  0.0203 -0.2277 -1.5160
  509TMC3    H1 7621   2.361   4.661  15.816  0.0334  1.7156  0.4658
  509TMC3    H2 7622   2.722   4.591  16.037  2.1803  0.7153 -0.1409
  509TMC3    C7 7623   2.500   4.479  15.957  0.5890  0.2940 -0.6563
  509TMC3    C8 7624   2.798   0.098  16.048  1.1131 -0.2619 -0.0612
  509TMC3    O1 7625   2.458   4.413  15.862 -1.0821  0.8639 -0.3520
  509TMC3    O2 7626   2.861   0.021  16.116  0.3577  0.0401  0.1728
  510MPD2     C 7627   0.055   1.227  14.601 -0.2362  0.1084  0.8381
  510MPD2    C1 7628   0.159   1.162  14.667 -0.0298  0.1001  0.1403
  510MPD2    C2 7629   0.286   1.174  14.621 -0.0243  0.8161  0.5160
  510MPD2    C3 7630   0.307   1.223  14.494  0.8988 -0.8068  0.9311
  510MPD2    C4 7631   0.199   1.276  14.419 -0.2366  0.3710 -1.3218
  510MPD2    C5 7632   0.073   1.287  14.481 -0.7705  0.6280 -0.0437
  510MPD2     H 7633   0.367   1.126  14.676 -0.3319 -0.3735 -0.0667
  510MPD2    H1 7634   0.210   1.310  14.316 -1.2904 -2.0403 -2.2145
  510MPD2    H2 7635   4.688   1.218  14.628 -0.0975 -2.0496  0.6727
  510MPD2    H3 7636   4.727   1.326  14.424 -0.2090 -0.0525 -1.3242
  510MPD2     N 7637   0.439   1.223  14.439 -0.6603  0.2124 -0.2706
  510MPD2    H5 7638   0.511   1.181  14.496 -1.4435 -1.4928 -0.5422
  510MPD2    N1 7639   0.125   1.098  14.789  0.1389  0.4532 -0.3649
  510MPD2    H7 7640   0.027   1.088  14.812  0.4115 -2.6121 -0.5248
  511TMC3    C1 7641   0.141   0.942  14.954  0.2358  0.1433 -0.2327
  511TMC3    C2 7642   0.039   0.986  15.034  0.6776  0.3817 -0.4421
  511TMC3    C3 7643   4.709   0.885  15.112 -0.7891  0.7090  0.6821
  511TMC3    C4 7644   0.174   0.806  14.936 -0.2286 -0.7025 -0.7645
  511TMC3    C5 7645   0.091   0.714  15.000 -0.8290  0.0839  0.3593
  511TMC3    C6 7646   4.736   0.746  15.090  0.0122 -0.2219  0.0641
  511TMC3     C 7647   0.214   1.028  14.868 -0.5248  0.4025  0.8307
  511TMC3     O 7648   0.334   1.001  14.859  0.0660 -0.4037  0.5984
  511TMC3     H 7649   0.021   1.091  15.054 -0.3973  0.2406 -0.6695
  511TMC3    H1 7650   0.251   0.770  14.867 -0.0636  0.2665 -1.0850
  511TMC3    H2 7651   4.657   0.672  15.102 -0.2409 -0.0974 -0.8656
  511TMC3    C7 7652   0.058   0.609  14.905 -0.1381 -0.2762 -0.2006
  511TMC3    C8 7653   4.617   0.915  15.218  0.2803 -0.2990  0.2540
  511TMC3    O1 7654   0.093   0.625  14.790  0.5613 -0.0723  0.0341
  511TMC3    O2 7655   4.592   1.032  15.243 -0.2468  0.3058 -0.1636
  512TMC3    C1 7656   3.333   0.394  13.305 -0.3383  1.0463  0.0564
  512TMC3    C2 7657   3.459   0.356  13.348 -0.9791 -0.1804 -0.3152
  512TMC3    C3 7658   3.507   0.240  13.298 -0.1011 -0.3909  0.3698
  512TMC3    C4 7659   3.260   0.315  13.217 -0.5820  0.1851 -0.3952
  512TMC3    C5 7660   3.312   0.194  13.180 -1.0646 -0.2320 -0.5771
  512TMC3    C6 7661   3.441   0.165  13.209 -0.6572 -0.9179 -0.3393
  512TMC3     C 7662   3.265   0.503  13.376 -0.5311 -1.1352 -0.3828
  512TMC3     O 7663   3.337   0.577  13.442  0.2930  0.0320  0.0081
  512TMC3     H 7664   3.500   0.417  13.428 -0.2224 -1.5314  0.3426
  512TMC3    H1 7665   3.164   0.346  13.179 -1.3834 -0.4963  1.0560
  512TMC3    H2 7666   3.494   0.076  13.179 -2.9985 -1.4265 -3.0294
  512TMC3    C7 7667   3.241   0.111  13.083 -0.0750  0.4691  0.5795
  512TMC3    C8 7668   3.645   0.204  13.322  0.4867  0.3442 -0.0785
  512TMC3    O1 7669   3.127   0.148  13.072  0.0520  0.8089 -0.1892
  512TMC3    O2 7670   3.677   0.086  13.309 -0.1020  0.4487 -0.1380
  513MPD2     C 7671   0.621   0.526  13.763 -0.0538  0.8927 -0.4056
  513MPD2    C1 7672   0.680   0.447  13.665 -0.1453 -0.4958  0.3168
  513MPD2    C2 7673   0.795   0.376  13.703  0.1587  0.6740 -0.5177
  513MPD2    C3 7674   0.859   0.390  13.822  0.1645  0.4909 -0.1824
  513MPD2    C4 7675   0.805   0.477  13.919 -0.0709 -0.0493  0.5219
  513MPD2    C5 7676   0.684   0.532  13.882  0.8444  0.4665 -0.5565
  513MPD2     H 7677   0.840   0.309  13.630 -1.0505 -1.8852  1.1004
  513MPD2    H1 7678   0.845   0.503  14.016  1.4774  0.1060 -0.1594
  513MPD2    H2 7679   0.531   0.586  13.759  1.5044  3.3611  1.2346
  513MPD2    H3 7680   0.628   0.580  13.962  0.6017 -1.7740  0.6219
  513MPD2     N 7681   0.964   0.312  13.842 -0.3361  0.7518  0.1914
  513MPD2    H5 7682   0.969   0.234  13.777  0.4654 -0.8202  2.1468
  513MPD2    N1 7683   0.642   0.439  13.531  0.5133  0.3915 -0.1699
  513MPD2    H7 7684   0.678   0.363  13.474  0.9774 -0.5224  1.3637
  514TMC3    C1 7685   0.556   0.478  13.336  0.0912  0.0681  0.0911
  514TMC3    C2 7686   0.627   0.550  13.246  1.0554 -0.3662  0.1264
  514TMC3    C3 7687   0.693   0.496  13.147  0.8784  0.3254  0.5379
  514TMC3    C4 7688   0.572   0.341  13.328  0.1463  0.0881 -0.0387
  514TMC3    C5 7689   0.651   0.285  13.231 -0.3857  0.5059 -0.1493
  514TMC3    C6 7690   0.711   0.362  13.143 -0.6937 -0.5783 -0.4685
  514TMC3     C 7691   0.565   0.531  13.468  0.0243 -0.0001  0.2848
  514TMC3     O 7692   0.528   0.647  13.496 -0.6299  0.6457  0.2147
  514TMC3     H 7693   0.615   0.657  13.251 -1.3173 -0.5712 -0.9345
  514TMC3    H1 7694   0.511   0.275  13.388 -1.3740  1.0500 -0.5225
  514TMC3    H2 7695   0.785   0.328  13.071  0.1623  0.5177 -0.1013
  514TMC3    C7 7696   0.749   0.198  13.303  0.3448  0.4068  0.3223
  514TMC3    C8 7697   0.750   0.577  13.039  0.4421 -0.7799  0.2476
  514TMC3    O1 7698   0.724   0.172  13.420 -0.0420 -0.4487  0.2067
  514TMC3    O2 7699   0.794   0.513  12.943  0.1141 -0.2104  0.0544
  515MPD2     C 7700   3.910   2.148  14.508  0.4059  0.7253  0.8174
  515MPD2    C1 7701   3.875   2.037  14.583  0.2141 -0.2188 -0.1982
  515MPD2    C2 7702   3.942   2.014  14.702  0.4920  0.4753 -0.9828
  515MPD2    C3 7703   4.015   2.110  14.763 -0.3059  0.2865  0.3931
  515MPD2    C4 7704   4.045   2.227  14.698  0.3662 -0.3704 -0.1201
  515MPD2    C5 7705   4.000   2.234  14.568  0.2501  0.4300 -0.2771
  515MPD2     H 7706   3.913   1.928  14.761 -1.9208  0.4903 -2.1297
  515MPD2    H1 7707   4.110   2.305  14.736  0.2766 -1.2780  1.9021
  515MPD2    H2 7708   3.857   2.180  14.419  0.9050 -1.0401 -0.1143
  515MPD2    H3 7709   4.036   2.310  14.500  1.2582  0.1138 -0.1020
  515MPD2     N 7710   4.078   2.099  14.887  0.4270 -0.2899  0.0558
  515MPD2    H5 7711   4.123   2.179  14.930  1.1798 -0.4016 -0.5338
  515MPD2    N1 7712   3.764   1.960  14.542  0.7259  0.0359 -0.2134
  515MPD2    H7 7713   3.703   1.998  14.470  1.5151 -0.0872 -0.9571
  516TMC3    C1 7714   3.595   1.786  14.557 -0.3847 -0.6954  0.0450
  516TMC3    C2 7715   3.496   1.881  14.559 -0.2721  0.4210 -0.4039
  516TMC3    C3 7716   3.366   1.835  14.548  0.3796  0.2646 -0.2618
  516TMC3    C4 7717   3.575   1.657  14.554  0.8279 -0.2007 -0.1393
  516TMC3    C5 7718   3.443   1.616  14.545 -0.0567  0.1694  0.5716
  516TMC3    C6 7719   3.335   1.699  14.546 -0.0087  0.5601 -0.0176
  516TMC3     C 7720   3.732   1.833  14.590 -0.4162  0.5545  0.4762
  516TMC3     O 7721   3.809   1.763  14.649 -0.0997  0.4755  0.1087
  516TMC3     H 7722   3.521   1.981  14.590  1.3115 -0.4326  1.0443
  516TMC3    H1 7723   3.650   1.580  14.566 -0.9860 -2.3771 -2.9094
  516TMC3    H2 7724   3.232   1.667  14.536  0.6884 -0.9657 -2.2438
  516TMC3    C7 7725   3.426   1.472  14.518  0.5225  0.0606 -0.1185
  516TMC3    C8 7726   3.258   1.934  14.549  0.6030  0.0173  0.0999
  516TMC3    O1 7727   3.515   1.390  14.544  1.0070 -0.0556  0.0387
  516TMC3    O2 7728   3.148   1.883  14.579 -0.5737  0.4978  0.1682
  517MPD2     C 7729   3.450   3.758  17.673 -0.6057  0.2508 -0.9361
  517MPD2    C1 7730   3.581   3.726  17.676 -0.4314 -0.1830  0.2708
  517MPD2    C2 7731   3.674   3.794   0.002  0.6083 -0.1827  0.3007
  517MPD2    C3 7732   3.641   3.912   0.060  0.0443 -0.2428  0.1730
  517MPD2    C4 7733   3.509   3.951   0.058  1.1085 -0.3967 -0.1785
  517MPD2    C5 7734   3.423   3.873  17.746 -0.5453 -0.1872 -0.2321
  517MPD2     H 7735   3.779   3.767   0.005  0.1566 -2.2271 -2.2570
  517MPD2    H1 7736   3.479   4.049   0.094  3.4331  0.5707 -0.8622
  517MPD2    H2 7737   3.365   3.710  17.626 -0.0675  0.0769 -1.7361
  517MPD2    H3 7738   3.323   3.913  17.734 -0.8494 -0.6228  0.8766
  517MPD2     N 7739   3.731   4.008   0.113 -0.8773  0.1985  0.2892
  517MPD2    H5 7740   3.703   4.087   0.170 -1.2525  0.2074  0.0921
  517MPD2    N1 7741   3.634   3.610  17.613 -0.1504 -0.4128 -0.0879
  517MPD2    H7 7742   3.729   3.585  17.638 -2.0525 -2.5547  4.9570
  518TMC3    C1 7743   3.649   3.420  17.489  0.9611 -0.3176 -0.5713
  518TMC3    C2 7744   3.596   3.295  17.492 -0.4819 -0.6619 -0.6030
  518TMC3    C3 7745   3.682   3.188  17.471  0.5977 -0.4263 -0.3582
  518TMC3    C4 7746   3.782   3.440  17.481 -0.3560 -0.0664  0.4098
  518TMC3    C5 7747   3.857   3.330  17.449  0.4673 -0.0553 -0.2489
  518TMC3    C6 7748   3.815   3.201  17.444 -0.8046 -0.6261 -0.1043
  518TMC3     C 7749   3.568   3.533  17.531 -0.0714  0.5864  0.6242
  518TMC3     O 7750   3.451   3.525  17.500  0.1465 -0.4102 -0.2310
  518TMC3     H 7751   3.489   3.282  17.505 -0.0945 -2.7863  0.4751
  518TMC3    H1 7752   3.831   3.537  17.476  1.3148 -0.8580  1.4525
  518TMC3    H2 7753   3.884   3.118  17.434  0.1764  0.3016 -1.0549
  518TMC3    C7 7754   3.998   3.343  17.481 -0.0385 -0.1793 -0.2902
  518TMC3    C8 7755   3.629   3.057  17.443  0.2823  0.3218  0.5740
  518TMC3    O1 7756   4.021   3.410  17.577  0.6178  0.1634 -0.0539
  518TMC3    O2 7757   3.718   2.980  17.403 -0.0484 -1.0410 -0.8364
  519MPD2     C 7758   0.641   1.652  14.849  0.0576 -0.4293 -0.3357
  519MPD2    C1 7759   0.544   1.657  14.756  0.0922 -0.5377  0.0734
  519MPD2    C2 7760   0.578   1.665  14.625  0.0558  0.3781  0.2834
  519MPD2    C3 7761   0.716   1.669  14.587  0.2426  0.5715 -0.8059
  519MPD2    C4 7762   0.810   1.647  14.684  0.2126  0.1206  0.6664
  519MPD2    C5 7763   0.770   1.654  14.815  0.2313 -0.4325 -0.8744
  519MPD2     H 7764   0.505   1.696  14.552 -0.6937 -0.2360  0.7720
  519MPD2    H1 7765   0.916   1.653  14.659  0.1712  3.0366  1.3051
  519MPD2    H2 7766   0.620   1.637  14.954 -1.4726  0.5009 -0.4962
  519MPD2    H3 7767   0.847   1.639  14.890 -1.8173 -1.1041  1.0821
  519MPD2     N 7768   0.765   1.675  14.454  0.3517 -0.0451 -0.3915
  519MPD2    H5 7769   0.865   1.694  14.447  0.7051 -1.3665  0.9049
  519MPD2    N1 7770   0.408   1.661  14.798  0.7069  0.0365 -0.4417
  519MPD2    H7 7771   0.396   1.675  14.898  0.1567 -1.2330 -0.3378
  520TMC3    C1 7772   0.760   1.679  14.221 -0.2813  0.2656  0.0882
  520TMC3    C2 7773   0.686   1.700  14.109 -0.0436 -0.3993  0.0161
  520TMC3    C3 7774   0.745   1.675  13.987 -0.4892  0.2548  0.1427
  520TMC3    C4 7775   0.884   1.622  14.216  0.1085  0.0700  0.1030
  520TMC3    C5 7776   0.940   1.599  14.088  0.6131  0.3180  0.6056
  520TMC3    C6 7777   0.870   1.626  13.972  0.4913  0.4730  0.1179
  520TMC3     C 7778   0.683   1.673  14.342 -0.3330  0.5078 -0.6862
  520TMC3     O 7779   0.563   1.676  14.330  0.0789 -0.1546 -0.2009
  520TMC3     H 7780   0.584   1.736  14.103  0.0402 -0.0444  0.7167
  520TMC3    H1 7781   0.948   1.618  14.304  0.2400 -0.4182 -0.0110
  520TMC3    H2 7782   0.911   1.617  13.872  1.5561  0.8050  0.5233
  520TMC3    C7 7783   1.062   1.519  14.079  0.1197  0.4188  0.5628
  520TMC3    C8 7784   0.694   1.730  13.864 -0.2782  0.2846  0.2882
  520TMC3    O1 7785   1.106   1.482  14.187  0.6234  0.1932  0.2304
  520TMC3    O2 7786   0.775   1.753  13.778 -0.4283  0.1235 -0.8465
  521MPD2     C 7787   1.256   0.164  17.619 -0.8240  0.6425 -0.2262
  521MPD2    C1 7788   1.299   0.067  17.535 -0.3317 -0.1173 -0.2492
  521MPD2    C2 7789   1.417   0.088  17.466  0.2691 -0.1477 -0.6509
  521MPD2    C3 7790   1.487   0.203  17.474  0.1395  0.4146 -0.4535
  521MPD2    C4 7791   1.437   0.304  17.555 -0.1053  0.3806 -0.3790
  521MPD2    C5 7792   1.324   0.280  17.634  0.2858  0.3453 -0.3850
  521MPD2     H 7793   1.452   0.003  17.409 -0.2623 -1.2827  0.7165
  521MPD2    H1 7794   1.474   0.406  17.551  1.7665 -0.3705 -2.0088
  521MPD2    H2 7795   1.159   0.158  17.666  0.5876  0.1075  2.6388
  521MPD2    H3 7796   1.281   0.369  17.680 -1.5765 -1.0873  0.6569
  521MPD2     N 7797   1.603   0.220  17.397  0.1360  0.1071 -0.7740
  521MPD2    H5 7798   1.633   0.161  17.320 -1.2851 -0.6295 -0.7651
  521MPD2    N1 7799   1.225   4.681  17.525 -0.2944 -0.5948 -0.7270
  521MPD2    H7 7800   1.138   4.675  17.577 -0.2147  0.7808 -0.4303
  522TMC3    C1 7801   1.774   0.340  17.293  0.2166 -0.4910 -0.8821
  522TMC3    C2 7802   1.908   0.360  17.315  0.3005 -0.0129  0.2601
  522TMC3    C3 7803   1.996   0.351  17.212  0.0904 -0.2794  0.5032
  522TMC3    C4 7804   1.733   0.298  17.168  0.6118  0.3313 -0.8297
  522TMC3    C5 7805   1.832   0.285  17.067  0.0366  0.8160  0.3540
  522TMC3    C6 7806   1.962   0.313  17.086  0.8254  0.6402 -0.3312
  522TMC3     C 7807   1.678   0.334  17.405 -0.4780 -0.7811  0.9089
  522TMC3     O 7808   1.688   0.414  17.495  0.4559  0.3172 -0.6085
  522TMC3     H 7809   1.949   0.382  17.413 -0.5466 -0.4842  0.7262
  522TMC3    H1 7810   1.629   0.276  17.148  0.4416  0.8111 -0.4553
  522TMC3    H2 7811   2.032   0.312  17.002  1.0102 -2.9198 -0.1435
  522TMC3    C7 7812   1.795   0.284  16.926  0.4813  0.5055 -0.7648
  522TMC3    C8 7813   2.128   0.301  17.261 -0.3317  0.1366 -1.1195
  522TMC3    O1 7814   1.875   0.339  16.848 -0.5767 -0.1089 -0.6294
  522TMC3    O2 7815   2.178   0.352  17.361  0.4824  0.2301 -0.1411
  523MPD2     C 7816   4.214   0.250  10.275 -0.2673  0.6256 -0.5189
  523MPD2    C1 7817   4.155   0.154  10.200 -0.4321 -0.7370  0.2590
  523MPD2    C2 7818   4.121   0.179  10.066 -0.2016  0.0485 -0.2259
  523MPD2    C3 7819   4.171   0.295  10.002  0.1354 -0.1628  0.7677
  523MPD2    C4 7820   4.232   0.391  10.081 -0.5206  0.1555  0.1669
  523MPD2    C5 7821   4.259   0.365  10.212  0.5494 -0.2947 -0.0552
  523MPD2     H 7822   4.047   0.116  10.016 -1.1445  1.1991 -0.2979
  523MPD2    H1 7823   4.280   0.479  10.039  1.5117  0.6295  3.5151
  523MPD2    H2 7824   4.241   0.234  10.379 -2.6679 -0.9155 -0.1455
  523MPD2    H3 7825   4.293   0.446  10.274 -0.3912 -0.8570  1.1950
  523MPD2     N 7826   4.142   0.332   9.871  0.5416 -0.0823  0.5213
  523MPD2    H5 7827   4.174   0.426   9.849  1.6596 -0.7261 -0.6295
  523MPD2    N1 7828   4.116   0.035  10.270 -0.0985  0.7271  0.2778
  523MPD2    H7 7829   4.159   0.026  10.361 -1.1731 -0.7789  0.6461
  524TMC3    C1 7830   4.067   0.310   9.654  0.1467 -0.0463 -0.4603
  524TMC3    C2 7831   4.073   0.231   9.541 -0.1022  0.1126 -0.0841
  524TMC3    C3 7832   4.021   0.271   9.420  0.0988 -0.2472  0.8403
  524TMC3    C4 7833   4.023   0.442   9.648  0.0807 -0.5003 -0.4547
  524TMC3    C5 7834   3.959   0.477   9.531 -0.1576 -0.0884 -0.6890
  524TMC3    C6 7835   3.957   0.398   9.418  0.0194  0.7718 -0.3478
  524TMC3     C 7836   4.100   0.246   9.775  0.0070  0.2102  0.3116
  524TMC3     O 7837   4.107   0.124   9.792  0.4283 -1.0886  0.4046
  524TMC3     H 7838   4.069   0.124   9.559 -0.8832  0.0791 -0.4263
  524TMC3    H1 7839   4.008   0.501   9.738 -1.5690 -1.5426 -0.0417
  524TMC3    H2 7840   3.908   0.441   9.331 -0.1150  0.4526 -0.4301
  524TMC3    C7 7841   3.893   0.605   9.537  0.5297 -0.1865  0.3302
  524TMC3    C8 7842   3.995   0.173   9.322  0.2907  0.4952 -0.5817
  524TMC3    O1 7843   3.942   0.689   9.609  0.0285 -0.0630 -0.3091
  524TMC3    O2 7844   4.003   0.051   9.343  0.1397 -0.0455 -0.0131
  525MPD2     C 7845   1.881   1.008  14.479  0.1511 -0.0179 -0.0596
  525MPD2    C1 7846   1.942   1.041  14.601 -0.0825 -0.0724 -0.0911
  525MPD2    C2 7847   1.993   1.168  14.606 -0.2435  0.6532  0.0278
  525MPD2    C3 7848   1.975   1.264  14.505 -0.7643 -0.3316 -0.1944
  525MPD2    C4 7849   1.916   1.228  14.385 -0.2756 -0.3638  0.2090
  525MPD2    C5 7850   1.868   1.103  14.381 -0.8024  0.0770 -0.4120
  525MPD2     H 7851   2.039   1.197  14.701  1.2534  0.0528 -0.5153
  525MPD2    H1 7852   1.900   1.290  14.298 -1.6501 -0.5022  0.3619
  525MPD2    H2 7853   1.844   0.911  14.449  0.6169 -0.1575 -0.1803
  525MPD2    H3 7854   1.819   1.069  14.291 -3.7625  2.6995  0.2046
  525MPD2     N 7855   2.025   1.396  14.520  0.1410 -0.0656  0.2252
  525MPD2    H5 7856   1.987   1.467  14.459 -1.2006 -0.2220  0.8865
  525MPD2    N1 7857   1.952   0.959  14.719 -0.8215 -0.0569 -0.1346
  525MPD2    H7 7858   1.999   0.993  14.802 -0.3403  0.9100 -0.8026
  526TMC3    C1 7859   1.929   0.759  14.834  0.2141  0.3974  0.2820
  526TMC3    C2 7860   1.909   0.809  14.957 -0.3368  0.2307 -0.9481
  526TMC3    C3 7861   1.977   0.746  15.061  0.2574 -0.4735 -0.0960
  526TMC3    C4 7862   2.023   0.661  14.804  0.2167  0.0025 -0.5955
  526TMC3    C5 7863   2.095   0.613  14.907  0.3236  0.0069  0.5293
  526TMC3    C6 7864   2.071   0.654  15.033 -0.7709  0.1803 -0.3112
  526TMC3     C 7865   1.897   0.835  14.720  0.1518  0.1149 -0.3678
  526TMC3     O 7866   1.875   0.761  14.624 -0.2410 -0.3471 -0.0973
  526TMC3     H 7867   1.825   0.877  14.963  1.0338  1.9343 -1.0706
  526TMC3    H1 7868   2.036   0.632  14.701  0.7588 -0.0872 -0.5007
  526TMC3    H2 7869   2.134   0.626  15.117 -0.8416  0.2116 -0.2474
  526TMC3    C7 7870   2.219   0.547  14.887 -0.3009  0.2919  0.2532
  526TMC3    C8 7871   1.974   0.803  15.192  0.3809  0.0791  0.1109
  526TMC3    O1 7872   2.276   0.497  14.984  0.1528  0.2733 -0.0126
  526TMC3    O2 7873   2.081   0.803  15.251 -0.2467 -0.1516 -0.1216
  527MPD2     C 7874   0.470   4.464   1.527  0.1433  0.0602  0.2802
  527MPD2    C1 7875   0.427   4.465   1.394 -0.4566 -0.3030 -0.5320
  527MPD2    C2 7876   0.481   4.373   1.305  0.1590  0.2922  0.2923
  527MPD2    C3 7877   0.577   4.283   1.345 -0.6643 -0.5379 -0.9337
  527MPD2    C4 7878   0.625   4.289   1.473  1.1528 -0.4368  0.5811
  527MPD2    C5 7879   0.562   4.366   1.564  0.1767 -0.1307 -0.2594
  527MPD2     H 7880   0.449   4.375   1.202 -1.2805  0.8386  0.7464
  527MPD2    H1 7881   0.697   4.214   1.503  2.2174  0.1866 -0.3996
  527MPD2    H2 7882   0.414   4.530   1.593 -0.1741 -0.4514  0.5242
  527MPD2    H3 7883   0.588   4.361   1.670  3.3098 -2.2221 -1.1303
  527MPD2     N 7884   0.636   4.201   1.250 -0.2349  0.2266  0.3957
  527MPD2    H5 7885   0.598   4.207   1.156  0.2508  1.9200  0.3124
  527MPD2    N1 7886   0.334   4.557   1.338 -0.2168  0.6121  0.2974
  527MPD2    H7 7887   0.298   4.531   1.247  1.7014  0.5815 -0.4490
  528TMC3    C1 7888   0.218   0.022   1.306  0.3897 -1.0022 -0.1312
  528TMC3    C2 7889   0.272   0.046   1.186  0.2276 -0.2210  1.2979
  528TMC3    C3 7890   0.217   0.140   1.104 -0.2025 -0.0871 -0.3848
  528TMC3    C4 7891   0.097   0.084   1.345 -0.0535 -0.2976  0.2467
  528TMC3    C5 7892   0.042   0.167   1.253  0.0008 -0.9914  0.3865
  528TMC3    C6 7893   0.094   0.193   1.128 -0.4466  0.1046  0.5028
  528TMC3     C 7894   0.279   4.664   1.401  0.3252  0.5023  0.1040
  528TMC3     O 7895   0.267   4.682   1.521  0.4203 -0.1650  0.3729
  528TMC3     H 7896   0.363   4.733   1.158  0.3346  1.0312 -0.5803
  528TMC3    H1 7897   0.048   0.073   1.441 -2.4840 -1.3212 -1.1259
  528TMC3    H2 7898   0.041   0.256   1.058 -0.2719  1.4002  1.5443
  528TMC3    C7 7899   4.666   0.250   1.288  0.9260 -0.3372  0.2605
  528TMC3    C8 7900   0.281   0.180   0.980 -0.0403 -0.0744  0.2884
  528TMC3    O1 7901   4.578   0.267   1.203 -0.7302  0.4002 -0.0065
  528TMC3    O2 7902   0.372   0.109   0.943  0.6131  0.3457  0.0859
  529MPD2     C 7903   2.944   3.210   0.679 -0.3878  0.3335  0.2236
  529MPD2    C1 7904   2.888   3.105   0.614  0.4060  0.3845 -0.1785
  529MPD2    C2 7905   2.815   3.127   0.497  0.7418 -0.2982 -0.2306
  529MPD2    C3 7906   2.792   3.257   0.460  0.1062 -0.0173  0.4739
  529MPD2    C4 7907   2.854   3.364   0.517 -0.2454  0.7883 -1.1467
  529MPD2    C5 7908   2.921   3.340   0.633  0.9436 -0.2231  0.0489
  529MPD2     H 7909   2.761   3.052   0.439  0.8452 -0.2402 -0.4001
  529MPD2    H1 7910   2.853   3.467   0.482 -0.9610  1.5677  1.2180
  529MPD2    H2 7911   3.006   3.197   0.767 -2.3356 -1.0046  1.4061
  529MPD2    H3 7912   2.965   3.421   0.689 -0.7042  0.1473  0.7978
  529MPD2     N 7913   2.713   3.273   0.342 -0.0151 -0.2915 -0.3563
  529MPD2    H5 7914   2.688   3.193   0.285 -2.0342  1.0596 -1.3749
  529MPD2    N1 7915   2.895   2.971   0.662 -0.0342  0.1472 -0.4361
  529MPD2    H7 7916   2.850   2.901   0.603 -2.8472  0.3990  1.3766
  530TMC3    C1 7917   2.931   2.795   0.815  0.3135  0.3193 -0.1374
  530TMC3    C2 7918   2.975   2.754   0.937 -0.8445 -0.6898  0.0737
  530TMC3    C3 7919   2.925   2.637   0.991 -0.2480 -0.1824 -0.7911
  530TMC3    C4 7920   2.835   2.725   0.747  0.3414 -0.0842 -0.0071
  530TMC3    C5 7921   2.774   2.620   0.812 -0.3980 -0.0299 -0.7784
  530TMC3    C6 7922   2.813   2.576   0.931  0.2043 -0.2097  0.7748
  530TMC3     C 7923   2.955   2.929   0.782  1.0131 -0.0426 -0.0035
  530TMC3     O 7924   3.012   2.988   0.871 -0.0116  0.1494 -0.4891
  530TMC3     H 7925   3.059   2.801   0.988 -1.9701  1.8868 -0.4095
  530TMC3    H1 7926   2.804   2.754   0.647  0.6652  1.1072  0.2373
  530TMC3    H2 7927   2.750   2.507   0.986 -4.5378  1.5181 -2.4819
  530TMC3    C7 7928   2.693   2.536   0.730 -0.2834  0.5073  0.6105
  530TMC3    C8 7929   2.952   2.615   1.128 -0.1394  0.1809 -0.1288
  530TMC3    O1 7930   2.648   2.581   0.629  0.4861  0.2526 -0.0694
  530TMC3    O2 7931   2.998   2.710   1.191  0.0510  0.0869 -0.3925
  531MPD2     C 7932   1.246   0.093  13.356  0.3010  0.2651  0.4778
  531MPD2    C1 7933   1.142   0.069  13.443  0.6131  0.1764  0.5683
  531MPD2    C2 7934   1.013   0.094  13.400 -0.2183  0.3877 -0.7462
  531MPD2    C3 7935   0.987   0.137  13.275  0.2471  0.9886  0.3356
  531MPD2    C4 7936   1.093   0.163  13.189 -0.5720 -0.7218  0.7878
  531MPD2    C5 7937   1.220   0.149  13.235 -0.5042  0.4657  0.2752
  531MPD2     H 7938   0.932   0.076  13.471  0.4382  1.0478  0.1713
  531MPD2    H1 7939   1.090   0.210  13.092 -2.5811 -0.8639  0.7870
  531MPD2    H2 7940   1.352   0.072  13.369  0.4016  0.1419 -0.5246
  531MPD2    H3 7941   1.299   0.164  13.162  0.9372 -3.4775  1.0253
  531MPD2     N 7942   0.861   0.180  13.235 -0.0431  0.0450  0.1688
  531MPD2    H5 7943   0.860   0.201  13.136  0.8410  0.5884  0.2704
  531MPD2    N1 7944   1.181   0.025  13.572 -0.8388 -0.7441  0.1212
  531MPD2    H7 7945   1.282   0.020  13.580 -0.6538  1.9184 -0.4124
  532TMC3    C1 7946   1.160   0.011  13.818  0.4908  0.9738  0.5045
  532TMC3    C2 7947   1.087   0.080  13.904  0.8142 -0.4338 -0.1209
  532TMC3    C3 7948   1.138   0.197  13.944 -0.5100  0.4028  0.2179
  532TMC3    C4 7949   1.294   0.035  13.805  0.2453 -0.0765  0.8068
  532TMC3    C5 7950   1.348   0.154  13.848  0.4086  0.0774 -0.7765
  532TMC3    C6 7951   1.269   0.239  13.914  0.3457  0.2078 -0.2322
  532TMC3     C 7952   1.098   0.027  13.686  1.0029 -0.0547  0.4316
  532TMC3     O 7953   0.978   0.055  13.692  0.3023  0.0038  0.6818
  532TMC3     H 7954   0.980   0.064  13.909  0.6708  0.5924  0.0147
  532TMC3    H1 7955   1.353   4.698  13.753 -1.6305 -0.0207 -1.4165
  532TMC3    H2 7956   1.298   0.338  13.950 -1.4207  0.2835  1.0061
  532TMC3    C7 7957   1.456   0.217  13.766  0.1199 -0.2913  1.0359
  532TMC3    C8 7958   1.049   0.313  13.955 -0.4093  0.5209  0.0213
  532TMC3    O1 7959   1.444   0.340  13.768 -0.6373  0.2315  0.0065
  532TMC3    O2 7960   1.051   0.383  14.059  0.1734  0.0203  0.4809
  533TMC3    C1 7961   2.125   1.579  14.625  0.6272 -0.3617  0.0863
  533TMC3    C2 7962   2.239   1.631  14.682 -0.1587 -0.1940 -1.0738
  533TMC3    C3 7963   2.240   1.764  14.716  0.2885  0.5511 -1.0492
  533TMC3    C4 7964   2.014   1.653  14.630 -0.8063  0.3617  0.3080
  533TMC3    C5 7965   2.016   1.786  14.675 -0.1011  0.4977  0.0033
  533TMC3    C6 7966   2.135   1.850  14.716  0.2399  0.3096 -0.0513
  533TMC3     C 7967   2.114   1.438  14.615  0.1944  0.4260  0.3912
  533TMC3     O 7968   2.199   1.375  14.674 -0.8753 -0.4229  0.2169
  533TMC3     H 7969   2.327   1.568  14.686  0.7101  1.1927  1.5555
  533TMC3    H1 7970   1.918   1.610  14.604 -0.2787 -1.1702  0.8508
  533TMC3    H2 7971   2.134   1.957  14.734  1.0920  0.5958 -1.6808
  533TMC3    C7 7972   1.909   1.809  14.772 -0.0712  0.6854 -0.5038
  533TMC3    C8 7973   2.358   1.820  14.763  0.1807 -0.0771  0.5898
  533TMC3    O1 7974   1.827   1.722  14.774 -0.3121 -0.0121  0.6216
  533TMC3    O2 7975   2.456   1.757  14.727  0.7665 -0.0461 -0.8298
  534MPD2     C 7976   0.350   2.406   1.014  0.7894 -0.1691  0.2590
  534MPD2    C1 7977   0.301   2.485   1.118  0.2744 -0.3385  0.2650
  534MPD2    C2 7978   0.163   2.494   1.138  1.0168  0.5312  0.5802
  534MPD2    C3 7979   0.075   2.421   1.058  0.4902  0.4156 -0.2134
  534MPD2    C4 7980   0.124   2.336   0.956 -0.3177  0.4262 -0.2915
  534MPD2    C5 7981   0.256   2.338   0.934 -0.2842  1.0157  0.7192
  534MPD2     H 7982   0.126   2.574   1.201  1.8320  1.8593 -0.6335
  534MPD2    H1 7983   0.075   2.286   0.873 -1.6161  2.8453 -0.9587
  534MPD2    H2 7984   0.457   2.403   0.996  0.0798  1.1531 -4.3680
  534MPD2    H3 7985   0.296   2.283   0.850 -2.4018 -0.1461  0.4868
  534MPD2     N 7986   4.674   2.442   1.072 -0.2300 -0.6322 -0.1324
  534MPD2    H5 7987   4.614   2.378   1.021 -0.7660  0.5052 -0.9255
  534MPD2    N1 7988   0.379   2.551   1.213 -0.0490  0.1264 -0.1036
  534MPD2    H7 7989   0.333   2.599   1.290 -0.6292  0.7316 -0.8347
  535TMC3    C1 7990   4.469   2.520   1.145  0.5627  0.0774 -0.0688
  535TMC3    C2 7991   4.377   2.523   1.247  0.3189 -0.1149  0.6024
  535TMC3    C3 7992   4.244   2.560   1.222  0.0630  0.0821 -0.4407
  535TMC3    C4 7993   4.433   2.545   1.020 -0.5731 -0.1878  0.5098
  535TMC3    C5 7994   4.301   2.590   0.995 -0.3510 -0.6411  0.3337
  535TMC3    C6 7995   4.203   2.593   1.093  0.7473  0.4310 -0.2778
  535TMC3     C 7996   4.610   2.499   1.174  0.1872  0.7452 -0.7978
  535TMC3     O 7997   4.646   2.528   1.286 -0.0627  0.1937 -0.3897
  535TMC3     H 7998   4.398   2.488   1.347 -1.5437 -0.8284  0.7389
  535TMC3    H1 7999   4.513   2.557   0.948  1.6471 -3.5533  2.4869
  535TMC3    H2 8000   4.102   2.616   1.061  2.1003  1.4543 -3.8143
  535TMC3    C7 8001   4.274   2.626   0.859 -0.2514 -0.6775  0.6406
  535TMC3    C8 8002   4.140   2.555   1.316  1.0795  0.5186 -0.3140
  535TMC3    O1 8003   4.345   2.590   0.764  0.3537  0.2078 -0.1591
  535TMC3    O2 8004   4.028   2.550   1.268 -0.1106  0.5563 -0.0190
  536MPD2     C 8005   3.504   1.390  16.180 -0.3017  0.6982  0.5696
  536MPD2    C1 8006   3.440   1.272  16.166  0.3894  0.2302 -0.3949
  536MPD2    C2 8007   3.372   1.239  16.046  0.5539  0.1063 -0.4969
  536MPD2    C3 8008   3.373   1.331  15.938 -0.3813  0.4983  0.8703
  536MPD2    C4 8009   3.434   1.453  15.955 -0.0138 -0.7467 -0.3470
  536MPD2    C5 8010   3.504   1.474  16.077 -0.1295 -0.2356 -0.1861
  536MPD2     H 8011   3.315   1.148  16.030 -2.2552  1.8485 -0.4009
  536MPD2    H1 8012   3.444   1.525  15.874  0.3661 -0.2004  0.1903
  536MPD2    H2 8013   3.562   1.425  16.265 -0.7787 -0.7275  1.4836
  536MPD2    H3 8014   3.546   1.572  16.094  0.6983 -0.1493 -2.7481
  536MPD2     N 8015   3.309   1.314  15.816 -0.8995  0.0595 -1.0833
  536MPD2    H5 8016   3.292   1.395  15.757 -0.3522  0.3065 -0.9005
  536MPD2    N1 8017   3.437   1.184  16.276 -0.5758  0.5738 -0.1149
  536MPD2    H7 8018   3.515   1.197  16.341  1.5976 -1.4442 -2.3232
  537TMC3    C1 8019   3.358   1.015  16.431 -0.1213 -0.8637  0.2323
  537TMC3    C2 8020   3.413   1.075  16.542  0.0067 -0.8222  0.4295
  537TMC3    C3 8021   3.364   1.041  16.669  0.7881  0.0090 -0.0006
  537TMC3    C4 8022   3.260   0.921  16.449  0.2806  0.0302 -0.3072
  537TMC3    C5 8023   3.229   0.879  16.572  0.4589 -0.4743  0.0051
  537TMC3    C6 8024   3.281   0.934  16.683  0.5001 -0.8422  0.2146
  537TMC3     C 8025   3.354   1.071  16.294 -0.4644 -0.9167  0.1597
  537TMC3     O 8026   3.259   1.034  16.225 -0.0016  0.0664 -0.6184
  537TMC3     H 8027   3.467   1.168  16.524  0.2579 -1.0013  0.2737
  537TMC3    H1 8028   3.229   0.867  16.360 -1.0575  0.1166  0.1066
  537TMC3    H2 8029   3.263   0.895  16.783  0.5933 -0.1344  0.5096
  537TMC3    C7 8030   3.106   0.793  16.584 -0.3019 -0.1509 -0.7045
  537TMC3    C8 8031   3.399   1.121  16.781 -0.0546 -0.3287 -0.9073
  537TMC3    O1 8032   3.023   0.801  16.494 -0.4223  0.0433  0.5929
  537TMC3    O2 8033   3.432   1.064  16.886  0.5592 -0.0705  0.0023
  538TMC3    C1 8034   4.107   4.462  11.227  0.1477  0.2092  0.4380
  538TMC3    C2 8035   4.248   4.464  11.218 -0.0481  0.2864  0.1468
  538TMC3    C3 8036   4.305   4.547  11.124 -0.1230  0.3127 -0.2546
  538TMC3    C4 8037   4.031   4.511  11.126  0.4279  0.2681 -0.3200
  538TMC3    C5 8038   4.095   4.590  11.036  0.6515  0.7632  0.1138
  538TMC3    C6 8039   4.229   4.604  11.026 -0.0751 -0.0460 -0.4337
  538TMC3     C 8040   4.043   4.394  11.335  0.1035  0.1064 -0.8359
  538TMC3     O 8041   3.941   4.328  11.317  0.0969  0.0934 -0.3107
  538TMC3     H 8042   4.302   4.397  11.284  0.6492  0.0394 -0.6763
  538TMC3    H1 8043   3.924   4.490  11.128 -0.2209  3.5550 -1.0127
  538TMC3    H2 8044   4.272   4.658  10.942 -1.2786  2.8963  0.8582
  538TMC3    C7 8045   3.998   4.668  10.958  0.5859  0.0281 -0.1443
  538TMC3    C8 8046   4.449   4.555  11.100 -0.3826 -0.4846 -0.1824
  538TMC3    O1 8047   3.878   4.664  10.992  0.0163  0.2034  0.0516
  538TMC3    O2 8048   4.491   4.604  10.998 -0.7538 -0.2296 -0.0366
  539MPD2     C 8049   3.810   3.610  11.959  0.7392  0.0977 -0.5667
  539MPD2    C1 8050   3.800   3.614  11.821  0.2688  0.4703  0.2813
  539MPD2    C2 8051   3.724   3.726  11.769  0.2731  0.5181 -0.5516
  539MPD2    C3 8052   3.637   3.803  11.848  0.6764  0.4081 -0.2443
  539MPD2    C4 8053   3.646   3.787  11.984  0.0568  0.3283  0.4489
  539MPD2    C5 8054   3.736   3.700  12.040  0.3718  0.1463  0.2887
  539MPD2     H 8055   3.739   3.744  11.663  1.3860 -0.8880 -0.6346
  539MPD2    H1 8056   3.603   3.855  12.056  2.8037  1.2422  1.2281
  539MPD2    H2 8057   3.878   3.537  12.002 -1.7648 -1.2274  1.1171
  539MPD2    H3 8058   3.761   3.703  12.145  0.6354 -0.3416  0.2424
  539MPD2     N 8059   3.565   3.916  11.810 -0.4301 -0.6471  0.0664
  539MPD2    H5 8060   3.516   3.964  11.884  3.9943  1.9914  1.2648
  539MPD2    N1 8061   3.883   3.541  11.732 -0.0345 -0.1091 -0.2146
  539MPD2    H7 8062   3.876   3.565  11.633 -2.5059 -0.9006 -0.2343
  540TMC3    C1 8063   3.514   4.098  11.674  0.2144  0.0791 -0.0570
  540TMC3    C2 8064   3.558   4.192  11.577 -0.7391  1.1123  0.0686
  540TMC3    C3 8065   3.480   4.305  11.575  0.0929  0.4545  0.8095
  540TMC3    C4 8066   3.399   4.111  11.748 -0.2154  0.0499 -0.4779
  540TMC3    C5 8067   3.333   4.232  11.739 -0.3217 -0.1235  0.3157
  540TMC3    C6 8068   3.372   4.326  11.652  0.4052  0.1775 -0.0705
  540TMC3     C 8069   3.577   3.970  11.685  0.7996  0.3646 -0.3242
  540TMC3     O 8070   3.642   3.929  11.585  0.1188  0.4493  0.5088
  540TMC3     H 8071   3.646   4.171  11.517  0.3366  1.9977  1.3385
  540TMC3    H1 8072   3.353   4.027  11.799 -1.5434  2.0619  1.6638
  540TMC3    H2 8073   3.322   4.421  11.636 -1.8011 -1.0792 -0.6903
  540TMC3    C7 8074   3.195   4.231  11.792  0.3263 -0.5506 -0.2910
  540TMC3    C8 8075   3.487   4.374  11.452  0.8318  0.2453  0.5391
  540TMC3    O1 8076   3.106   4.290  11.732 -0.3806  0.3756 -0.0124
  540TMC3    O2 8077   3.493   4.499  11.446  0.3022 -0.1239 -1.1578
  541MPD2     C 8078   1.958   0.227  13.353  0.9977 -0.1394 -0.8960
  541MPD2    C1 8079   1.996   0.150  13.245  0.3913 -0.2244 -0.2236
  541MPD2    C2 8080   2.059   0.212  13.137 -0.1354  0.2050  0.1476
  541MPD2    C3 8081   2.071   0.350  13.132 -0.2862 -0.6093  0.2008
  541MPD2    C4 8082   2.029   0.422  13.243  0.1545 -0.1540 -0.4674
  541MPD2    C5 8083   1.965   0.364  13.348  0.5235  0.2853  0.1189
  541MPD2     H 8084   2.095   0.154  13.052 -0.0023 -1.6112  1.4373
  541MPD2    H1 8085   2.035   0.530  13.250  1.4586 -0.4625  3.6944
  541MPD2    H2 8086   1.923   0.181  13.445  0.1149  1.7116 -0.3095
  541MPD2    H3 8087   1.938   0.425  13.434 -0.4661  0.7446 -0.5170
  541MPD2     N 8088   2.122   0.426  13.025 -0.1158 -0.2598  0.4228
  541MPD2    H5 8089   2.095   0.524  13.030 -1.6367 -0.7577  1.7119
  541MPD2    N1 8090   1.977   0.010  13.258  0.7669  0.4877 -0.1797
  541MPD2    H7 8091   1.941   4.714  13.347 -0.2332  0.4057 -0.6243
  542TMC3    C1 8092   2.207   0.483  12.813  0.3804 -0.3332 -0.0602
  542TMC3    C2 8093   2.315   0.464  12.724 -0.2212 -0.8510  0.2560
  542TMC3    C3 8094   2.353   0.562  12.642  0.7102  0.3767 -0.5127
  542TMC3    C4 8095   2.128   0.592  12.803  0.0914  0.4151 -0.1085
  542TMC3    C5 8096   2.171   0.686  12.711  0.4587  0.5604 -0.7522
  542TMC3    C6 8097   2.282   0.672  12.630 -0.5762  0.9059  0.2483
  542TMC3     C 8098   2.179   0.374  12.908  0.0894 -0.0312 -0.0364
  542TMC3     O 8099   2.210   0.258  12.878  0.0973 -0.1040 -0.0871
  542TMC3     H 8100   2.373   0.373  12.740  2.2669  1.0040  1.7362
  542TMC3    H1 8101   2.042   0.612  12.865  0.5306  1.8214  0.0554
  542TMC3    H2 8102   2.325   0.749  12.567 -0.0175  0.7529  0.4450
  542TMC3    C7 8103   2.119   0.816  12.734  0.2026  0.6955 -0.4193
  542TMC3    C8 8104   2.452   0.537  12.534 -0.3370  0.1583 -0.4122
  542TMC3    O1 8105   2.067   0.842  12.844  0.4989  0.3573  0.5712
  542TMC3    O2 8106   2.437   0.585  12.426 -0.2532 -0.1146  0.6702
  543TMC3    C1 8107   2.027   1.855  17.172  0.5698  0.8072  0.0640
  543TMC3    C2 8108   1.966   1.731  17.203  0.3146  0.0234 -0.2372
  543TMC3    C3 8109   1.927   1.703  17.333  0.5057  0.0635 -0.3781
  543TMC3    C4 8110   2.034   1.953  17.270  0.0907  0.2698 -0.4277
  543TMC3    C5 8111   1.989   1.922  17.391  0.4467  0.1566  0.1829
  543TMC3    C6 8112   1.928   1.805  17.430 -0.2474  0.4039  0.3378
  543TMC3     C 8113   2.001   1.905  17.048 -0.0859 -0.0507 -0.0622
  543TMC3     O 8114   1.954   2.020  17.039  0.0344 -0.3254  0.3815
  543TMC3     H 8115   1.953   1.665  17.118  2.2019  0.4671 -0.8703
  543TMC3    H1 8116   2.106   2.028  17.241  0.4603 -0.1804 -0.6714
  543TMC3    H2 8117   1.879   1.792  17.525  0.5437 -1.3111  0.5217
  543TMC3    C7 8118   1.995   2.026  17.492 -0.4990 -0.6433 -0.2515
  543TMC3    C8 8119   1.963   1.564  17.368 -0.6744  0.3258 -0.4926
  543TMC3    O1 8120   1.941   1.995  17.598 -0.0218  0.0684  0.5065
  543TMC3    O2 8121   2.006   1.501  17.274  0.2278  0.5006  0.0181
  544MPD2     C 8122   2.047   1.228  17.746  0.0025 -0.5164  0.1920
  544MPD2    C1 8123   2.088   1.225  17.620 -0.0156  1.0327 -0.5002
  544MPD2    C2 8124   2.045   1.324  17.528 -0.7457  0.1496 -0.8610
  544MPD2    C3 8125   1.964   1.425  17.575 -0.3846  0.6279  0.0464
  544MPD2    C4 8126   1.907   1.417  17.700 -0.8589  0.1657  0.8872
  544MPD2    C5 8127   1.954   1.320   0.037  0.6448  0.3079  1.1666
  544MPD2     H 8128   2.082   1.321  17.426 -0.7293 -3.9563 -0.7456
  544MPD2    H1 8129   1.831   1.486  17.734 -0.6741  0.8895 -0.1840
  544MPD2    H2 8130   2.085   1.160   0.074  0.2368  0.9627  1.3829
  544MPD2    H3 8131   1.910   1.319   0.136 -0.0472  0.2035  0.8605
  544MPD2     N 8132   1.921   1.533  17.495  0.5374 -0.3811 -0.5172
  544MPD2    H5 8133   1.865   1.602  17.544  1.9394  0.9919 -0.8527
  544MPD2    N1 8134   2.182   1.128  17.585 -0.0610 -0.8310  0.5635
  544MPD2    H7 8135   2.222   1.069  17.657  2.2444  0.5741  0.4204
  545TMC3    C1 8136   2.323   0.994  17.473  0.1231  0.5188  0.0942
  545TMC3    C2 8137   2.323   0.882  17.397  0.1090 -0.5325 -0.0697
  545TMC3    C3 8138   2.400   0.776  17.429  0.5594  0.7185  0.0978
  545TMC3    C4 8139   2.402   1.002  17.584 -0.3226 -1.2374  0.0724
  545TMC3    C5 8140   2.479   0.892  17.618 -0.4798 -0.4717 -0.3274
  545TMC3    C6 8141   2.472   0.772  17.546  0.3052  0.2463 -0.1111
  545TMC3     C 8142   2.217   1.097  17.456 -0.0144 -0.3350  0.3369
  545TMC3     O 8143   2.152   1.113  17.350  0.2748  0.3711  0.1857
  545TMC3     H 8144   2.253   0.885  17.315  1.4007  0.8219 -1.1151
  545TMC3    H1 8145   2.401   1.093  17.644  2.1666  0.9962 -3.2719
  545TMC3    H2 8146   2.542   0.690  17.561 -0.9571 -1.3501 -3.1034
  545TMC3    C7 8147   2.550   0.898   0.000  0.2547  0.1405 -0.0056
  545TMC3    C8 8148   2.444   0.687  17.321 -0.1624  1.2179  0.9602
  545TMC3    O1 8149   2.554   1.008   0.044  0.2893  0.1301 -0.4441
  545TMC3    O2 8150   2.522   0.601  17.358  0.4069 -0.3479 -0.3356
  546MPD2     C 8151   3.350   1.590  17.392  0.0340  0.9234  0.2233
  546MPD2    C1 8152   3.316   1.615  17.263 -0.0013 -0.5565 -0.2002
  546MPD2    C2 8153   3.345   1.736  17.204  0.4443 -0.4204 -0.0034
  546MPD2    C3 8154   3.390   1.842  17.282  0.1315  0.1770 -0.2825
  546MPD2    C4 8155   3.404   1.823  17.423 -0.8327 -0.0343  0.2317
  546MPD2    C5 8156   3.392   1.693  17.477  0.2909  0.0336  0.1545
  546MPD2     H 8157   3.333   1.756  17.098 -0.4445 -1.3241 -0.0713
  546MPD2    H1 8158   3.441   1.903  17.486 -2.1324  0.0514  0.8879
  546MPD2    H2 8159   3.337   1.489  17.429  1.7625 -0.0523 -1.8533
  546MPD2    H3 8160   3.414   1.668  17.580 -0.5960  0.1934  0.3751
  546MPD2     N 8161   3.416   1.971  17.234  0.1546  0.1543 -0.2316
  546MPD2    H5 8162   3.431   2.046  17.302  0.2162  0.7968 -0.9559
  546MPD2    N1 8163   3.251   1.507  17.192 -0.2235  0.3057  0.5385
  546MPD2    H7 8164   3.260   1.420  17.243 -2.0365  1.1399  2.2974
  547TMC3    C1 8165   3.157   1.388  17.009 -0.5077 -0.1279  0.4396
  547TMC3    C2 8166   3.110   1.397  16.880  0.1156  0.2283 -0.4092
  547TMC3    C3 8167   3.068   1.277  16.826  0.0969  0.3387  0.5618
  547TMC3    C4 8168   3.165   1.275  17.079 -0.2844  0.1229 -0.5630
  547TMC3    C5 8169   3.112   1.161  17.023 -0.1743  0.5635 -0.0954
  547TMC3    C6 8170   3.066   1.159  16.896 -0.1576  0.6359 -0.2359
  547TMC3     C 8171   3.198   1.519  17.062  0.3666  0.6453  0.2330
  547TMC3     O 8172   3.177   1.619  16.993  0.3079 -0.0631 -0.1616
  547TMC3     H 8173   3.102   1.491  16.827  1.4153  1.3685  1.4444
  547TMC3    H1 8174   3.207   1.280  17.179  1.9024 -0.5964 -1.4515
  547TMC3    H2 8175   3.017   1.073  16.850  0.6485 -1.8248  3.4903
  547TMC3    C7 8176   3.085   1.058  17.123  0.1247  0.2275 -0.3602
  547TMC3    C8 8177   3.052   1.279  16.684 -0.0907  0.0389  0.7311
  547TMC3    O1 8178   3.120   1.075  17.237 -0.1100 -0.0246  0.0697
  547TMC3    O2 8179   3.068   1.178  16.617  0.0918  0.1505  0.1001
  548MPD2     C 8180   2.934   2.376  12.544  0.4797 -0.1963 -0.1317
  548MPD2    C1 8181   2.861   2.265  12.550 -0.2488  0.1859 -0.6850
  548MPD2    C2 8182   2.912   2.152  12.485 -0.0807  0.9139 -0.0943
  548MPD2    C3 8183   3.041   2.158  12.430 -0.1157 -0.2033  1.0167
  548MPD2    C4 8184   3.109   2.280  12.420  0.2718  0.2873 -0.5303
  548MPD2    C5 8185   3.047   2.388  12.475 -0.1175  0.1482  0.1192
  548MPD2     H 8186   2.845   2.067  12.488  2.5946 -1.2363 -1.2237
  548MPD2    H1 8187   3.203   2.307  12.374  0.6078  1.8981  1.0905
  548MPD2    H2 8188   2.924   2.467  12.603 -1.2385 -0.3500 -0.2019
  548MPD2    H3 8189   3.104   2.480  12.473  0.4158 -0.1815  0.0737
  548MPD2     N 8190   3.092   2.042  12.364 -0.1945  0.4297  0.0985
  548MPD2    H5 8191   3.031   1.961  12.355  0.0485  0.6522 -3.6270
  548MPD2    N1 8192   2.741   2.269  12.620  0.0415 -0.3543  0.2608
  548MPD2    H7 8193   2.717   2.360  12.659  1.5567  1.0122 -1.9764
  549TMC3    C1 8194   2.515   2.220  12.678  0.2273  0.4158 -0.1891
  549TMC3    C2 8195   2.490   2.360  12.679 -0.4827  0.0287 -0.1883
  549TMC3    C3 8196   2.369   2.389  12.738  0.6054  0.7763  0.0280
  549TMC3    C4 8197   2.439   2.120  12.741  0.0145  0.3969 -0.1588
  549TMC3    C5 8198   2.330   2.165  12.811 -0.5821 -0.1521 -0.0306
  549TMC3    C6 8199   2.299   2.296  12.815  0.0804 -0.1848  0.7380
  549TMC3     C 8200   2.649   2.172  12.636 -0.5547  0.2793 -0.2270
  549TMC3     O 8201   2.654   2.053  12.614  0.2903 -0.1390 -0.3596
  549TMC3     H 8202   2.546   2.427  12.615  0.7192 -0.9158 -0.1279
  549TMC3    H1 8203   2.473   2.017  12.741  0.3672  0.5140  0.8167
  549TMC3    H2 8204   2.206   2.320  12.865  0.6424  1.9227  0.7654
  549TMC3    C7 8205   2.252   2.076  12.898  0.3131  0.1616 -0.2172
  549TMC3    C8 8206   2.289   2.506  12.704 -0.3666 -0.5154  0.3270
  549TMC3    O1 8207   2.191   2.118  13.000 -0.7743  0.0910 -0.1221
  549TMC3    O2 8208   2.168   2.498  12.721  0.0961  0.3836 -0.1962
  550TMC3    C1 8209   1.547   0.044  12.524  0.3332 -0.3675  0.1983
  550TMC3    C2 8210   1.534   0.049  12.661 -0.4597 -0.3857 -0.0237
  550TMC3    C3 8211   1.420   0.115  12.704 -0.4736 -0.0879  0.7214
  550TMC3    C4 8212   1.458   0.093  12.427 -0.4301  0.4112  0.1293
  550TMC3    C5 8213   1.345   0.147  12.474  0.1733 -0.0633  0.1494
  550TMC3    C6 8214   1.325   0.155  12.613  0.6879 -0.1572  0.4655
  550TMC3     C 8215   1.671   4.713  12.480 -0.3224 -0.3174  0.1211
  550TMC3     O 8216   1.711   4.614  12.540  0.3075  0.7977 -0.7122
  550TMC3     H 8217   1.612   0.005  12.723 -0.6391 -0.0662  0.4284
  550TMC3    H1 8218   1.464   0.065  12.322 -0.3506  1.8934 -0.2557
  550TMC3    H2 8219   1.234   0.190  12.661 -0.2331 -0.1342 -1.2900
  550TMC3    C7 8220   1.282   0.257  12.406  0.3387 -1.0805  0.0554
  550TMC3    C8 8221   1.432   0.187  12.825  0.3789 -0.3530  0.9941
  550TMC3    O1 8222   1.211   0.323  12.477 -0.1191 -0.3914 -0.0256
  550TMC3    O2 8223   1.521   0.160  12.898 -0.3253 -0.0164 -1.1809
  551TMC3    C1 8224   4.218   2.529  13.538  0.3997 -0.2818  0.2902
  551TMC3    C2 8225   4.337   2.542  13.464 -0.3156  0.6218 -0.3008
  551TMC3    C3 8226   4.425   2.630  13.508  0.5615  0.1374 -0.1617
  551TMC3    C4 8227   4.197   2.591  13.656  0.3837  0.1659 -0.4538
  551TMC3    C5 8228   4.294   2.675  13.697  0.2843  0.4246  0.4984
  551TMC3    C6 8229   4.409   2.699  13.623  0.0064  0.0999 -0.3289
  551TMC3     C 8230   4.101   2.502  13.458  0.1557 -0.3400  0.3654
  551TMC3     O 8231   4.104   2.406  13.383 -0.6181  0.1027 -0.6145
  551TMC3     H 8232   4.351   2.505  13.364 -0.2586  1.6137 -0.6640
  551TMC3    H1 8233   4.103   2.595  13.710 -1.3497 -1.2881 -3.3585
  551TMC3    H2 8234   4.494   2.749  13.668 -1.0858  0.4299  1.3402
  551TMC3    C7 8235   4.269   2.758  13.813 -0.0572  1.0255 -0.4143
  551TMC3    C8 8236   4.505   2.702  13.407  0.1270  1.1887 -0.2763
  551TMC3    O1 8237   4.189   2.712  13.891 -0.6856  0.3244  0.0842
  551TMC3    O2 8238   4.581   2.634  13.341  0.1451  0.6902  0.4406
  552MPD2     C 8239   1.049   4.672  14.241  0.3146  0.2338 -0.3643
  552MPD2    C1 8240   1.103   4.548  14.248  0.5154 -0.3132 -0.3556
  552MPD2    C2 8241   1.237   4.537  14.281 -0.8177 -0.6831  0.2787
  552MPD2    C3 8242   1.308   4.651  14.321  0.1787  0.2995 -0.6890
  552MPD2    C4 8243   1.253   0.036  14.307 -0.3122  0.1783  0.7334
  552MPD2    C5 8244   1.124   0.049  14.268  0.0978  0.1326  0.4039
  552MPD2     H 8245   1.280   4.437  14.286 -0.2976 -0.5481 -1.4382
  552MPD2    H1 8246   1.307   0.121  14.346  0.4703 -0.1171  0.2809
  552MPD2    H2 8247   0.946   4.695  14.213 -0.4481 -0.7189  1.6838
  552MPD2    H3 8248   1.074   0.145  14.259 -1.0993 -0.4487  0.9202
  552MPD2     N 8249   1.437   4.648  14.369  0.2559  0.3570 -0.0673
  552MPD2    H5 8250   1.484   4.736  14.383  0.2175  0.6145 -1.5254
  552MPD2    N1 8251   1.035   4.429  14.205 -0.0315  0.4480 -0.1944
  552MPD2    H7 8252   1.095   4.348  14.211  0.3152  0.7065 -0.1264
  553TMC3    C1 8253   0.898   4.284  14.066  0.3601 -0.2544  0.5835
  553TMC3    C2 8254   0.869   4.319  13.934  0.1324  0.7806  0.8227
  553TMC3    C3 8255   0.930   4.246  13.836  0.1410 -0.2087 -0.6200
  553TMC3    C4 8256   0.975   4.174  14.097 -0.1308  0.1025 -0.5482
  553TMC3    C5 8257   1.032   4.103  13.997  0.0607 -0.1678 -0.4631
  553TMC3    C6 8258   1.014   4.144  13.871  0.8898 -0.3782  0.5781
  553TMC3     C 8259   0.910   4.412  14.144 -0.1749  0.2857  0.4161
  553TMC3     O 8260   0.815   4.485  14.138 -0.3792 -0.2892  0.2507
  553TMC3     H 8261   0.820   4.411  13.905 -2.5033 -1.3477 -1.3425
  553TMC3    H1 8262   1.005   4.153  14.199 -0.7574  0.7799 -0.2220
  553TMC3    H2 8263   1.076   4.102  13.792  0.5580  2.0740 -0.9776
  553TMC3    C7 8264   1.168   4.088  14.016 -0.4588  0.7382 -0.6899
  553TMC3    C8 8265   0.974   4.332  13.728  0.3822 -0.1653  0.5960
  553TMC3    O1 8266   1.203   4.033  14.118 -0.1161  0.4291 -0.2225
  553TMC3    O2 8267   1.098   4.327  13.716 -0.0975  0.0426 -0.0842
  554TMC3    C1 8268   3.167   3.930  11.503  0.1379 -0.8186  0.4038
  554TMC3    C2 8269   3.171   3.829  11.408  0.0168 -0.1686  0.0322
  554TMC3    C3 8270   3.131   3.869  11.285  0.1255  0.3607 -0.1145
  554TMC3    C4 8271   3.125   4.059  11.475 -0.5370  0.4918  0.4445
  554TMC3    C5 8272   3.086   4.092  11.346 -0.1343 -0.6521 -0.4111
  554TMC3    C6 8273   3.073   3.990  11.252 -0.6773 -1.2673 -0.0689
  554TMC3     C 8274   3.142   3.891  11.640  1.1882 -0.6455 -0.1024
  554TMC3     O 8275   3.049   3.932  11.702 -0.2186  0.6520 -0.1568
  554TMC3     H 8276   3.212   3.730  11.422 -2.4563 -1.1305  0.5591
  554TMC3    H1 8277   3.133   4.135  11.552 -0.3030 -0.6054  1.5084
  554TMC3    H2 8278   3.040   4.007  11.150  0.4115  1.2957  0.0122
  554TMC3    C7 8279   3.085   4.224  11.296  0.2193 -0.4495  0.5381
  554TMC3    C8 8280   3.115   3.777  11.175 -0.2591 -0.4171 -0.0826
  554TMC3    O1 8281   3.102   4.237  11.176  0.0536  0.7151  0.3635
  554TMC3    O2 8282   3.211   3.752  11.110 -0.4154 -0.0105 -0.5921
  555TMC3    C1 8283   2.117   3.513  15.585 -0.0914 -0.3723  0.6991
  555TMC3    C2 8284   2.226   3.556  15.654  0.0377  0.3022  0.3071
  555TMC3    C3 8285   2.337   3.481  15.656 -0.8319  0.3802  0.5069
  555TMC3    C4 8286   2.112   3.387  15.533 -0.3776  0.4673  0.7761
  555TMC3    C5 8287   2.231   3.316  15.526  0.2488 -0.4388  0.7611
  555TMC3    C6 8288   2.339   3.358  15.599  0.4217  0.0995  0.1188
  555TMC3     C 8289   2.016   3.600  15.563 -0.5546 -0.2519  0.2833
  555TMC3     O 8290   2.001   3.690  15.650  0.2045  0.5738  0.3344
  555TMC3     H 8291   2.231   3.647  15.712  1.2265  0.4131  0.0271
  555TMC3    H1 8292   2.031   3.351  15.471 -0.0288 -1.2380  1.3107
  555TMC3    H2 8293   2.423   3.293  15.620  0.9607  0.7197 -0.1151
  555TMC3    C7 8294   2.232   3.178  15.489  0.5655  0.0516 -0.2105
  555TMC3    C8 8295   2.456   3.548  15.690  0.1149  0.2484 -0.2413
  555TMC3    O1 8296   2.122   3.120  15.504  0.4473  0.1745  0.4543
  555TMC3    O2 8297   2.456   3.670  15.685  0.0514  0.3141  0.0742
  556MPD2     C 8298   0.859   0.424  11.282  0.3342  0.9107  0.3429
  556MPD2    C1 8299   0.725   0.412  11.313 -0.2922  0.4365  0.1168
  556MPD2    C2 8300   0.639   0.344  11.223  0.2201 -1.0834 -0.0485
  556MPD2    C3 8301   0.687   0.291  11.108 -0.3339  0.2859 -0.1476
  556MPD2    C4 8302   0.826   0.287  11.091 -0.3759 -0.4220  0.0199
  556MPD2    C5 8303   0.914   0.353  11.176  0.3155 -0.0902 -0.0319
  556MPD2     H 8304   0.535   0.330  11.251  0.5707  0.0673  1.8569
  556MPD2    H1 8305   0.868   0.236  11.005  2.2854 -0.9344  1.6347
  556MPD2    H2 8306   0.924   0.485  11.345 -0.9889  2.5964  0.0864
  556MPD2    H3 8307   1.021   0.359  11.156 -0.1590  2.7378 -1.7873
  556MPD2     N 8308   0.590   0.229  11.020  0.6472 -0.2917  0.1354
  556MPD2    H5 8309   0.494   0.253  11.043 -0.0266 -1.1155 -1.7964
  556MPD2    N1 8310   0.668   0.473  11.428  0.1127 -0.3703  0.0367
  556MPD2    H7 8311   0.567   0.466  11.431  0.1888 -2.1280 -1.7419
  557TMC3    C1 8312   0.495   0.119  10.839 -0.2953 -0.6391  0.7082
  557TMC3    C2 8313   0.507   0.091  10.705  0.9060  0.6584 -0.4248
  557TMC3    C3 8314   0.427   4.735  10.643  0.3747  0.1135 -0.5788
  557TMC3    C4 8315   0.406   0.049  10.914 -0.7698  0.5593  0.4088
  557TMC3    C5 8316   0.333   4.697  10.855 -0.2704  0.1276 -0.4971
  557TMC3    C6 8317   0.339   4.667  10.721 -0.0802  0.2174  0.2455
  557TMC3     C 8318   0.621   0.171  10.903  0.3358 -0.1397  0.0504
  557TMC3     O 8319   0.725   0.179  10.837  0.0605 -0.3248 -0.4961
  557TMC3     H 8320   0.594   0.131  10.653 -0.4712  2.2574 -1.4716
  557TMC3    H1 8321   0.398   0.077  11.018  0.4859  1.0725  0.3757
  557TMC3    H2 8322   0.278   4.590  10.675  0.9416 -0.3079 -0.2369
  557TMC3    C7 8323   0.216   4.650  10.928 -0.8949 -0.0781 -0.6993
  557TMC3    C8 8324   0.398   0.017  10.497 -0.8774  0.8337  0.4635
  557TMC3    O1 8325   0.132   4.597  10.853  0.1429  0.0341 -0.3509
  557TMC3    O2 8326   0.454   0.114  10.455 -0.4312  0.4678 -0.5514
  558TMC3    C1 8327   2.473   3.059  10.572  0.3968 -0.3119  0.6923
  558TMC3    C2 8328   2.363   3.113  10.633 -0.3918 -0.3003  0.3642
  558TMC3    C3 8329   2.253   3.150  10.557  0.8833 -0.0223  0.2535
  558TMC3    C4 8330   2.478   3.035  10.437  0.5128  0.1961 -0.2100
  558TMC3    C5 8331   2.370   3.082  10.362 -0.3022  0.0826 -0.1233
  558TMC3    C6 8332   2.255   3.125  10.423  0.1488 -0.1194 -0.0907
  558TMC3     C 8333   2.580   3.010  10.647 -0.5324  0.1995  0.1842
  558TMC3     O 8334   2.671   2.959  10.584  0.1290  0.7172  0.2824
  558TMC3     H 8335   2.357   3.112  10.742 -0.7743 -2.9044  0.3221
  558TMC3    H1 8336   2.561   2.985  10.388  1.1389  0.7347  0.2860
  558TMC3    H2 8337   2.169   3.141  10.359 -0.8850 -0.0245  1.3264
  558TMC3    C7 8338   2.379   3.070  10.218  0.1087  0.2697  0.6311
  558TMC3    C8 8339   2.126   3.200  10.612 -0.8826 -0.1200  0.6757
  558TMC3    O1 8340   2.494   3.058  10.173  0.8814 -0.0152  0.4763
  558TMC3    O2 8341   2.036   3.222  10.533 -0.0015 -0.2151  0.3223
  559MPD2     C 8342   2.391   3.454  10.472 -0.3880  0.0405 -0.4662
  559MPD2    C1 8343   2.387   3.501  10.600 -0.3833  0.2068 -0.4161
  559MPD2    C2 8344   2.494   3.476  10.686 -0.2908 -0.9480  0.5580
  559MPD2    C3 8345   2.600   3.406  10.638 -0.4044 -0.4300 -0.1380
  559MPD2    C4 8346   2.601   3.361  10.508  1.1000  0.3990 -0.0679
  559MPD2    C5 8347   2.501   3.392  10.420 -0.0196  0.7673  0.0943
  559MPD2     H 8348   2.492   3.503  10.791 -3.0194 -0.8504  0.4820
  559MPD2    H1 8349   2.682   3.298  10.472  1.4214 -0.6028  2.4367
  559MPD2    H2 8350   2.295   3.460  10.421  0.5818 -0.8679 -2.3975
  559MPD2    H3 8351   2.509   3.341  10.325  1.3518 -1.5767  1.4654
  559MPD2     N 8352   2.692   3.375  10.739 -0.0732 -0.5078  0.3584
  559MPD2    H5 8353   2.670   3.411  10.832 -0.5098 -1.1308  0.4965
  559MPD2    N1 8354   2.275   3.577  10.644 -0.0659  0.1710 -0.0484
  559MPD2    H7 8355   2.198   3.581  10.578 -1.4343 -0.4109  1.5154
  560TMC3    C1 8356   2.898   3.326  10.836  0.1373  0.7830  0.8066
  560TMC3    C2 8357   2.826   3.339  10.952 -0.1144  0.1401  0.1800
  560TMC3    C3 8358   2.899   3.346  11.068 -0.2552 -0.6277  0.8102
  560TMC3    C4 8359   3.029   3.351  10.826  0.4759  0.2399  0.0426
  560TMC3    C5 8360   3.086   3.393  10.945 -0.1073 -0.1855 -0.3534
  560TMC3    C6 8361   3.022   3.403  11.064 -0.5605  0.9923 -0.2954
  560TMC3     C 8362   2.818   3.327  10.712  0.4564 -0.0690  0.0232
  560TMC3     O 8363   2.879   3.317  10.605  0.0154 -0.4830 -0.1032
  560TMC3     H 8364   2.723   3.306  10.958 -0.4099  1.3105  1.5211
  560TMC3    H1 8365   3.089   3.354  10.735  1.9809  1.2248  1.0781
  560TMC3    H2 8366   3.083   3.417  11.153  0.9042 -1.7232 -0.8793
  560TMC3    C7 8367   3.223   3.361  10.953  0.2983  0.3467 -0.2649
  560TMC3    C8 8368   2.819   3.356  11.186 -0.2774  0.5728 -0.5261
  560TMC3    O1 8369   3.262   3.253  10.908  0.1325  0.1950 -0.1780
  560TMC3    O2 8370   2.722   3.426  11.163 -0.4792 -0.6881 -0.8161
  561TMC3    C1 8371   0.549   2.787  11.092  0.0387  0.0624 -0.3446
  561TMC3    C2 8372   0.485   2.679  11.159  0.3924  0.4863  0.7443
  561TMC3    C3 8373   0.447   2.694  11.292  0.2494 -0.8125 -0.2206
  561TMC3    C4 8374   0.560   2.905  11.162 -0.2963 -0.0336  0.8815
  561TMC3    C5 8375   0.501   2.918  11.287  0.3955  0.6386  0.4664
  561TMC3    C6 8376   0.447   2.816  11.357  0.0034 -0.5436 -0.3109
  561TMC3     C 8377   0.626   2.759  10.972 -0.1990 -0.0473 -0.0898
  561TMC3     O 8378   0.582   2.678  10.894  0.8112 -0.5115  0.3532
  561TMC3     H 8379   0.488   2.584  11.108  0.5213  1.6587 -1.4266
  561TMC3    H1 8380   0.611   2.985  11.111 -0.2564 -0.7665 -0.2558
  561TMC3    H2 8381   0.398   2.833  11.453  2.2783 -2.6150  1.2184
  561TMC3    C7 8382   0.530   3.040  11.367 -0.0119 -0.7637  0.5746
  561TMC3    C8 8383   0.389   2.579  11.352 -0.4992 -0.6490  0.3383
  561TMC3    O1 8384   0.495   3.034  11.483 -0.0319 -0.3061  0.2326
  561TMC3    O2 8385   0.351   2.490  11.271 -0.1486  0.0463  0.5092
  562TMC3    C1 8386   2.180   3.657  16.475  0.2387 -0.2177  0.0506
  562TMC3    C2 8387   2.149   3.788  16.447  0.0178  0.4190  0.6588
  562TMC3    C3 8388   2.145   3.824  16.318  0.6436 -0.5589 -0.2676
  562TMC3    C4 8389   2.225   3.572  16.374  1.2194  0.6889  0.0831
  562TMC3    C5 8390   2.234   3.622  16.248 -0.9286  0.3090  0.1829
  562TMC3    C6 8391   2.199   3.749  16.218 -0.6309 -0.2694 -0.3627
  562TMC3     C 8392   2.205   3.625  16.612  0.1827  0.0876 -0.2070
  562TMC3     O 8393   2.133   3.686  16.685  0.9487  0.0645  0.3806
  562TMC3     H 8394   2.101   3.852  16.521  1.5340  2.4420 -0.1012
  562TMC3    H1 8395   2.237   3.470  16.410 -0.2176  0.1193 -1.0448
  562TMC3    H2 8396   2.197   3.791  16.118 -1.6141  0.2068 -0.1480
  562TMC3    C7 8397   2.208   3.531  16.136  0.8729  0.2964 -0.8879
  562TMC3    C8 8398   2.079   3.950  16.298 -0.0308  0.0472 -0.1304
  562TMC3    O1 8399   2.188   3.569  16.022  0.1457 -0.7748  0.1344
  562TMC3    O2 8400   2.071   4.032  16.385  0.5416  0.2396  0.3767
  563MPD2     C 8401   4.438   0.431  15.767 -0.4099 -0.8114 -0.3816
  563MPD2    C1 8402   4.495   0.448  15.892 -0.4811 -0.2557  0.0004
  563MPD2    C2 8403   4.596   0.358  15.929  0.5269  0.3355  0.2844
  563MPD2    C3 8404   4.650   0.272  15.842 -0.4265  0.6123  0.2677
  563MPD2    C4 8405   4.599   0.262  15.716 -0.4320 -0.2011  0.5989
  563MPD2    C5 8406   4.486   0.336  15.686  0.2290  0.7414  0.3045
  563MPD2     H 8407   4.638   0.367  16.028 -0.6722  2.5344  0.5917
  563MPD2    H1 8408   4.620   0.176  15.654  0.2442 -0.4256  1.1414
  563MPD2    H2 8409   4.351   0.491  15.741 -1.9847 -1.8533  2.4386
  563MPD2    H3 8410   4.431   0.310  15.596  2.1664  1.1015 -0.9790
  563MPD2     N 8411   0.019   0.187  15.890  0.1834  0.3558 -0.4428
  563MPD2    H5 8412   0.036   0.184  15.990 -1.0179 -1.2357 -0.2839
  563MPD2    N1 8413   4.444   0.551  15.974 -0.4839 -0.2153  0.2306
  563MPD2    H7 8414   4.364   0.608  15.947  0.2728  1.5215  1.6764
  564TMC3    C1 8415   4.381   0.594  16.187 -0.5335  0.2619  0.0853
  564TMC3    C2 8416   4.270   0.519  16.157 -1.3099 -0.3719 -0.0258
  564TMC3    C3 8417   4.214   0.439  16.249 -0.1428  0.5364 -0.2440
  564TMC3    C4 8418   4.419   0.589  16.320  0.3133  0.1422  0.2263
  564TMC3    C5 8419   4.364   0.507  16.408  0.5062  0.6556  0.7281
  564TMC3    C6 8420   4.257   0.430  16.381 -1.0484 -0.4953 -0.8445
  564TMC3     C 8421   4.491   0.574  16.103  0.2496  0.3441 -0.3044
  564TMC3     O 8422   4.607   0.554  16.149 -0.1358 -0.3456 -0.4142
  564TMC3     H 8423   4.217   0.530  16.063 -0.0136  2.1669 -0.4560
  564TMC3    H1 8424   4.512   0.637  16.346 -0.4862  1.4727  0.6865
  564TMC3    H2 8425   4.221   0.357  16.454 -0.3713  0.2891  0.2792
  564TMC3    C7 8426   4.441   0.473  16.530  0.5052 -0.2009  0.8465
  564TMC3    C8 8427   4.175   0.310  16.204 -1.2769 -1.1155 -0.0530
  564TMC3    O1 8428   4.456   0.572  16.600 -1.0261  0.0465 -0.0523
  564TMC3    O2 8429   4.130   0.239  16.293  0.1439 -0.0896 -0.4240
  565TMC3    C1 8430   0.823   2.640   9.742  0.0114  0.5734 -0.1673
  565TMC3    C2 8431   0.773   2.525   9.793 -0.2392  0.0779 -0.0036
  565TMC3    C3 8432   0.845   2.411   9.771 -0.1380 -0.2887  0.3950
  565TMC3    C4 8433   0.942   2.649   9.667 -0.5819 -0.7363 -0.2146
  565TMC3    C5 8434   1.007   2.531   9.643  0.4416 -0.4207  0.1181
  565TMC3    C6 8435   0.960   2.414   9.694 -0.3904 -0.0349 -0.8575
  565TMC3     C 8436   0.752   2.760   9.777  0.9611 -0.5063 -0.2190
  565TMC3     O 8437   0.758   2.851   9.694 -0.4336 -0.0623  0.5743
  565TMC3     H 8438   0.674   2.506   9.832 -0.2849  2.0421  0.8504
  565TMC3    H1 8439   0.967   2.744   9.621 -2.2643  0.0784  0.5489
  565TMC3    H2 8440   1.026   2.328   9.695  3.8055  3.2314  1.1047
  565TMC3    C7 8441   1.127   2.537   9.562 -0.1670  0.3086 -0.1793
  565TMC3    C8 8442   0.816   2.294   9.848  0.3013  0.2936 -0.2777
  565TMC3    O1 8443   1.165   2.649   9.535  0.3432  0.2695  0.7008
  565TMC3    O2 8444   0.749   2.318   9.947  0.2057  0.3031  0.3439
  566MPD2     C 8445   1.177   3.136  14.411 -0.4566 -0.3909 -0.4980
  566MPD2    C1 8446   1.180   3.205  14.296  1.1120 -0.5615 -0.0325
  566MPD2    C2 8447   1.061   3.245  14.239 -0.1064  0.0726  0.2409
  566MPD2    C3 8448   0.934   3.208  14.272 -0.0654  0.1960  0.1638
  566MPD2    C4 8449   0.935   3.152  14.396 -0.2858 -0.2443 -0.3008
  566MPD2    C5 8450   1.050   3.112  14.461 -0.2654  0.4216 -0.2911
  566MPD2     H 8451   1.056   3.326  14.167 -1.3866  1.2995  1.7187
  566MPD2    H1 8452   0.837   3.145  14.443 -0.2294 -0.8815 -0.2869
  566MPD2    H2 8453   1.269   3.112  14.462 -1.0020  1.5460  1.4106
  566MPD2    H3 8454   1.035   3.067  14.558  0.0599  0.1592 -0.3610
  566MPD2     N 8455   0.811   3.245  14.210  0.4961  0.1275 -0.1175
  566MPD2    H5 8456   0.729   3.231  14.269  1.0616 -0.3237  0.5517
  566MPD2    N1 8457   1.307   3.240  14.244  0.4956  0.4591  0.4041
  566MPD2    H7 8458   1.390   3.228  14.300  0.4629  2.0601  0.7985
  567TMC3    C1 8459   1.463   3.345  14.099 -0.4549  0.2374  0.1869
  567TMC3    C2 8460   1.506   3.339  13.968  0.9153  0.0636  0.8947
  567TMC3    C3 8461   1.643   3.348  13.939 -0.1554 -0.1481 -0.1710
  567TMC3    C4 8462   1.559   3.370  14.203  0.7157 -0.5358 -0.1419
  567TMC3    C5 8463   1.694   3.370  14.167  0.9252 -0.2072 -0.3764
  567TMC3    C6 8464   1.734   3.360  14.038 -0.0854  0.5541 -0.0712
  567TMC3     C 8465   1.321   3.320  14.124 -0.6459  0.0557  0.0062
  567TMC3     O 8466   1.241   3.371  14.050  0.6038  0.2539  0.1689
  567TMC3     H 8467   1.426   3.331  13.894  1.2442  1.1098  0.4336
  567TMC3    H1 8468   1.527   3.383  14.306 -1.9217 -0.1892 -1.0150
  567TMC3    H2 8469   1.841   3.359  14.021  0.1586 -1.2437  1.5603
  567TMC3    C7 8470   1.793   3.398  14.269  0.1129  0.0662  0.3766
  567TMC3    C8 8471   1.673   3.389  13.797  0.5168  0.2610 -0.4505
  567TMC3    O1 8472   1.900   3.427  14.227  0.4125 -0.2226 -0.1300
  567TMC3    O2 8473   1.567   3.422  13.740  0.0116 -0.5808  0.3230
  568MPD2     C 8474   4.048   3.515  16.365 -0.2581  0.2134  0.5004
  568MPD2    C1 8475   4.082   3.582  16.481  0.7358  0.2265 -0.6145
  568MPD2    C2 8476   4.086   3.717  16.465  0.2588 -0.4132  0.0395
  568MPD2    C3 8477   4.072   3.781  16.342  0.2094 -0.4294  0.1118
  568MPD2    C4 8478   4.042   3.709  16.226  0.1681 -0.0592  0.1927
  568MPD2    C5 8479   4.032   3.580  16.246  0.5673  0.7552  0.2699
  568MPD2     H 8480   4.083   3.782  16.552  0.7647  1.5137 -1.3869
  568MPD2    H1 8481   4.027   3.748  16.126  1.5278 -1.3492 -0.5273
  568MPD2    H2 8482   4.036   3.407  16.366 -0.9073  0.3014  2.6972
  568MPD2    H3 8483   3.993   3.529  16.159 -0.6761  0.3340  1.0663
  568MPD2     N 8484   4.089   3.923  16.339 -0.3381 -0.4024 -0.5371
  568MPD2    H5 8485   4.126   3.967  16.422  1.2860 -1.2270 -0.8267
  568MPD2    N1 8486   4.116   3.513  16.598  0.3408  0.1274  0.5426
  568MPD2    H7 8487   4.104   3.412  16.604 -2.1295  0.4547  1.3847
  569TMC3    C1 8488   4.165   4.130  16.247  0.3878  0.2992  0.3189
  569TMC3    C2 8489   4.168   4.170  16.379 -0.2177  0.6170 -0.1297
  569TMC3    C3 8490   4.229   4.286  16.410  0.2162  0.1015 -0.0659
  569TMC3    C4 8491   4.227   4.203  16.146  0.3468  0.1687  0.2123
  569TMC3    C5 8492   4.296   4.314  16.185 -1.1230 -1.0026  0.1936
  569TMC3    C6 8493   4.290   4.360  16.310 -0.2126  0.7620  0.0393
  569TMC3     C 8494   4.117   3.992  16.221  0.3056 -0.2955 -0.2288
  569TMC3     O 8495   4.101   3.957  16.109  0.3038 -0.2012 -0.5859
  569TMC3     H 8496   4.108   4.116  16.451  3.1020 -1.2011  1.3172
  569TMC3    H1 8497   4.231   4.178  16.041  0.9147 -1.2605  0.5670
  569TMC3    H2 8498   4.350   4.448  16.331 -0.1057  0.5348  0.6705
  569TMC3    C7 8499   4.327   4.410  16.080  0.5215 -0.2915 -0.5388
  569TMC3    C8 8500   4.168   4.365  16.517 -0.7634 -0.7287  0.2930
  569TMC3    O1 8501   4.377   4.367  15.975  0.1480 -0.3986  0.1739
  569TMC3    O2 8502   4.051   4.337  16.544  0.3980 -0.3834  0.3116
  570TMC3    C1 8503   3.667   2.338  16.147  0.5186  0.0612 -0.5507
  570TMC3    C2 8504   3.731   2.300  16.033 -0.9797 -0.0401 -0.4528
  570TMC3    C3 8505   3.819   2.382  15.984  0.5178 -0.4818 -0.1798
  570TMC3    C4 8506   3.684   2.460  16.194  0.0907  0.3791  0.4670
  570TMC3    C5 8507   3.777   2.534  16.144  0.0341  0.4262 -0.0727
  570TMC3    C6 8508   3.859   2.500  16.037  0.6056 -0.3160  0.7668
  570TMC3     C 8509   3.582   2.243  16.217 -0.0553 -0.0568 -0.0902
  570TMC3     O 8510   3.532   2.151  16.156 -0.3314 -0.4319 -0.1520
  570TMC3     H 8511   3.710   2.206  15.985  0.4906  0.9156 -2.9608
  570TMC3    H1 8512   3.644   2.515  16.279 -0.1260  2.0428 -0.7226
  570TMC3    H2 8513   3.926   2.576  15.996 -0.3989 -0.5237 -1.2335
  570TMC3    C7 8514   3.817   2.654  16.220 -0.7224  0.6791 -0.9562
  570TMC3    C8 8515   3.885   2.356  15.857  0.5432  0.0818  0.2993
  570TMC3    O1 8516   3.821   2.639  16.340 -0.3605  0.0424  0.2766
  570TMC3    O2 8517   4.004   2.386  15.858 -0.3494  0.1984 -0.1431
  571MPD2     C 8518   1.991   4.079  17.745  0.0149  0.1915 -0.1317
  571MPD2    C1 8519   2.120   4.125  17.747  0.1264  0.0566  0.7603
  571MPD2    C2 8520   2.150   4.248   0.045 -0.2248 -0.5420  0.1653
  571MPD2    C3 8521   2.045   4.325   0.103  0.5812 -0.0088  0.3620
  571MPD2    C4 8522   1.911   4.282   0.093  0.1603  0.2733  0.6664
  571MPD2    C5 8523   1.887   4.154   0.041 -0.4208  0.0943  0.1959
  571MPD2     H 8524   2.251   4.286   0.039 -1.4831  2.9912  0.9747
  571MPD2    H1 8525   1.826   4.327   0.143 -1.1273 -1.1489 -0.2331
  571MPD2    H2 8526   1.969   3.981  17.704 -0.7588  0.3139 -0.0120
  571MPD2    H3 8527   1.786   4.117   0.031  0.4120 -1.1457 -3.6914
  571MPD2     N 8528   2.079   4.454   0.157  0.1924 -1.2622  0.3473
  571MPD2    H5 8529   2.003   4.496   0.209  1.1198  0.7395  0.0782
  571MPD2    N1 8530   2.228   4.038  17.718  0.5021 -0.0454  0.1205
  571MPD2    H7 8531   2.198   3.962  17.658  0.1587  0.4803 -0.3901
  572TMC3    C1 8532   2.202   4.628   0.254  0.1141  0.7740 -0.3541
  572TMC3    C2 8533   2.126   4.629   0.372  0.0551  0.0452 -0.1563
  572TMC3    C3 8534   2.152   4.735   0.452  0.1939  1.0363 -0.3804
  572TMC3    C4 8535   2.283   4.737   0.215 -0.1791  0.0663  0.5537
  572TMC3    C5 8536   2.283   0.110   0.293 -0.1193 -0.1675 -0.0115
  572TMC3    C6 8537   2.229   0.106   0.416  0.4171 -0.5998  0.5939
  572TMC3     C 8538   2.204   4.509   0.167 -0.4527 -0.4077 -0.1329
  572TMC3     O 8539   2.309   4.488   0.097 -0.1412 -0.2469 -0.0635
  572TMC3     H 8540   2.079   4.537   0.407 -0.4531  0.5151  0.4048
  572TMC3    H1 8541   2.337   0.001   0.121 -1.5068 -0.0825 -0.2062
  572TMC3    H2 8542   2.220   0.197   0.473 -2.5051 -0.4758 -0.1001
  572TMC3    C7 8543   2.266   0.236   0.228  0.4971  0.0134 -0.3392
  572TMC3    C8 8544   2.099   0.010   0.586  0.5166  0.4687  0.9941
  572TMC3    O1 8545   2.208   0.234   0.121 -0.5463 -0.3701 -0.2476
  572TMC3    O2 8546   2.159   0.083   0.665  0.0810  0.6219  0.1830
  573MPD2     C 8547   2.486   0.047   0.734  0.4875  0.9055  0.3839
  573MPD2    C1 8548   2.580   0.129   0.788 -0.5194  0.2522 -0.4603
  573MPD2    C2 8549   2.685   0.149   0.710 -0.2171 -0.0637 -0.6093
  573MPD2    C3 8550   2.703   0.083   0.588 -0.3633 -0.4761  0.1383
  573MPD2    C4 8551   2.609   4.734   0.537  0.3671  0.3129 -0.4955
  573MPD2    C5 8552   2.501   4.719   0.615  0.4562 -0.1887 -0.8873
  573MPD2     H 8553   2.754   0.229   0.736 -1.5707  0.9005  0.0386
  573MPD2    H1 8554   2.622   4.673   0.448 -3.0869 -1.3000  0.1402
  573MPD2    H2 8555   2.394   0.025   0.787  0.0147 -0.4624 -1.0178
  573MPD2    H3 8556   2.421   4.653   0.585  0.9487 -0.6190 -1.2514
  573MPD2     N 8557   2.825   0.114   0.522  0.5599  0.3455  0.1775
  573MPD2    H5 8558   2.892   0.157   0.584 -1.3318  4.3518 -0.5572
  573MPD2    N1 8559   2.559   0.183   0.919  0.2834 -0.0155 -0.2166
  573MPD2    H7 8560   2.461   0.182   0.946  0.0021 -2.2573 -1.2835
  574TMC3    C1 8561   2.983   0.127   0.352 -0.3627  0.6026  0.1849
  574TMC3    C2 8562   3.016   0.257   0.389  0.3392  0.6711 -0.3200
  574TMC3    C3 8563   3.076   0.335   0.302 -0.6619 -0.4668  0.2188
  574TMC3    C4 8564   3.017   0.079   0.224 -0.0229  0.6432  0.6604
  574TMC3    C5 8565   3.072   0.167   0.137  0.3889  0.2204 -0.4707
  574TMC3    C6 8566   3.085   0.300   0.170  0.2776 -0.3549 -0.4069
  574TMC3     C 8567   2.857   0.068   0.397 -0.2512  0.1843 -0.8397
  574TMC3     O 8568   2.793   0.003   0.312  0.2822  0.2772  0.6885
  574TMC3     H 8569   3.004   0.302   0.488 -1.2899 -0.2507 -0.0940
  574TMC3    H1 8570   3.009   4.711   0.200 -0.4743 -0.0229  3.7184
  574TMC3    H2 8571   3.123   0.380   0.108  1.0247  0.4741  1.1051
  574TMC3    C7 8572   3.137   0.120   0.016 -0.2185  0.1378  0.3684
  574TMC3    C8 8573   3.038   0.471   0.328 -0.4664  0.1849  0.3783
  574TMC3    O1 8574   3.193   0.202  17.695 -0.2420 -0.7228  0.1328
  574TMC3    O2 8575   3.074   0.531   0.427 -0.2015 -0.2553 -0.2563
  575TMC3    C1 8576   0.813   1.893  10.630  0.2303  0.3214  0.3709
  575TMC3    C2 8577   0.807   1.757  10.639 -0.0902  0.1037 -0.1603
  575TMC3    C3 8578   0.783   1.688  10.526  0.4621 -0.1601  1.6409
  575TMC3    C4 8579   0.795   1.962  10.514  0.0987  0.8929 -0.2710
  575TMC3    C5 8580   0.780   1.883  10.407  0.5803 -0.0120  0.3015
  575TMC3    C6 8581   0.788   1.747  10.406 -0.4500  0.6302 -0.3315
  575TMC3     C 8582   0.781   1.955  10.754 -0.0455 -0.7439 -0.5585
  575TMC3     O 8583   0.741   1.893  10.853 -0.0223 -0.0356  0.0561
  575TMC3     H 8584   0.827   1.699  10.729  0.1571  2.9526  1.6334
  575TMC3    H1 8585   0.750   2.061  10.505 -3.7216 -0.9051 -0.8143
  575TMC3    H2 8586   0.756   1.687  10.321 -0.0931  0.1944 -0.1595
  575TMC3    C7 8587   0.768   1.952  10.280  0.6073  0.1791 -0.5623
  575TMC3    C8 8588   0.773   1.549  10.541  0.4200 -0.1041 -0.2181
  575TMC3    O1 8589   0.777   2.074  10.274 -0.0765 -0.2368  0.1055
  575TMC3    O2 8590   0.731   1.511  10.645 -0.1925  0.2351  0.1464
  576MPD2     C 8591   4.556   2.393  12.736 -0.4452  0.7616 -0.7512
  576MPD2    C1 8592   4.553   2.520  12.694  0.5029  0.5859 -0.3346
  576MPD2    C2 8593   4.478   2.614  12.754  0.0062  0.3634 -0.2646
  576MPD2    C3 8594   4.405   2.583  12.870  0.4480 -0.4720  0.1473
  576MPD2    C4 8595   4.403   2.448  12.914  0.2786 -0.3643  0.1823
  576MPD2    C5 8596   4.489   2.359  12.851 -0.6307  0.3088 -0.6147
  576MPD2     H 8597   4.484   2.716  12.719 -0.9942  0.6256  0.3418
  576MPD2    H1 8598   4.349   2.419  13.003  1.5724 -0.4456  0.9466
  576MPD2    H2 8599   4.608   2.311  12.687  0.3410  1.7626 -1.5947
  576MPD2    H3 8600   4.495   2.258  12.891  1.1831  0.2935 -0.9526
  576MPD2     N 8601   4.346   2.685  12.939  1.0723 -0.2564 -0.0559
  576MPD2    H5 8602   4.346   2.775  12.891  1.6481 -0.5099 -0.5310
  576MPD2    N1 8603   4.604   2.566  12.567 -0.1300 -0.3624 -0.6206
  576MPD2    H7 8604   4.601   2.667  12.558  0.8477 -0.4327 -1.6960
  577TMC3    C1 8605   4.725   2.567  12.364  0.0968 -0.6164 -0.5992
  577TMC3    C2 8606   0.025   2.492  12.252 -0.3136 -0.2007 -0.3137
  577TMC3    C3 8607   0.049   2.561  12.133  1.2284  0.4862  0.5059
  577TMC3    C4 8608   4.691   2.694  12.365  0.4921  0.2995  0.1748
  577TMC3    C5 8609   4.723   2.759  12.241  0.5904  0.3510 -0.1454
  577TMC3    C6 8610   0.033   2.696  12.129  0.2611 -0.1806 -0.0340
  577TMC3     C 8611   4.676   2.491  12.478  0.0468  0.2857  0.4004
  577TMC3     O 8612   4.690   2.370  12.475 -0.0380  0.4872  0.3344
  577TMC3     H 8613   0.010   2.385  12.250 -0.1138 -0.2262 -0.3962
  577TMC3    H1 8614   4.662   2.752  12.451  0.4807 -0.2341  0.5337
  577TMC3    H2 8615   0.047   2.742  12.032  0.8448 -1.4947 -0.5805
  577TMC3    C7 8616   4.664   2.885  12.229  0.4376  0.8338 -0.6158
  577TMC3    C8 8617   0.086   2.479  12.015 -0.7057  1.1848  0.2517
  577TMC3    O1 8618   4.687   2.957  12.331  0.1548  0.8141  0.2622
  577TMC3    O2 8619   0.083   2.357  12.043  0.3264  0.1598  0.3851
  578MPD2     C 8620   3.278   3.200   1.256  0.0420 -0.1381 -0.3662
  578MPD2    C1 8621   3.276   3.085   1.179  0.1102  0.0754 -0.1403
  578MPD2    C2 8622   3.297   2.965   1.249  0.3464 -0.3113 -0.9753
  578MPD2    C3 8623   3.282   2.953   1.387 -0.1552 -0.6019  0.3749
  578MPD2    C4 8624   3.258   3.069   1.454  0.7716  0.4162 -0.2257
  578MPD2    C5 8625   3.262   3.189   1.391 -0.7251  0.0866 -0.2523
  578MPD2     H 8626   3.306   2.879   1.183 -0.1081  0.0323 -1.4882
  578MPD2    H1 8627   3.246   3.068   1.562  2.7710  0.9556  0.0024
  578MPD2    H2 8628   3.282   3.302   1.219 -0.0686  0.0305  0.0856
  578MPD2    H3 8629   3.250   3.283   1.444  2.8796  0.8636 -0.8018
  578MPD2     N 8630   3.282   2.822   1.446  0.0032 -1.0782  0.2484
  578MPD2    H5 8631   3.293   2.744   1.383  0.3454 -0.9135  0.1073
  578MPD2    N1 8632   3.298   3.105   1.040 -0.2647 -0.4171 -0.4184
  578MPD2    H7 8633   3.287   3.202   1.010  0.0957 -0.8601 -1.9790
  579TMC3    C1 8634   3.340   2.661   1.608 -0.0803 -0.1271 -1.0030
  579TMC3    C2 8635   3.429   2.655   1.708 -0.3860 -0.3138  0.7718
  579TMC3    C3 8636   3.516   2.546   1.715  0.0337  0.0011  0.1147
  579TMC3    C4 8637   3.330   2.566   1.508  0.7793  0.6712 -0.4798
  579TMC3    C5 8638   3.419   2.455   1.520 -0.0423  0.8129  0.4205
  579TMC3    C6 8639   3.509   2.442   1.625  0.0014  0.7218  0.3970
  579TMC3     C 8640   3.296   2.797   1.583  0.4443  0.7317  0.0959
  579TMC3     O 8641   3.299   2.872   1.681 -0.5403 -0.0904  0.0380
  579TMC3     H 8642   3.436   2.739   1.776  1.7214  1.9505 -2.2290
  579TMC3    H1 8643   3.246   2.569   1.439 -0.3690 -1.5656  0.8188
  579TMC3    H2 8644   3.570   2.356   1.651 -0.5306 -0.1413 -1.2328
  579TMC3    C7 8645   3.434   2.361   1.413  0.2857 -0.9900  0.2087
  579TMC3    C8 8646   3.648   2.572   1.754  0.0834 -0.5133 -0.3879
  579TMC3    O1 8647   3.498   2.263   1.448 -0.2567 -0.3735 -0.1792
  579TMC3    O2 8648   3.662   2.651   1.848 -0.3241  0.0261  0.2572
  580TMC3    C1 8649   2.651   1.914  11.912  0.2782 -0.1691  0.6649
  580TMC3    C2 8650   2.628   1.910  11.772 -0.5464  0.0743 -0.5258
  580TMC3    C3 8651   2.600   1.790  11.714 -0.5146  0.2102  0.1833
  580TMC3    C4 8652   2.648   1.799  11.983 -0.2438 -0.7509 -0.5233
  580TMC3    C5 8653   2.623   1.684  11.917 -0.1998  0.3320  0.0021
  580TMC3    C6 8654   2.596   1.673  11.784  0.0304 -0.1931 -0.0908
  580TMC3     C 8655   2.647   2.055  11.966 -0.3295 -0.4698 -0.1825
  580TMC3     O 8656   2.689   2.148  11.901  0.2950 -0.1199 -0.6606
  580TMC3     H 8657   2.617   2.009  11.729 -1.8953 -0.1946 -0.8020
  580TMC3    H1 8658   2.680   1.803  12.087 -0.2673 -0.7009 -0.5176
  580TMC3    H2 8659   2.578   1.582  11.728 -0.8830 -0.7803  1.1366
  580TMC3    C7 8660   2.624   1.569  12.003 -0.5363 -0.2441 -0.3823
  580TMC3    C8 8661   2.569   1.787  11.579 -0.0015  0.2756  0.4341
  580TMC3    O1 8662   2.661   1.593  12.120  0.2986  0.0815  0.4896
  580TMC3    O2 8663   2.511   1.693  11.520 -0.6118 -0.0498  0.6969
  581MPD2     C 8664   0.508   1.330  15.064 -0.1367 -0.3503  0.5614
  581MPD2    C1 8665   0.477   1.425  15.159  0.3536 -1.0490  0.4463
  581MPD2    C2 8666   0.350   1.466  15.177 -0.5059  0.1762  0.8613
  581MPD2    C3 8667   0.252   1.438  15.084  0.4962 -0.0674 -0.2282
  581MPD2    C4 8668   0.283   1.354  14.984 -0.0861 -0.1011 -0.5968
  581MPD2    C5 8669   0.409   1.299  14.978 -0.4843  0.7156 -0.9101
  581MPD2     H 8670   0.327   1.523  15.267  0.1394  1.4443  0.2258
  581MPD2    H1 8671   0.205   1.325  14.914  0.8361 -3.8953 -0.0624
  581MPD2    H2 8672   0.610   1.300  15.042  0.3813  3.4491 -2.2320
  581MPD2    H3 8673   0.428   1.244  14.887  1.2670 -1.3922  0.7228
  581MPD2     N 8674   0.120   1.491  15.089 -0.3142 -0.0890 -0.0923
  581MPD2    H5 8675   0.105   1.563  15.160 -0.0882  1.1024 -1.2437
  581MPD2    N1 8676   0.585   1.451  15.248 -0.1716 -0.2914  0.5249
  581MPD2    H7 8677   0.674   1.414  15.217  0.1285  0.6523  0.2685
  582TMC3    C1 8678   0.685   1.438  15.456  0.5126  0.0768  0.5250
  582TMC3    C2 8679   0.696   1.478  15.584  0.0926 -0.6597  0.0905
  582TMC3    C3 8680   0.793   1.429  15.659  0.7245 -0.3554  0.0635
  582TMC3    C4 8681   0.758   1.330  15.413 -0.2466  0.2211 -0.1809
  582TMC3    C5 8682   0.831   1.258  15.500 -0.1369  0.2453  0.2052
  582TMC3    C6 8683   0.872   1.319  15.619 -0.2263  0.4456 -0.6325
  582TMC3     C 8684   0.572   1.492  15.376  0.3041  0.6009  0.5728
  582TMC3     O 8685   0.479   1.543  15.435 -0.0405  0.1947 -0.0978
  582TMC3     H 8686   0.646   1.570  15.612 -0.3121 -0.3140 -1.7387
  582TMC3    H1 8687   0.756   1.293  15.312 -1.0259 -1.4139  0.4465
  582TMC3    H2 8688   0.946   1.260  15.672  0.7571  0.9638 -1.4422
  582TMC3    C7 8689   0.918   1.146  15.455  0.2887 -0.4218 -0.2468
  582TMC3    C8 8690   0.792   1.461  15.801  0.2086 -0.1867 -0.1214
  582TMC3    O1 8691   1.036   1.162  15.486 -0.0039 -0.1892  0.2308
  582TMC3    O2 8692   0.698   1.518  15.851 -0.1552  0.1930  0.0370
  583MPD2     C 8693   0.785   3.230  17.247 -0.7195  0.0007 -0.3431
  583MPD2    C1 8694   0.717   3.306  17.155 -1.0214 -0.0295 -0.1853
  583MPD2    C2 8695   0.616   3.388  17.195  0.0440  0.0371  0.0088
  583MPD2    C3 8696   0.587   3.403  17.324  0.2488 -0.1777  0.3315
  583MPD2    C4 8697   0.646   3.319  17.412 -0.3832  1.1209 -0.1616
  583MPD2    C5 8698   0.744   3.232  17.378  0.0424  0.2159 -0.4159
  583MPD2     H 8699   0.565   3.454  17.127  3.1027 -0.4603 -2.7496
  583MPD2    H1 8700   0.627   3.324  17.519  1.6310 -1.9533  0.3366
  583MPD2    H2 8701   0.863   3.158  17.226  0.5187  0.1701  3.7219
  583MPD2    H3 8702   0.801   3.179  17.453 -1.6520 -0.8170  0.1340
  583MPD2     N 8703   0.489   3.499  17.363  0.4664 -0.9576 -0.5463
  583MPD2    H5 8704   0.448   3.548  17.285  2.2004 -0.2616 -1.0305
  583MPD2    N1 8705   0.750   3.303  17.018  0.1709  0.5462  0.4847
  583MPD2    H7 8706   0.715   3.379  16.960 -0.2016  1.6297  2.1137
  584TMC3    C1 8707   0.321   3.594  17.497 -0.0954 -0.3598 -0.0486
  584TMC3    C2 8708   0.325   3.714  17.433  0.0031 -0.9850  0.1624
  584TMC3    C3 8709   0.215   3.788  17.445 -0.4610 -1.2162 -0.2490
  584TMC3    C4 8710   0.224   3.560  17.585  0.2128  0.3068  0.3846
  584TMC3    C5 8711   0.119   3.652  17.608  0.7180 -0.3636  0.6235
  584TMC3    C6 8712   0.112   3.770  17.538 -0.5474 -0.0110 -0.1255
  584TMC3     C 8713   0.434   3.502  17.489 -0.2658  0.5601 -0.6564
  584TMC3     O 8714   0.461   3.448  17.598 -0.1844  0.0466 -0.1757
  584TMC3     H 8715   0.403   3.733  17.360 -1.6677  0.8127 -1.1653
  584TMC3    H1 8716   0.228   3.472  17.648  2.3894  0.5685  0.5894
  584TMC3    H2 8717   0.046   3.854  17.558 -1.8894 -1.4755  1.6224
  584TMC3    C7 8718   0.017   3.601  17.696 -0.5110  0.1626  0.0989
  584TMC3    C8 8719   0.228   3.927  17.396  0.6767  0.3002  0.3304
  584TMC3    O1 8720   0.032   3.483  17.723 -0.6061 -0.1776 -0.2216
  584TMC3    O2 8721   0.127   3.993  17.371  0.4815  0.3286 -0.9366
  585MPD2     C 8722   3.876   2.103   0.339 -0.4835  0.2907 -0.0723
  585MPD2    C1 8723   3.977   2.125   0.249  0.5164  0.5423  0.1278
  585MPD2    C2 8724   4.063   2.024   0.216 -0.3432  0.4836 -0.0824
  585MPD2    C3 8725   4.072   1.912   0.299 -0.6520 -0.3762  0.8147
  585MPD2    C4 8726   3.969   1.889   0.392  0.6476 -0.2756 -0.6742
  585MPD2    C5 8727   3.873   1.988   0.412  0.1034  0.7891 -0.2098
  585MPD2     H 8728   4.138   2.035   0.139  0.4275 -1.3047  0.4088
  585MPD2    H1 8729   3.969   1.788   0.433  3.5581 -0.3393 -0.8087
  585MPD2    H2 8730   3.794   2.172   0.358 -1.2805  0.0479 -2.5438
  585MPD2    H3 8731   3.800   1.986   0.492  0.7375  1.7331  0.3893
  585MPD2     N 8732   4.181   1.820   0.294  0.0280  0.5689  0.1131
  585MPD2    H5 8733   4.177   1.735   0.349 -0.7274  0.0600 -0.7160
  585MPD2    N1 8734   3.977   2.256   0.188 -0.9756  0.0258  0.5826
  585MPD2    H7 8735   3.909   2.325   0.219 -0.8484 -0.8913  2.8955
  586TMC3    C1 8736   4.411   1.764   0.257 -1.0410 -0.0082  0.5688
  586TMC3    C2 8737   4.530   1.814   0.209  0.0461 -0.0034  0.3163
  586TMC3    C3 8738   4.632   1.724   0.200 -0.5451  0.5685  0.1875
  586TMC3    C4 8739   4.382   1.628   0.271 -0.4862  0.1606 -0.1043
  586TMC3    C5 8740   4.487   1.538   0.248  0.4640  1.0914  0.1279
  586TMC3    C6 8741   4.608   1.593   0.224 -0.0320  0.1111  1.1033
  586TMC3     C 8742   4.300   1.855   0.238  0.1033  0.3229  0.6779
  586TMC3     O 8743   4.336   1.960   0.186  0.3078  0.3675 -1.0597
  586TMC3     H 8744   4.549   1.920   0.219  0.8784  0.1134 -2.4599
  586TMC3    H1 8745   4.285   1.584   0.290 -1.5549  2.5065 -0.1341
  586TMC3    H2 8746   4.688   1.520   0.214 -1.0516 -0.6289 -1.6794
  586TMC3    C7 8747   4.437   1.441   0.155 -0.1464  0.5656 -0.3147
  586TMC3    C8 8748   4.714   1.729   0.082 -0.7484  0.6113  0.7415
  586TMC3    O1 8749   4.329   1.390   0.186 -0.4145  0.2982 -0.2531
  586TMC3    O2 8750   0.046   1.630   0.051 -0.2773  0.6137  0.3211
  587TMC3    C1 8751   1.886   1.226  16.115 -0.4293 -0.7042  0.0537
  587TMC3    C2 8752   1.904   1.233  16.251 -0.1095  0.1858 -0.0333
  587TMC3    C3 8753   2.027   1.190  16.299 -0.6588 -0.2508 -0.0852
  587TMC3    C4 8754   1.971   1.154  16.033  0.3965 -0.8162 -0.5666
  587TMC3    C5 8755   2.076   1.089  16.083 -0.0496  0.4866  0.3336
  587TMC3    C6 8756   2.109   1.120  16.211  0.1718  0.8979  0.3867
  587TMC3     C 8757   1.749   1.236  16.075 -0.8413 -0.3032 -0.0260
  587TMC3     O 8758   1.733   1.266  15.952 -0.0719 -0.4065 -0.4161
  587TMC3     H 8759   1.832   1.290  16.309 -0.3182  1.9577 -2.0341
  587TMC3    H1 8760   1.950   1.134  15.928  1.5102 -0.0141 -0.9352
  587TMC3    H2 8761   2.188   1.064  16.260  2.0175  2.6408 -0.6600
  587TMC3    C7 8762   2.114   0.962  16.029  0.1076  0.0800  0.2675
  587TMC3    C8 8763   2.074   1.198  16.436 -1.1184 -0.3498 -0.5733
  587TMC3    O1 8764   2.033   0.905  15.958  0.0884  0.3170 -0.1485
  587TMC3    O2 8765   2.148   1.110  16.481  0.1306 -0.1818 -0.5172
  588TMC3    C1 8766   4.202   3.731  10.359 -0.4006 -0.1372  0.1241
  588TMC3    C2 8767   4.119   3.628  10.395 -0.2842 -0.2726 -0.2266
  588TMC3    C3 8768   4.170   3.533  10.474 -0.4543 -0.0688 -0.6677
  588TMC3    C4 8769   4.335   3.734  10.389 -0.4527  0.1906 -0.3247
  588TMC3    C5 8770   4.384   3.628  10.464  0.3124 -0.1387 -0.2419
  588TMC3    C6 8771   4.304   3.531  10.506  0.3070  0.3842 -0.2377
  588TMC3     C 8772   4.145   3.839  10.292  0.4869  0.7835 -0.0173
  588TMC3     O 8773   4.043   3.818  10.234  0.1983 -0.0003 -0.2001
  588TMC3     H 8774   4.013   3.613  10.377  0.1467 -3.1967 -0.4105
  588TMC3    H1 8775   4.406   3.797  10.336  0.5849 -1.9162 -1.4504
  588TMC3    H2 8776   4.346   3.456  10.572  2.8498  2.5610  0.6427
  588TMC3    C7 8777   4.468   3.679  10.571  0.4817 -0.0100  0.1762
  588TMC3    C8 8778   4.083   3.430  10.508 -0.9519 -0.6430 -0.7760
  588TMC3    O1 8779   4.494   3.606  10.666 -0.3046  0.2296  0.0966
  588TMC3    O2 8780   4.013   3.456  10.604 -0.0091 -0.0744  0.3112
  589TMC3    C1 8781   4.278   0.779   1.087  0.7865  0.1328  0.0752
  589TMC3    C2 8782   4.389   0.797   1.166  0.1012  0.0583  0.2396
  589TMC3    C3 8783   4.483   0.692   1.171 -0.6937 -0.0463  0.9146
  589TMC3    C4 8784   4.242   0.662   1.035  0.0044 -0.0950  0.2235
  589TMC3    C5 8785   4.333   0.558   1.050  0.2329 -0.3238  0.2211
  589TMC3    C6 8786   4.457   0.571   1.113 -0.7708  0.1849  0.5960
  589TMC3     C 8787   4.177   0.878   1.109  0.8094 -0.0100 -0.2625
  589TMC3     O 8788   4.062   0.836   1.103 -0.0570 -0.5985 -0.5501
  589TMC3     H 8789   4.418   0.882   1.227 -2.8323  1.0058  0.3134
  589TMC3    H1 8790   4.148   0.640   0.985  0.6554 -1.0700 -0.5727
  589TMC3    H2 8791   4.515   0.483   1.139 -0.1892  0.6911  1.0275
  589TMC3    C7 8792   4.289   0.423   1.004  0.3303 -0.3673 -1.4146
  589TMC3    C8 8793   4.599   0.717   1.254  0.1546  0.3044  0.7034
  589TMC3    O1 8794   4.168   0.410   0.989 -0.3593 -0.1890 -0.3497
  589TMC3    O2 8795   4.596   0.806   1.339 -0.0354 -0.3823  0.0640
  590MPD2     C 8796   2.957   3.950  16.696  1.1403 -0.7704  0.2618
  590MPD2    C1 8797   2.934   4.085  16.706 -1.0877 -0.0248 -0.3723
  590MPD2    C2 8798   3.038   4.177  16.668  1.0081 -0.2135 -0.2384
  590MPD2    C3 8799   3.152   4.137  16.607 -0.4474 -0.2616  0.2266
  590MPD2    C4 8800   3.169   4.001  16.596 -0.5993  0.1078  0.1145
  590MPD2    C5 8801   3.070   3.908  16.640  0.2446 -0.1358 -0.5043
  590MPD2     H 8802   3.015   4.283  16.669 -0.2101 -0.4620 -0.9121
  590MPD2    H1 8803   3.256   3.961  16.544 -2.3719  0.5639 -3.1671
  590MPD2    H2 8804   2.874   3.884  16.720  1.3483 -0.8493  0.7843
  590MPD2    H3 8805   3.081   3.803  16.618  1.0951  0.3590 -2.4054
  590MPD2     N 8806   3.239   4.239  16.560  0.5309  0.3966 -0.1689
  590MPD2    H5 8807   3.211   4.336  16.564  2.2544  0.9281 -0.8262
  590MPD2    N1 8808   2.809   4.119  16.746  0.4400  0.0291 -1.4533
  590MPD2    H7 8809   2.727   4.059  16.750  0.4769  0.1399  0.9045
  591TMC3    C1 8810   3.420   4.319  16.418 -0.2040  0.4550 -0.1904
  591TMC3    C2 8811   3.544   4.299  16.368  0.0340  0.3646 -0.4588
  591TMC3    C3 8812   3.599   4.377  16.270  0.4493 -0.6029  0.2439
  591TMC3    C4 8813   3.339   4.411  16.358 -0.1591  0.6685  0.6913
  591TMC3    C5 8814   3.389   4.479  16.247  0.5233  0.0874  0.4144
  591TMC3    C6 8815   3.515   4.460  16.195  0.0481 -0.3684  0.4202
  591TMC3     C 8816   3.355   4.214  16.493 -0.6364 -0.7164  0.1215
  591TMC3     O 8817   3.418   4.110  16.488 -0.2024 -0.7669 -0.1179
  591TMC3     H 8818   3.607   4.236  16.430  0.3297  1.2030  0.0996
  591TMC3    H1 8819   3.235   4.418  16.387 -0.8356  1.4353 -1.9014
  591TMC3    H2 8820   3.547   4.518  16.109  3.0770 -4.4414 -1.1605
  591TMC3    C7 8821   3.293   4.556  16.166 -0.0323  0.4931  0.1674
  591TMC3    C8 8822   3.716   4.326  16.211 -0.3176  0.0693 -0.7755
  591TMC3    O1 8823   3.175   4.540  16.206  0.0914  0.6790 -0.7154
  591TMC3    O2 8824   3.760   4.216  16.241  0.0043  0.3859  0.2796
  592MPD2     C 8825   3.154   1.399  11.285 -0.0413  0.3983 -0.1505
  592MPD2    C1 8826   3.178   1.446  11.409 -0.6547  0.1974 -0.8648
  592MPD2    C2 8827   3.128   1.360  11.509 -0.7819 -0.3964  0.7862
  592MPD2    C3 8828   3.064   1.238  11.485  0.7622  0.1618  0.3311
  592MPD2    C4 8829   3.055   1.190  11.355  0.7002 -0.1449  0.6485
  592MPD2    C5 8830   3.097   1.277  11.255 -0.8363 -0.0156  0.4749
  592MPD2     H 8831   3.132   1.396  11.611  0.5741 -0.8505  0.8988
  592MPD2    H1 8832   3.021   1.092  11.324  1.0457  0.4377 -1.5496
  592MPD2    H2 8833   3.194   1.457  11.203  2.6979  1.5756  2.0178
  592MPD2    H3 8834   3.079   1.243  11.154  0.0425  0.4383  0.1697
  592MPD2     N 8835   3.008   1.170  11.596 -0.1916  0.3396 -0.8430
  592MPD2    H5 8836   3.038   1.191  11.691  0.9286  1.9566 -1.5506
  592MPD2    N1 8837   3.222   1.579  11.416  0.6008 -0.8313  0.3484
  592MPD2    H7 8838   3.240   1.627  11.328  0.8940 -1.5352  0.0265
  593TMC3    C1 8839   3.320   1.758  11.532 -0.2285  0.5869 -0.6642
  593TMC3    C2 8840   3.303   1.844  11.636  0.3731  0.5048  0.3548
  593TMC3    C3 8841   3.359   1.967  11.626 -0.0054 -0.2104  0.2532
  593TMC3    C4 8842   3.403   1.783  11.427  0.1895  0.1956 -0.3128
  593TMC3    C5 8843   3.467   1.906  11.430  1.0543  0.9062  0.3273
  593TMC3    C6 8844   3.453   1.996  11.527  0.2281  0.0910  0.1150
  593TMC3     C 8845   3.247   1.632  11.542 -1.1280  0.4323 -0.4784
  593TMC3     O 8846   3.225   1.589  11.656 -0.0274  0.5171  0.1780
  593TMC3     H 8847   3.226   1.824  11.710 -0.4496 -1.0705 -0.9445
  593TMC3    H1 8848   3.429   1.706  11.355 -0.1363  0.2976 -0.5412
  593TMC3    H2 8849   3.490   2.098  11.518  0.9353 -0.0598  1.3228
  593TMC3    C7 8850   3.558   1.957  11.327 -0.1805 -0.3671  0.1621
  593TMC3    C8 8851   3.370   2.038  11.755 -0.0461 -0.6556 -0.9241
  593TMC3    O1 8852   3.634   2.049  11.351 -0.1386  0.1599  0.2061
  593TMC3    O2 8853   3.275   2.018  11.832  0.4116  0.1949 -0.4748
  594MPD2     C 8854   1.974   4.573  14.055  0.2332 -0.3168  0.4410
  594MPD2    C1 8855   2.008   4.640  14.171  0.3264 -0.1308  0.8019
  594MPD2    C2 8856   2.115   4.728  14.165  0.2946  0.2247 -0.3273
  594MPD2    C3 8857   2.182   0.018  14.045 -0.4854  0.0220  0.5625
  594MPD2    C4 8858   2.145   4.682  13.937 -0.1132 -0.0424 -0.4456
  594MPD2    C5 8859   2.040   4.595  13.942 -0.0672  0.0701  0.3904
  594MPD2     H 8860   2.136   0.047  14.256  0.5271 -1.2265  0.5241
  594MPD2    H1 8861   2.181   4.694  13.835 -0.4669 -0.0595 -0.5745
  594MPD2    H2 8862   1.900   4.494  14.052 -2.3289  2.1199  0.2490
  594MPD2    H3 8863   2.011   4.538  13.854 -2.2946 -1.2080  1.9513
  594MPD2     N 8864   2.282   0.117  14.050 -0.5644 -0.4320 -0.1875
  594MPD2    H5 8865   2.313   0.153  14.140 -2.0770  0.9973 -0.2331
  594MPD2    N1 8866   1.920   4.623  14.285 -0.2333  0.3635 -0.3867
  594MPD2    H7 8867   1.831   4.575  14.278 -1.2149  2.2052 -0.4257
  595TMC3    C1 8868   2.667   0.338  14.020 -0.3827  0.5008 -0.2223
  595TMC3    C2 8869   2.581   0.264  13.941 -0.6170 -0.4960  0.5703
  595TMC3    C3 8870   2.451   0.270  13.979 -0.7030  0.2627  0.1658
  595TMC3    C4 8871   2.624   0.417  14.126  0.1569 -0.5364  0.4596
  595TMC3    C5 8872   2.492   0.424  14.142 -0.0684 -0.2674  0.5165
  595TMC3    C6 8873   2.404   0.351  14.075 -0.3535 -0.0120  0.0230
  595TMC3     C 8874   2.812   0.315  14.018 -0.3331  0.1070 -0.0899
  595TMC3     O 8875   2.875   0.380  14.098 -0.7422  0.1583 -0.7951
  595TMC3     H 8876   2.617   0.194  13.867  2.8941  0.3878  1.4175
  595TMC3    H1 8877   2.683   0.495  14.171  1.5766  0.0166 -2.3490
  595TMC3    H2 8878   2.297   0.359  14.084 -0.2860  0.2013  0.6150
  595TMC3    C7 8879   2.445   0.473  14.269  0.2546 -0.0066  0.8059
  595TMC3    C8 8880   2.364   0.156  13.945  0.0490 -0.7798 -0.4056
  595TMC3    O1 8881   2.333   0.528  14.269 -0.3614 -0.5026  0.0114
  595TMC3    O2 8882   2.375   0.111  13.837  0.2706  0.3779  0.5025
  596MPD2     C 8883   1.611   3.171  16.941 -0.6940 -0.1304 -0.1025
  596MPD2    C1 8884   1.607   3.279  16.857  0.1362  0.4285  0.3536
  596MPD2    C2 8885   1.616   3.247  16.726  0.0394  0.4633 -0.2547
  596MPD2    C3 8886   1.634   3.118  16.678  0.4352  0.5036 -0.2133
  596MPD2    C4 8887   1.642   3.013  16.758 -0.1889  0.0117 -0.5598
  596MPD2    C5 8888   1.621   3.040  16.892 -0.8176  0.1003  0.0945
  596MPD2     H 8889   1.587   3.320  16.651  1.4402  0.1196 -1.1314
  596MPD2    H1 8890   1.646   2.912  16.719  0.0973  0.1053 -0.7700
  596MPD2    H2 8891   1.615   3.179  17.049  0.5633  0.1030 -0.1711
  596MPD2    H3 8892   1.615   2.955  16.959 -3.4555 -1.3416 -1.9730
  596MPD2     N 8893   1.610   3.094  16.544  0.3776 -0.2880  0.9712
  596MPD2    H5 8894   1.576   2.999  16.528  1.1426 -0.1677 -1.2961
  596MPD2    N1 8895   1.587   3.413  16.904  0.0077 -0.2813 -0.4781
  596MPD2    H7 8896   1.588   3.485  16.832  0.1393  0.6624  0.4802
  597TMC3    C1 8897   1.560   3.587  17.059  0.1739 -0.1309 -1.0255
  597TMC3    C2 8898   1.585   3.683  16.962  0.8386  0.5259 -0.5470
  597TMC3    C3 8899   1.509   3.797  16.950 -0.2096  0.2617 -0.5918
  597TMC3    C4 8900   1.467   3.619  17.160 -0.4279  0.8092 -0.0797
  597TMC3    C5 8901   1.393   3.735  17.153 -0.2332 -0.1909  0.5162
  597TMC3    C6 8902   1.409   3.823  17.042  0.5947  0.0142  0.4374
  597TMC3     C 8903   1.568   3.445  17.038 -0.2677 -0.2577 -0.6983
  597TMC3     O 8904   1.537   3.371  17.130 -0.1681 -0.4432  0.4275
  597TMC3     H 8905   1.654   3.661  16.881  1.8828 -2.3440  1.1391
  597TMC3    H1 8906   1.441   3.544  17.233 -0.8119  1.7417  0.7483
  597TMC3    H2 8907   1.360   3.920  17.037  0.4080 -0.1091 -0.0707
  597TMC3    C7 8908   1.276   3.756  17.246 -0.2200 -0.0200  0.4478
  597TMC3    C8 8909   1.509   3.875  16.831  0.1689 -0.0676 -0.5175
  597TMC3    O1 8910   1.285   3.674  17.337 -0.3636  0.4518  0.2975
  597TMC3    O2 8911   1.410   3.936  16.805  0.7016  0.1824 -0.3378
  598TMC3    C1 8912   4.427   4.483  15.178  0.2206  0.3003 -0.0971
  598TMC3    C2 8913   4.302   4.439  15.210 -0.9281 -0.1666  0.4232
  598TMC3    C3 8914   4.198   4.508  15.148 -0.1054  0.2993 -0.4872
  598TMC3    C4 8915   4.453   4.600  15.116  0.7524  0.9108 -0.8151
  598TMC3    C5 8916   4.339   4.674  15.078 -0.2388  0.0088 -0.8567
  598TMC3    C6 8917   4.215   4.628  15.088  0.0013  0.2903  0.0596
  598TMC3     C 8918   4.546   4.418  15.237  0.3137  0.4599 -0.1632
  598TMC3     O 8919   4.651   4.470  15.203  0.3912 -0.1110 -0.3138
  598TMC3     H 8920   4.274   4.350  15.265 -1.1622 -0.9876 -1.0162
  598TMC3    H1 8921   4.551   4.626  15.077  0.9342  3.1379  1.1112
  598TMC3    H2 8922   4.135   4.688  15.047  0.8851  1.3849 -0.0493
  598TMC3    C7 8923   4.363   0.036  14.971 -0.9262 -0.1146  0.0328
  598TMC3    C8 8924   4.055   4.481  15.161  0.1105 -0.0879  0.2943
  598TMC3    O1 8925   4.264   0.075  14.914  0.4148 -0.3666  0.3055
  598TMC3    O2 8926   3.972   4.551  15.105  0.2727  0.4708 -0.0379
  599MPD2     C 8927   4.430   2.074  15.658  0.2825  0.3286  0.2655
  599MPD2    C1 8928   4.377   1.955  15.714 -0.1252  0.3644 -0.1201
  599MPD2    C2 8929   4.263   1.963  15.792 -0.4183  0.2437  0.2622
  599MPD2    C3 8930   4.205   2.091  15.819  0.9091 -0.0359 -0.2576
  599MPD2    C4 8931   4.252   2.201  15.753  0.5453  0.0258 -0.5127
  599MPD2    C5 8932   4.370   2.197  15.681 -0.2141 -0.6655 -0.1351
  599MPD2     H 8933   4.223   1.873  15.838 -0.8738  1.0698  1.5186
  599MPD2    H1 8934   4.205   2.298  15.766 -0.5508 -1.0180  3.0127
  599MPD2    H2 8935   4.522   2.065  15.603 -0.8395 -0.2687 -1.5129
  599MPD2    H3 8936   4.404   2.291  15.638 -1.0935 -0.3404 -0.1316
  599MPD2     N 8937   4.104   2.119  15.915  0.1211  0.0678 -0.5664
  599MPD2    H5 8938   4.092   2.217  15.939 -1.6981  0.3572 -2.6692
  599MPD2    N1 8939   4.451   1.839  15.691  0.5368 -0.5629 -0.0825
  599MPD2    H7 8940   4.546   1.861  15.665  0.8949  0.7027  2.3381
  600TMC3    C1 8941   3.974   2.067  16.111  0.1199 -0.0898  0.0326
  600TMC3    C2 8942   3.888   1.971  16.175  0.2087  0.1207 -0.4841
  600TMC3    C3 8943   3.863   1.992  16.306  0.3375 -0.4257  0.1094
  600TMC3    C4 8944   4.029   2.174  16.180 -0.4137 -0.7890  0.1816
  600TMC3    C5 8945   4.001   2.184  16.312  0.2037  0.6060 -0.6126
  600TMC3    C6 8946   3.917   2.101  16.374 -0.4083  0.0972 -0.6817
  600TMC3     C 8947   4.052   2.019  15.993 -0.4255  0.5041 -0.7627
  600TMC3     O 8948   4.084   1.901  16.008  0.1932 -0.5210  0.8310
  600TMC3     H 8949   3.866   1.878  16.124  0.4980 -0.3730  0.3013
  600TMC3    H1 8950   4.106   2.228  16.126 -0.9013  0.3964  0.6916
  600TMC3    H2 8951   3.880   2.123  16.474 -1.5845  2.0173 -1.5342
  600TMC3    C7 8952   4.062   2.292  16.387  0.4980  0.6356  0.3517
  600TMC3    C8 8953   3.764   1.908  16.378 -0.0435 -0.1362 -0.3949
  600TMC3    O1 8954   4.078   2.399  16.333 -0.1006  0.2476 -0.5336
  600TMC3    O2 8955   3.759   1.929  16.500  0.0583 -0.0664 -0.0733
  601MPD2     C 8956   2.330   0.737   0.189  0.5575 -0.6071  0.6598
  601MPD2    C1 8957   2.245   0.651   0.119  0.2021  0.0153  0.2765
  601MPD2    C2 8958   2.237   0.517   0.153  0.5066 -0.0261 -0.1393
  601MPD2    C3 8959   2.319   0.472   0.252  0.2700  0.5968 -0.8695
  601MPD2    C4 8960   2.400   0.564   0.328  0.2240 -0.2434 -0.8729
  601MPD2    C5 8961   2.393   0.694   0.299 -0.0319 -0.6820  0.0376
  601MPD2     H 8962   2.151   0.463   0.113 -0.0659  1.1852 -0.5453
  601MPD2    H1 8963   2.461   0.518   0.405 -4.1077 -1.5959  1.7967
  601MPD2    H2 8964   2.348   0.843   0.174  0.7264 -1.0873 -2.6877
  601MPD2    H3 8965   2.456   0.765   0.352 -2.3053  1.9497 -0.8085
  601MPD2     N 8966   2.326   0.341   0.295 -0.1102  0.0703 -0.0495
  601MPD2    H5 8967   2.369   0.316   0.384 -0.1819  0.3229  0.0541
  601MPD2    N1 8968   2.144   0.700   0.037 -0.5562 -0.6138 -0.4071
  601MPD2    H7 8969   2.082   0.627   0.003  0.9347 -2.0756  0.0462
  602TMC3    C1 8970   2.013   0.849  17.652  0.2646 -0.5160  0.1889
  602TMC3    C2 8971   1.923   0.953  17.667 -0.6483 -0.8584  0.8343
  602TMC3    C3 8972   1.843   0.986  17.561  0.0964  0.7226  0.3324
  602TMC3    C4 8973   2.036   0.774  17.535  0.3705 -0.0755 -0.3602
  602TMC3    C5 8974   1.952   0.814  17.433 -0.3134  0.7850 -0.3145
  602TMC3    C6 8975   1.863   0.918  17.444 -0.3708 -0.2673 -0.4117
  602TMC3     C 8976   2.121   0.832   0.002  0.6518  0.2646 -0.3574
  602TMC3     O 8977   2.163   0.934   0.051 -0.1061 -0.5296 -0.1446
  602TMC3     H 8978   1.904   1.004   0.013  1.2772  2.2162 -0.4285
  602TMC3    H1 8979   2.091   0.681  17.544  0.0469 -0.1798  0.5185
  602TMC3    H2 8980   1.804   0.950  17.358 -1.0231  0.0947  0.1683
  602TMC3    C7 8981   1.960   0.739  17.306  0.1967 -0.3756 -0.0153
  602TMC3    C8 8982   1.703   1.032  17.589  0.2727  0.2272  0.2031
  602TMC3    O1 8983   2.071   0.724  17.250  0.1190 -1.1675  0.7186
  602TMC3    O2 8984   1.694   1.115  17.677 -0.6476  0.1879 -0.1071
  603TMC3    C1 8985   0.149   1.164  11.426  0.1049  0.3597 -0.3719
  603TMC3    C2 8986   0.094   1.133  11.546 -0.1233 -0.0841  0.1594
  603TMC3    C3 8987   4.714   1.195  11.576 -0.2719  0.0375  0.4827
  603TMC3    C4 8988   0.099   1.258  11.345  0.3344  0.1872  0.1884
  603TMC3    C5 8989   4.720   1.314  11.374 -0.3685 -0.1254 -0.9792
  603TMC3    C6 8990   4.643   1.271  11.486 -0.7199  0.3213 -0.6377
  603TMC3     C 8991   0.269   1.098  11.373  0.2047 -0.3502 -0.4227
  603TMC3     O 8992   0.323   1.150  11.277  0.1382  0.2392  0.2745
  603TMC3     H 8993   0.156   1.079  11.616 -3.2044 -0.1079  2.8455
  603TMC3    H1 8994   0.166   1.303  11.272 -2.0516  1.3927 -1.2658
  603TMC3    H2 8995   4.547   1.318  11.505 -2.1079 -1.3704 -3.3974
  603TMC3    C7 8996   4.658   1.388  11.263  0.5620 -0.1867 -0.1889
  603TMC3    C8 8997   4.645   1.139  11.693  0.4577 -0.1041 -0.1712
  603TMC3    O1 8998   4.727   1.429  11.171 -0.1257  0.4606 -1.0679
  603TMC3    O2 8999   4.698   1.045  11.749  0.1350 -0.1310  0.1335
  604MPD2     C 9000   0.357   3.879  16.493  0.7706 -0.1815 -0.6284
  604MPD2    C1 9001   0.311   3.991  16.429 -0.1989 -0.0197  0.2141
  604MPD2    C2 9002   0.322   4.002  16.290 -0.0163 -0.8700  0.2106
  604MPD2    C3 9003   0.405   3.912  16.230 -0.2841  1.2752 -0.0529
  604MPD2    C4 9004   0.456   3.803  16.294 -0.2545 -0.0209  0.1964
  604MPD2    C5 9005   0.425   3.777  16.426  0.1865 -0.5466  0.2896
  604MPD2     H 9006   0.294   4.082  16.222 -1.0400 -0.8436  0.6741
  604MPD2    H1 9007   0.501   3.725  16.234  1.4698  2.3930 -1.6604
  604MPD2    H2 9008   0.342   3.852  16.597 -1.2026 -0.0404 -0.8653
  604MPD2    H3 9009   0.459   3.691  16.483 -0.0335 -0.6001  0.3383
  604MPD2     N 9010   0.442   3.944  16.097  0.1015 -0.1701  0.1623
  604MPD2    H5 9011   0.399   4.028  16.061 -1.0996 -0.4469  0.9393
  604MPD2    N1 9012   0.235   4.078  16.507 -0.1167 -0.6512  0.4875
  604MPD2    H7 9013   0.228   4.059  16.607  1.4886  2.0737  1.1156
  605TMC3    C1 9014   0.133   4.290  16.562  0.4813 -0.5059 -0.3908
  605TMC3    C2 9015   0.200   4.291  16.680  0.0290  0.2451  0.5452
  605TMC3    C3 9016   0.195   4.397  16.768 -0.0307  0.3631 -0.1107
  605TMC3    C4 9017   0.062   4.403  16.525 -0.1633  0.8026  0.2703
  605TMC3    C5 9018   0.054   4.510  16.613  0.0919 -0.3987 -0.5762
  605TMC3    C6 9019   0.118   4.508  16.728  0.4277 -0.2738  0.2036
  605TMC3     C 9020   0.162   4.183  16.462 -0.7267  0.2804 -0.4497
  605TMC3     O 9021   0.126   4.207  16.349 -0.1686  0.5376  0.2107
  605TMC3     H 9022   0.254   4.206  16.720 -2.4073 -1.7502 -0.4520
  605TMC3    H1 9023   4.728   4.396  16.444 -1.0488 -0.4278  1.1797
  605TMC3    H2 9024   0.110   4.595  16.792  2.4775  1.1579 -1.4937
  605TMC3    C7 9025   4.689   4.614  16.600  0.0807  0.8099 -0.4241
  605TMC3    C8 9026   0.325   4.440  16.812  0.0131  0.3903  0.1291
  605TMC3    O1 9027   4.652   4.670  16.703 -0.1522  0.0458  0.2214
  605TMC3    O2 9028   0.356   4.554  16.791  0.1336 -0.3271  0.0801
  606TMC3    C1 9029   1.497   3.428  17.484  0.3198 -0.1048 -0.2848
  606TMC3    C2 9030   1.600   3.496  17.524 -0.8006 -0.0680  0.2222
  606TMC3    C3 9031   1.727   3.457  17.486 -0.5737  0.2270 -0.0071
  606TMC3    C4 9032   1.506   3.312  17.423  0.3229  0.4056  0.3465
  606TMC3    C5 9033   1.636   3.269  17.389 -0.0002 -0.1001 -0.5813
  606TMC3    C6 9034   1.746   3.343  17.419  0.7328  0.0231 -0.1699
  606TMC3     C 9035   1.389   3.432  17.587  0.0197 -0.0810 -0.1346
  606TMC3     O 9036   1.330   3.326  17.616 -0.0434  0.3032  0.2739
  606TMC3     H 9037   1.579   3.581  17.588 -3.2499 -1.0315  0.6871
  606TMC3    H1 9038   1.413   3.268  17.388  0.2792 -1.1906  2.4498
  606TMC3    H2 9039   1.847   3.309  17.401  0.6221  0.6161 -1.9004
  606TMC3    C7 9040   1.650   3.131  17.347 -0.1057 -0.5177  0.8945
  606TMC3    C8 9041   1.841   3.505  17.563 -0.8615 -0.2497 -0.0531
  606TMC3    O1 9042   1.767   3.102  17.315  0.0830 -0.6545 -0.1417
  606TMC3    O2 9043   1.951   3.491  17.512  0.6101  0.3303 -0.6217
  607MPD2     C 9044   3.180   0.725  11.611 -0.0193  0.5085 -0.0206
  607MPD2    C1 9045   3.239   0.802  11.700 -0.1987  0.4339  0.5028
  607MPD2    C2 9046   3.227   0.779  11.831 -0.0936  0.1199  0.5062
  607MPD2    C3 9047   3.146   0.681  11.877  0.8432  0.3175 -0.2356
  607MPD2    C4 9048   3.079   0.604  11.782 -0.5502  0.4966  0.6495
  607MPD2    C5 9049   3.103   0.623  11.652 -0.8642  0.0468 -0.5212
  607MPD2     H 9050   3.270   0.847  11.903  0.6626  0.1847 -0.0105
  607MPD2    H1 9051   3.006   0.530  11.813 -2.8335  3.7719  3.1641
  607MPD2    H2 9052   3.200   0.744  11.507 -1.8782 -0.0859 -0.4856
  607MPD2    H3 9053   3.052   0.572  11.571 -2.0075 -0.8385  0.7513
  607MPD2     N 9054   3.127   0.675  12.019 -0.4083 -0.3628 -0.5353
  607MPD2    H5 9055   3.165   0.753  12.072 -2.0511 -0.0939  0.2473
  607MPD2    N1 9056   3.302   0.931  11.673 -0.5445 -0.0351  0.1741
  607MPD2    H7 9057   3.358   0.967  11.749 -0.0758  2.9945 -1.5854
  608TMC3    C1 9058   3.396   1.113  11.584 -0.0747 -0.5187 -0.1802
  608TMC3    C2 9059   3.379   1.175  11.702  0.3890 -0.7015  0.5196
  608TMC3    C3 9060   3.458   1.286  11.726 -0.6003  0.9216  0.0809
  608TMC3    C4 9061   3.490   1.154  11.491  0.2977 -0.9981 -0.7524
  608TMC3    C5 9062   3.563   1.268  11.510  0.4872  0.0860 -0.1410
  608TMC3    C6 9063   3.550   1.334  11.637 -0.3057  0.4544 -0.1285
  608TMC3     C 9064   3.322   0.988  11.552 -0.2139  0.1965 -0.2595
  608TMC3     O 9065   3.311   0.944  11.440  0.0474 -0.0181  0.1750
  608TMC3     H 9066   3.307   1.142  11.777 -0.8601  2.1172  0.5581
  608TMC3    H1 9067   3.492   1.102  11.396  0.8772  1.6784 -2.2007
  608TMC3    H2 9068   3.611   1.420  11.661 -0.8536  0.8958 -0.3217
  608TMC3    C7 9069   3.666   1.294  11.419  0.3670  0.2297  0.3665
  608TMC3    C8 9070   3.462   1.342  11.861 -0.1638 -0.2384  0.2024
  608TMC3    O1 9071   3.643   1.283  11.301 -0.3167  0.2292 -0.0889
  608TMC3    O2 9072   3.512   1.454  11.881 -0.3301 -0.2705 -0.0098
  609TMC3    C1 9073   1.826   0.041   9.533 -0.3056 -0.2788  0.3655
  609TMC3    C2 9074   1.729   4.735   9.447  0.4083 -1.0046  0.2440
  609TMC3    C3 9075   1.771   4.658   9.338 -0.7020  0.6272  0.9751
  609TMC3    C4 9076   1.963   0.032   9.506  0.1192 -0.5104 -0.1257
  609TMC3    C5 9077   1.999   4.701   9.388  0.6337  0.1128  0.2631
  609TMC3    C6 9078   1.906   4.638   9.315  0.2483  0.0529 -0.3807
  609TMC3     C 9079   1.781   0.148   9.615  0.0288  0.2650 -0.1855
  609TMC3     O 9080   1.666   0.145   9.658 -0.4892 -0.1134  0.1536
  609TMC3     H 9081   1.630   0.040   9.451  1.6775  2.1836 -2.0518
  609TMC3    H1 9082   2.034   0.037   9.587  1.2402 -0.2139 -1.1237
  609TMC3    H2 9083   1.930   4.572   9.233  0.2709 -1.4348  0.8255
  609TMC3    C7 9084   2.149   4.687   9.378  0.0394 -0.0907 -0.4789
  609TMC3    C8 9085   1.675   4.599   9.244  0.1838 -0.2178 -0.5878
  609TMC3    O1 9086   2.219   4.724   9.473 -0.2924 -0.0391  0.1309
  609TMC3    O2 9087   1.717   4.555   9.138  0.2765  0.5110  0.1512
  610TMC3    C1 9088   4.190   1.153  12.565 -0.0737  0.2139 -0.1883
  610TMC3    C2 9089   4.167   1.018  12.553  0.2841  1.0236  0.8511
  610TMC3    C3 9090   4.217   0.930  12.644  0.4416 -0.2746  0.0395
  610TMC3    C4 9091   4.265   1.197  12.671 -0.2163 -0.3795 -0.4418
  610TMC3    C5 9092   4.314   1.103  12.760  0.0774  0.1640 -0.0718
  610TMC3    C6 9093   4.302   0.971  12.739 -0.4348  0.8216 -0.8166
  610TMC3     C 9094   4.121   1.254  12.486  0.5404 -0.6293 -0.5801
  610TMC3     O 9095   4.132   1.374  12.520  0.0976  0.0736  0.4431
  610TMC3     H 9096   4.102   0.970  12.481 -0.8582  0.2026  2.4191
  610TMC3    H1 9097   4.280   1.304  12.683 -1.3934 -0.1987 -0.5824
  610TMC3    H2 9098   4.333   0.898  12.814  2.3166  1.3605 -1.4206
  610TMC3    C7 9099   4.439   1.135  12.832 -0.5291  0.9693  0.4161
  610TMC3    C8 9100   4.259   0.814  12.580  0.1393 -0.2800 -0.8555
  610TMC3    O1 9101   4.498   1.039  12.882 -0.2046 -0.1855 -0.1921
  610TMC3    O2 9102   4.182   0.722  12.573 -0.2527 -0.0939  0.7441
  611MPD2     C 9103   3.246   1.289  10.537 -0.8456 -0.2525  0.0780
  611MPD2    C1 9104   3.294   1.162  10.515 -0.0202  0.1596 -0.0905
  611MPD2    C2 9105   3.401   1.103  10.590 -0.2453  0.3876  0.1146
  611MPD2    C3 9106   3.457   1.185  10.688  0.4552  0.7417 -0.0308
  611MPD2    C4 9107   3.410   1.313  10.709 -0.2169 -0.9940  0.5256
  611MPD2    C5 9108   3.303   1.358  10.637  0.3913  0.4554 -0.4994
  611MPD2     H 9109   3.448   1.010  10.561  1.5568  1.1294  0.7079
  611MPD2    H1 9110   3.451   1.370  10.792  0.8908 -1.3664  0.2321
  611MPD2    H2 9111   3.170   1.334  10.473 -0.8641 -0.0198  0.2650
  611MPD2    H3 9112   3.274   1.459  10.662  0.1939  0.3214 -0.1881
  611MPD2     N 9113   3.564   1.148  10.777 -0.1131 -0.5375 -0.2666
  611MPD2    H5 9114   3.608   1.221  10.832  1.7924 -1.8419 -0.0383
  611MPD2    N1 9115   3.227   1.097  10.411 -0.4190 -0.3402 -0.1104
  611MPD2    H7 9116   3.156   1.150  10.362 -1.5218 -1.0235  0.7520
  612TMC3    C1 9117   3.771   1.034  10.820  0.2015  0.4792  0.9043
  612TMC3    C2 9118   3.828   1.158  10.855 -0.0483  0.5275 -0.2940
  612TMC3    C3 9119   3.935   1.152  10.936  0.9546  0.7783  0.4034
  612TMC3    C4 9120   3.816   0.913  10.868  0.6968 -0.4723  0.2084
  612TMC3    C5 9121   3.923   0.923  10.956 -0.1302  0.5449 -0.2061
  612TMC3    C6 9122   3.992   1.039  10.988 -0.2959 -0.2555 -0.3844
  612TMC3     C 9123   3.631   1.027  10.764  0.3797  0.2758  0.5677
  612TMC3     O 9124   3.592   0.922  10.712 -0.1072 -0.4171 -0.0734
  612TMC3     H 9125   3.790   1.250  10.811  2.0229  1.0516 -1.0108
  612TMC3    H1 9126   3.760   0.822  10.850 -0.3195  0.3570 -0.7724
  612TMC3    H2 9127   4.086   1.039  11.042  0.0220 -2.2324 -0.9162
  612TMC3    C7 9128   3.938   0.800  11.042 -0.7561 -0.0796 -0.2148
  612TMC3    C8 9129   4.017   1.271  10.932  0.1956 -0.2222 -0.0646
  612TMC3    O1 9130   3.861   0.707  11.018  0.0370 -0.1637  0.1319
  612TMC3    O2 9131   4.002   1.340  10.827 -0.3950  0.2079 -0.1032
  613MPD2     C 9132   2.773   3.132  16.853 -0.1859 -0.2571  0.1852
  613MPD2    C1 9133   2.756   3.132  16.716  0.5617  0.3277 -0.3178
  613MPD2    C2 9134   2.660   3.055  16.653  0.5164  0.1800 -0.2457
  613MPD2    C3 9135   2.580   2.968  16.732 -0.9533  0.0557  0.4812
  613MPD2    C4 9136   2.610   2.953  16.864 -0.1630 -0.5292  0.2709
  613MPD2    C5 9137   2.698   3.039  16.927 -0.0003 -0.4359 -0.2486
  613MPD2     H 9138   2.661   3.039  16.546  1.3165  1.3383 -0.4027
  613MPD2    H1 9139   2.554   2.885  16.927  0.9872  0.3116  2.2119
  613MPD2    H2 9140   2.829   3.210  16.904 -1.8909  1.6072 -0.7480
  613MPD2    H3 9141   2.714   3.020  17.032 -1.3648  1.0596  0.2234
  613MPD2     N 9142   2.486   2.869  16.678  0.3189 -0.3670 -0.3626
  613MPD2    H5 9143   2.477   2.781  16.727 -0.2678  0.3262  0.7647
  613MPD2    N1 9144   2.847   3.206  16.639  0.0506  0.1853 -0.6646
  613MPD2    H7 9145   2.920   3.255  16.690 -0.6256 -0.0128  0.4943
  614TMC3    C1 9146   2.965   3.293  16.464  0.3936  0.5110  0.2821
  614TMC3    C2 9147   3.072   3.210  16.485  0.4775  0.3124 -0.0481
  614TMC3    C3 9148   3.167   3.183  16.389  0.7711 -0.5175 -0.1642
  614TMC3    C4 9149   2.950   3.358  16.342 -0.3833  0.1004 -0.2155
  614TMC3    C5 9150   3.050   3.332  16.246  0.0445  0.4859 -0.7415
  614TMC3    C6 9151   3.157   3.256  16.265 -0.5736 -0.2674  0.1591
  614TMC3     C 9152   2.843   3.232  16.508  0.1113  0.1403  0.3265
  614TMC3     O 9153   2.749   3.235  16.430 -0.3160  0.1628 -0.3515
  614TMC3     H 9154   3.086   3.163  16.581 -2.2152 -0.9097 -0.2725
  614TMC3    H1 9155   2.873   3.433  16.334  0.6762  1.2509  0.2971
  614TMC3    H2 9156   3.232   3.248  16.186  0.0768  0.4279  0.7086
  614TMC3    C7 9157   3.036   3.392  16.114  0.1378  1.2832 -0.4598
  614TMC3    C8 9158   3.153   3.041  16.353 -0.1328  0.1780 -0.1990
  614TMC3    O1 9159   3.130   3.407  16.038  0.2388 -0.3033 -0.3201
  614TMC3    O2 9160   3.094   2.981  16.444  0.2208  0.2942  0.1498
  615MPD2     C 9161   2.214   4.549  16.124  0.2406  0.0857  0.3637
  615MPD2    C1 9162   2.159   4.660  16.060 -0.1036 -0.2412 -0.2266
  615MPD2    C2 9163   2.076   4.641  15.953 -0.5591  0.2941  0.2847
  615MPD2    C3 9164   2.070   4.516  15.890  0.0990 -0.0856  0.2233
  615MPD2    C4 9165   2.125   4.407  15.963  0.5253  0.4702  0.5848
  615MPD2    C5 9166   2.192   4.428  16.075  0.1922 -0.2095 -0.3009
  615MPD2     H 9167   2.033   4.725  15.902 -1.3683  0.9319  2.0145
  615MPD2    H1 9168   2.121   4.307  15.920  1.5948  0.7008 -0.0521
  615MPD2    H2 9169   2.265   4.558  16.219  1.2593 -0.6868 -0.1052
  615MPD2    H3 9170   2.220   4.338  16.129  1.0663  0.4416  0.3208
  615MPD2     N 9171   1.993   4.503  15.775 -0.2857  0.3874 -0.2010
  615MPD2    H5 9172   1.943   4.580  15.731  0.4667  1.6355  1.1538
  615MPD2    N1 9173   2.175   0.054  16.102 -0.0014  0.1320 -0.6851
  615MPD2    H7 9174   2.119   0.133  16.074 -3.6564 -2.2609 -0.1632
  616TMC3    C1 9175   2.288   0.230  16.200  0.1306 -0.7612 -0.0466
  616TMC3    C2 9176   2.415   0.276  16.230 -0.0013  0.3197  0.4952
  616TMC3    C3 9177   2.425   0.411  16.256  0.2452  0.5225 -0.8083
  616TMC3    C4 9178   2.171   0.300  16.202  0.6365 -0.0001  0.9078
  616TMC3    C5 9179   2.187   0.435  16.232 -0.3642 -0.6014 -0.4055
  616TMC3    C6 9180   2.316   0.493  16.251  0.4502 -0.4718 -0.0803
  616TMC3     C 9181   2.282   0.091  16.178  0.4503 -0.5449 -0.8463
  616TMC3     O 9182   2.371   0.023  16.227  0.5105 -0.8162 -0.0928
  616TMC3     H 9183   2.506   0.217  16.217  0.9035  1.8984 -0.3744
  616TMC3    H1 9184   2.077   0.256  16.173  1.2219  0.6466 -2.0359
  616TMC3    H2 9185   2.315   0.601  16.256 -0.2938 -0.4075 -1.7979
  616TMC3    C7 9186   2.073   0.527  16.220  0.7698 -0.6473  0.7019
  616TMC3    C8 9187   2.554   0.479  16.252 -0.1916  0.3457 -0.0116
  616TMC3    O1 9188   2.092   0.645  16.209  0.1644 -0.3663  0.1216
  616TMC3    O2 9189   2.649   0.413  16.282  0.4803  0.3390  0.3714
  617MPD2     C 9190   0.003   2.722  13.759  0.4770 -0.1369  0.5953
  617MPD2    C1 9191   4.696   2.782  13.872  0.3129  0.0511  0.0844
  617MPD2    C2 9192   4.616   2.722  13.962 -0.0312 -0.1202  0.2987
  617MPD2    C3 9193   4.569   2.591  13.940 -0.4544 -0.0171 -0.1115
  617MPD2    C4 9194   4.605   2.530  13.823 -0.1284  0.2710  1.0928
  617MPD2    C5 9195   4.703   2.594  13.740  0.9428 -0.2764  0.0462
  617MPD2     H 9196   4.602   2.778  14.054 -1.1286 -2.0632  1.3227
  617MPD2    H1 9197   4.568   2.429  13.811 -0.9693  0.5948  0.9203
  617MPD2    H2 9198   0.075   2.765  13.690  1.8327 -1.1737  1.3630
  617MPD2    H3 9199   0.006   2.543  13.653 -0.9743 -1.2944 -0.2401
  617MPD2     N 9200   4.488   2.513  14.017  0.2753 -0.0442 -0.4124
  617MPD2    H5 9201   4.472   2.417  13.991  0.7994  0.2840 -1.9523
  617MPD2    N1 9202   0.018   2.912  13.885  0.9080 -0.0920 -0.4557
  617MPD2    H7 9203   0.071   2.942  13.804  1.3941  0.3301  0.0168
  618TMC3    C1 9204   0.104   3.111  13.978  0.6981  0.2201 -0.5450
  618TMC3    C2 9205   0.191   3.120  14.087 -0.1270 -0.1690 -0.6591
  618TMC3    C3 9206   0.323   3.143  14.057  0.2095 -0.7323  0.7941
  618TMC3    C4 9207   0.147   3.129  13.848 -0.3819  0.4992 -0.0345
  618TMC3    C5 9208   0.282   3.142  13.828 -0.4810 -0.1499  0.4500
  618TMC3    C6 9209   0.369   3.151  13.927 -1.1107 -0.2099 -0.1741
  618TMC3     C 9210   0.012   2.995  13.993  0.7102 -0.2057 -0.6580
  618TMC3     O 9211   4.682   2.983  14.096  0.1067  0.4752 -0.3727
  618TMC3     H 9212   0.160   3.087  14.186  1.7863  0.2328  0.0833
  618TMC3    H1 9213   0.076   3.122  13.766 -0.3738 -0.1864  0.0202
  618TMC3    H2 9214   0.470   3.180  13.902 -0.7532  0.7114  2.3281
  618TMC3    C7 9215   0.316   3.041  13.727  0.1998 -0.6827  0.1442
  618TMC3    C8 9216   0.421   3.105  14.159 -0.0445 -0.1589  0.0868
  618TMC3    O1 9217   0.231   2.964  13.683  0.2536 -0.9891  0.1328
  618TMC3    O2 9218   0.386   3.127  14.275  0.0920 -0.0969 -0.0887
  619MPD2     C 9219   1.356   3.923  13.556  0.1352  1.0940 -0.5360
  619MPD2    C1 9220   1.276   4.004  13.478 -0.3724  0.0857 -0.1197
  619MPD2    C2 9221   1.138   3.994  13.489 -1.3552  0.6338  0.0951
  619MPD2    C3 9222   1.081   3.908  13.581 -0.1820 -0.2887 -0.1179
  619MPD2    C4 9223   1.163   3.843  13.668  0.6489 -0.3878  0.5780
  619MPD2    C5 9224   1.302   3.847  13.653  0.6989  0.3293  0.5968
  619MPD2     H 9225   1.083   4.063  13.426 -2.2854 -0.4464 -0.2690
  619MPD2    H1 9226   1.125   3.778  13.746 -1.1894  2.0946  1.7567
  619MPD2    H2 9227   1.464   3.932  13.550  0.1635  1.9263  1.0085
  619MPD2    H3 9228   1.360   3.789  13.724 -0.7815 -2.5806 -0.5951
  619MPD2     N 9229   0.941   3.903  13.610  0.5134 -0.0926 -0.4435
  619MPD2    H5 9230   0.916   3.836  13.682 -2.6369 -1.2402 -2.6132
  619MPD2    N1 9231   1.326   4.100  13.384 -0.0452 -0.6912  0.7513
  619MPD2    H7 9232   1.254   4.150  13.334 -0.7763 -1.7670  0.7111
  620TMC3    C1 9233   1.472   4.226  13.253 -0.0029 -0.1602  0.5418
  620TMC3    C2 9234   1.357   4.286  13.203  0.1376  0.4729  0.3044
  620TMC3    C3 9235   1.342   4.419  13.185 -0.6258 -0.4361 -0.4498
  620TMC3    C4 9236   1.575   4.310  13.277  0.2392  0.2945 -0.3337
  620TMC3    C5 9237   1.569   4.443  13.246  0.5394 -0.5656 -0.2393
  620TMC3    C6 9238   1.456   4.499  13.195  0.1868  0.3451  0.2904
  620TMC3     C 9239   1.457   4.126  13.360  0.4818 -0.2678 -0.0611
  620TMC3     O 9240   1.559   4.081  13.412  0.2724 -0.2304  0.0732
  620TMC3     H 9241   1.265   4.230  13.185 -0.2123  0.0321  3.5239
  620TMC3    H1 9242   1.661   4.275  13.332  0.3395 -0.7199 -1.1255
  620TMC3    H2 9243   1.430   4.605  13.191  0.3159  0.3948  0.8638
  620TMC3    C7 9244   1.647   4.540  13.326  0.0652  0.5890  0.1654
  620TMC3    C8 9245   1.240   4.466  13.279  0.0206 -0.3989  0.0804
  620TMC3    O1 9246   1.684   4.496  13.437  0.0979  0.1496  0.1234
  620TMC3    O2 9247   1.289   4.503  13.383 -0.4244  0.0031  0.4995
  621MPD2     C 9248   1.702   0.194  10.507 -0.4677  0.1128  0.2802
  621MPD2    C1 9249   1.817   0.148  10.441 -0.3409  0.3844  0.0659
  621MPD2    C2 9250   1.879   0.226  10.341 -0.7192 -0.4830  0.3756
  621MPD2    C3 9251   1.836   0.351  10.318  0.0376  0.2173  0.2090
  621MPD2    C4 9252   1.733   0.400  10.391 -0.1297 -0.3462  0.0152
  621MPD2    C5 9253   1.665   0.327  10.482  0.0355  0.2231  0.4341
  621MPD2     H 9254   1.963   0.188  10.286 -1.5839 -0.1604 -1.1683
  621MPD2    H1 9255   1.695   0.500  10.377  1.0340  0.2087  0.7732
  621MPD2    H2 9256   1.642   0.131  10.571 -2.1579  0.7832 -0.6440
  621MPD2    H3 9257   1.574   0.363  10.527 -0.0805  0.5714 -0.0846
  621MPD2     N 9258   1.906   0.424  10.223  0.5114  1.0408  0.6608
  621MPD2    H5 9259   1.988   0.377  10.186 -1.4130 -3.5992  2.4260
  621MPD2    N1 9260   1.853   0.015  10.454 -0.2395  0.5772  0.7856
  621MPD2    H7 9261   1.912   4.712  10.382 -0.5219  1.2389  0.1826
  622TMC3    C1 9262   1.857   4.529  10.532  0.4391  0.4569 -0.6238
  622TMC3    C2 9263   1.809   4.431  10.620  0.2315 -0.3646 -0.2368
  622TMC3    C3 9264   1.823   4.297  10.582  0.2994 -0.8486 -0.1635
  622TMC3    C4 9265   1.879   4.499  10.402  0.7032 -0.1065  0.1844
  622TMC3    C5 9266   1.888   4.367  10.373 -0.4907 -0.4061 -0.4926
  622TMC3    C6 9267   1.866   4.265  10.457 -0.3991  0.5471  0.4769
  622TMC3     C 9268   1.824   4.672  10.566 -0.2184 -0.6120  0.1503
  622TMC3     O 9269   1.769   4.701  10.673 -0.7009 -0.0480 -0.2282
  622TMC3     H 9270   1.773   4.450  10.721 -0.8446 -2.2321 -0.2642
  622TMC3    H1 9271   1.909   4.574  10.330  2.9234  0.1670  1.3781
  622TMC3    H2 9272   1.882   4.158  10.447  1.8661  1.1579 -2.4973
  622TMC3    C7 9273   1.918   4.337  10.238  0.0226  0.1493 -0.5306
  622TMC3    C8 9274   1.735   4.196  10.648  1.1730  0.0219  1.2357
  622TMC3    O1 9275   1.998   4.412  10.182 -0.0566  0.0989  0.1214
  622TMC3    O2 9276   1.751   4.077  10.637  0.2080 -0.7740 -0.0539
  623MPD2     C 9277   0.758   0.051  15.789 -0.1858  0.3576 -0.2745
  623MPD2    C1 9278   0.693   4.703  15.881  0.8171  0.1237  0.2435
  623MPD2    C2 9279   0.753   4.662  15.999 -0.3135  0.5138 -0.3526
  623MPD2    C3 9280   0.875   4.710  16.041  0.8532  0.0262  0.0387
  623MPD2    C4 9281   0.945   0.054  15.951 -0.0868  0.1660 -0.2243
  623MPD2    C5 9282   0.884   0.090  15.827 -0.1818  0.2123  0.4699
  623MPD2     H 9283   0.704   4.596  16.069  0.5475  2.0154  1.7051
  623MPD2    H1 9284   1.033   0.114  15.972 -0.3415  1.2599 -2.2573
  623MPD2    H2 9285   0.727   0.087  15.692 -1.2712  1.5755  0.5044
  623MPD2    H3 9286   0.944   0.159  15.769 -1.4240  0.8757 -0.0260
  623MPD2     N 9287   0.921   4.677  16.171 -0.5258 -0.2239  0.2430
  623MPD2    H5 9288   0.864   4.606  16.215  0.3571 -0.1806  1.4896
  623MPD2    N1 9289   0.561   4.666  15.853  0.5715 -0.2660  0.2475
  623MPD2    H7 9290   0.520   4.729  15.785 -0.7114 -0.3769  0.9080
  624TMC3    C1 9291   1.195   4.626  16.551  0.3831  0.2717  0.7416
  624TMC3    C2 9292   1.089   4.574  16.614  0.8004  0.0290  0.9581
  624TMC3    C3 9293   0.967   4.576  16.552 -0.1786  0.2630  0.7907
  624TMC3    C4 9294   1.179   4.664  16.422 -0.1276  0.0967  0.8372
  624TMC3    C5 9295   1.057   4.665  16.359  0.3462 -0.2021  0.9184
  624TMC3    C6 9296   0.943   4.622  16.427  0.9649 -0.2204  0.2072
  624TMC3     C 9297   1.294   4.692  16.639 -0.0539  0.4299 -0.8596
  624TMC3     O 9298   1.309   4.645  16.749  0.3477 -0.5498 -0.6205
  624TMC3     H 9299   1.103   4.546  16.718  3.5712 -1.8794  0.0784
  624TMC3    H1 9300   1.259   4.685  16.352 -0.7031  0.3125  0.2384
  624TMC3    H2 9301   0.840   4.625  16.392  1.1566  4.2944 -0.0262
  624TMC3    C7 9302   1.047   4.710  16.225 -0.1776 -0.7074  0.1449
  624TMC3    C8 9303   0.842   4.539  16.627  0.0503  0.1745 -0.0741
  624TMC3    O1 9304   1.143   0.023  16.168  0.0627  0.2882  0.3339
  624TMC3    O2 9305   0.736   4.571  16.577  0.1905  0.2580  0.4562
  625MPD2     C 9306   1.709   1.158   0.755 -0.0472 -0.3243 -0.4364
  625MPD2    C1 9307   1.653   1.281   0.758 -0.1438  0.2509  0.1103
  625MPD2    C2 9308   1.728   1.399   0.769  0.3627 -0.1203 -0.0802
  625MPD2    C3 9309   1.865   1.390   0.753 -0.5450  0.2891  0.0248
  625MPD2    C4 9310   1.923   1.262   0.750  0.2316  0.1840  0.8512
  625MPD2    C5 9311   1.845   1.150   0.753  0.3570 -0.0758 -0.7171
  625MPD2     H 9312   1.683   1.497   0.779  1.4740  0.3690  0.1074
  625MPD2    H1 9313   2.031   1.262   0.751  0.2486  0.1745 -1.4026
  625MPD2    H2 9314   1.649   1.068   0.765  1.3484 -1.1289  0.5487
  625MPD2    H3 9315   1.893   1.053   0.748 -0.4763 -0.3814 -2.9773
  625MPD2     N 9316   1.934   1.513   0.744 -0.0485  0.1223 -0.4638
  625MPD2    H5 9317   1.878   1.596   0.760 -0.7475 -0.1801 -1.3648
  625MPD2    N1 9318   1.515   1.300   0.781  0.5679 -0.6544 -0.7738
  625MPD2    H7 9319   1.477   1.394   0.795  1.4731 -0.3162 -0.5915
  626TMC3    C1 9320   1.291   1.251   0.823  0.2797 -0.0062  0.5434
  626TMC3    C2 9321   1.191   1.268   0.722  0.7396 -0.5400 -0.0395
  626TMC3    C3 9322   1.098   1.361   0.747 -0.5984 -0.2040 -0.0685
  626TMC3    C4 9323   1.293   1.333   0.926 -0.4807  0.5156 -0.5972
  626TMC3    C5 9324   1.192   1.421   0.945 -0.1250  0.3947 -0.5099
  626TMC3    C6 9325   1.093   1.450   0.856  0.8709 -0.0619 -0.0918
  626TMC3     C 9326   1.423   1.199   0.776  0.2705  0.3756  0.4073
  626TMC3     O 9327   1.419   1.107   0.696 -0.2404  0.5763  0.0691
  626TMC3     H 9328   1.193   1.203   0.635 -2.1796  0.5897 -0.9761
  626TMC3    H1 9329   1.362   1.316   1.008 -1.9188 -0.2183  0.4801
  626TMC3    H2 9330   1.040   1.543   0.871 -0.3378 -0.8850  0.7087
  626TMC3    C7 9331   1.208   1.502   1.058  0.4148  0.3315  0.5304
  626TMC3    C8 9332   1.012   1.378   0.633 -0.9071  0.2366  0.4928
  626TMC3    O1 9333   1.323   1.502   1.105  0.2177  0.4166 -0.2133
  626TMC3    O2 9334   1.047   1.333   0.523  0.2829  0.1568  0.1206
  627MPD2     C 9335   4.078   1.318  14.779  0.2437  0.1932 -0.2384
  627MPD2    C1 9336   4.214   1.311  14.757 -0.1218  0.4063 -0.3014
  627MPD2    C2 9337   4.264   1.203  14.685  0.2890  0.3708  0.0271
  627MPD2    C3 9338   4.182   1.116  14.624  1.0571 -0.2138 -0.4303
  627MPD2    C4 9339   4.045   1.118  14.648  0.2791 -1.2792 -0.7391
  627MPD2    C5 9340   3.998   1.228  14.714  0.1025  0.7666 -0.0664
  627MPD2     H 9341   4.370   1.196  14.665  0.3425 -0.8077  0.6590
  627MPD2    H1 9342   3.970   1.057  14.599 -1.6677 -0.5829  1.3722
  627MPD2    H2 9343   4.027   1.395  14.838 -1.4744 -1.6032  0.6296
  627MPD2    H3 9344   3.891   1.226  14.733  0.0526  0.4649 -0.3896
  627MPD2     N 9345   4.242   1.033  14.528 -0.5583 -0.3672 -0.3404
  627MPD2    H5 9346   4.343   1.035  14.525 -0.5899 -1.3049 -2.2328
  627MPD2    N1 9347   4.310   1.393  14.822  0.0657 -0.5839 -0.2707
  627MPD2    H7 9348   4.404   1.355  14.815 -0.1736 -1.2281  0.0140
  628TMC3    C1 9349   4.416   1.558  14.950  0.2518  0.1312 -0.0135
  628TMC3    C2 9350   4.519   1.466  14.973  0.6993  0.0227 -0.1706
  628TMC3    C3 9351   4.627   1.520  15.031 -0.3567  0.5107  0.2838
  628TMC3    C4 9352   4.426   1.691  14.968 -0.6888 -0.2814 -0.1256
  628TMC3    C5 9353   4.546   1.736  15.010 -0.1993  0.0972  0.1863
  628TMC3    C6 9354   4.645   1.652  15.061 -0.3021 -0.5034  0.0705
  628TMC3     C 9355   4.293   1.504  14.900  0.7383 -0.8638  0.4495
  628TMC3     O 9356   4.189   1.567  14.917  0.6625  0.2500 -0.5088
  628TMC3     H 9357   4.503   1.359  14.961  0.4429  0.0839 -0.3857
  628TMC3    H1 9358   4.346   1.755  14.932  0.7745  0.6593 -1.6973
  628TMC3    H2 9359   0.008   1.690  15.074 -0.4136 -0.1856  0.0071
  628TMC3    C7 9360   4.565   1.878  15.004  0.7461 -0.0799 -0.0599
  628TMC3    C8 9361   0.005   1.430  15.030 -0.0717  0.4704  0.1538
  628TMC3    O1 9362   4.656   1.916  15.076 -0.0164 -0.3009 -0.6485
  628TMC3    O2 9363   4.727   1.321  14.976  0.7473  0.3200 -0.8368
  629MPD2     C 9364   2.884   0.862  16.172  0.0619 -0.4739 -0.4547
  629MPD2    C1 9365   2.900   0.725  16.181  0.1822  1.5296  0.1786
  629MPD2    C2 9366   2.792   0.642  16.196  0.8540  0.3244  0.3868
  629MPD2    C3 9367   2.664   0.695  16.206 -0.0762 -0.0356  0.1336
  629MPD2    C4 9368   2.648   0.834  16.198  0.4566  0.4320 -0.2663
  629MPD2    C5 9369   2.760   0.913  16.179  0.1707 -0.3734  0.6980
  629MPD2     H 9370   2.804   0.534  16.188 -1.2576 -0.0596  2.2475
  629MPD2    H1 9371   2.554   0.879  16.229  0.5295  1.2437 -1.2281
  629MPD2    H2 9372   2.966   0.929  16.149  0.2105  0.8320  3.8075
  629MPD2    H3 9373   2.746   1.020  16.174 -2.4907 -0.8917 -2.2287
  629MPD2     N 9374   2.548   0.611  16.229  0.0581  0.2317 -0.2459
  629MPD2    H5 9375   2.460   0.660  16.222  0.0962  0.2193 -0.8175
  629MPD2    N1 9376   3.030   0.675  16.177 -0.6263  0.3537  0.0735
  629MPD2    H7 9377   3.108   0.735  16.154  2.3872 -3.3913  0.4893
  630TMC3    C1 9378   3.216   0.541  16.239 -0.1171  0.2259  0.7280
  630TMC3    C2 9379   3.299   0.628  16.170 -0.1600 -0.3726  0.7228
  630TMC3    C3 9380   3.429   0.632  16.208 -0.5718 -0.2375 -0.0342
  630TMC3    C4 9381   3.254   0.465  16.347 -0.1338 -0.1841  0.0690
  630TMC3    C5 9382   3.379   0.496  16.392  0.7743  0.6962  0.5067
  630TMC3    C6 9383   3.470   0.569  16.323  0.1109  0.9072 -0.8315
  630TMC3     C 9384   3.070   0.558  16.233 -1.0298 -0.1357  0.6570
  630TMC3     O 9385   3.009   0.472  16.298  0.1109 -0.1786 -0.1983
  630TMC3     H 9386   3.267   0.682  16.081  1.5693 -1.2043 -0.4146
  630TMC3    H1 9387   3.191   0.403  16.410  0.3839 -1.9965 -1.2013
  630TMC3    H2 9388   3.574   0.572  16.350 -0.6905  1.0732  2.2095
  630TMC3    C7 9389   3.432   0.420  16.501  0.2176  0.1434 -0.3438
  630TMC3    C8 9390   3.509   0.740  16.159  0.2520 -0.7901 -0.0242
  630TMC3    O1 9391   3.386   0.305  16.517 -0.0914  0.4068  0.1831
  630TMC3    O2 9392   3.582   0.790  16.248  0.1608 -0.4090  0.3539
  631MPD2     C 9393   1.116   4.737  15.581 -0.6745 -0.2477 -0.2755
  631MPD2    C1 9394   1.227   0.087  15.577  0.4482  0.3794 -0.3089
  631MPD2    C2 9395   1.361   0.033  15.575 -0.3014  0.5176 -0.5169
  631MPD2    C3 9396   1.371   4.641  15.542 -0.3949 -0.2107  0.5628
  631MPD2    C4 9397   1.263   4.554  15.543 -0.0901  0.3494  0.4174
  631MPD2    C5 9398   1.135   4.600  15.556 -0.2048 -0.3018 -0.2152
  631MPD2     H 9399   1.450   0.094  15.576 -0.8694  1.3359  0.0150
  631MPD2    H1 9400   1.280   4.450  15.519  0.8960  0.1819  1.8750
  631MPD2    H2 9401   1.015   0.037  15.590 -1.1422 -1.7334  0.6020
  631MPD2    H3 9402   1.049   4.535  15.561  0.7780 -1.4731  1.4775
  631MPD2     N 9403   1.499   4.586  15.520 -0.2336  0.0002 -0.2625
  631MPD2    H5 9404   1.579   4.647  15.510 -1.0115  1.2548  1.2219
  631MPD2    N1 9405   1.204   0.232  15.587  0.0921  0.5771  0.1923
  631MPD2    H7 9406   1.108   0.259  15.569 -0.3587 -0.7747  0.5353
  632TMC3    C1 9407   1.239   0.456  15.532 -0.3800  0.3469 -0.4999
  632TMC3    C2 9408   1.121   0.496  15.583  0.3405 -0.3667  0.1273
  632TMC3    C3 9409   1.076   0.612  15.536  0.6163 -0.0889 -0.1306
  632TMC3    C4 9410   1.319   0.529  15.450 -0.2464 -0.0747 -0.3817
  632TMC3    C5 9411   1.262   0.634  15.392 -0.1729  0.7562 -0.7863
  632TMC3    C6 9412   1.138   0.680  15.433  0.1349 -0.5865 -0.2148
  632TMC3     C 9413   1.302   0.330  15.569 -0.0277 -0.1117  0.1471
  632TMC3     O 9414   1.422   0.326  15.580 -0.2505 -0.2475 -0.5481
  632TMC3     H 9415   1.075   0.443  15.666 -0.1998 -0.9093 -0.5191
  632TMC3    H1 9416   1.396   0.470  15.402  0.2963 -0.6564  1.2119
  632TMC3    H2 9417   1.090   0.768  15.392  0.4783 -1.4026 -2.3625
  632TMC3    C7 9418   1.289   0.661  15.251 -0.0053  0.6880  0.3199
  632TMC3    C8 9419   0.960   0.672  15.588  0.0977 -0.3368  0.0058
  632TMC3    O1 9420   1.192   0.700  15.187 -0.4944 -0.6753  0.5930
  632TMC3    O2 9421   0.863   0.600  15.611 -0.2608 -0.2377  0.9932
  633MPD2     C 9422   0.999   3.287   0.007  0.6347  0.5353 -0.6464
  633MPD2    C1 9423   1.022   3.208  17.645 -0.5207 -0.2135 -0.6284
  633MPD2    C2 9424   1.047   3.074  17.658 -0.3943 -0.0620  0.4893
  633MPD2    C3 9425   1.034   3.007   0.030 -0.9732 -0.0040 -0.3467
  633MPD2    C4 9426   0.998   3.081   0.138  0.3758 -0.1944 -0.3979
  633MPD2    C5 9427   0.984   3.224   0.128 -0.1346 -0.4057 -0.8697
  633MPD2     H 9428   1.072   3.008  17.575  1.0962  1.9623 -0.6436
  633MPD2    H1 9429   0.990   3.030   0.233 -0.5671  0.0147 -0.3616
  633MPD2    H2 9430   0.981   3.393  17.747  0.4037  0.4546 -1.2403
  633MPD2    H3 9431   0.966   3.280   0.219  1.1093 -1.4765  0.0350
  633MPD2     N 9432   1.047   2.868   0.050 -0.2037  0.2101 -0.2802
  633MPD2    H5 9433   1.001   2.819   0.127  2.5526  2.0283  2.5316
  633MPD2    N1 9434   1.046   3.254  17.509  0.3244 -0.7566  0.5070
  633MPD2    H7 9435   1.090   3.188  17.445  0.0798  1.3216 -1.8036
  634TMC3    C1 9436   1.072   3.419  17.332 -0.0987  0.1001 -0.2163
  634TMC3    C2 9437   1.170   3.352  17.269  0.1436  1.0105 -0.2709
  634TMC3    C3 9438   1.201   3.372  17.139 -0.1186 -0.1574 -0.1723
  634TMC3    C4 9439   0.990   3.495  17.261 -0.2797  0.1687  1.1261
  634TMC3    C5 9440   1.014   3.512  17.130  0.2228  0.4726 -0.2490
  634TMC3    C6 9441   1.125   3.456  17.064  0.0033  0.6103 -0.7457
  634TMC3     C 9442   1.028   3.389  17.468  0.1281 -0.1043 -0.5244
  634TMC3     O 9443   0.976   3.484  17.522  0.7748  0.0229  0.1791
  634TMC3     H 9444   1.237   3.291  17.328 -0.0976  1.5083  0.5213
  634TMC3    H1 9445   0.909   3.546  17.311 -0.0770  1.5307  0.0759
  634TMC3    H2 9446   1.149   3.489  16.963 -1.7213 -0.6693 -1.5845
  634TMC3    C7 9447   0.937   3.603  17.054  1.1771  0.3653 -0.4695
  634TMC3    C8 9448   1.257   3.261  17.060 -0.1331 -0.4208  0.5175
  634TMC3    O1 9449   0.987   3.635  16.943  0.3278 -0.6509 -0.2848
  634TMC3    O2 9450   1.242   3.151  17.114 -0.4385 -0.6793  0.1515
  635TMC3    C1 9451   2.453   3.955  17.722  0.0820 -0.6300 -0.4520
  635TMC3    C2 9452   2.549   3.924   0.063  0.2619 -0.1116  0.8540
  635TMC3    C3 9453   2.673   3.893   0.020 -0.0210 -0.3069  0.1435
  635TMC3    C4 9454   2.472   3.941  17.584  0.1478 -0.7180 -0.3178
  635TMC3    C5 9455   2.606   3.926  17.548  1.0602  0.4599  0.4532
  635TMC3    C6 9456   2.704   3.894  17.635  0.0956  0.5384 -0.1173
  635TMC3     C 9457   2.354   4.048   0.024 -0.5930 -0.6053 -0.1526
  635TMC3     O 9458   2.393   4.114   0.118 -0.5504 -0.2099  0.5400
  635TMC3     H 9459   2.523   3.941   0.167 -2.5679  2.1394 -0.2358
  635TMC3    H1 9460   2.398   3.977  17.513  0.6361  0.3475 -0.2824
  635TMC3    H2 9461   2.801   3.888  17.586 -1.7803 -2.6880 -3.4527
  635TMC3    C7 9462   2.630   3.886  17.409 -0.4343  0.4392  0.3034
  635TMC3    C8 9463   2.771   3.839   0.116  0.6180 -0.0173 -0.3051
  635TMC3    O1 9464   2.528   3.843  17.350  0.1921  0.2697  0.1074
  635TMC3    O2 9465   2.749   3.851   0.235  0.6273  0.1242  0.3812
  636MPD2     C 9466   2.192   3.280  15.967 -0.0512 -0.1837  0.5634
  636MPD2    C1 9467   2.237   3.288  16.099 -0.6410  0.0592  0.1510
  636MPD2    C2 9468   2.281   3.169  16.154 -0.3914  0.2144  0.3520
  636MPD2    C3 9469   2.294   3.053  16.086  0.1773 -0.6264 -0.7858
  636MPD2    C4 9470   2.247   3.040  15.957 -0.3995 -0.3693  0.0885
  636MPD2    C5 9471   2.194   3.160  15.904 -0.6138  0.2363  0.6672
  636MPD2     H 9472   2.314   3.170  16.257  0.5639  1.7236  0.0346
  636MPD2    H1 9473   2.249   2.952  15.893 -1.0065 -0.2532 -0.0825
  636MPD2    H2 9474   2.143   3.364  15.922  0.5605 -1.3027 -2.1788
  636MPD2    H3 9475   2.168   3.159  15.798 -0.3688 -0.9486  0.6210
  636MPD2     N 9476   2.344   2.948  16.168  0.1533  0.2309 -0.9196
  636MPD2    H5 9477   2.362   2.971  16.265 -0.1880  0.7508 -0.9762
  636MPD2    N1 9478   2.234   3.403  16.176  0.2424 -0.5359 -0.2091
  636MPD2    H7 9479   2.282   3.395  16.265 -1.1619  0.8415  0.6763
  637TMC3    C1 9480   2.397   2.744  16.239  0.7141 -0.3340  0.1177
  637TMC3    C2 9481   2.352   2.794  16.358  0.2685  0.3289 -0.3472
  637TMC3    C3 9482   2.415   2.768  16.476 -0.6652 -0.0220 -0.4153
  637TMC3    C4 9483   2.520   2.678  16.226 -0.3403  0.3118 -0.0985
  637TMC3    C5 9484   2.586   2.662  16.343 -0.4482  0.7464 -1.2117
  637TMC3    C6 9485   2.536   2.704  16.466  0.1520  0.2341  0.4373
  637TMC3     C 9486   2.364   2.821  16.126  0.6515  0.1635 -0.1250
  637TMC3     O 9487   2.364   2.777  16.016 -0.3713  0.3313  0.0762
  637TMC3     H 9488   2.253   2.837  16.364  0.5869  0.9346  0.5798
  637TMC3    H1 9489   2.557   2.663  16.125 -1.7886 -1.2422 -0.3886
  637TMC3    H2 9490   2.592   2.686  16.557 -0.3643  0.7325  0.8529
  637TMC3    C7 9491   2.733   2.697  16.330  0.0106 -0.8413 -0.3944
  637TMC3    C8 9492   2.424   2.889  16.559  0.0046 -0.0686 -0.4435
  637TMC3    O1 9493   2.777   2.753  16.431  0.2898 -0.7333 -0.2395
  637TMC3    O2 9494   2.372   2.986  16.505  0.1125  0.0465  1.0517
  638MPD2     C 9495   1.914   1.949  15.114 -0.9178 -0.5458  0.1369
  638MPD2    C1 9496   1.903   1.852  15.018  0.5444 -0.1908 -0.2135
  638MPD2    C2 9497   1.871   1.722  15.049 -0.7893 -0.2595 -0.3189
  638MPD2    C3 9498   1.830   1.692  15.179 -0.3955  0.5116 -0.4478
  638MPD2    C4 9499   1.826   1.788  15.277 -0.8293  0.3322  0.2233
  638MPD2    C5 9500   1.866   1.915  15.240 -0.1086 -0.2132  0.3897
  638MPD2     H 9501   1.877   1.640  14.979  0.5674 -2.0808  1.9119
  638MPD2    H1 9502   1.804   1.769  15.381 -0.7272  0.5134  0.2797
  638MPD2    H2 9503   1.963   2.047  15.117  0.5343 -1.2299 -0.8551
  638MPD2    H3 9504   1.873   1.992  15.316 -0.1425 -0.5848  0.7707
  638MPD2     N 9505   1.815   1.557  15.210  0.0475 -0.2408  0.1200
  638MPD2    H5 9506   1.821   1.484  15.141 -0.8516  1.1454 -1.4138
  638MPD2    N1 9507   1.942   1.890  14.882  0.0622 -0.4661 -0.0539
  638MPD2    H7 9508   2.005   1.970  14.879 -1.1185  0.5258  1.2830
  639TMC3    C1 9509   1.833   1.366  15.337 -0.5473 -0.5749 -0.1648
  639TMC3    C2 9510   1.769   1.287  15.238  0.5106 -0.2323 -0.0713
  639TMC3    C3 9511   1.856   1.211  15.161 -0.0344 -0.8020  0.0253
  639TMC3    C4 9512   1.970   1.363  15.359 -0.5402 -0.3608 -0.3599
  639TMC3    C5 9513   2.043   1.271  15.286  0.1890 -0.5120 -0.2133
  639TMC3    C6 9514   1.992   1.195  15.179 -0.2002 -0.6422  0.1488
  639TMC3     C 9515   1.794   1.505  15.338 -0.1554 -0.1330 -0.6752
  639TMC3     O 9516   1.784   1.560  15.447  0.5205  0.4862 -0.5426
  639TMC3     H 9517   1.663   1.303  15.225  0.0933 -2.2985  0.7491
  639TMC3    H1 9518   2.012   1.416  15.443  0.9378 -0.1079 -1.2536
  639TMC3    H2 9519   2.055   1.130  15.118  0.2825  2.3748 -2.5758
  639TMC3    C7 9520   2.187   1.269  15.313 -0.3222  0.7060  0.0407
  639TMC3    C8 9521   1.803   1.133  15.054  0.3711  0.0402 -0.3595
  639TMC3    O1 9522   2.231   1.287  15.423  0.1511  0.4373 -0.0969
  639TMC3    O2 9523   1.885   1.090  14.978  0.4351  1.0353 -0.3234
  640MPD2     C 9524   2.563   1.377   9.869  0.1724 -0.0408 -0.6588
  640MPD2    C1 9525   2.427   1.349   9.869 -0.6787 -0.1307  0.3817
  640MPD2    C2 9526   2.340   1.445   9.921  0.6154  0.1971  0.0104
  640MPD2    C3 9527   2.397   1.556   9.984 -0.1924  0.7405  0.1749
  640MPD2    C4 9528   2.530   1.583   9.989  0.1147 -0.0668 -0.1060
  640MPD2    C5 9529   2.615   1.497   9.919  0.6979 -0.7369 -0.1221
  640MPD2     H 9530   2.233   1.430   9.932  0.7135  1.7712  3.2884
  640MPD2    H1 9531   2.564   1.673  10.039  0.5130 -1.2630  1.7681
  640MPD2    H2 9532   2.636   1.309   9.826  1.9227  0.5283  1.4720
  640MPD2    H3 9533   2.723   1.501   9.916  0.5657  3.3173  0.2295
  640MPD2     N 9534   2.312   1.647  10.060 -0.7379 -0.7411 -0.3210
  640MPD2    H5 9535   2.365   1.711  10.118 -0.6258  0.1308 -1.3869
  640MPD2    N1 9536   2.377   1.229   9.814  0.1207  0.0459 -0.3359
  640MPD2    H7 9537   2.452   1.165   9.794  0.8535  0.2783  1.7033
  641TMC3    C1 9538   2.237   1.053   9.736  0.2186 -0.8813 -0.1976
  641TMC3    C2 9539   2.340   0.970   9.736  0.1683 -0.3589  0.1435
  641TMC3    C3 9540   2.326   0.849   9.672  0.0030 -0.2924 -0.0786
  641TMC3    C4 9541   2.119   1.021   9.668  0.1633  0.3989  0.6883
  641TMC3    C5 9542   2.112   0.898   9.607 -0.6943 -0.1923  0.2007
  641TMC3    C6 9543   2.212   0.808   9.605 -0.2766  0.3020 -0.5777
  641TMC3     C 9544   2.249   1.190   9.790 -1.1088  0.2510  0.5050
  641TMC3     O 9545   2.148   1.256   9.798 -0.0616 -0.7455  0.4735
  641TMC3     H 9546   2.423   0.978   9.806  0.2618 -0.7543  0.0824
  641TMC3    H1 9547   2.036   1.090   9.664 -0.3270 -0.1791  0.8824
  641TMC3    H2 9548   2.204   0.715   9.550 -2.6968 -0.0956  0.4709
  641TMC3    C7 9549   1.993   0.865   9.534  0.2431 -0.0169  0.2034
  641TMC3    C8 9550   2.434   0.759   9.661 -0.7537 -0.8185  0.4853
  641TMC3    O1 9551   2.007   0.794   9.433  0.1272 -0.5988  0.1856
  641TMC3    O2 9552   2.423   0.657   9.597 -0.3220  0.5115 -0.2101
  642TMC3    C1 9553   3.267   1.909  12.243 -0.9605  0.1647 -0.1510
  642TMC3    C2 9554   3.378   1.913  12.163  0.0551  0.9256 -0.5094
  642TMC3    C3 9555   3.404   1.807  12.084  0.5637  0.2607  0.6288
  642TMC3    C4 9556   3.174   1.806  12.235  0.7527  0.8246  1.1816
  642TMC3    C5 9557   3.208   1.702  12.149  0.3661 -0.0038 -0.4888
  642TMC3    C6 9558   3.318   1.700  12.070  0.4681 -0.1913  0.2416
  642TMC3     C 9559   3.223   2.032  12.313 -0.2657 -0.3080 -0.0582
  642TMC3     O 9560   3.314   2.115  12.328  0.2520  0.1095  0.4033
  642TMC3     H 9561   3.454   1.989  12.180  1.6411 -0.4114 -1.6694
  642TMC3    H1 9562   3.084   1.808  12.295 -0.6278 -1.2905 -0.8025
  642TMC3    H2 9563   3.359   1.611  12.021 -3.6069 -1.7608 -0.3147
  642TMC3    C7 9564   3.117   1.595  12.129 -0.4166 -0.5886  0.2752
  642TMC3    C8 9565   3.542   1.796  12.031 -0.0889 -0.0331  0.1052
  642TMC3    O1 9566   3.113   1.537  12.018  0.0258  0.0587  0.0683
  642TMC3    O2 9567   3.627   1.863  12.087 -0.0874  0.0758 -0.0958
  643TMC3    C1 9568   2.920   1.113  17.637  0.3797  0.4269 -0.0400
  643TMC3    C2 9569   2.806   1.143  17.565  0.0706  0.5115 -0.6257
  643TMC3    C3 9570   2.748   1.043  17.496 -0.1282 -0.3470 -0.2899
  643TMC3    C4 9571   2.968   0.981  17.651 -0.2503  0.3572 -0.7200
  643TMC3    C5 9572   2.911   0.889  17.567 -0.5390  0.0608  0.1789
  643TMC3    C6 9573   2.798   0.915  17.498 -0.4036 -0.1817 -0.7340
  643TMC3     C 9574   2.954   1.208  17.735 -0.1732 -0.3711  0.5995
  643TMC3     O 9575   2.944   1.327  17.710  0.1762 -0.1928 -0.1644
  643TMC3     H 9576   2.750   1.236  17.574 -1.1168 -0.0873 -1.9698
  643TMC3    H1 9577   3.070   0.961  17.683 -0.3869  1.0316  0.1514
  643TMC3    H2 9578   2.755   0.835  17.439  0.3740 -1.4412  0.4081
  643TMC3    C7 9579   2.980   0.763  17.576  0.2908  0.3027 -0.9521
  643TMC3    C8 9580   2.711   1.077  17.367 -0.0417 -0.6100  0.5674
  643TMC3    O1 9581   3.022   0.728  17.687 -0.1814  0.6693  0.5295
  643TMC3    O2 9582   2.653   0.989  17.308  0.8901 -0.0303  0.0555
  644MPD2     C 9583   2.386   0.853   9.305 -0.4980 -0.4518  0.4426
  644MPD2    C1 9584   2.504   0.917   9.346 -0.5951  0.1512 -0.2393
  644MPD2    C2 9585   2.503   1.060   9.360 -0.1483 -0.0800 -0.1725
  644MPD2    C3 9586   2.380   1.129   9.376  0.5345  0.4272  0.1279
  644MPD2    C4 9587   2.266   1.066   9.342  0.0059  0.1430 -0.0817
  644MPD2    C5 9588   2.270   0.928   9.307  0.1282 -0.3425 -0.1846
  644MPD2     H 9589   2.590   1.124   9.358  0.2329 -0.5194  2.3437
  644MPD2    H1 9590   2.174   1.121   9.326  0.5609  0.4702 -2.0948
  644MPD2    H2 9591   2.377   0.748   9.280 -0.1729 -0.4840  0.4642
  644MPD2    H3 9592   2.174   0.888   9.277 -0.7292  0.4325  1.5333
  644MPD2     N 9593   2.385   1.266   9.404 -0.6475 -0.0072  0.6735
  644MPD2    H5 9594   2.472   1.318   9.400 -2.0556  2.2094 -1.2890
  644MPD2    N1 9595   2.626   0.841   9.358 -0.2348 -0.1268 -0.0032
  644MPD2    H7 9596   2.621   0.744   9.329 -2.4311  0.5621 -1.9868
  645TMC3    C1 9597   2.311   1.461   9.505  0.2863  0.0843 -0.1709
  645TMC3    C2 9598   2.444   1.499   9.519 -0.0019 -0.2627 -0.5162
  645TMC3    C3 9599   2.466   1.625   9.565  0.0566 -0.1364 -0.6600
  645TMC3    C4 9600   2.203   1.535   9.539  0.1519  0.3070 -0.3340
  645TMC3    C5 9601   2.230   1.661   9.581  0.0110  0.0294 -0.2050
  645TMC3    C6 9602   2.360   1.705   9.595  0.8002  0.0075  0.0736
  645TMC3     C 9603   2.269   1.329   9.456  0.4096 -0.7013  0.0485
  645TMC3     O 9604   2.154   1.287   9.474 -0.2884  0.3205 -0.1176
  645TMC3     H 9605   2.520   1.423   9.516  0.9327  0.8102 -3.4459
  645TMC3    H1 9606   2.104   1.504   9.509 -0.0548 -1.1188  1.8202
  645TMC3    H2 9607   2.379   1.810   9.616 -1.5629  0.7573 -1.4522
  645TMC3    C7 9608   2.121   1.767   9.596  0.1765 -0.2105 -0.7668
  645TMC3    C8 9609   2.595   1.687   9.576  0.2294 -0.3559 -0.2499
  645TMC3    O1 9610   2.151   1.884   9.576 -0.2711  0.1453 -0.0452
  645TMC3    O2 9611   2.606   1.775   9.655 -0.2361  0.3413  0.0892
  646MPD2     C 9612   2.055   0.302  14.365 -0.1417 -0.0412  0.1895
  646MPD2    C1 9613   1.995   0.345  14.481 -0.1730  0.4624  0.1169
  646MPD2    C2 9614   1.899   0.446  14.477 -0.0638 -0.0596 -0.3219
  646MPD2    C3 9615   1.854   0.496  14.356 -0.4142  0.8531 -1.1241
  646MPD2    C4 9616   1.918   0.447  14.235  0.6341  0.6432 -0.0886
  646MPD2    C5 9617   2.009   0.347  14.246 -0.0705  0.0885 -0.3968
  646MPD2     H 9618   1.846   0.493  14.559 -0.8008 -0.0010 -0.8323
  646MPD2    H1 9619   1.905   0.493  14.137  2.0543  2.3839  0.5416
  646MPD2    H2 9620   2.120   0.215  14.372 -1.4263 -1.0055  0.1917
  646MPD2    H3 9621   2.054   0.300  14.158 -1.3979  0.9088 -1.5056
  646MPD2     N 9622   1.756   0.596  14.360 -0.1197  0.2716  0.0918
  646MPD2    H5 9623   1.710   0.598  14.451 -0.4095 -0.6556 -0.0330
  646MPD2    N1 9624   2.037   0.287  14.602  0.1421  0.1710 -0.0949
  646MPD2    H7 9625   2.100   0.208  14.589  1.3836  0.9088  1.4097
  647TMC3    C1 9626   2.056   0.252  14.837 -0.3946 -0.0264  0.0591
  647TMC3    C2 9627   2.003   0.282  14.967  0.0606  0.2677 -0.4467
  647TMC3    C3 9628   2.075   0.242  15.075 -0.3290  0.2113  0.0183
  647TMC3    C4 9629   2.188   0.212  14.822  0.1428 -0.2190  0.0710
  647TMC3    C5 9630   2.262   0.177  14.932 -0.1554 -0.6878  0.5196
  647TMC3    C6 9631   2.203   0.193  15.059 -0.4809  0.0135  0.2929
  647TMC3     C 9632   1.999   0.316  14.727 -0.9321 -0.7345 -0.0974
  647TMC3     O 9633   1.901   0.381  14.755 -0.3118 -0.1770 -0.6210
  647TMC3     H 9634   1.897   0.304  14.979  0.0497  0.0377 -0.1171
  647TMC3    H1 9635   2.244   0.230  14.731 -0.1254  1.6902  0.2832
  647TMC3    H2 9636   2.257   0.168  15.150 -1.5810  0.0002  0.9329
  647TMC3    C7 9637   2.402   0.131  14.931  0.4836  0.1978 -0.3052
  647TMC3    C8 9638   2.029   0.284  15.202  0.3430  0.0405 -0.0800
  647TMC3    O1 9639   2.463   0.161  15.032  0.5199 -0.6726  0.1494
  647TMC3    O2 9640   1.980   0.397  15.203 -0.4940 -0.1812  0.2185
  648TMC3    C1 9641   1.526   3.142  16.328  0.3899  0.5013  0.3136
  648TMC3    C2 9642   1.590   3.037  16.273 -0.1093 -0.2942 -0.1530
  648TMC3    C3 9643   1.574   3.018  16.140 -0.5566  0.2699 -1.0440
  648TMC3    C4 9644   1.466   3.236  16.245  0.8535  0.0840  0.2937
  648TMC3    C5 9645   1.456   3.205  16.113  0.1096 -0.1402 -0.3529
  648TMC3    C6 9646   1.501   3.097  16.056  0.6859 -0.3036  0.2140
  648TMC3     C 9647   1.595   3.191  16.447  0.1754 -1.3529  0.2836
  648TMC3     O 9648   1.654   3.298  16.438 -0.0676 -0.3426  0.4869
  648TMC3     H 9649   1.651   2.978  16.341 -0.6271  0.4306  0.9311
  648TMC3    H1 9650   1.433   3.332  16.281 -0.8214 -0.3568 -0.0550
  648TMC3    H2 9651   1.501   3.080  15.949  0.9274  1.7490 -0.1062
  648TMC3    C7 9652   1.373   3.295  16.037  1.0769 -0.0576 -0.5504
  648TMC3    C8 9653   1.617   2.892  16.084  0.0201  0.3512 -0.4201
  648TMC3    O1 9654   1.381   3.286  15.916 -0.0489 -0.7908 -0.7027
  648TMC3    O2 9655   1.666   2.904  15.974 -0.2489  0.2466  0.0687
  649TMC3    C1 9656   0.278   4.480  12.889  0.2829  0.1582 -0.3735
  649TMC3    C2 9657   0.415   4.502  12.889  0.4030 -0.3061  0.1871
  649TMC3    C3 9658   0.487   4.451  12.992 -0.4657  0.6580 -0.7365
  649TMC3    C4 9659   0.218   4.414  12.993 -0.1844  0.2362  0.1521
  649TMC3    C5 9660   0.302   4.356  13.087  0.0480  0.4545 -0.4988
  649TMC3    C6 9661   0.432   4.382  13.099  0.4784  0.3615  0.0008
  649TMC3     C 9662   0.199   4.497  12.767  0.1347  1.0657 -0.2389
  649TMC3     O 9663   0.076   4.489  12.778  0.1038  0.2096  0.1998
  649TMC3     H 9664   0.458   4.565  12.813 -2.2058  0.4271 -0.6704
  649TMC3    H1 9665   0.113   4.390  12.985 -1.0454  3.9189  0.5901
  649TMC3    H2 9666   0.490   4.355  13.187  1.4145  0.3673 -0.6083
  649TMC3    C7 9667   0.230   4.300  13.202 -0.8025 -0.2817  0.5290
  649TMC3    C8 9668   0.634   4.453  12.975 -0.2626 -0.3953 -0.7393
  649TMC3    O1 9669   0.119   4.344  13.228  1.2323 -0.2378  0.6024
  649TMC3    O2 9670   0.677   4.543  12.900 -0.0903 -0.0375 -0.5856
  650TMC3    C1 9671   2.440   1.084  12.826 -0.1317  0.2520  0.9991
  650TMC3    C2 9672   2.406   1.215  12.850  0.3726 -0.3067  0.3038
  650TMC3    C3 9673   2.378   1.297  12.749  0.7874 -0.5571  0.1715
  650TMC3    C4 9674   2.447   1.041  12.694 -0.3432  0.9635 -0.5496
  650TMC3    C5 9675   2.426   1.131  12.593  0.4103 -0.0669  0.3243
  650TMC3    C6 9676   2.408   1.267  12.622  0.0952 -0.3047 -0.2093
  650TMC3     C 9677   2.395   0.994  12.923  0.5084  0.6202  0.3835
  650TMC3     O 9678   2.326   1.036  13.013  0.4028 -0.2449  0.4161
  650TMC3     H 9679   2.406   1.249  12.953  1.1245 -0.1903  0.2654
  650TMC3    H1 9680   2.472   0.941  12.661 -2.0855  0.0170  1.0280
  650TMC3    H2 9681   2.392   1.342  12.545  2.0694  1.2906  0.9371
  650TMC3    C7 9682   2.475   1.092  12.458 -0.2314 -0.5626 -0.4887
  650TMC3    C8 9683   2.343   1.441  12.767 -0.5466  0.1511 -0.1669
  650TMC3    O1 9684   2.478   0.975  12.436 -0.0293  0.0969 -0.0699
  650TMC3    O2 9685   2.378   1.516  12.683 -0.3625 -0.2612  0.2199
  651MPD2     C 9686   1.306   3.648  10.562  0.7609  0.5242 -0.2309
  651MPD2    C1 9687   1.316   3.698  10.691 -0.7659 -0.2503 -0.2826
  651MPD2    C2 9688   1.444   3.736  10.742 -0.0276  0.2158 -0.1995
  651MPD2    C3 9689   1.557   3.705  10.674  0.3010  0.2259 -1.0224
  651MPD2    C4 9690   1.540   3.642  10.556 -0.3330 -0.0786 -1.0849
  651MPD2    C5 9691   1.417   3.614  10.498  0.0634  0.6657  0.7055
  651MPD2     H 9692   1.453   3.790  10.835 -0.8236 -2.5373  1.4632
  651MPD2    H1 9693   1.620   3.604  10.493  1.0572 -1.0139  1.2356
  651MPD2    H2 9694   1.218   3.607  10.514  1.3411  0.1316 -0.9664
  651MPD2    H3 9695   1.400   3.573  10.399 -2.2353 -0.6065  1.6308
  651MPD2     N 9696   1.676   3.737  10.737  0.4245 -0.2063 -0.3367
  651MPD2    H5 9697   1.677   3.778  10.830  0.3836  2.2400 -1.4241
  651MPD2    N1 9698   1.203   3.723  10.769  0.1868  0.3293 -0.1359
  651MPD2    H7 9699   1.220   3.758  10.863 -0.0278 -0.0700  0.0520
  652TMC3    C1 9700   2.156   3.737  10.758 -0.3884  0.6780 -0.0523
  652TMC3    C2 9701   2.031   3.675  10.732  0.8088  0.4149 -0.3253
  652TMC3    C3 9702   1.914   3.745  10.766  0.2159  0.6599  0.2739
  652TMC3    C4 9703   2.166   3.862  10.805  0.5816 -0.3888  0.6678
  652TMC3    C5 9704   2.043   3.933  10.818  0.7109  0.6611 -0.5732
  652TMC3    C6 9705   1.918   3.880  10.811  0.2820 -0.3021 -0.1210
  652TMC3     C 9706   2.290   3.670  10.743 -0.0622 -0.1942 -1.1448
  652TMC3     O 9707   2.390   3.716  10.796 -0.4687 -0.2280  0.2592
  652TMC3     H 9708   2.026   3.573  10.696  1.1057  0.6042 -0.9145
  652TMC3    H1 9709   2.256   3.907  10.844  0.9891  0.6434 -1.4552
  652TMC3    H2 9710   1.831   3.936  10.843  0.6546  0.7509 -0.9815
  652TMC3    C7 9711   2.047   4.071  10.809 -0.7511 -0.3056 -0.3180
  652TMC3    C8 9712   1.801   3.706  10.681 -0.0399 -0.8357  0.3433
  652TMC3    O1 9713   1.953   4.131  10.865  0.3396  0.2303  0.0392
  652TMC3    O2 9714   1.831   3.639  10.583 -0.3992  0.2855 -0.2712
  653MPD2     C 9715   0.661   3.057   0.110  0.2555 -0.4058 -0.0485
  653MPD2    C1 9716   0.612   3.142   0.011 -0.3108  0.0679  0.0623
  653MPD2    C2 9717   0.544   3.088  17.653  0.3183 -0.1266 -0.3671
  653MPD2    C3 9718   0.523   2.950  17.646 -0.2148  0.1207  0.8106
  653MPD2    C4 9719   0.571   2.871  17.742  0.0522 -0.2161 -0.0954
  653MPD2    C5 9720   0.648   2.921   0.094 -0.3758 -0.1089 -0.4678
  653MPD2     H 9721   0.490   3.154  17.585 -2.7009 -0.1916  1.9583
  653MPD2    H1 9722   0.558   2.764   0.003 -1.3669  0.1212  1.9429
  653MPD2    H2 9723   0.698   3.096   0.204 -1.9618  1.4612  0.0612
  653MPD2    H3 9724   0.695   2.855   0.166  0.9818  1.4425  0.0789
  653MPD2     N 9725   0.464   2.899  17.528  0.3388 -0.3118 -0.3327
  653MPD2    H5 9726   0.422   2.962  17.460 -2.0867 -0.7729  0.7202
  653MPD2    N1 9727   0.621   3.284   0.018  0.2052 -0.5107 -0.4203
  653MPD2    H7 9728   0.573   3.338  17.696 -1.9796  1.3487  2.4872
  654TMC3    C1 9729   0.377   2.736  17.370 -0.4101 -0.1160  0.5094
  654TMC3    C2 9730   0.272   2.810  17.343  0.1053 -0.5894  0.5449
  654TMC3    C3 9731   0.206   2.781  17.228 -0.1965  0.3601 -0.1809
  654TMC3    C4 9732   0.422   2.624  17.299  0.5164 -0.5106  0.0690
  654TMC3    C5 9733   0.353   2.595  17.185  0.3762  0.0037 -0.0136
  654TMC3    C6 9734   0.251   2.679  17.144  0.2721 -0.3757 -0.1300
  654TMC3     C 9735   0.459   2.766  17.493 -0.9476 -0.3909  0.6111
  654TMC3     O 9736   0.514   2.665  17.535 -0.2934  0.3650 -0.1676
  654TMC3     H 9737   0.250   2.894  17.408  0.1491 -0.0148 -0.1796
  654TMC3    H1 9738   0.503   2.559  17.331  0.2487  1.2433  4.3366
  654TMC3    H2 9739   0.196   2.679  17.051  1.8541  1.3705 -1.0600
  654TMC3    C7 9740   0.298   2.457  17.170 -0.1091  0.2549  0.0955
  654TMC3    C8 9741   0.141   2.902  17.171  0.8241 -0.0521 -0.9184
  654TMC3    O1 9742   0.184   2.445  17.131 -0.1303  0.1276  0.4536
  654TMC3    O2 9743   0.066   2.968  17.245  0.6638 -0.3091  0.1382
  655MPD2     C 9744   1.845   3.323  15.885 -0.2834 -0.2188  0.2450
  655MPD2    C1 9745   1.774   3.430  15.838 -0.4563  0.1648 -0.1964
  655MPD2    C2 9746   1.732   3.424  15.714  0.0972  0.6069 -0.5322
  655MPD2    C3 9747   1.774   3.323  15.633  0.0910  0.1269  1.0922
  655MPD2    C4 9748   1.858   3.223  15.678  0.1673  0.6506 -0.0482
  655MPD2    C5 9749   1.894   3.225  15.804  0.2984  0.3865 -0.2039
  655MPD2     H 9750   1.665   3.499  15.672 -0.8408  0.3304  0.4704
  655MPD2    H1 9751   1.875   3.137  15.614 -0.2072  0.5229  0.0240
  655MPD2    H2 9752   1.872   3.315  15.990 -0.9416  0.3140  0.4609
  655MPD2    H3 9753   1.953   3.138  15.830  1.8230  0.8199 -2.2032
  655MPD2     N 9754   1.739   3.304  15.494 -0.2630 -0.4067 -0.4858
  655MPD2    H5 9755   1.796   3.241  15.439 -2.2252 -1.3841 -1.3941
  655MPD2    N1 9756   1.724   3.537  15.915  0.8785  0.7234 -0.3321
  655MPD2    H7 9757   1.660   3.601  15.870 -0.7235 -0.3338  0.4595
  656TMC3    C1 9758   1.693   3.676  16.096 -0.3989 -0.4363  0.0814
  656TMC3    C2 9759   1.611   3.640  16.193 -0.5275 -0.8245 -0.2008
  656TMC3    C3 9760   1.486   3.696  16.194 -0.3927 -0.5926  0.7501
  656TMC3    C4 9761   1.648   3.756  15.989 -0.1429 -1.2108  0.5980
  656TMC3    C5 9762   1.520   3.800  15.992 -0.6083  0.2402  0.1599
  656TMC3    C6 9763   1.438   3.778  16.096 -0.5442  0.5613  0.0472
  656TMC3     C 9764   1.750   3.555  16.046 -0.5564  0.1080  0.4517
  656TMC3     O 9765   1.804   3.485  16.131 -0.7476 -0.0153  0.4165
  656TMC3     H 9766   1.643   3.568  16.268  1.5615  2.1506  1.7680
  656TMC3    H1 9767   1.704   3.786  15.901 -2.3722 -0.0857 -0.4286
  656TMC3    H2 9768   1.336   3.813  16.105  0.0915  2.4439 -0.1100
  656TMC3    C7 9769   1.463   3.825  15.862  0.0825 -0.0930 -0.0885
  656TMC3    C8 9770   1.403   3.668  16.312  0.1590  0.2331  0.1422
  656TMC3    O1 9771   1.533   3.798  15.766 -0.1103  0.2836 -0.0932
  656TMC3    O2 9772   1.432   3.565  16.369 -0.4443  0.1277 -0.0372
  657TMC3    C1 9773   0.825   2.319  15.450  0.3808  0.2027  0.6318
  657TMC3    C2 9774   0.889   2.321  15.568 -0.0239  0.6757 -0.2024
  657TMC3    C3 9775   0.834   2.402  15.664  0.5499 -0.3374 -0.2104
  657TMC3    C4 9776   0.716   2.391  15.413  0.1760  0.0932  1.2459
  657TMC3    C5 9777   0.677   2.482  15.509  0.2267 -0.5012  0.8843
  657TMC3    C6 9778   0.725   2.487  15.633 -0.3471  0.5319 -0.3946
  657TMC3     C 9779   0.858   2.224  15.343  0.0994 -0.6199 -0.5758
  657TMC3     O 9780   0.765   2.198  15.266 -0.1393  0.6281  0.8828
  657TMC3     H 9781   0.972   2.257  15.593 -1.2335 -1.3582 -1.3970
  657TMC3    H1 9782   0.684   2.404  15.311  1.3212  2.4204  1.1950
  657TMC3    H2 9783   0.667   2.553  15.697 -0.3850  0.4873 -0.3831
  657TMC3    C7 9784   0.551   2.545  15.484 -0.3337  0.3948 -0.6670
  657TMC3    C8 9785   0.845   2.361  15.806  0.0307  0.1599  0.2237
  657TMC3    O1 9786   0.532   2.647  15.550 -0.6701 -0.4171  0.4795
  657TMC3    O2 9787   0.762   2.387  15.889 -0.0013 -0.2506  0.3164
  658MPD2     C 9788   1.944   3.359  14.759  0.1002  0.3376 -0.0360
  658MPD2    C1 9789   1.816   3.302  14.747 -0.3474 -0.0485  0.5874
  658MPD2    C2 9790   1.764   3.292  14.623  0.3539 -0.4682  0.0183
  658MPD2    C3 9791   1.823   3.342  14.514  0.2792  0.7677 -0.1102
  658MPD2    C4 9792   1.950   3.388  14.526  0.5353 -0.2883  0.3565
  658MPD2    C5 9793   2.014   3.400  14.646 -0.4632  0.1877  0.2678
  658MPD2     H 9794   1.663   3.253  14.622 -0.4392  1.4386  3.1043
  658MPD2    H1 9795   2.013   3.420  14.443 -1.4254 -1.4719 -1.5983
  658MPD2    H2 9796   1.993   3.363  14.855 -1.9625  0.6259  1.0015
  658MPD2    H3 9797   2.112   3.446  14.652 -1.4710  2.1869  1.4493
  658MPD2     N 9798   1.752   3.354  14.394  0.2931 -0.2212  0.5229
  658MPD2    H5 9799   1.666   3.300  14.388  0.4834 -0.1428 -3.0253
  658MPD2    N1 9800   1.737   3.272  14.861 -0.8091  0.1054  0.2118
  658MPD2    H7 9801   1.641   3.245  14.844 -0.7171 -1.3036  1.9453
  659TMC3    C1 9802   1.669   3.278  15.099  0.7299  0.3182  1.7869
  659TMC3    C2 9803   1.700   3.311  15.226 -0.1985 -0.0391  0.6003
  659TMC3    C3 9804   1.593   3.323  15.310 -0.2874 -0.0912 -0.4866
  659TMC3    C4 9805   1.546   3.250  15.060 -0.0707  0.0984  0.0254
  659TMC3    C5 9806   1.444   3.250  15.153 -0.7194  1.1311 -0.2367
  659TMC3    C6 9807   1.462   3.307  15.272  0.0995 -0.2862  0.4519
  659TMC3     C 9808   1.776   3.287  14.996 -0.1833 -0.5257 -0.4227
  659TMC3     O 9809   1.883   3.305  15.051 -0.5581 -0.0778  0.2913
  659TMC3     H 9810   1.800   3.328  15.263  0.0557 -0.6766  0.2032
  659TMC3    H1 9811   1.518   3.244  14.955  0.7863  0.5809 -0.2398
  659TMC3    H2 9812   1.393   3.296  15.354 -0.0011 -2.2179  0.1203
  659TMC3    C7 9813   1.326   3.165  15.134  0.0644 -0.1850  0.1466
  659TMC3    C8 9814   1.618   3.358  15.443 -0.5331  0.2710 -0.5949
  659TMC3    O1 9815   1.238   3.168  15.220 -0.1425 -0.7733  0.0876
  659TMC3    O2 9816   1.519   3.407  15.496 -0.4034 -0.1370 -0.7354
  660MPD2     C 9817   4.538   2.037  12.570  0.2378  0.3586 -0.4189
  660MPD2    C1 9818   4.400   2.050  12.564  0.4677  0.4534 -0.3075
  660MPD2    C2 9819   4.313   2.030  12.669 -0.5156 -0.4634  0.3294
  660MPD2    C3 9820   4.369   1.968  12.782  0.3908 -0.2708 -0.3220
  660MPD2    C4 9821   4.504   1.949  12.788  0.0728 -0.2979 -0.5544
  660MPD2    C5 9822   4.590   1.977  12.686  0.4582 -0.3190  0.4615
  660MPD2     H 9823   4.205   2.032  12.661 -0.8479 -0.1135  4.5085
  660MPD2    H1 9824   4.552   1.908  12.876 -2.0052  1.5018  1.4377
  660MPD2    H2 9825   4.601   2.071  12.488  0.0418  0.0796 -0.6890
  660MPD2    H3 9826   4.698   1.964  12.691  0.5917  0.4380 -0.4936
  660MPD2     N 9827   4.295   1.930  12.899  0.3743 -0.6093 -0.3486
  660MPD2    H5 9828   4.339   1.879  12.975 -0.6137 -2.7251 -1.1894
  660MPD2    N1 9829   4.351   2.101  12.440  0.8182 -0.3409 -0.3376
  660MPD2    H7 9830   4.417   2.094  12.363 -0.8630  0.4201 -1.8615
  661TMC3    C1 9831   4.209   2.205  12.284  0.2814  0.3624  0.4536
  661TMC3    C2 9832   4.318   2.259  12.221 -0.3488 -0.0651 -0.2490
  661TMC3    C3 9833   4.310   2.284  12.087 -0.2152  0.1746 -0.7618
  661TMC3    C4 9834   4.085   2.199  12.227  0.7285 -0.6065 -0.1184
  661TMC3    C5 9835   4.079   2.228  12.094 -0.1340 -0.3895 -0.0591
  661TMC3    C6 9836   4.189   2.259  12.018  0.1744 -0.2163 -0.0134
  661TMC3     C 9837   4.223   2.146  12.415  0.1492  0.2756 -0.4944
  661TMC3     O 9838   4.123   2.158  12.484  0.0507  0.4793  0.5377
  661TMC3     H 9839   4.416   2.262  12.266 -0.4801  3.7587 -0.1838
  661TMC3    H1 9840   4.004   2.152  12.280 -2.5826  1.4077 -3.3890
  661TMC3    H2 9841   4.165   2.275  11.913  0.4053  1.5861  0.2189
  661TMC3    C7 9842   3.953   2.210  12.029  0.6905  0.4523  0.5630
  661TMC3    C8 9843   4.414   2.360  12.008  0.4831 -0.8979 -0.6475
  661TMC3    O1 9844   3.968   2.178  11.911  0.2429 -0.5918 -0.0673
  661TMC3    O2 9845   4.467   2.454  12.066 -0.5894  0.2012 -0.1500
  662MPD2     C 9846   4.634   1.808  17.331 -0.3897  0.3228 -0.4039
  662MPD2    C1 9847   0.004   1.745  17.400 -0.3590  0.6254 -0.4998
  662MPD2    C2 9848   0.014   1.747  17.535 -0.3533 -0.0491 -1.0063
  662MPD2    C3 9849   4.660   1.818  17.600 -0.2055 -0.2701  0.1697
  662MPD2    C4 9850   4.558   1.885  17.536  0.1583 -0.3827  0.7374
  662MPD2    C5 9851   4.548   1.885  17.400 -0.3463  0.4367  0.1321
  662MPD2     H 9852   0.093   1.686  17.579  0.9155  0.7684 -2.1405
  662MPD2    H1 9853   4.489   1.948  17.593  0.2017 -0.0345  0.4097
  662MPD2    H2 9854   4.619   1.800  17.224  0.2179 -1.5456 -0.3536
  662MPD2    H3 9855   4.477   1.942  17.341  0.0904 -0.8958 -1.6710
  662MPD2     N 9856   4.657   1.824  17.746  0.3787 -0.1265 -0.0538
  662MPD2    H5 9857   4.582   1.872   0.046 -0.2437  0.0868 -1.2367
  662MPD2    N1 9858   0.097   1.664  17.327  0.2713  0.4267 -0.1919
  662MPD2    H7 9859   0.173   1.611  17.369 -0.1639 -0.7873 -0.9400
  663TMC3    C1 9860   0.243   1.607  17.154 -0.5017 -0.9644 -0.4929
  663TMC3    C2 9861   0.350   1.629  17.231 -0.0489  0.0644  0.2233
  663TMC3    C3 9862   0.479   1.601  17.170  0.4520 -0.3240 -0.2333
  663TMC3    C4 9863   0.251   1.528  17.045  0.2004  0.7998 -0.1773
  663TMC3    C5 9864   0.369   1.484  16.992  0.8101 -0.4759  0.4720
  663TMC3    C6 9865   0.487   1.519  17.061 -0.2173 -0.0448 -0.0876
  663TMC3     C 9866   0.116   1.663  17.189 -0.7299 -0.0347  0.3747
  663TMC3     O 9867   0.044   1.702  17.099  0.6541  0.0645 -0.5920
  663TMC3     H 9868   0.346   1.702  17.310 -1.2739  1.4046 -1.0938
  663TMC3    H1 9869   0.166   1.499  16.984  0.5870 -1.2166  0.2313
  663TMC3    H2 9870   0.586   1.482  17.036  0.7463  1.3869  1.5539
  663TMC3    C7 9871   0.380   1.348  16.937 -0.1994  0.1252 -0.0290
  663TMC3    C8 9872   0.598   1.570  17.258  0.4294 -0.0404 -0.6095
  663TMC3    O1 9873   0.475   1.320  16.863 -0.6390  0.2676  0.2995
  663TMC3    O2 9874   0.707   1.548  17.201 -0.0501  0.2751 -0.4233
  664MPD2     C 9875   2.829   4.428  17.178  0.6095 -0.1449 -0.0891
  664MPD2    C1 9876   2.863   4.532  17.260  0.2592  0.5534  0.2137
  664MPD2    C2 9877   2.829   4.535  17.390 -0.9326 -1.0480 -0.5612
  664MPD2    C3 9878   2.777   4.418  17.448 -0.4570  0.4946 -1.1340
  664MPD2    C4 9879   2.737   4.316  17.365 -0.3291  0.0250 -0.6064
  664MPD2    C5 9880   2.755   4.329  17.230  0.4570 -0.2183  0.1869
  664MPD2     H 9881   2.876   4.611  17.451 -0.9114 -0.1907 -1.6457
  664MPD2    H1 9882   2.682   4.228  17.398  1.1038 -0.6756 -0.1139
  664MPD2    H2 9883   2.855   4.418  17.073  0.3963  0.1349 -0.1688
  664MPD2    H3 9884   2.708   4.256  17.166  1.8335 -0.8612 -0.0844
  664MPD2     N 9885   2.771   4.417  17.591  0.6333 -0.3023 -0.2380
  664MPD2    H5 9886   2.798   4.496  17.648  3.2246 -2.5300  1.6209
  664MPD2    N1 9887   2.943   4.637  17.219  0.7105  0.2841 -0.1565
  664MPD2    H7 9888   2.933   4.723  17.271 -1.3680  0.5013 -0.9370
  665TMC3    C1 9889   2.737   4.323   0.051  0.6315  0.1630  0.3397
  665TMC3    C2 9890   2.630   4.331   0.136  0.4474 -0.1163 -0.7292
  665TMC3    C3 9891   2.654   4.376   0.265  0.4662  0.7334  0.2915
  665TMC3    C4 9892   2.870   4.355   0.084  0.0885  0.4416  0.1111
  665TMC3    C5 9893   2.882   4.402   0.214  0.8280  0.2835  0.3452
  665TMC3    C6 9894   2.780   4.408   0.304 -0.2298  0.5480  0.1339
  665TMC3     C 9895   2.709   4.314  17.658  0.1047 -0.3897  0.3618
  665TMC3     O 9896   2.626   4.236  17.621 -0.0845  0.6245  0.5478
  665TMC3     H 9897   2.531   4.303   0.103  0.7686 -2.9093  0.6963
  665TMC3    H1 9898   2.955   4.331   0.022  1.3053  1.3842  1.4259
  665TMC3    H2 9899   2.789   4.453   0.402  1.1585 -1.6272  1.0010
  665TMC3    C7 9900   3.017   4.451   0.250  0.0291 -0.3897 -0.5514
  665TMC3    C8 9901   2.554   4.366   0.372 -0.7270 -1.0303  0.7718
  665TMC3    O1 9902   3.093   4.450   0.158  0.2166 -0.2086 -0.8741
  665TMC3    O2 9903   2.581   4.409   0.485  0.2939  0.1714 -0.9141
  666TMC3    C1 9904   2.012   0.605  10.104  0.0918  0.6410 -0.3187
  666TMC3    C2 9905   2.095   0.515  10.046  0.2128  0.3921  0.1283
  666TMC3    C3 9906   2.210   0.570   9.999 -0.0626 -0.8653  0.2410
  666TMC3    C4 9907   2.036   0.740  10.108 -0.6211 -0.6293  0.0957
  666TMC3    C5 9908   2.157   0.787  10.051  0.2772  0.0541 -0.2582
  666TMC3    C6 9909   2.249   0.705  10.000 -0.8126  0.1159 -0.1522
  666TMC3     C 9910   1.892   0.560  10.180 -0.7679  0.0101 -0.1742
  666TMC3     O 9911   1.825   0.647  10.233 -0.1017  0.0492  0.1624
  666TMC3     H 9912   2.074   0.409  10.054  2.3686  0.1271  2.0033
  666TMC3    H1 9913   1.962   0.809  10.146  1.7249  1.3296  1.1246
  666TMC3    H2 9914   2.343   0.743   9.962 -0.5174 -2.3824 -1.8899
  666TMC3    C7 9915   2.194   0.922  10.085  0.6125  0.6611 -0.0112
  666TMC3    C8 9916   2.314   0.478   9.989 -0.0610 -0.0437 -0.0588
  666TMC3    O1 9917   2.299   0.964  10.038  0.3132 -0.3201 -0.0409
  666TMC3    O2 9918   2.288   0.365   9.945  0.2841  0.0160 -1.3414
  667MPD2     C 9919   3.766   0.118  14.747 -0.1411 -0.5786 -0.4794
  667MPD2    C1 9920   3.780   0.085  14.881  0.1491 -0.3140 -0.1709
  667MPD2    C2 9921   3.713   4.708  14.923  0.7127 -0.1952 -1.4199
  667MPD2    C3 9922   3.648   4.627  14.829 -0.0860  0.2634 -0.0924
  667MPD2    C4 9923   3.647   4.666  14.700 -0.0611  1.0921  0.0790
  667MPD2    C5 9924   3.695   0.044  14.660 -0.1370  0.0838 -0.1997
  667MPD2     H 9925   3.725   4.670  15.024 -1.0554  1.4376 -0.5898
  667MPD2    H1 9926   3.605   4.595  14.629  1.2342  0.2172  0.1817
  667MPD2    H2 9927   3.819   0.204  14.708 -1.0129  0.4755  0.6626
  667MPD2    H3 9928   3.695   0.074  14.556  0.2213 -0.6137 -0.4030
  667MPD2     N 9929   3.589   4.511  14.868  0.2094 -0.2683  0.4517
  667MPD2    H5 9930   3.566   4.454  14.787  2.2191 -1.2339  0.5719
  667MPD2    N1 9931   3.864   0.161  14.972 -0.2470 -0.3861 -0.1100
  667MPD2    H7 9932   3.865   0.134  15.069 -0.7262  0.5875  0.1677
  668TMC3    C1 9933   4.018   0.340  15.045  0.1799  0.1487  0.1329
  668TMC3    C2 9934   4.046   0.472  15.023  0.7288 -0.0372  0.1629
  668TMC3    C3 9935   4.158   0.524  15.075 -0.0138  0.3010  0.3523
  668TMC3    C4 9936   4.104   0.267  15.123 -0.3664  0.4006 -0.3308
  668TMC3    C5 9937   4.214   0.332  15.181 -0.0877  0.5211 -0.6828
  668TMC3    C6 9938   4.251   0.461  15.155 -0.0545 -0.4236 -0.0165
  668TMC3     C 9939   3.950   0.272  14.936 -0.1731  0.3272 -0.1079
  668TMC3     O 9940   3.970   0.322  14.829 -0.2219  0.3779  0.0526
  668TMC3     H 9941   3.999   0.525  14.941 -0.6795 -0.2330  0.8442
  668TMC3    H1 9942   4.090   0.160  15.136  2.0802 -0.1364 -2.1209
  668TMC3    H2 9943   4.340   0.507  15.196 -0.5172 -0.8148  1.4241
  668TMC3    C7 9944   4.305   0.260  15.275  0.1528 -0.5829  0.5394
  668TMC3    C8 9945   4.181   0.654  15.027 -0.9610  0.4147  0.4870
  668TMC3    O1 9946   4.416   0.311  15.287  0.6082  0.0335 -0.1072
  668TMC3    O2 9947   4.088   0.726  14.990 -0.2461  0.5776  0.4719
  669TMC3    C1 9948   1.757   4.474  14.672  0.1433  0.4291 -0.4977
  669TMC3    C2 9949   1.627   4.484  14.630 -0.3087 -0.0588 -0.2876
  669TMC3    C3 9950   1.602   4.574  14.532  0.2246 -0.0114 -0.1286
  669TMC3    C4 9951   1.863   4.538  14.617 -0.5500  0.5175  0.3138
  669TMC3    C5 9952   1.836   4.620  14.512  0.1616 -0.5740 -0.1212
  669TMC3    C6 9953   1.704   4.648  14.474  0.4891  0.1883 -0.2203
  669TMC3     C 9954   1.774   4.379  14.784 -0.4157  0.3239 -0.5164
  669TMC3     O 9955   1.671   4.339  14.838  0.0727 -0.5608 -0.2481
  669TMC3     H 9956   1.546   4.429  14.677  0.4498 -2.0564 -1.2734
  669TMC3    H1 9957   1.965   4.526  14.650 -0.5224  0.1664  0.1055
  669TMC3    H2 9958   1.693   4.715  14.389  2.1826 -1.5165 -1.7662
  669TMC3    C7 9959   1.947   4.646  14.416 -0.5243 -0.0507  0.0088
  669TMC3    C8 9960   1.484   4.538  14.442 -0.4786  0.0366  0.4107
  669TMC3    O1 9961   2.053   4.663  14.465  0.6123 -0.2235 -0.0261
  669TMC3    O2 9962   1.428   4.434  14.466  0.7049  0.6643 -0.2256
  670MPD2     C 9963   0.025   2.283  14.262 -0.7040 -0.0599  0.9045
  670MPD2    C1 9964   0.083   2.166  14.212  0.5394  0.1726 -0.2580
  670MPD2    C2 9965   0.096   2.058  14.302 -0.1407 -0.2311 -0.5960
  670MPD2    C3 9966   0.043   2.062  14.425  0.2673 -0.1181  0.1486
  670MPD2    C4 9967   4.735   2.175  14.473  0.2059  1.0462 -0.2324
  670MPD2    C5 9968   4.714   2.283  14.389  0.6122 -0.1734  0.1879
  670MPD2     H 9969   0.141   1.972  14.254  0.3516 -0.4022  0.1783
  670MPD2    H1 9970   4.711   2.184  14.578 -2.4358  1.5744 -0.8821
  670MPD2    H2 9971   0.009   2.376  14.208  0.3081 -0.4062  0.0093
  670MPD2    H3 9972   4.673   2.373  14.433  0.0791  1.3373 -3.4108
  670MPD2     N 9973   0.033   1.945  14.504 -0.3646 -0.5133 -0.3708
  670MPD2    H5 9974   0.048   1.854  14.461 -1.3815 -0.1028 -1.5986
  670MPD2    N1 9975   0.143   2.154  14.083 -0.1303  0.2677  0.2611
  670MPD2    H7 9976   0.184   2.067  14.051 -3.0172 -1.2355  0.6521
  671TMC3    C1 9977   0.049   1.814  14.690 -0.0369  0.1885 -0.2273
  671TMC3    C2 9978   0.158   1.770  14.762  0.8325  0.2765  0.6683
  671TMC3    C3 9979   0.176   1.634  14.775 -0.3883  1.0256 -0.4872
  671TMC3    C4 9980   4.692   1.734  14.643 -0.2974 -0.2724 -0.1659
  671TMC3    C5 9981   4.706   1.599  14.674 -0.1937 -0.4813  0.2956
  671TMC3    C6 9982   0.072   1.550  14.739 -0.7854 -0.4214 -0.2692
  671TMC3     C 9983   0.046   1.950  14.636 -0.4941  0.0174 -0.4571
  671TMC3     O 9984   0.079   2.038  14.712  0.3310 -0.0303 -0.3436
  671TMC3     H 9985   0.237   1.840  14.788  0.5860 -0.1630  2.6163
  671TMC3    H1 9986   4.598   1.771  14.603  0.4280 -2.2294 -3.6622
  671TMC3    H2 9987   0.090   1.443  14.738  1.8031  0.0427 -2.2446
  671TMC3    C7 9988   4.606   1.513  14.609  0.0469 -0.1230 -0.0014
  671TMC3    C8 9989   0.309   1.600  14.728  0.3717  0.1244 -0.6231
  671TMC3    O1 9990   4.562   1.419  14.675  0.3501 -0.3097 -0.1723
  671TMC3    O2 9991   0.309   1.537  14.624 -0.6434 -0.1712 -0.1839
  672MPD2     C 9992   0.430   2.805   0.993 -0.8046  0.7350 -0.3365
  672MPD2    C1 9993   0.543   2.741   0.956 -0.5105  0.2428 -0.1907
  672MPD2    C2 9994   0.654   2.777   1.019 -0.3359  0.7555  0.1294
  672MPD2    C3 9995   0.660   2.880   1.110 -0.2406 -0.2656 -0.2608
  672MPD2    C4 9996   0.540   2.946   1.150  0.6101 -0.1446  0.2405
  672MPD2    C5 9997   0.426   2.904   1.083  0.2442 -0.0185  0.4108
  672MPD2     H 9998   0.739   2.723   0.978  0.9815  1.0845  2.4116
  672MPD2    H1 9999   0.535   3.026   1.222 -0.9516 -0.7720  0.8247
  672MPD2    H210000   0.331   2.784   0.953 -0.8034  0.0853 -0.0108
  672MPD2    H310001   0.332   2.954   1.104 -0.5243  0.2871 -3.6428
  672MPD2     N10002   0.778   2.913   1.180  0.5937 -0.1790  0.7158
  672MPD2    H510003   0.775   2.992   1.245  1.5252  1.4842 -1.2677
  672MPD2    N110004   0.546   2.642   0.854 -0.7731  0.1038 -0.7828
  672MPD2    H710005   0.628   2.584   0.843 -2.6739 -2.8255  0.3608
  673TMC3    C110006   0.450   2.512   0.672  0.6031 -0.3514 -0.3917
  673TMC3    C210007   0.511   2.395   0.704 -0.5810 -0.3398 -0.5446
  673TMC3    C310008   0.497   2.298   0.602 -0.0051  0.7792  0.1076
  673TMC3    C410009   0.387   2.541   0.555  0.3355  0.2469  0.2315
  673TMC3    C510010   0.381   2.445   0.461 -0.2256 -0.4126  0.7629
  673TMC3    C610011   0.425   2.318   0.482 -0.2062 -0.9111  0.6982
  673TMC3     C10012   0.436   2.626   0.761  0.6477  0.0841 -0.9166
  673TMC3     O10013   0.340   2.698   0.742  0.9983  0.1239  0.0207
  673TMC3     H10014   0.566   2.364   0.792  1.8283 -0.3071 -2.0130
  673TMC3    H110015   0.341   2.637   0.533 -3.8314 -2.0293 -0.9896
  673TMC3    H210016   0.397   2.238   0.413  2.8353  0.1407 -1.7191
  673TMC3    C710017   0.294   2.460   0.344 -0.1663  0.2425  0.1050
  673TMC3    C810018   0.561   2.177   0.607  0.2461  0.0513 -0.0403
  673TMC3    O110019   0.320   2.387   0.250 -0.4121  0.6985  0.4177
  673TMC3    O210020   0.508   2.088   0.545 -0.2197 -0.0945 -0.4380
  674MPD2     C10021   0.076   2.344  17.551  0.3578 -0.0503 -0.4184
  674MPD2    C110022   0.012   2.302  17.663 -0.2831  0.3997 -0.3807
  674MPD2    C210023   4.621   2.340  17.695  0.0168  0.4890 -0.0642
  674MPD2    C310024   4.556   2.432  17.612 -0.4597 -0.1054 -0.1428
  674MPD2    C410025   4.616   2.487  17.497 -0.1280 -0.5867  0.3749
  674MPD2    C510026   0.003   2.436  17.475  0.5308  0.1898 -0.0812
  674MPD2     H10027   4.571   2.315   0.039 -1.1401  0.3276 -0.7355
  674MPD2    H110028   4.566   2.558  17.433  1.3427  0.3024  0.2031
  674MPD2    H210029   0.177   2.322  17.518 -0.4675 -1.6413 -1.8511
  674MPD2    H310030   0.053   2.464  17.383  1.0128  0.0479  0.1342
  674MPD2     N10031   4.429   2.463  17.652 -0.1347  0.0192 -0.0451
  674MPD2    H510032   4.385   2.403  17.722 -0.1379 -0.8414 -0.7914
  674MPD2    N110033   0.088   2.213  17.745  0.1219 -0.4173  0.5577
  674MPD2    H710034   0.186   2.196  17.721 -0.0157 -1.4921  0.7795
  675TMC3    C110035   0.144   2.079   0.178  0.1354  0.0586 -0.1918
  675TMC3    C210036   0.108   2.015   0.291 -0.1999 -0.5691 -0.2733
  675TMC3    C310037   0.211   1.955   0.360  0.0423 -0.0295  0.3006
  675TMC3    C410038   0.277   2.075   0.130 -0.2008 -0.0365 -0.1753
  675TMC3    C510039   0.372   2.012   0.206 -0.2233  0.1982  0.6198
  675TMC3    C610040   0.344   1.963   0.330  0.1787 -0.0048 -0.2246
  675TMC3     C10041   0.046   2.156   0.118 -0.1129  0.3840 -0.7864
  675TMC3     O10042   4.665   2.142   0.161  0.4832 -0.5889 -0.1073
  675TMC3     H10043   0.007   2.009   0.331  0.2588  0.8976  1.0966
  675TMC3    H110044   0.307   2.079   0.026  0.5079  1.5958  0.0959
  675TMC3    H210045   0.419   1.913   0.390  0.2135 -0.9830 -1.0944
  675TMC3    C710046   0.508   2.042   0.154  0.5671 -1.0743  0.3855
  675TMC3    C810047   0.171   1.897   0.483  0.6226  0.7774 -0.4739
  675TMC3    O110048   0.520   2.121   0.059 -0.2255 -0.7371 -0.0972
  675TMC3    O210049   0.059   1.849   0.499  0.0011 -0.2804  0.1568
  676MPD2     C10050   3.091   1.119  10.905  0.0552 -0.0448  0.3759
  676MPD2    C110051   2.961   1.099  10.935  0.0624 -0.6862  0.1752
  676MPD2    C210052   2.903   0.972  10.937  0.1111 -0.1851 -0.1929
  676MPD2    C310053   2.984   0.862  10.899 -0.2093 -0.2845 -0.3830
  676MPD2    C410054   3.115   0.886  10.866 -0.1720 -0.0709  0.1241
  676MPD2    C510055   3.168   1.010  10.869 -0.0474  0.0031 -0.1418
  676MPD2     H10056   2.799   0.956  10.964 -0.1334  1.9086  0.1056
  676MPD2    H110057   3.169   0.798  10.833  1.9655  1.8305 -1.3898
  676MPD2    H210058   3.130   1.220  10.906  0.5741 -0.2523  1.3997
  676MPD2    H310059   3.272   1.029  10.844  0.6788  0.1756  2.9622
  676MPD2     N10060   2.935   0.725  10.907 -0.1108 -0.4810 -0.1944
  676MPD2    H510061   3.000   0.649  10.885  2.4316  1.9081 -1.0257
  676MPD2    N110062   2.872   1.204  10.973 -0.2750 -0.0881  0.1848
  676MPD2    H710063   2.785   1.182  11.020 -0.3887  3.0857  1.4925
  677TMC3    C110064   2.800   1.412  11.036  0.2454  0.6179 -0.4112
  677TMC3    C210065   2.674   1.359  11.054 -0.0929 -0.3161  0.1794
  677TMC3    C310066   2.594   1.379  11.167 -0.2913 -0.0390 -0.1664
  677TMC3    C410067   2.845   1.495  11.137 -0.6878 -0.4628  1.6406
  677TMC3    C510068   2.765   1.515  11.251  0.2017  0.0594  0.0335
  677TMC3    C610069   2.640   1.458  11.267  0.1433 -0.1461 -0.5953
  677TMC3     C10070   2.894   1.341  10.955 -0.5783 -0.0173 -0.4081
  677TMC3     O10071   2.993   1.405  10.915  0.3240  0.6768  0.1123
  677TMC3     H10072   2.641   1.283  10.984 -0.3034  0.6744 -0.7907
  677TMC3    H110073   2.942   1.541  11.122 -1.7891  1.5165  0.5995
  677TMC3    H210074   2.587   1.470  11.361  1.1742  1.1315 -0.1786
  677TMC3    C710075   2.814   1.584  11.365 -0.3668  1.4222  0.5972
  677TMC3    C810076   2.544   1.253  11.217 -0.4593 -0.6376  0.2677
  677TMC3    O110077   2.777   1.540  11.471  0.4148 -0.5000  0.5659
  677TMC3    O210078   2.590   1.151  11.171 -0.2565 -0.0927  0.2098
  678MPD2     C10079   0.330   0.565   1.373  0.1178 -1.1035  0.6822
  678MPD2    C110080   0.301   0.531   1.239  0.1765  0.1367  0.0574
  678MPD2    C210081   0.187   0.574   1.183  0.3877  0.1013  0.1979
  678MPD2    C310082   0.099   0.644   1.263 -0.1781  0.3597 -0.1846
  678MPD2    C410083   0.127   0.686   1.391  0.0214 -0.4381  0.5992
  678MPD2    C510084   0.246   0.646   1.443  0.3979 -0.1132 -0.2157
  678MPD2     H10085   0.166   0.556   1.078  1.0270 -0.2389  0.1283
  678MPD2    H110086   0.056   0.742   1.451  2.0338  1.0197  1.6469
  678MPD2    H210087   0.424   0.543   1.424  1.0820 -0.3380 -0.7646
  678MPD2    H310088   0.276   0.660   1.546 -0.1634 -0.9105  0.0551
  678MPD2     N10089   4.708   0.649   1.205 -0.3423  0.1710 -0.4738
  678MPD2    H510090   4.697   0.611   1.112 -0.3285  1.2437 -0.9201
  678MPD2    N110091   0.401   0.476   1.152 -0.5646 -0.1805  0.1794
  678MPD2    H710092   0.380   0.510   1.058  0.7117  1.6122  0.5429
  679TMC3    C110093   0.702   0.264   0.923 -0.1673  0.4121 -0.1085
  679TMC3    C210094   0.661   0.279   1.053 -0.0677  0.1566  0.7761
  679TMC3    C310095   0.606   0.401   1.079  0.0594  0.4583  0.6050
  679TMC3    C410096   0.717   0.360   0.832 -0.0530 -0.4074 -0.1928
  679TMC3    C510097   0.659   0.483   0.869 -0.7422  0.4928 -0.1056
  679TMC3    C610098   0.599   0.502   0.990  0.5550 -0.2414  0.9401
  679TMC3     C10099   0.752   0.137   0.872 -0.2914 -0.1015 -0.0182
  679TMC3     O10100   0.826   0.145   0.776  0.1439 -0.1925 -0.4146
  679TMC3     H10101   0.649   0.197   1.122 -2.6187  0.8960  1.2065
  679TMC3    H110102   0.763   0.349   0.735 -0.5958 -0.3979 -0.4532
  679TMC3    H210103   0.566   0.598   1.029  2.7851 -0.2688  2.9498
  679TMC3    C710104   0.662   0.601   0.782  0.3298 -0.1402 -0.0239
  679TMC3    C810105   0.506   0.399   1.190 -0.9174  0.1958 -0.1053
  679TMC3    O110106   0.611   0.700   0.823 -0.3714 -0.1492 -0.0648
  679TMC3    O210107   0.510   0.328   1.290 -0.5467  0.3729  0.2104
  680MPD2     C10108   4.199   4.502  13.473  0.3246 -0.3250 -0.1104
  680MPD2    C110109   4.300   4.437  13.547  0.1603  0.2165 -0.7288
  680MPD2    C210110   4.388   4.507  13.621 -0.6245 -0.9833 -0.4128
  680MPD2    C310111   4.385   4.650  13.620  0.2800  0.4144  0.0434
  680MPD2    C410112   4.280   4.712  13.549 -0.0859  0.5093  0.6438
  680MPD2    C510113   4.195   4.636  13.472  0.4055  0.1873 -0.6342
  680MPD2     H10114   4.462   4.443  13.667 -0.4877 -1.4429 -1.2557
  680MPD2    H110115   4.270   0.082  13.551  2.1646  0.7071  0.3478
  680MPD2    H210116   4.130   4.458  13.402  0.4460 -2.3682  1.0428
  680MPD2    H310117   4.114   4.681  13.415  0.3186  3.6606  2.2837
  680MPD2     N10118   4.481   4.736  13.686 -0.4158  0.1373  0.3227
  680MPD2    H510119   4.478   0.100  13.680 -0.4681  0.0897 -0.4985
  680MPD2    N110120   4.309   4.296  13.542 -0.0643 -0.0084  1.0199
  680MPD2    H710121   4.386   4.251  13.590  0.7814 -0.9321 -1.2477
  681TMC3    C110122   4.250   4.069  13.507  0.0951  0.4990 -0.2863
  681TMC3    C210123   4.185   4.016  13.617  0.5981 -0.2256 -1.0165
  681TMC3    C310124   4.250   3.931  13.698 -0.3591 -0.2427 -0.0071
  681TMC3    C410125   4.382   4.037  13.491 -0.2750  0.0330 -0.3698
  681TMC3    C510126   4.448   3.944  13.573 -0.5532  0.9070  0.4076
  681TMC3    C610127   4.378   3.895  13.675  0.2509  0.3300  0.2422
  681TMC3     C10128   4.210   4.211  13.491 -0.0419 -0.4252  0.3293
  681TMC3     O10129   4.102   4.236  13.441 -0.0782  0.1643 -0.0432
  681TMC3     H10130   4.092   4.059  13.652  1.3253 -0.2492  0.9135
  681TMC3    H110131   4.428   4.085  13.405  0.4369  1.5175  0.8323
  681TMC3    H210132   4.431   3.831  13.746 -1.0556  0.4313  1.3022
  681TMC3    C710133   4.595   3.908  13.567 -0.1200 -0.7283  0.1161
  681TMC3    C810134   4.188   3.913  13.829  0.0369  0.0494 -0.2808
  681TMC3    O110135   4.639   3.836  13.654  0.0899 -0.1287  0.2612
  681TMC3    O210136   4.066   3.897  13.833 -0.0110 -0.3527 -0.1949
  682MPD2     C10137   1.519   1.675  11.133 -0.7760 -0.3720 -0.0316
  682MPD2    C110138   1.607   1.580  11.186 -0.1432  0.6623 -0.1709
  682MPD2    C210139   1.580   1.536  11.312 -0.3563  0.2035  0.0275
  682MPD2    C310140   1.466   1.571  11.390  0.1515 -1.1738  0.4388
  682MPD2    C410141   1.375   1.644  11.318  0.1178  0.6530 -0.0211
  682MPD2    C510142   1.403   1.707  11.197 -0.6563  0.0480 -0.8319
  682MPD2     H10143   1.645   1.466  11.364 -0.7871  1.7450  2.6840
  682MPD2    H110144   1.282   1.670  11.367 -0.7628 -1.5363 -0.5568
  682MPD2    H210145   1.544   1.719  11.037 -1.2311 -0.2130 -0.0780
  682MPD2    H310146   1.336   1.778  11.151 -1.2640  0.4076  0.6148
  682MPD2     N10147   1.424   1.511  11.516  0.1686  0.1819  0.2750
  682MPD2    H510148   1.325   1.527  11.537  0.6687 -1.7867  4.0957
  682MPD2    N110149   1.719   1.529  11.116 -0.2983 -0.1182 -0.5199
  682MPD2    H710150   1.768   1.448  11.153  0.4312  1.9033  2.8742
  683TMC3    C110151   1.503   1.233  11.904 -0.1998 -0.4842  0.7609
  683TMC3    C210152   1.402   1.150  11.878  0.0514 -0.4968  0.2246
  683TMC3    C310153   1.329   1.174  11.767 -0.3196 -0.8361  0.4966
  683TMC3    C410154   1.522   1.342  11.822  0.3617 -0.7712  1.4601
  683TMC3    C510155   1.447   1.365  11.712  0.3693 -0.1723  0.3081
  683TMC3    C610156   1.338   1.288  11.687 -0.5366 -0.2205 -0.5768
  683TMC3     C10157   1.629   1.163  11.920  0.1025  0.5011  0.2813
  683TMC3     O10158   1.637   1.067  11.843 -0.2214  0.0084 -0.0671
  683TMC3     H10159   1.385   1.057  11.932 -0.4600  0.1325  1.1566
  683TMC3    H110160   1.618   1.393  11.819 -0.3463  0.4895  0.0439
  683TMC3    H210161   1.283   1.293  11.594 -1.3076 -1.6229 -0.1821
  683TMC3    C710162   1.506   1.440  11.600 -0.6327  0.5336  0.3776
  683TMC3    C810163   1.277   1.050  11.704 -0.0126  0.7234  0.3062
  683TMC3    O110164   1.627   1.425  11.586 -0.0544  0.0639  0.6084
  683TMC3    O210165   1.185   1.060  11.625  0.0790 -0.6292  0.1801
  684MPD2     C10166   0.268   0.008  16.525 -1.3530  0.7755 -0.4570
  684MPD2    C110167   0.186   0.066  16.432  0.1056 -0.7236 -0.2031
  684MPD2    C210168   0.130   0.189  16.453 -0.1840 -0.1239  0.0627
  684MPD2    C310169   0.173   0.271  16.555 -0.0702 -0.6375 -0.4685
  684MPD2    C410170   0.251   0.216  16.653  0.9687 -0.0457  0.4228
  684MPD2    C510171   0.290   0.079  16.643  0.0615  0.0861  0.1403
  684MPD2     H10172   0.058   0.225  16.380  1.0676  3.1093  0.4332
  684MPD2    H110173   0.281   0.276  16.738  0.2453 -0.3913  0.9263
  684MPD2    H210174   0.299   4.641  16.517  2.5326  1.8982 -0.2349
  684MPD2    H310175   0.341   0.038  16.729 -0.1666 -0.6442 -0.0781
  684MPD2     N10176   0.158   0.412  16.554 -0.4465 -0.0270 -0.7014
  684MPD2    H510177   0.191   0.460  16.637  0.0890 -1.8690  0.1287
  684MPD2    N110178   0.156   0.013  16.307  0.2584  0.0992 -0.0622
  684MPD2    H710179   0.114   0.084  16.247 -1.7955 -0.3360  0.8865
  685TMC3    C110180   0.211   4.634  16.109  0.1498  0.5025 -0.2339
  685TMC3    C210181   0.133   4.714  16.033  0.1391  0.3486 -0.1719
  685TMC3    C310182   0.177   0.009  15.906 -0.1939 -0.2214  0.1056
  685TMC3    C410183   0.304   4.559  16.051  0.3796 -0.1454 -0.0673
  685TMC3    C510184   0.344   4.593  15.921 -0.1194  0.6745  0.1003
  685TMC3    C610185   0.291   4.693  15.852  0.2850 -0.8561  0.1315
  685TMC3     C10186   0.209   4.638  16.253 -0.5172 -0.3926  0.2886
  685TMC3     O10187   0.266   4.541  16.308  0.0532 -0.3160 -0.2072
  685TMC3     H10188   0.034   0.005  16.068  0.4759  1.1955  0.0805
  685TMC3    H110189   0.361   4.491  16.114 -0.4023  1.3940  2.2913
  685TMC3    H210190   0.327   4.722  15.754  0.6679  0.7029  0.7387
  685TMC3    C710191   0.486   4.564  15.918 -0.3172  0.0213  0.2243
  685TMC3    C810192   0.088   0.088  15.825  0.8067 -0.3201 -0.5090
  685TMC3    O110193   0.535   4.460  15.967  0.7546  0.1273  0.1560
  685TMC3    O210194   0.094   0.070  15.703  0.4136  0.3998  0.6379
  686MPD2     C10195   1.652   0.234  15.376 -0.2823  0.1656  0.2568
  686MPD2    C110196   1.716   0.143  15.458  0.0236  0.3556 -0.1546
  686MPD2    C210197   1.796   0.043  15.403  0.3914  0.2192  0.5424
  686MPD2    C310198   1.791   0.027  15.266 -0.4033  0.4793 -0.1305
  686MPD2    C410199   1.725   0.112  15.183  0.5634  0.6557 -0.1597
  686MPD2    C510200   1.658   0.220  15.236 -0.0977 -0.0919  0.0161
  686MPD2     H10201   1.862   4.721  15.465 -1.7266 -1.1101  1.5356
  686MPD2    H110202   1.719   0.087  15.078 -1.4700  0.3503  0.0384
  686MPD2    H210203   1.603   0.311  15.435 -0.8839 -0.1887  0.2207
  686MPD2    H310204   1.612   0.298  15.177 -0.7217 -0.1811  0.3840
  686MPD2     N10205   1.852   4.653  15.200 -0.3684  0.0999 -0.4917
  686MPD2    H510206   1.871   4.688  15.107 -1.3265 -1.2822 -1.2076
  686MPD2    N110207   1.677   0.150  15.594 -0.4984 -0.4695 -0.3230
  686MPD2    H710208   1.599   0.211  15.615  0.5418  0.8973 -0.4697
  687TMC3    C110209   1.859   4.484  15.371  0.0843  0.1673  0.1688
  687TMC3    C210210   1.722   4.485  15.395 -0.2309 -0.1247 -0.3247
  687TMC3    C310211   1.678   4.448  15.516 -0.1065 -0.7074  0.1870
  687TMC3    C410212   1.954   4.443  15.467 -0.2540 -0.1534 -0.1015
  687TMC3    C510213   1.898   4.409  15.591 -0.2273 -0.0209 -0.5303
  687TMC3    C610214   1.761   4.404  15.618 -0.7933  0.0565  0.2554
  687TMC3     C10215   1.914   4.538  15.251  0.3504 -0.0044  0.2776
  687TMC3     O10216   2.005   4.476  15.198  0.3496 -0.5260  0.3118
  687TMC3     H10217   1.660   4.497  15.307  0.0253 -1.7229 -0.7112
  687TMC3    H110218   2.060   4.456  15.448 -0.5585 -0.1728 -1.8677
  687TMC3    H210219   1.726   4.376  15.717  0.4885 -2.9800 -0.1240
  687TMC3    C710220   1.987   4.385  15.699 -0.0445  0.5811 -0.8816
  687TMC3    C810221   1.539   4.456  15.537 -0.7520  0.1557  0.2083
  687TMC3    O110222   2.032   4.273  15.715 -0.1815 -0.0107 -0.1199
  687TMC3    O210223   1.486   4.362  15.594  0.4027  0.2447  0.5125
  688MPD2     C10224   0.811   3.921  17.367  0.1028 -0.2983  0.3582
  688MPD2    C110225   0.890   3.827  17.424  0.3231  0.0652  0.2180
  688MPD2    C210226   1.014   3.802  17.376 -0.2110  0.6869  0.7054
  688MPD2    C310227   1.062   3.878  17.274 -0.8001  0.6150  0.9730
  688MPD2    C410228   0.988   3.978  17.210 -0.6044 -0.1494 -0.0603
  688MPD2    C510229   0.860   3.994  17.257 -0.7343  0.3147 -0.2802
  688MPD2     H10230   1.077   3.722  17.414 -0.8342  1.5879  3.6233
  688MPD2    H110231   1.019   4.033  17.122 -0.0966 -0.9771 -0.4007
  688MPD2    H210232   0.706   3.936  17.386 -0.1686  1.8764 -2.7441
  688MPD2    H310233   0.794   4.060  17.202 -0.4795  0.2897 -0.6152
  688MPD2     N10234   1.193   3.864  17.213  0.0177 -0.4078 -0.8534
  688MPD2    H510235   1.207   3.921  17.131  1.3388 -1.8328 -1.6189
  688MPD2    N110236   0.835   3.760  17.537 -0.0951 -0.4873 -0.1819
  688MPD2    H710237   0.903   3.692  17.570  1.1489  1.3362  1.0189
  689TMC3    C110238   0.704   3.703  17.719 -0.5095  0.4206  0.6959
  689TMC3    C210239   0.657   3.781   0.072  0.1262 -0.5814  0.2854
  689TMC3    C310240   0.615   3.715   0.185  0.2050  0.0929 -0.4201
  689TMC3    C410241   0.718   3.561  17.731 -0.1255 -0.2021 -0.0071
  689TMC3    C510242   0.664   3.508   0.100  0.1896 -0.5753 -0.2381
  689TMC3    C610243   0.617   3.585   0.199 -0.1102 -0.3774  0.3461
  689TMC3     C10244   0.710   3.773  17.594  0.0314 -0.5009 -0.5025
  689TMC3     O10245   0.612   3.842  17.568 -0.3054 -0.8501 -0.5780
  689TMC3     H10246   0.647   3.889   0.076  0.5257 -0.5021 -1.2470
  689TMC3    H110247   0.751   3.494  17.651  1.1980  0.1014  0.2838
  689TMC3    H210248   0.592   3.537   0.293  0.0600  0.0307  0.6028
  689TMC3    C710249   0.660   3.362   0.125 -0.0879  0.1139  0.4484
  689TMC3    C810250   0.595   3.792   0.305 -0.3049  0.0550  0.1329
  689TMC3    O110251   0.679   3.319   0.236 -0.1073  0.2273  0.3024
  689TMC3    O210252   0.661   3.894   0.319 -0.0129 -0.1287  0.3564
  690MPD2     C10253   3.647   0.761  15.215  0.0904 -0.1228 -0.1291
  690MPD2    C110254   3.512   0.776  15.188  0.5587  0.5808  0.0221
  690MPD2    C210255   3.465   0.752  15.063 -0.2649  0.1959  0.0081
  690MPD2    C310256   3.555   0.729  14.960  0.4968 -0.5703 -0.2832
  690MPD2    C410257   3.692   0.725  14.987 -0.0331 -0.3844  0.4298
  690MPD2    C510258   3.738   0.737  15.116 -0.2267  0.0447 -0.7376
  690MPD2     H10259   3.359   0.755  15.041 -0.3756 -1.9891  0.2773
  690MPD2    H110260   3.760   0.699  14.906 -1.4611  1.0051 -1.2174
  690MPD2    H210261   3.683   0.785  15.314 -0.4343  0.1256  0.0003
  690MPD2    H310262   3.843   0.733  15.143 -0.3890 -1.1448 -0.2808
  690MPD2     N10263   3.502   0.708  14.828  0.4204 -0.1817  1.0437
  690MPD2    H510264   3.402   0.720  14.818  0.3376  0.6066  2.8523
  690MPD2    N110265   3.411   0.788  15.289  0.2480 -0.0700  0.5959
  690MPD2    H710266   3.315   0.798  15.258  0.2362 -1.4286  0.1905
  691TMC3    C110267   3.321   0.810  15.504  0.3199 -0.2147  0.6964
  691TMC3    C210268   3.202   0.855  15.457  0.8700  0.4097  0.6225
  691TMC3    C310269   3.098   0.834  15.546 -0.0553  1.0918 -0.4562
  691TMC3    C410270   3.338   0.768  15.633 -0.2189  0.1259 -0.3594
  691TMC3    C510271   3.229   0.747  15.713 -0.2279 -0.2715 -0.2045
  691TMC3    C610272   3.107   0.783  15.672  0.3583 -0.5403  0.1862
  691TMC3     C10273   3.433   0.815  15.418  0.1004 -0.1748  0.1744
  691TMC3     O10274   3.539   0.807  15.482  0.3902  0.1617  0.2400
  691TMC3     H10275   3.191   0.901  15.360  0.5119 -1.1781 -0.0911
  691TMC3    H110276   3.438   0.747  15.672  1.0123  3.2516 -1.8361
  691TMC3    H210277   3.014   0.764  15.724  0.7194 -0.4110  0.8694
  691TMC3    C710278   3.237   0.628  15.800  0.2258 -0.0408  0.5097
  691TMC3    C810279   2.967   0.845  15.490  0.2286  0.1618  0.1577
  691TMC3    O110280   3.347   0.591  15.832  0.0385  0.0157 -0.0875
  691TMC3    O210281   2.965   0.794  15.373  0.6742  0.6113  0.1123
  692TMC3    C110282   4.517   1.619  15.721  0.2503  0.3339 -0.9700
  692TMC3    C210283   4.618   1.663  15.793  0.2071 -0.9575 -0.4095
  692TMC3    C310284   4.692   1.575  15.869  0.1211  0.4363  0.7671
  692TMC3    C410285   4.487   1.487  15.710  0.4750 -0.1817 -0.4320
  692TMC3    C510286   4.566   1.399  15.783 -0.0867  0.5666 -0.0014
  692TMC3    C610287   4.659   1.444  15.876 -0.3587  0.5848 -0.3084
  692TMC3     C10288   4.409   1.711  15.708 -0.3138 -0.4287  0.0809
  692TMC3     O10289   4.298   1.664  15.734  0.0003 -0.1787 -0.1347
  692TMC3     H10290   4.659   1.760  15.766  0.6859 -0.8083  0.8355
  692TMC3    H110291   4.405   1.456  15.645 -1.0631 -1.7172  2.2369
  692TMC3    H210292   4.734   1.382  15.924  0.2242  1.2613 -0.3474
  692TMC3    C710293   4.550   1.257  15.759  0.3704 -0.0344  0.2566
  692TMC3    C810294   4.737   1.630  15.999  0.4132  0.2318 -0.8144
  692TMC3    O110295   4.504   1.209  15.656 -0.3385 -0.6977  0.1425
  692TMC3    O210296   0.016   1.557  16.094  0.3898 -0.0684 -0.0797
  693MPD2     C10297   3.827   0.208  10.559 -0.4897 -0.2558  0.1716
  693MPD2    C110298   3.767   0.171  10.681  0.2231 -0.0567 -0.0009
  693MPD2    C210299   3.839   0.099  10.768 -0.5304  0.4152  0.7741
  693MPD2    C310300   3.973   0.069  10.751  0.3431 -0.1879  0.4869
  693MPD2    C410301   4.031   0.129  10.645 -0.3097 -0.2088  0.1280
  693MPD2    C510302   3.961   0.201  10.556 -0.6318  0.2879 -0.4148
  693MPD2     H10303   3.776   0.057  10.846 -2.6950 -3.0927 -2.8753
  693MPD2    H110304   4.137   0.110  10.633  0.3160  2.7577  0.8107
  693MPD2    H210305   3.773   0.271  10.489  0.9069 -0.1547 -0.8172
  693MPD2    H310306   4.013   0.243  10.471 -1.1059 -1.9111 -1.7716
  693MPD2     N10307   4.048   4.733  10.842 -0.2980  0.3052 -0.0551
  693MPD2    H510308   4.148   4.727  10.827 -0.3178  2.2077 -0.9254
  693MPD2    N110309   3.627   0.189  10.697 -0.9896  0.4866 -0.2650
  693MPD2    H710310   3.576   0.232  10.620 -0.6625 -1.6908 -1.6975
  694TMC3    C110311   3.398   0.174  10.783 -0.3229  0.0548 -0.0569
  694TMC3    C210312   3.345   0.077  10.702 -0.9249 -0.0620  0.9102
  694TMC3    C310313   3.230   0.013  10.737 -0.3229  0.1130 -0.1310
  694TMC3    C410314   3.329   0.191  10.904 -0.0616 -0.5286  0.5849
  694TMC3    C510315   3.227   0.112  10.942 -0.0220  0.5136 -0.0719
  694TMC3    C610316   3.164   0.029  10.854  0.0066  0.6074 -0.0558
  694TMC3     C10317   3.545   0.162  10.809  0.6023 -0.0451 -0.3776
  694TMC3     O10318   3.569   0.118  10.923 -0.2599 -0.1999 -0.7422
  694TMC3     H10319   3.398   0.053  10.611 -0.7687  0.9076  0.7487
  694TMC3    H110320   3.377   0.241  10.988 -1.0571  0.4619  0.5642
  694TMC3    H210321   3.082   4.703  10.884 -0.1943 -0.0931 -2.1231
  694TMC3    C710322   3.209   0.087  11.084  0.0511  0.0743  0.0826
  694TMC3    C810323   3.175   4.664  10.636 -0.1153 -0.4750 -0.0355
  694TMC3    O110324   3.244   0.171  11.163  0.7230  0.0386  0.3237
  694TMC3    O210325   3.092   4.582  10.670 -0.4229 -0.3818  0.0343
  695MPD2     C10326   0.520   1.788  13.629 -0.3534  0.0564 -0.3799
  695MPD2    C110327   0.473   1.731  13.741 -0.3076  0.9863  0.2573
  695MPD2    C210328   0.347   1.681  13.741  0.0094  0.5846  0.6482
  695MPD2    C310329   0.260   1.690  13.631  0.2709 -0.6559  0.3733
  695MPD2    C410330   0.309   1.744  13.514  0.4710  0.5027  0.3615
  695MPD2    C510331   0.439   1.795  13.518  0.5577 -0.0997  0.6846
  695MPD2     H10332   0.310   1.626  13.827 -0.7362 -0.5031 -0.3603
  695MPD2    H110333   0.257   1.755  13.419 -0.6563  0.5206  0.9821
  695MPD2    H210334   0.620   1.829  13.624  0.0546 -0.8309  0.5912
  695MPD2    H310335   0.487   1.845  13.435 -1.9979  1.0563 -0.1101
  695MPD2     N10336   0.128   1.663  13.658 -0.0762 -0.1447  0.6075
  695MPD2    H510337   0.112   1.603  13.739  0.1659  2.3240  2.4952
  695MPD2    N110338   0.555   1.710  13.849  0.2063  0.3410  0.1930
  695MPD2    H710339   0.511   1.664  13.928  0.8463 -0.4060  0.1112
  696TMC3    C110340   4.629   1.648  13.629  0.3811 -0.4820 -0.3356
  696TMC3    C210341   4.627   1.603  13.757 -0.4587  0.2499 -0.3676
  696TMC3    C310342   4.509   1.604  13.822 -0.1040 -0.0742  0.4017
  696TMC3    C410343   4.515   1.678  13.557  0.2501  0.6416 -0.1979
  696TMC3    C510344   4.399   1.675  13.627 -0.4645  0.4633  0.1434
  696TMC3    C610345   4.397   1.637  13.760 -0.5270  0.7488  0.0840
  696TMC3     C10346   0.025   1.699  13.574  0.0368 -0.2880 -0.2605
  696TMC3     O10347   0.021   1.764  13.468  0.6527 -0.2735  0.0294
  696TMC3     H10348   4.715   1.573  13.814 -1.5923 -1.3760  0.5393
  696TMC3    H110349   4.519   1.729  13.461  1.2686  0.9437  0.0128
  696TMC3    H210350   4.314   1.635  13.830  1.0215 -0.1010  1.8903
  696TMC3    C710351   4.319   1.794  13.601 -0.4895  0.1174 -0.0144
  696TMC3    C810352   4.522   1.588  13.967  0.7029  0.7709 -0.1855
  696TMC3    O110353   4.332   1.823  13.482 -0.9090  0.2150  0.1558
  696TMC3    O210354   4.629   1.607  14.018 -0.3266  0.2621 -0.2571
  697MPD2     C10355   4.271   3.359  15.461 -0.4244 -0.2376 -0.8475
  697MPD2    C110356   4.217   3.308  15.349 -0.1603  0.3616  0.8099
  697MPD2    C210357   4.178   3.392  15.245 -0.6210 -0.1298  0.1113
  697MPD2    C310358   4.203   3.535  15.256 -0.0276  0.6455  0.3171
  697MPD2    C410359   4.263   3.585  15.372 -0.0115 -0.2062  0.0643
  697MPD2    C510360   4.303   3.493  15.467  0.5467 -0.4836 -0.3332
  697MPD2     H10361   4.134   3.342  15.160 -0.7778 -0.4039  0.3515
  697MPD2    H110362   4.288   3.690  15.381 -1.4384 -0.1953  3.7629
  697MPD2    H210363   4.311   3.299  15.541  1.8741  1.1250 -0.9866
  697MPD2    H310364   4.363   3.536  15.547 -1.3254 -1.0373  1.3795
  697MPD2     N10365   4.170   3.618  15.142  0.0885 -0.7385  0.4233
  697MPD2    H510366   4.112   3.573  15.071 -0.2367 -0.2088  0.3551
  697MPD2    N110367   4.182   3.169  15.333 -0.0438  0.5153 -0.2191
  697MPD2    H710368   4.123   3.136  15.257  0.5206  1.9499 -1.2807
  698TMC3    C110369   4.158   3.803  15.010  0.3740  0.9638 -0.3920
  698TMC3    C210370   4.167   3.936  15.003  0.8435 -0.7050 -0.3611
  698TMC3    C310371   4.133   3.980  14.876  0.2100 -0.3789 -0.0995
  698TMC3    C410372   4.151   3.719  14.905  0.6940 -0.6036  0.1288
  698TMC3    C510373   4.142   3.775  14.779 -0.3049  0.3697  0.1666
  698TMC3    C610374   4.121   3.904  14.765  0.7308 -0.2519 -0.0595
  698TMC3     C10375   4.211   3.743  15.123  0.4256 -0.8642 -0.2892
  698TMC3     O10376   4.276   3.812  15.199 -0.3111  0.4055 -0.5803
  698TMC3     H10377   4.174   4.007  15.084  1.8923  0.8806 -1.8338
  698TMC3    H110378   4.162   3.611  14.909  0.5285 -0.5988  0.7434
  698TMC3    H210379   4.136   3.941  14.665  0.6054 -0.0632 -0.0081
  698TMC3    C710380   4.201   3.696  14.675 -0.3133 -0.4575  0.4626
  698TMC3    C810381   4.147   4.120  14.851  0.0138  0.1277 -0.4092
  698TMC3    O110382   4.284   3.614  14.705  0.2284  0.0425  0.3529
  698TMC3    O210383   4.078   4.177  14.764  0.0243  0.3294 -0.8836
  699TMC3    C110384   4.138   1.932  13.067  0.0385 -0.4163 -0.1686
  699TMC3    C210385   4.180   1.806  13.114 -0.8351  0.1677  0.4857
  699TMC3    C310386   4.121   1.754  13.218 -0.3631 -0.2040  0.2054
  699TMC3    C410387   4.039   2.002  13.135 -0.1715 -0.3440  0.2809
  699TMC3    C510388   3.980   1.937  13.240 -0.2667  0.0148  0.1111
  699TMC3    C610389   4.019   1.812  13.283  0.1593 -0.4902 -0.5386
  699TMC3     C10390   4.173   1.982  12.933  0.7060  0.0489  0.0749
  699TMC3     O10391   4.107   2.073  12.883 -0.7480  0.0373  0.1283
  699TMC3     H10392   4.241   1.735  13.059  0.8649  2.1495 -0.2368
  699TMC3    H110393   3.998   2.093  13.093  3.4797  1.8385  1.4959
  699TMC3    H210394   3.961   1.754  13.354 -2.0069 -2.1162 -3.6338
  699TMC3    C710395   3.895   2.010  13.326  0.2086  0.4896  1.1297
  699TMC3    C810396   4.165   1.623  13.263 -0.4997  0.6590 -0.4221
  699TMC3    O110397   3.872   1.957  13.434 -0.5373  0.0770 -0.5601
  699TMC3    O210398   4.084   1.573  13.340 -0.1025  0.3986  0.6946
  700TMC3    C110399   3.502   4.060  17.341 -0.1615 -0.4082  0.0039
  700TMC3    C210400   3.592   3.963  17.322  0.6567 -0.3565  0.0823
  700TMC3    C310401   3.698   3.952  17.405  0.6752  0.3735  0.2492
  700TMC3    C410402   3.519   4.151  17.448  0.4175 -0.5965 -0.3501
  700TMC3    C510403   3.628   4.139  17.529 -0.5853  0.2854  0.3003
  700TMC3    C610404   3.720   4.042  17.506 -0.2749 -0.3361 -0.3422
  700TMC3     C10405   3.459   4.116  17.221 -0.3642  0.0397  0.2155
  700TMC3     O10406   3.390   4.037  17.154 -0.4064 -0.2750 -0.3559
  700TMC3     H10407   3.572   3.892  17.243 -1.5774  0.5858 -0.2095
  700TMC3    H110408   3.458   4.240  17.454 -0.0829 -1.1216  2.8639
  700TMC3    H210409   3.816   4.046  17.555  0.2861 -0.6122 -1.4147
  700TMC3    C710410   3.657   4.245  17.617 -0.0029 -0.5205  0.1139
  700TMC3    C810411   3.800   3.854  17.373  1.1966  0.5046  0.2637
  700TMC3    O110412   3.775   4.268  17.637  0.2638  0.1468 -0.2209
  700TMC3    O210413   3.794   3.808  17.259  0.3084  0.3730 -0.1643
  701TMC3    C110414   3.713   2.746  15.619  0.4224  0.1525 -0.0261
  701TMC3    C210415   3.668   2.729  15.487 -0.2169  0.0554  0.0832
  701TMC3    C310416   3.736   2.787  15.389  0.2938  0.5846  0.6005
  701TMC3    C410417   3.817   2.830  15.652  0.8482  0.1533  0.2593
  701TMC3    C510418   3.881   2.891  15.546 -0.4377  0.2131 -0.1830
  701TMC3    C610419   3.842   2.872  15.411  0.6935 -0.1368  0.6213
  701TMC3     C10420   3.659   2.673  15.729 -0.6741 -0.2188  0.1403
  701TMC3     O10421   3.698   2.698  15.844 -0.2125  0.3462 -0.6761
  701TMC3     H10422   3.566   2.699  15.463 -0.4101  0.6039  0.2242
  701TMC3    H110423   3.857   2.827  15.752 -1.8206 -2.1305  1.2785
  701TMC3    H210424   3.893   2.922  15.330  1.0015 -0.2070  0.7734
  701TMC3    C710425   3.938   3.026  15.573  0.2110 -0.4605 -0.3543
  701TMC3    C810426   3.674   2.794  15.255  0.9826 -1.1541 -0.2505
  701TMC3    O110427   3.896   3.118  15.504  0.1375  0.1653 -1.0435
  701TMC3    O210428   3.698   2.892  15.185  0.2890 -0.6772 -0.1129
  702MPD2     C10429   2.994   0.201  10.454 -0.2397  0.7644 -0.2530
  702MPD2    C110430   3.041   0.301  10.534 -0.1086  0.1099  0.7056
  702MPD2    C210431   3.115   0.408  10.477  0.7690  0.3591  0.3428
  702MPD2    C310432   3.127   0.419  10.345 -0.1375 -0.5415  0.1447
  702MPD2    C410433   3.093   0.312  10.267 -0.0501  0.5953  0.3033
  702MPD2    C510434   3.020   0.209  10.322 -0.2983 -0.2602  0.1095
  702MPD2     H10435   3.138   0.485  10.550  0.5503 -0.2318  1.0375
  702MPD2    H110436   3.108   0.305  10.160  1.2097 -0.3240  0.5379
  702MPD2    H210437   2.938   0.115  10.487 -2.4256  1.2096 -2.8377
  702MPD2    H310438   2.984   0.123  10.265  0.6452 -1.0568  0.7213
  702MPD2     N10439   3.156   0.544  10.285 -0.8345  0.1870 -0.2380
  702MPD2    H510440   3.174   0.617  10.353 -1.7578  0.3975 -0.2140
  702MPD2    N110441   3.008   0.316  10.669  0.0479 -0.0086  0.2959
  702MPD2    H710442   3.062   0.385  10.722 -0.0154  0.3799 -0.1454
  703TMC3    C110443   3.136   0.725  10.138  0.4485  1.0317  0.3172
  703TMC3    C210444   3.006   0.745  10.150 -0.5829  0.2033  0.3289
  703TMC3    C310445   2.965   0.861  10.215 -0.2658 -0.1493 -0.2397
  703TMC3    C410446   3.225   0.801  10.209  0.2958 -0.3748 -0.6463
  703TMC3    C510447   3.176   0.918  10.257  0.1712 -0.1371 -0.0784
  703TMC3    C610448   3.048   0.964  10.254 -0.2919 -0.4722  0.3048
  703TMC3     C10449   3.161   0.580  10.151 -0.4280  0.2527 -0.4200
  703TMC3     O10450   3.132   0.505  10.057 -0.0206 -0.3164 -0.8111
  703TMC3     H10451   2.944   0.669  10.103 -0.0939 -0.0082  0.0201
  703TMC3    H110452   3.332   0.782  10.213  0.5846  0.8511 -2.5077
  703TMC3    H210453   3.014   1.054  10.303 -1.3429 -0.6835 -0.0422
  703TMC3    C710454   3.272   0.984  10.347  0.4525  0.7217  0.0987
  703TMC3    C810455   2.855   0.834  10.310  0.7417  0.5147  1.0236
  703TMC3    O110456   3.358   0.905  10.386  0.4994 -0.5848  0.1110
  703TMC3    O210457   2.830   0.923  10.393 -0.2246  0.5674  0.3339
  704TMC3    C110458   4.680   3.548  12.514 -0.6849  0.5500  0.7939
  704TMC3    C210459   0.050   3.633  12.504 -0.6494 -0.2449 -0.5282
  704TMC3    C310460   0.175   3.593  12.479 -0.1243 -0.3603  0.0105
  704TMC3    C410461   4.715   3.411  12.480 -0.1857 -0.3727  0.0487
  704TMC3    C510462   0.106   3.380  12.444 -0.1454  0.0755 -0.3394
  704TMC3    C610463   0.208   3.466  12.450 -0.3919 -0.4138 -0.3217
  704TMC3     C10464   4.573   3.606  12.437 -0.3547  0.1292  0.1654
  704TMC3     O10465   4.456   3.573  12.456 -0.5301  0.2330 -0.0229
  704TMC3     H10466   0.029   3.736  12.531  3.2026 -0.2540  2.4990
  704TMC3    H110467   4.634   3.341  12.464 -0.2545 -0.5949  1.3767
  704TMC3    H210468   0.307   3.434  12.421  0.5932  3.3087 -1.1003
  704TMC3    C710469   0.154   3.241  12.448 -0.0164 -0.0901  0.3087
  704TMC3    C810470   0.252   3.705  12.418  0.6728 -0.1792  0.1110
  704TMC3    O110471   0.270   3.212  12.405 -1.1035  0.1503 -0.2734
  704TMC3    O210472   0.193   3.811  12.405  0.3684 -0.5822 -0.3622
  705MPD2     C10473   0.096   1.186  16.527 -0.6820 -0.3861  0.2323
  705MPD2    C110474   0.102   1.320  16.570 -0.1394  0.2272  0.0302
  705MPD2    C210475   4.727   1.386  16.610  0.0537  0.4258 -0.0912
  705MPD2    C310476   4.602   1.324  16.603 -0.9826  0.8824 -0.5909
  705MPD2    C410477   4.595   1.190  16.567  0.5633 -0.6538 -0.1015
  705MPD2    C510478   4.710   1.121  16.542 -0.8790 -0.3837  1.0919
  705MPD2     H10479   4.732   1.486  16.652 -2.4342 -0.8970  3.3507
  705MPD2    H110480   4.505   1.131  16.562 -0.8227  1.4891 -0.6430
  705MPD2    H210481   0.178   1.127  16.489 -1.1494 -1.5262  0.9785
  705MPD2    H310482   4.690   1.022  16.501 -1.3120  0.2786 -0.2915
  705MPD2     N10483   4.486   1.404  16.616 -0.3024 -0.0946  0.4628
  705MPD2    H510484   4.494   1.500  16.647  1.6163 -0.4925  1.2018
  705MPD2    N110485   0.225   1.390  16.573  0.3800  0.4545  0.1240
  705MPD2    H710486   0.226   1.471  16.634  1.2753  0.5980 -0.0829
  706TMC3    C110487   0.676   1.492  16.538  0.0214  0.7224  0.0914
  706TMC3    C210488   0.653   1.629  16.547 -0.7639  0.2659 -0.1120
  706TMC3    C310489   0.522   1.677  16.559  0.0171 -0.2882  0.2760
  706TMC3    C410490   0.579   1.399  16.540  0.0827 -0.3697 -0.3335
  706TMC3    C510491   0.449   1.445  16.540  0.1102 -0.2320  0.3763
  706TMC3    C610492   0.424   1.581  16.540 -0.3476  0.3896  0.5581
  706TMC3     C10493   0.795   1.442  16.478  0.0418  0.0358  0.4087
  706TMC3     O10494   0.875   1.387  16.545 -0.1316 -0.2060 -1.1922
  706TMC3     H10495   0.733   1.695  16.516  0.4042 -0.8635  0.5187
  706TMC3    H110496   0.597   1.295  16.514 -2.5415 -0.7413 -0.6810
  706TMC3    H210497   0.323   1.617  16.527 -0.2674 -0.4518 -2.2064
  706TMC3    C710498   0.346   1.347  16.516  0.4115  0.8628  0.5644
  706TMC3    C810499   0.505   1.788  16.477  0.0072 -0.5130  0.0817
  706TMC3    O110500   0.378   1.245  16.461 -0.6068 -0.2699  0.7859
  706TMC3    O210501   0.559   1.785  16.370 -0.2073 -0.1863 -0.4175
  707TMC3    C110502   1.619   0.170   1.299 -0.2749  0.1441 -0.4736
  707TMC3    C210503   1.576   0.089   1.404  0.0094  0.2168  0.9147
  707TMC3    C310504   1.499   4.719   1.377  0.2474  0.2453 -0.0306
  707TMC3    C410505   1.557   0.161   1.174  0.8607  0.2154  0.2367
  707TMC3    C510506   1.459   0.064   1.156 -0.6210 -0.1167 -0.9606
  707TMC3    C610507   1.443   4.704   1.248 -0.1781  0.5576  0.2347
  707TMC3     C10508   1.746   0.231   1.306  0.5330  0.4040 -0.4699
  707TMC3     O10509   1.807   0.264   1.207 -0.0584 -0.0462  0.3111
  707TMC3     H10510   1.626   0.082   1.500  1.7675 -1.2009 -0.0848
  707TMC3    H110511   1.583   0.225   1.091 -0.9423  2.7711  1.6364
  707TMC3    H210512   1.365   4.630   1.232 -0.3789  1.0454 -1.0716
  707TMC3    C710513   1.392   0.048   1.030  0.5335  0.6583 -0.1944
  707TMC3    C810514   1.477   4.622   1.485 -0.3426 -0.6051 -0.0470
  707TMC3    O110515   1.349   4.678   1.001 -0.0331  0.6875 -0.0088
  707TMC3    O210516   1.458   4.673   1.598 -0.4437  0.2631  0.1047
  708MPD2     C10517   2.889   3.775  14.061 -0.5019 -0.2230  0.1400
  708MPD2    C110518   2.791   3.868  14.086  0.0814  0.1927 -0.9109
  708MPD2    C210519   2.746   3.889  14.217 -0.2980 -0.3478 -0.9717
  708MPD2    C310520   2.787   3.811  14.318 -0.4735  0.6020 -1.4068
  708MPD2    C410521   2.858   3.695  14.288 -0.2660 -0.8750  0.7230
  708MPD2    C510522   2.918   3.681  14.161  0.4839  0.2411  0.4282
  708MPD2     H10523   2.676   3.968  14.240 -0.4207  0.1797 -3.1539
  708MPD2    H110524   2.897   3.632  14.368 -0.6930 -0.0248  1.5992
  708MPD2    H210525   2.932   3.754  13.964  0.1701 -1.5364  0.7282
  708MPD2    H310526   2.987   3.599  14.147 -1.2211 -1.3695  1.3953
  708MPD2     N10527   2.735   3.834  14.444 -0.4299 -0.6882 -0.6900
  708MPD2    H510528   2.678   3.918  14.438  1.1581  0.4844  0.7706
  708MPD2    N110529   2.740   3.947  13.977 -1.0280 -0.2892 -0.1679
  708MPD2    H710530   2.790   3.952  13.889 -0.6352 -1.4997 -0.0143
  709TMC3    C110531   2.608   4.100  13.851 -0.9567  0.1314 -0.7924
  709TMC3    C210532   2.709   4.161  13.793 -0.3249 -0.0289 -0.0882
  709TMC3    C310533   2.695   4.282  13.733 -0.0511  0.1888 -0.1460
  709TMC3    C410534   2.493   4.165  13.866  0.3807  0.4749  0.2119
  709TMC3    C510535   2.492   4.297  13.835  0.0925  0.4274 -0.0214
  709TMC3    C610536   2.588   4.360  13.764 -0.4940  0.0669 -0.7479
  709TMC3     C10537   2.625   4.023  13.977  0.4088 -0.1182  0.4471
  709TMC3     O10538   2.542   4.036  14.063  0.5648  0.3634 -0.1443
  709TMC3     H10539   2.809   4.120  13.799  0.8099  2.6871 -0.7257
  709TMC3    H110540   2.401   4.117  13.900  0.3504  0.0114 -0.5123
  709TMC3    H210541   2.582   4.466  13.743  0.2517  0.0076 -1.2453
  709TMC3    C710542   2.445   4.372  13.947  0.1854  0.2584 -0.1854
  709TMC3    C810543   2.814   4.360  13.702  0.1266 -0.0836 -0.2312
  709TMC3    O110544   2.449   4.494  13.927 -0.3232 -0.4201 -0.1297
  709TMC3    O210545   2.918   4.316  13.748 -0.0843  0.4345 -0.5189
  710TMC3    C110546   0.276   1.301   0.471  0.7048 -0.0517 -0.0436
  710TMC3    C210547   0.292   1.347   0.345  0.0694 -0.1281 -0.2477
  710TMC3    C310548   0.404   1.315   0.279 -0.7008  0.6079  0.2530
  710TMC3    C410549   0.372   1.222   0.531 -0.4929 -0.0379 -0.3576
  710TMC3    C510550   0.481   1.179   0.465  0.0626  0.2933  0.0180
  710TMC3    C610551   0.498   1.227   0.337 -0.5393 -0.0083 -0.2310
  710TMC3     C10552   0.157   1.343   0.537 -0.5088 -0.3440 -0.4049
  710TMC3     O10553   0.159   1.380   0.653 -0.1132 -0.0412  0.2674
  710TMC3     H10554   0.214   1.415   0.312  2.1642  0.9700 -2.8922
  710TMC3    H110555   0.352   1.199   0.635  1.6464  1.3055  0.3508
  710TMC3    H210556   0.577   1.191   0.272 -2.1396 -1.1957 -1.5106
  710TMC3    C710557   0.539   1.052   0.509  0.5225 -0.1634  0.8314
  710TMC3    C810558   0.429   1.367   0.146 -0.5339 -0.0789  0.0629
  710TMC3    O110559   0.471   0.991   0.594  0.0903 -0.4221 -0.4850
  710TMC3    O210560   0.337   1.421   0.089 -0.6079  0.3639 -0.0732
  711TMC3    C110561   4.150   2.002  15.090  0.2939 -0.5452 -0.4382
  711TMC3    C210562   4.218   2.120  15.121 -1.1133 -0.3825  0.3430
  711TMC3    C310563   4.314   2.112  15.219  0.4960  0.1986  0.2131
  711TMC3    C410564   4.178   1.885  15.152  0.8539  0.1353 -0.0308
  711TMC3    C510565   4.274   1.882  15.240 -0.4399  0.0263  0.1336
  711TMC3    C610566   4.348   1.990  15.277  0.1964 -0.5864 -0.2652
  711TMC3     C10567   4.080   1.987  14.959  0.5384  0.1879 -0.5598
  711TMC3     O10568   4.041   1.872  14.930 -0.5754  0.4951  0.1474
  711TMC3     H10569   4.201   2.216  15.073  0.5815  0.3374  1.1743
  711TMC3    H110570   4.122   1.797  15.121 -0.8540  0.9163  0.8152
  711TMC3    H210571   4.416   1.982  15.361  0.0176  0.7103  0.0083
  711TMC3    C710572   4.332   1.757  15.292  0.2173  0.5717  0.5888
  711TMC3    C810573   4.354   2.243  15.273  0.3492 -0.3900  0.2249
  711TMC3    O110574   4.446   1.764  15.325 -0.0140 -0.8830  0.6886
  711TMC3    O210575   4.275   2.336  15.258 -0.2981  0.4803 -0.2653
  712MPD2     C10576   0.231   3.374  13.540  0.1194 -0.2293  0.2229
  712MPD2    C110577   0.195   3.453  13.646 -0.4159  0.5223 -0.2302
  712MPD2    C210578   0.284   3.551  13.699 -0.8136  0.0153  0.3476
  712MPD2    C310579   0.409   3.563  13.640 -0.6224  0.0030 -1.0561
  712MPD2    C410580   0.446   3.475  13.540 -0.8563 -0.5136 -0.4596
  712MPD2    C510581   0.357   3.387  13.486  0.1166  0.6443 -0.5797
  712MPD2     H10582   0.258   3.610  13.786  0.4721  0.9596  0.0895
  712MPD2    H110583   0.547   3.470  13.501  0.5561 -1.5388  3.3966
  712MPD2    H210584   0.168   3.296  13.500 -0.2583  1.0502 -1.6979
  712MPD2    H310585   0.389   3.315  13.411 -0.5801  1.1471 -1.3509
  712MPD2     N10586   0.502   3.657  13.691 -0.0391  0.1276 -0.1542
  712MPD2    H510587   0.595   3.658  13.651 -0.6269 -2.9305 -1.5995
  712MPD2    N110588   0.073   3.440  13.713  0.2953 -0.5266 -0.8061
  712MPD2    H710589   0.067   3.483  13.805 -0.8772  0.1596 -1.2015
  713TMC3    C110590   0.558   3.886  13.756 -0.9215  0.2201  0.4799
  713TMC3    C210591   0.676   3.863  13.688  1.0084 -0.1105 -0.0196
  713TMC3    C310592   0.715   3.977  13.617 -0.1249  0.9101  0.0285
  713TMC3    C410593   0.498   4.008  13.769  0.4931 -0.5311 -0.3390
  713TMC3    C510594   0.556   4.115  13.715  0.7907  0.2135  0.0055
  713TMC3    C610595   0.671   4.103  13.643 -0.6274 -0.0701  0.5257
  713TMC3     C10596   0.478   3.761  13.776  0.3489 -0.0438 -0.2004
  713TMC3     O10597   0.378   3.777  13.840  0.1522 -0.5508 -0.2086
  713TMC3     H10598   0.724   3.768  13.670  1.2675 -0.0808  0.5290
  713TMC3    H110599   0.398   4.016  13.810  0.8228 -1.7331  0.6938
  713TMC3    H210600   0.719   4.188  13.594  2.4950 -1.5931  0.9497
  713TMC3    C710601   0.519   4.250  13.739 -0.3905  0.3336 -0.3059
  713TMC3    C810602   0.845   3.974  13.548  0.0896 -0.6550 -0.1115
  713TMC3    O110603   0.600   4.325  13.796  0.0228 -0.1572 -0.5805
  713TMC3    O210604   0.843   4.044  13.444 -0.4121  0.0314  0.3424
  714MPD2     C10605   3.031   2.332   1.538 -0.3566 -0.4188 -0.2625
  714MPD2    C110606   3.041   2.253   1.427  0.4999  0.5580  0.4660
  714MPD2    C210607   2.992   2.300   1.312  0.2232  0.2757 -0.5328
  714MPD2    C310608   2.954   2.434   1.295  0.6826  0.1842  0.4010
  714MPD2    C410609   2.954   2.523   1.402  0.4108  0.7944  0.5958
  714MPD2    C510610   2.991   2.469   1.520 -0.9711  0.2759  0.6140
  714MPD2     H10611   2.997   2.237   1.224 -0.5674  1.8491 -1.7222
  714MPD2    H110612   2.936   2.630   1.401 -0.6937  0.6027 -0.9500
  714MPD2    H210613   3.062   2.301   1.637 -3.4468 -0.5045  0.6787
  714MPD2    H310614   3.005   2.540   1.600  1.3382  1.3041 -0.7146
  714MPD2     N10615   2.945   2.485   1.159  0.0242 -0.3019 -0.5140
  714MPD2    H510616   2.922   2.417   1.087 -0.7884 -1.5752  0.9462
  714MPD2    N110617   3.099   2.126   1.446  0.2563  0.0201 -0.2951
  714MPD2    H710618   3.145   2.116   1.536  0.6070 -2.5515 -0.7616
  715TMC3    C110619   3.201   1.922   1.396  0.3005 -0.3636  0.3248
  715TMC3    C210620   3.198   1.804   1.334 -0.5261 -0.1228  0.3803
  715TMC3    C310621   3.303   1.720   1.354 -0.4249 -0.6453 -0.6233
  715TMC3    C410622   3.310   1.970   1.470 -0.5682 -0.8212  0.7345
  715TMC3    C510623   3.416   1.883   1.490  0.1933  0.0268 -0.2046
  715TMC3    C610624   3.412   1.757   1.434  0.0603  0.4830  0.3207
  715TMC3     C10625   3.093   2.017   1.362 -0.7151  0.3553 -0.1476
  715TMC3     O10626   3.019   1.996   1.267 -0.2947 -0.2572 -0.0301
  715TMC3     H10627   3.128   1.773   1.258  0.2294  0.9700 -0.7574
  715TMC3    H110628   3.308   2.067   1.520 -3.1388  0.5610 -2.0434
  715TMC3    H210629   3.493   1.686   1.451  1.9954  2.0724 -2.2865
  715TMC3    C710630   3.519   1.917   1.587  1.2095 -0.0178 -0.3698
  715TMC3    C810631   3.330   1.642   1.237  0.3869  0.2352 -0.3596
  715TMC3    O110632   3.629   1.869   1.565 -0.1094  0.8020  0.0004
  715TMC3    O210633   3.235   1.576   1.193  0.6101 -0.0014  0.0445
  716MPD2     C10634   2.782   0.811   9.801  0.2649 -0.0806 -0.3320
  716MPD2    C110635   2.673   0.750   9.734 -0.9718 -0.3195 -0.0688
  716MPD2    C210636   2.698   0.624   9.681 -0.1708 -0.2489 -0.5977
  716MPD2    C310637   2.814   0.553   9.705 -0.2821  0.1648 -0.1638
  716MPD2    C410638   2.914   0.610   9.780  0.0020  0.8111  0.4304
  716MPD2    C510639   2.892   0.739   9.824 -0.2485 -0.2327 -1.0041
  716MPD2     H10640   2.622   0.572   9.625 -0.1844  0.3065 -1.0863
  716MPD2    H110641   3.000   0.564   9.826 -0.8584 -0.2178  1.0245
  716MPD2    H210642   2.780   0.911   9.843  3.2537 -2.0453  4.5138
  716MPD2    H310643   2.966   0.787   9.887  0.1522  0.5917 -2.1056
  716MPD2     N10644   2.834   0.427   9.642  0.2972  0.2360  0.9644
  716MPD2    H510645   2.759   0.394   9.582 -1.3678  0.9774  2.6152
  716MPD2    N110646   2.546   0.814   9.721 -0.0812 -0.1384 -0.5513
  716MPD2    H710647   2.549   0.914   9.738  0.1010  0.0310 -1.5841
  717TMC3    C110648   2.946   0.235   9.570 -0.4438  0.2349 -1.0135
  717TMC3    C210649   2.824   0.179   9.543 -0.6473  0.1484 -0.4704
  717TMC3    C310650   2.821   0.092   9.437  0.4773 -0.0176  0.0843
  717TMC3    C410651   3.064   0.204   9.508 -0.3964 -0.4206  0.3024
  717TMC3    C510652   3.055   0.105   9.410 -0.5324 -0.3915 -0.7882
  717TMC3    C610653   2.936   0.055   9.370 -0.2055  0.0734 -0.6297
  717TMC3     C10654   2.949   0.351   9.654 -0.1708  0.1870 -1.4819
  717TMC3     O10655   3.058   0.378   9.706 -0.1322 -0.2103 -0.0325
  717TMC3     H10656   2.734   0.202   9.599  1.0808  0.3412  2.2359
  717TMC3    H110657   3.159   0.255   9.525  0.0774 -0.8773 -1.0402
  717TMC3    H210658   2.930   0.003   9.275  0.3253  1.1068 -1.2265
  717TMC3    C710659   3.179   0.045   9.360 -0.2229  0.4654  0.2533
  717TMC3    C810660   2.682   0.061   9.391 -0.4510  0.0960  0.1362
  717TMC3    O110661   3.166   4.706   9.266 -0.7047 -0.2570 -0.3172
  717TMC3    O210662   2.590   0.113   9.453 -0.0475 -0.6783  0.2640
  718MPD2     C10663   1.726   3.428  13.121 -0.0119  0.0112 -0.1152
  718MPD2    C110664   1.687   3.487  13.004  0.4234  0.1132  0.9050
  718MPD2    C210665   1.566   3.455  12.939 -0.0736  0.1233  0.6495
  718MPD2    C310666   1.474   3.369  13.000  0.2396  0.5888  0.5148
  718MPD2    C410667   1.506   3.314  13.125  0.5208 -0.2580  0.1468
  718MPD2    C510668   1.624   3.357  13.187 -0.3068  0.4353  0.4206
  718MPD2     H10669   1.539   3.483  12.837  0.6816 -1.5717 -0.0141
  718MPD2    H110670   1.451   3.231  13.168 -1.0910  1.2997  1.0239
  718MPD2    H210671   1.816   3.448  13.178  0.1754 -1.3291  0.0653
  718MPD2    H310672   1.647   3.318  13.285  0.9359 -0.4780 -0.2373
  718MPD2     N10673   1.377   3.320  12.915 -0.0139  0.2138  0.1374
  718MPD2    H510674   1.387   3.339  12.816  1.2498 -1.4093 -0.0451
  718MPD2    N110675   1.787   3.559  12.934 -0.0632 -0.2605  0.1740
  718MPD2    H710676   1.885   3.552  12.961 -0.2986  1.2594  1.3653
  719TMC3    C110677   1.877   3.640  12.738 -0.0993  0.7867  0.6218
  719TMC3    C210678   1.934   3.516  12.710  0.0794 -0.6942 -1.4426
  719TMC3    C310679   1.964   3.490  12.581 -0.5266  0.6426 -0.0585
  719TMC3    C410680   1.863   3.735  12.638 -0.1406 -0.3314  0.7576
  719TMC3    C510681   1.909   3.709  12.516 -0.1236 -0.0706  0.4845
  719TMC3    C610682   1.969   3.593  12.490  0.1713  0.8888  0.6801
  719TMC3     C10683   1.764   3.631  12.817  0.6390 -0.0705 -0.0945
  719TMC3     O10684   1.663   3.660  12.756  0.6008 -0.1350  0.0178
  719TMC3     H10685   1.931   3.430  12.777  0.1459  0.5909  0.2212
  719TMC3    H110686   1.810   3.824  12.669 -0.8475 -0.0117 -1.3733
  719TMC3    H210687   2.008   3.575  12.390 -0.6886  0.2215  0.4642
  719TMC3    C710688   1.965   3.816  12.432  0.7774 -0.0779 -0.1039
  719TMC3    C810689   1.881   3.378  12.538 -1.0212 -0.6958 -0.6947
  719TMC3    O110690   2.065   3.779  12.368 -0.0403 -0.6887  0.0454
  719TMC3    O210691   1.867   3.284  12.614  0.0644 -0.0837 -0.1564
  720MPD2     C10692   0.650   0.902  14.152  0.3228 -0.5284  0.2897
  720MPD2    C110693   0.729   0.857  14.047 -0.2351  0.0165  0.2443
  720MPD2    C210694   0.847   0.791  14.077 -0.4176 -0.2491  0.0800
  720MPD2    C310695   0.894   0.786  14.209 -0.1684 -0.2056 -0.3957
  720MPD2    C410696   0.808   0.837  14.314  0.3279 -0.2196 -0.1176
  720MPD2    C510697   0.696   0.908  14.281 -0.8240 -0.2234  0.5564
  720MPD2     H10698   0.905   0.771  13.988 -0.6293  2.3756 -0.6396
  720MPD2    H110699   0.819   0.815  14.419  2.9147  0.1561 -0.3224
  720MPD2    H210700   0.563   0.962  14.128  0.8312  0.1138  0.0735
  720MPD2    H310701   0.624   0.935  14.358 -0.1036 -1.1583  1.5631
  720MPD2     N10702   1.022   0.730  14.233 -0.6580 -0.8479  0.9093
  720MPD2    H510703   1.068   0.689  14.153 -2.3693  0.8155 -0.9404
  720MPD2    N110704   0.692   0.881  13.909 -0.3925  0.2275 -0.0749
  720MPD2    H710705   0.758   0.847  13.839  0.0892 -0.0076  0.4883
  721TMC3    C110706   1.217   0.649  14.364 -0.0105  0.3318  0.0034
  721TMC3    C210707   1.268   0.630  14.495 -0.4277 -0.6172 -0.8458
  721TMC3    C310708   1.380   0.561  14.500 -0.3057 -0.6019  0.4509
  721TMC3    C410709   1.263   0.585  14.250 -0.0815  0.2344  0.2598
  721TMC3    C510710   1.368   0.502  14.274 -0.1868  1.0252  0.0832
  721TMC3    C610711   1.431   0.493  14.395 -0.0021  0.0899  0.2114
  721TMC3     C10712   1.092   0.726  14.356  0.7762  0.5123 -0.0244
  721TMC3     O10713   1.055   0.780  14.463  0.4420 -0.4729 -0.2761
  721TMC3     H10714   1.230   0.685  14.580 -0.2852 -2.0126  0.1338
  721TMC3    H110715   1.225   0.588  14.149 -0.2117  1.6546  0.3510
  721TMC3    H210716   1.524   0.439  14.399 -0.5878 -0.9393 -0.2260
  721TMC3    C710717   1.451   0.458  14.160 -0.0657  0.7183 -0.0053
  721TMC3    C810718   1.475   0.569  14.611  0.0460 -0.1304  0.5595
  721TMC3    O110719   1.449   0.525  14.054  0.6867  0.3494  0.0758
  721TMC3    O210720   1.592   0.558  14.566 -0.0595 -0.7703 -0.6251
  722MPD2     C10721   4.345   4.078  13.028  0.0709 -0.2122 -0.5998
  722MPD2    C110722   4.265   4.181  13.066  1.1289 -0.0807  0.9526
  722MPD2    C210723   4.137   4.184  13.018  1.3796  0.0302 -0.2991
  722MPD2    C310724   4.083   4.067  12.958 -0.2831  0.0757 -0.7176
  722MPD2    C410725   4.164   3.952  12.934  0.4348 -0.1896 -0.1604
  722MPD2    C510726   4.298   3.963  12.981  0.8050 -0.3638  0.3101
  722MPD2     H10727   4.062   4.260  13.037 -0.4760 -1.3439 -2.1566
  722MPD2    H110728   4.137   3.860  12.884 -0.3275  0.7177 -1.4155
  722MPD2    H210729   4.449   4.076  13.058 -0.0010  2.9919 -0.2209
  722MPD2    H310730   4.366   3.883  12.955  1.7809  0.2045  1.1171
  722MPD2     N10731   3.942   4.080  12.914 -0.8992 -0.4356  0.2673
  722MPD2    H510732   3.902   4.172  12.925  1.8144  1.0279 -2.2994
  722MPD2    N110733   4.311   4.300  13.134 -0.1055 -0.5694 -0.0957
  722MPD2    H710734   4.250   4.380  13.147  2.4798  1.6911 -1.9305
  723TMC3    C110735   3.735   4.014  12.809 -0.2580 -0.2216 -0.4744
  723TMC3    C210736   3.677   3.947  12.707 -0.6190  0.0954  0.2778
  723TMC3    C310737   3.541   3.973  12.685  0.0846 -0.4017  0.8561
  723TMC3    C410738   3.665   4.105  12.888 -0.0528 -0.3011 -0.4391
  723TMC3    C510739   3.535   4.129  12.862 -0.1411  0.1864 -0.5276
  723TMC3    C610740   3.465   4.061  12.756 -0.8777  0.2095 -0.3092
  723TMC3     C10741   3.876   3.989  12.833 -0.6879 -0.2597 -0.3401
  723TMC3     O10742   3.920   3.893  12.777  0.3627 -0.4564 -0.5394
  723TMC3     H10743   3.730   3.876  12.644 -0.1004  1.2514 -0.5762
  723TMC3    H110744   3.709   4.150  12.976 -3.5803 -0.0690  1.2106
  723TMC3    H210745   3.364   4.082  12.722 -1.4172 -0.6441  0.7558
  723TMC3    C710746   3.484   4.262  12.887 -0.0467  0.6968  0.1284
  723TMC3    C810747   3.466   3.887  12.593  0.0597  0.2575 -0.5277
  723TMC3    O110748   3.561   4.338  12.940  0.2858  0.4087 -0.5130
  723TMC3    O210749   3.367   3.940  12.541  0.1053  0.5414 -0.7711
  724TMC3    C110750   0.417   2.558   9.674 -0.2913 -0.2672  0.4222
  724TMC3    C210751   0.384   2.665   9.597 -0.1720  0.0344  0.1658
  724TMC3    C310752   0.334   2.772   9.656 -0.1076 -0.0986 -0.1685
  724TMC3    C410753   0.383   2.554   9.805  0.0097 -0.2816 -0.1173
  724TMC3    C510754   0.325   2.668   9.859 -0.7152  0.1559  1.0502
  724TMC3    C610755   0.297   2.778   9.787  0.6584 -0.2756 -0.3000
  724TMC3     C10756   0.491   2.445   9.622 -0.9294  0.1785  0.7168
  724TMC3     O10757   0.498   2.346   9.698  0.2147  0.0299  0.4679
  724TMC3     H10758   0.406   2.669   9.491 -0.2900 -0.2223  0.1295
  724TMC3    H110759   0.411   2.467   9.864  0.0973  0.4548  0.9335
  724TMC3    H210760   0.273   2.870   9.839 -1.7344  0.4403 -2.6410
  724TMC3    C710761   0.261   2.668   9.993 -0.2165 -0.4754 -0.3081
  724TMC3    C810762   0.335   2.895   9.583  0.5855 -0.4356  0.4468
  724TMC3    O110763   0.178   2.759  10.015 -0.1545  0.1872 -0.6040
  724TMC3    O210764   0.415   2.908   9.493 -0.3316 -0.8248  0.5634
  725TMC3    C110765   1.233   1.181  12.853 -0.1233 -0.0147 -0.4596
  725TMC3    C210766   1.175   1.218  12.737  0.4697 -0.2666  0.4074
  725TMC3    C310767   1.149   1.125  12.643 -1.2575  0.3934 -0.2583
  725TMC3    C410768   1.283   1.056  12.864  0.1927 -0.4946  0.4982
  725TMC3    C510769   1.258   0.963  12.761  0.6142  0.3195 -0.1661
  725TMC3    C610770   1.190   0.996  12.644 -0.2038 -0.0739 -0.2577
  725TMC3     C10771   1.302   1.284  12.918  0.0703  0.3106  0.2189
  725TMC3     O10772   1.336   1.379  12.848 -0.8225  0.2849  0.0108
  725TMC3     H10773   1.136   1.318  12.729  1.5874  0.2191  0.9372
  725TMC3    H110774   1.355   1.030  12.941  3.7062  1.6858 -2.1154
  725TMC3    H210775   1.158   0.921  12.574 -1.7564 -0.1308  0.5125
  725TMC3    C710776   1.291   0.826  12.779 -0.3295  0.3765  0.1810
  725TMC3    C810777   1.058   1.160  12.531 -0.3870  0.6385 -0.2727
  725TMC3    O110778   1.262   0.756  12.680 -0.5321  0.1025  0.0475
  725TMC3    O210779   0.995   1.071  12.475 -0.0064 -0.8613  0.2105
  726MPD2     C10780   3.236   3.496  10.069  0.1864  0.4798  0.1621
  726MPD2    C110781   3.346   3.478  10.150  0.8653 -0.1013  0.5598
  726MPD2    C210782   3.390   3.351  10.186  0.2363 -0.7364  0.3654
  726MPD2    C310783   3.314   3.242  10.144 -0.0810 -0.7489 -0.2633
  726MPD2    C410784   3.193   3.252  10.082  0.1350  0.2440 -0.2270
  726MPD2    C510785   3.160   3.383  10.041 -0.0744  0.3213  0.3597
  726MPD2     H10786   3.480   3.338  10.244  1.2376 -1.8181 -1.4453
  726MPD2    H110787   3.131   3.166  10.059  1.9072 -1.0388 -0.1714
  726MPD2    H210788   3.210   3.594  10.030  1.9675  0.9689  0.1927
  726MPD2    H310789   3.062   3.395   9.998  0.6133  0.4059 -1.1859
  726MPD2     N10790   3.354   3.106  10.164 -0.0541 -0.1428 -0.2024
  726MPD2    H510791   3.286   3.038  10.132 -1.1428  0.0877  1.6498
  726MPD2    N110792   3.416   3.595  10.197  0.3554  0.5809  0.1567
  726MPD2    H710793   3.494   3.577  10.260  0.8251  2.7134  0.1781
  727TMC3    C110794   3.455   3.813  10.273 -0.1174  0.1971  0.0940
  727TMC3    C210795   3.572   3.775  10.328  0.5329 -0.1540  0.1505
  727TMC3    C310796   3.645   3.871  10.393 -0.0064 -0.2339 -0.7413
  727TMC3    C410797   3.410   3.944  10.286  0.3845  0.9495  0.3065
  727TMC3    C510798   3.484   4.029  10.364  0.2024  0.0667 -0.5046
  727TMC3    C610799   3.605   3.999  10.413 -0.7550 -0.9093  0.0581
  727TMC3     C10800   3.381   3.729  10.185 -0.4674  0.6567  0.0436
  727TMC3     O10801   3.297   3.783  10.115 -0.0014  0.3634  0.4834
  727TMC3     H10802   3.610   3.675  10.311 -0.3788 -0.3323 -0.8158
  727TMC3    H110803   3.323   3.986  10.238  0.0977  0.0407  0.0395
  727TMC3    H210804   3.664   4.065  10.475 -1.8396  0.6306 -0.5550
  727TMC3    C710805   3.457   4.168  10.335 -0.4517 -0.1438  0.6188
  727TMC3    C810806   3.762   3.808  10.469 -0.2329  0.3429  0.4517
  727TMC3    O110807   3.385   4.196  10.239 -0.1507  0.7751 -0.0332
  727TMC3    O210808   3.782   3.686  10.463  0.1673 -1.0303  0.1006
  728TMC3    C110809   3.490   0.637  14.606  0.1735  0.3022 -0.2370
  728TMC3    C210810   3.558   0.553  14.528  0.6120  0.3951  0.0809
  728TMC3    C310811   3.561   0.566  14.391  0.3980 -0.4478  0.3304
  728TMC3    C410812   3.428   0.747  14.545 -0.7769 -0.5273  0.3389
  728TMC3    C510813   3.432   0.757  14.410  0.0632  0.2513  0.1969
  728TMC3    C610814   3.498   0.666  14.327  0.2134  0.5464  0.4393
  728TMC3     C10815   3.572   0.665  14.719  0.5331 -0.6523 -0.4337
  728TMC3     O10816   3.689   0.639  14.706  0.8538 -0.1025 -0.5335
  728TMC3     H10817   3.609   0.467  14.569 -0.8929 -0.3635  0.3661
  728TMC3    H110818   3.388   0.826  14.609 -2.5806 -1.3916  0.2451
  728TMC3    H210819   3.512   0.691  14.222  1.5140  1.6531  0.8706
  728TMC3    C710820   3.348   0.853  14.341 -0.4281 -0.9345  0.5834
  728TMC3    C810821   3.611   0.468  14.293 -0.1155  0.4998 -0.3589
  728TMC3    O110822   3.308   0.828  14.228 -0.2917  0.4959 -0.1610
  728TMC3    O210823   3.542   0.458  14.190 -0.1999  0.1562 -0.1516
  729MPD2     C10824   0.766   2.799  17.147 -0.8934 -0.2776  0.2351
  729MPD2    C110825   0.838   2.690  17.152 -0.3177  0.3159 -0.1157
  729MPD2    C210826   0.879   2.639  17.273 -0.6645 -0.2003 -0.4767
  729MPD2    C310827   0.841   2.707  17.388  0.1524  0.0514 -0.7661
  729MPD2    C410828   0.783   2.837  17.389  0.0054 -0.3120 -0.5632
  729MPD2    C510829   0.748   2.878  17.262  0.4982 -0.4690  1.1410
  729MPD2     H10830   0.937   2.548  17.277  1.0642  0.8855 -0.6515
  729MPD2    H110831   0.750   2.891  17.477  0.5443 -0.1859 -0.4412
  729MPD2    H210832   0.731   2.841  17.053  1.3087 -0.7706 -0.8096
  729MPD2    H310833   0.702   2.975  17.243  0.3790 -0.8796 -0.6504
  729MPD2     N10834   0.870   2.653  17.515  0.0893 -0.2003  0.6196
  729MPD2    H510835   0.886   2.720  17.589  1.3673  3.1334 -2.7125
  729MPD2    N110836   0.892   2.639  17.028  0.0196 -0.1560 -0.3915
  729MPD2    H710837   0.869   2.673  16.935 -0.5184  1.2956  0.2628
  730TMC3    C110838   1.009   2.498  17.632 -0.1237  0.0601  0.2960
  730TMC3    C210839   1.110   2.435  17.573 -0.6490 -0.5946  0.1510
  730TMC3    C310840   1.237   2.480  17.604 -0.0242 -0.0613 -0.5857
  730TMC3    C410841   1.014   2.600  17.719  0.2216 -0.3973  0.5605
  730TMC3    C510842   1.137   2.649  17.747  0.4262  0.0944  0.3172
  730TMC3    C610843   1.249   2.584  17.694 -0.3500  0.2154 -0.4885
  730TMC3     C10844   0.893   2.516  17.538 -0.1273 -0.9809 -0.5491
  730TMC3     O10845   0.881   2.420  17.460 -0.2253  0.0021  0.2556
  730TMC3     H10846   1.099   2.369  17.488 -1.8793  0.3588 -0.4404
  730TMC3    H110847   0.921   2.644   0.005  0.3950  0.2654  0.1910
  730TMC3    H210848   1.344   2.629  17.720 -0.0065 -1.8771  1.9104
  730TMC3    C710849   1.143   2.793  17.730 -0.2598  0.1364  0.4687
  730TMC3    C810850   1.321   2.506  17.486 -0.7900 -0.2206  0.9186
  730TMC3    O110851   1.232   2.822  17.648  0.0478  0.1425 -0.4631
  730TMC3    O210852   1.342   2.418  17.402 -0.0179 -0.0675  0.0508
  731MPD2     C10853   0.837   0.994  12.762 -0.4299  0.4948 -0.0359
  731MPD2    C110854   0.788   0.870  12.729 -0.3266 -1.0176  0.3933
  731MPD2    C210855   0.775   0.775  12.828 -0.0251 -0.3108  0.1045
  731MPD2    C310856   0.802   0.803  12.957  0.1438 -0.0606 -1.0613
  731MPD2    C410857   0.859   0.923  12.988  0.5111 -0.2707 -0.7418
  731MPD2    C510858   0.882   1.013  12.888 -0.2917  0.0285 -0.0963
  731MPD2     H10859   0.731   0.682  12.793 -2.0424 -0.4909  3.1218
  731MPD2    H110860   0.882   0.949  13.091 -1.8467  1.1502 -0.5892
  731MPD2    H210861   0.854   1.072  12.689  1.0238 -0.3106 -0.5529
  731MPD2    H310862   0.943   1.099  12.913  1.2035 -0.8632 -0.7255
  731MPD2     N10863   0.762   0.716  13.062  0.1873 -0.0158 -0.4431
  731MPD2    H510864   0.759   0.751  13.157 -4.1923 -0.9689 -0.2241
  731MPD2    N110865   0.764   0.835  12.593 -0.3915 -0.9716 -0.4764
  731MPD2    H710866   0.784   0.902  12.519  0.2869 -0.0114  0.5844
  732TMC3    C110867   0.674   0.726  12.403  0.0066  0.1025  0.3473
  732TMC3    C210868   0.555   0.685  12.360 -0.0509 -0.4612  0.2931
  732TMC3    C310869   0.546   0.662  12.226 -0.2474 -0.0713 -0.4859
  732TMC3    C410870   0.784   0.748  12.323 -0.6382  0.2374 -0.0155
  732TMC3    C510871   0.774   0.722  12.191 -0.1091  0.0731  0.9272
  732TMC3    C610872   0.652   0.676  12.144 -0.2389 -0.1614 -0.2054
  732TMC3     C10873   0.689   0.731  12.549 -0.0097  0.6297 -0.3462
  732TMC3     O10874   0.596   0.679  12.614 -0.3602 -0.6542 -0.0180
  732TMC3     H10875   0.474   0.675  12.431 -0.7443  0.1788 -0.3975
  732TMC3    H110876   0.874   0.786  12.370 -1.6457  2.1803  0.3147
  732TMC3    H210877   0.640   0.649  12.040 -2.0010 -2.4913  0.5882
  732TMC3    C710878   0.892   0.695  12.107 -0.0356  0.7011  0.0904
  732TMC3    C810879   0.443   0.580  12.176 -0.7967  0.0253 -0.3124
  732TMC3    O110880   0.884   0.710  11.985 -0.5750 -0.4912 -0.0105
  732TMC3    O210881   0.432   0.570  12.054  0.2405  0.4050 -0.2395
  733TMC3    C110882   1.057   3.040  12.744 -0.7461  0.2838 -0.2141
  733TMC3    C210883   1.106   3.105  12.856 -0.1362 -0.1758  0.2992
  733TMC3    C310884   1.227   3.165  12.838  0.5214 -0.0555 -0.1013
  733TMC3    C410885   1.119   3.035  12.626 -0.8367 -0.6252 -0.6354
  733TMC3    C510886   1.246   3.078  12.618 -1.1515 -0.3896  0.1910
  733TMC3    C610887   1.288   3.160  12.717  0.2296  0.8195  0.0838
  733TMC3     C10888   0.919   2.996  12.744 -0.2149 -0.4035 -0.3142
  733TMC3     O10889   0.884   2.926  12.652 -0.1078 -0.2518  0.4694
  733TMC3     H10890   1.054   3.112  12.951  3.2966  0.2507  2.1779
  733TMC3    H110891   1.076   2.978  12.544 -1.5636 -0.9465 -0.0226
  733TMC3    H210892   1.388   3.201  12.708  0.1762  1.2484  1.5209
  733TMC3    C710893   1.308   3.093  12.493  0.0882  0.0118  0.5320
  733TMC3    C810894   1.280   3.236  12.955 -0.5779 -0.0297  0.1278
  733TMC3    O110895   1.225   3.085  12.404  0.1585  0.4903 -0.1406
  733TMC3    O210896   1.237   3.216  13.066  0.1634 -0.2855 -0.2194
  734MPD2     C10897   3.353   1.240  12.353 -0.1907 -0.5520 -0.0239
  734MPD2    C110898   3.330   1.121  12.286  0.0874  0.2044  0.5094
  734MPD2    C210899   3.363   1.138  12.148  0.2014 -0.1141  0.7308
  734MPD2    C310900   3.409   1.253  12.089 -0.3442  0.8871  0.1571
  734MPD2    C410901   3.427   1.367  12.168  0.3334 -0.0143  1.2463
  734MPD2    C510902   3.406   1.356  12.301 -0.1521 -0.1351 -0.3256
  734MPD2     H10903   3.344   1.058  12.078  0.1264 -0.9820  1.7499
  734MPD2    H110904   3.464   1.462  12.132 -0.8840  1.0913  2.9342
  734MPD2    H210905   3.332   1.246  12.459 -1.9788  1.4548 -0.4972
  734MPD2    H310906   3.429   1.433  12.374 -0.2261  0.1954 -0.6527
  734MPD2     N10907   3.423   1.247  11.948  0.3667 -0.5923 -0.4889
  734MPD2    H510908   3.421   1.152  11.913  0.4606 -0.1116 -1.8111
  734MPD2    N110909   3.268   1.011  12.343  0.4812 -0.3394  0.2912
  734MPD2    H710910   3.261   1.004  12.444 -1.6399  2.2458  0.3231
  735TMC3    C110911   3.178   0.794  12.335 -0.0464 -0.1390  0.2165
  735TMC3    C210912   3.085   0.730  12.255 -0.5606 -0.6514 -0.2487
  735TMC3    C310913   3.103   0.597  12.225 -0.4251  0.1430 -0.6450
  735TMC3    C410914   3.282   0.731  12.386  0.3387  0.0521  0.5775
  735TMC3    C510915   3.305   0.603  12.345 -0.7664 -0.1390 -0.2222
  735TMC3    C610916   3.215   0.528  12.271  0.4492 -0.6215 -0.2431
  735TMC3     C10917   3.215   0.914  12.264  1.0450 -0.2639  0.3821
  735TMC3     O10918   3.188   0.914  12.147  0.6262 -0.3949 -0.1869
  735TMC3     H10919   3.001   0.775  12.204  1.1231  0.5138 -2.0046
  735TMC3    H110920   3.357   0.774  12.452 -0.3139  0.3823  1.1060
  735TMC3    H210921   3.229   0.429  12.230  1.2168 -0.7536  0.3274
  735TMC3    C710922   3.445   0.561  12.343  0.0914 -0.5089  0.0024
  735TMC3    C810923   3.075   0.573  12.086  0.3436  0.3225  0.2442
  735TMC3    O110924   3.522   0.659  12.327 -0.0157  0.4604 -0.1361
  735TMC3    O210925   3.043   0.454  12.063 -0.1566 -0.1441 -0.2187
  736MPD2     C10926   3.590   0.220  12.335  0.4384  1.1579 -0.9229
  736MPD2    C110927   3.584   0.362  12.339  0.7663  0.1157  0.6537
  736MPD2    C210928   3.706   0.431  12.331 -0.0785 -0.8414 -0.2479
  736MPD2    C310929   3.826   0.360  12.337  0.5919 -0.4276  0.5227
  736MPD2    C410930   3.824   0.224  12.330  0.6064 -0.0075  0.0123
  736MPD2    C510931   3.709   0.155  12.335  0.3579 -0.3243  0.0929
  736MPD2     H10932   3.713   0.538  12.315 -0.1205 -0.8489 -0.3210
  736MPD2    H110933   3.918   0.170  12.331  2.2601  2.8689  0.8885
  736MPD2    H210934   3.501   0.159  12.344 -0.2919  2.1116 -1.7483
  736MPD2    H310935   3.705   0.047  12.344  1.4187 -0.1408  2.8762
  736MPD2     N10936   3.951   0.416  12.324  0.0613  0.3463  0.4718
  736MPD2    H510937   4.033   0.356  12.321  0.3747  0.8673 -2.0100
  736MPD2    N110938   3.459   0.427  12.335 -0.4875 -0.4374 -0.7190
  736MPD2    H710939   3.380   0.364  12.333 -1.5818  0.8393  1.9710
  737TMC3    C110940   4.107   0.592  12.270 -0.1327 -0.5436 -0.4798
  737TMC3    C210941   4.131   0.725  12.266  0.1958 -0.4141  0.5450
  737TMC3    C310942   4.242   0.768  12.193  1.0219 -0.2099 -0.1609
  737TMC3    C410943   4.190   0.505  12.204 -0.3558  0.9081 -0.7453
  737TMC3    C510944   4.296   0.553  12.136 -0.9992  0.3294 -0.2535
  737TMC3    C610945   4.330   0.687  12.130  0.0911  0.4575  0.2048
  737TMC3     C10946   3.980   0.554  12.331 -0.0402 -0.0768 -0.4183
  737TMC3     O10947   3.905   0.645  12.373 -0.1967 -0.3111  0.3321
  737TMC3     H10948   4.074   0.792  12.329  0.2107 -2.3603  2.6015
  737TMC3    H110949   4.170   0.399  12.200  1.1567  0.5027  2.2746
  737TMC3    H210950   4.412   0.716  12.065  0.1848 -2.0490 -0.8052
  737TMC3    C710951   4.388   0.450  12.081 -0.4647  0.1827  0.7067
  737TMC3    C810952   4.267   0.912  12.192  0.1390  0.4692  0.0031
  737TMC3    O110953   4.336   0.341  12.059 -0.2152 -0.4665 -0.1852
  737TMC3    O210954   4.192   0.981  12.258 -0.6577 -0.3377 -0.1506
  738MPD2     C10955   4.267   4.389  14.808 -0.8398 -0.2998  0.0194
  738MPD2    C110956   4.331   4.280  14.871  0.0186 -0.1393 -0.6398
  738MPD2    C210957   4.467   4.295  14.890 -0.2265 -0.0055  0.6322
  738MPD2    C310958   4.536   4.407  14.840  0.5774 -0.0109 -0.4042
  738MPD2    C410959   4.471   4.509  14.774 -0.2219  0.6357  0.2911
  738MPD2    C510960   4.341   4.491  14.753 -0.6996 -0.0201 -0.1291
  738MPD2     H10961   4.514   4.226  14.959  0.2934  1.0432  1.3343
  738MPD2    H110962   4.517   4.601  14.740 -0.0593  0.8114  1.0050
  738MPD2    H210963   4.161   4.400  14.790 -1.0101 -2.3386 -0.2249
  738MPD2    H310964   4.291   4.577  14.711 -0.9831 -0.2584 -0.2722
  738MPD2     N10965   4.673   4.422  14.845 -0.7097 -0.0878  0.1275
  738MPD2    H510966   4.704   4.500  14.787  0.0367  0.7198  1.6029
  738MPD2    N110967   4.266   4.159  14.905 -0.2167  0.5178  0.6414
  738MPD2    H710968   4.324   4.091  14.952 -1.8333 -0.9242  0.5519
  739TMC3    C110969   0.162   4.359  14.850  0.1350  0.4639 -0.8045
  739TMC3    C210970   0.181   4.392  14.719  0.0117 -0.6067 -0.5759
  739TMC3    C310971   0.305   4.454  14.692  0.0892  0.3796 -0.0700
  739TMC3    C410972   0.263   4.339  14.936 -0.0110  0.2784  0.2267
  739TMC3    C510973   0.382   4.389  14.898 -0.8593 -0.1661  0.4833
  739TMC3    C610974   0.408   4.446  14.773 -0.6080  0.2339 -0.6578
  739TMC3     C10975   0.025   4.334  14.897 -0.0238  0.1449 -0.7556
  739TMC3     O10976   0.011   4.253  14.985 -0.0615  0.3858  0.3894
  739TMC3     H10977   0.091   4.418  14.665  0.7740  2.7289 -0.2252
  739TMC3    H110978   0.245   4.340  15.042  0.5634  0.5164  0.3221
  739TMC3    H210979   0.504   4.478  14.735 -0.0207  0.1858  0.7836
  739TMC3    C710980   0.496   4.367  14.985 -0.1658  0.2385 -0.5260
  739TMC3    C810981   0.307   4.521  14.573 -0.3325 -0.4481  0.2478
  739TMC3    O110982   0.481   4.291  15.078 -0.2390  0.5802  0.3101
  739TMC3    O210983   0.228   4.475  14.490  0.3792 -0.5004 -0.1615
  740TMC3    C110984   0.621   1.303  14.318  0.6042  0.1719  0.0505
  740TMC3    C210985   0.691   1.330  14.435 -0.2774  0.4329 -0.6275
  740TMC3    C310986   0.829   1.318  14.422 -0.7467 -0.9294 -0.5255
  740TMC3    C410987   0.684   1.280  14.196  0.4520  0.5213 -0.2803
  740TMC3    C510988   0.821   1.262  14.197  0.3808 -0.0919  0.0280
  740TMC3    C610989   0.897   1.289  14.306 -0.0162 -0.3358 -0.8890
  740TMC3     C10990   0.477   1.298  14.324 -0.6850  0.2958 -0.2044
  740TMC3     O10991   0.420   1.348  14.233 -0.1482  0.2259  0.2926
  740TMC3     H10992   0.648   1.370  14.526  0.6035  0.3421 -0.1697
  740TMC3    H110993   0.629   1.237  14.112  0.1502 -0.2186  0.2986
  740TMC3    H210994   1.003   1.267  14.301  0.5425  1.6287  2.8377
  740TMC3    C710995   0.879   1.180  14.092 -0.5400  0.3871  0.2091
  740TMC3    C810996   0.897   1.346  14.543 -0.6442  0.2677  0.1993
  740TMC3    O110997   0.951   1.091  14.136 -0.5633  0.4564 -0.4188
  740TMC3    O210998   1.009   1.403  14.539 -0.3571  0.5335 -0.0420
  741TMC3    C110999   0.048   0.280  14.420 -0.5478 -0.5566 -0.5181
  741TMC3    C211000   4.691   0.225  14.334 -0.3240  0.2832 -0.1557
  741TMC3    C311001   4.654   0.097  14.358 -0.2460  0.7174 -0.4528
  741TMC3    C411002   0.070   0.226  14.547 -0.2275 -0.9992  0.3298
  741TMC3    C511003   0.031   0.095  14.566  0.1514  0.0277  0.1120
  741TMC3    C611004   4.691   0.033  14.474 -0.2842  0.0109  0.4410
  741TMC3     C11005   0.138   0.392  14.400 -0.5313  0.0289 -0.0302
  741TMC3     O11006   0.231   0.421  14.476 -0.1987 -0.2512 -0.1611
  741TMC3     H11007   4.666   0.276  14.242  1.0550 -0.4424 -0.9398
  741TMC3    H111008   0.142   0.277  14.610 -0.9468  0.4447 -0.0209
  741TMC3    H211009   4.666   4.670  14.507  1.3863  0.4013  2.8735
  741TMC3    C711010   0.075   0.019  14.677  0.6776  0.7144 -0.2663
  741TMC3    C811011   4.547   0.040  14.274 -0.0623 -0.8526 -0.2884
  741TMC3    O111012   0.018   4.656  14.713  0.3715 -0.0079 -0.0897
  741TMC3    O211013   4.484   0.124  14.210  0.4246 -0.1909  0.1580
  742TMC3    C111014   4.673   3.271  15.725 -0.7177  0.0373  0.7568
  742TMC3    C211015   4.617   3.280  15.597 -0.1211  0.3872 -0.1838
  742TMC3    C311016   4.658   3.182  15.503  0.3006  0.1850 -0.0612
  742TMC3    C411017   0.035   3.171  15.752  0.4352  0.2237 -0.4098
  742TMC3    C511018   0.069   3.085  15.654  0.0319  0.4419  0.7906
  742TMC3    C611019   0.013   3.086  15.526 -0.8742 -0.3916 -0.3959
  742TMC3     C11020   4.599   3.342  15.826  0.5373  0.0454  0.1722
  742TMC3     O11021   4.546   3.450  15.801  0.3667 -0.2275  0.3116
  742TMC3     H11022   4.551   3.363  15.575  2.0240  1.2265 -3.5315
  742TMC3    H111023   0.065   3.166  15.856  1.4801  2.3202 -0.5926
  742TMC3    H211024   0.073   3.045  15.446  0.7825  0.2140  0.5494
  742TMC3    C711025   0.194   3.024  15.662 -0.0049 -0.0672 -0.0606
  742TMC3    C811026   4.613   3.173  15.360 -0.2172 -0.5528 -0.5347
  742TMC3    O111027   0.219   2.925  15.591 -0.0518 -0.0896  0.1120
  742TMC3    O211028   4.651   3.076  15.292  0.2746  0.0015  0.5048
  743MPD2     C11029   2.319   0.137   1.509  0.0044 -0.0447  0.2765
  743MPD2    C111030   2.389   0.070   1.411 -0.3240 -0.4571  0.2471
  743MPD2    C211031   2.527   0.093   1.399 -0.1740 -0.5950  0.5696
  743MPD2    C311032   2.592   0.185   1.476  0.0225  0.0297 -0.4967
  743MPD2    C411033   2.519   0.255   1.574 -0.5404 -0.5701  0.5971
  743MPD2    C511034   2.387   0.233   1.588 -0.3067 -0.5732  0.2624
  743MPD2     H11035   2.590   0.038   1.330 -1.6913  1.2879 -2.3206
  743MPD2    H111036   2.569   0.329   1.635 -1.1160 -0.9399  1.5045
  743MPD2    H211037   2.211   0.132   1.519 -0.2056  4.2562  0.3619
  743MPD2    H311038   2.325   0.284   1.660 -0.1815  0.1041 -0.1110
  743MPD2     N11039   2.734   0.197   1.461  0.1319 -0.2325 -0.5605
  743MPD2    H511040   2.784   0.151   1.385  1.2729 -0.6879  0.4707
  743MPD2    N111041   2.316   4.719   1.330 -0.3869 -0.5999 -0.7073
  743MPD2    H711042   2.217   4.703   1.350 -0.4381 -1.1996 -1.4441
  744TMC3    C111043   2.264   4.584   1.149  0.0232 -0.1323 -0.5173
  744TMC3    C211044   2.147   4.549   1.205 -0.6171 -0.0570 -0.6275
  744TMC3    C311045   2.048   4.500   1.125  0.9842 -0.0431 -0.1987
  744TMC3    C411046   2.292   4.559   1.019  0.3069  0.3854 -0.2745
  744TMC3    C511047   2.194   4.488   0.945  0.7443  0.2495  0.1246
  744TMC3    C611048   2.071   4.461   0.994  0.1286 -0.3228  0.5805
  744TMC3     C11049   2.364   4.644   1.229 -0.1742 -0.6712 -0.2938
  744TMC3     O11050   2.479   4.633   1.186  0.0455  0.2981  0.2922
  744TMC3     H11051   2.119   4.577   1.306  1.4965 -0.8958  0.1938
  744TMC3    H111052   2.385   4.589   0.973  0.6626 -1.1348 -0.5667
  744TMC3    H211053   1.996   4.413   0.932 -0.3105 -0.7887  1.4679
  744TMC3    C711054   2.245   4.446   0.815 -0.7089 -0.5308  0.2063
  744TMC3    C811055   1.919   4.498   1.197  0.8079 -0.7974  0.3417
  744TMC3    O111056   2.346   4.506   0.780  0.1968  0.1555 -0.8076
  744TMC3    O211057   1.900   4.579   1.286 -0.2863  0.1431  0.1388
  745TMC3    C111058   4.579   3.394  13.750 -0.7264  0.2130 -0.0590
  745TMC3    C211059   4.601   3.480  13.857 -0.2413  0.0772  0.0170
  745TMC3    C311060   4.495   3.559  13.893  0.2020  0.1002 -0.9842
  745TMC3    C411061   4.456   3.400  13.684 -0.2757 -0.2438 -0.9924
  745TMC3    C511062   4.364   3.499  13.712  0.4420  0.1849  0.2261
  745TMC3    C611063   4.384   3.575  13.823 -0.1402  0.0961 -0.7253
  745TMC3     C11064   4.696   3.380  13.664 -0.7160 -0.3034  0.2326
  745TMC3     O11065   4.675   3.336  13.554  0.0512  0.5879 -0.1996
  745TMC3     H11066   4.696   3.502  13.903  1.1877  0.3362 -3.0699
  745TMC3    H111067   4.438   3.324  13.609 -1.4315 -1.5481  0.6185
  745TMC3    H211068   4.310   3.648  13.853  1.9368  1.1605  1.8832
  745TMC3    C711069   4.331   3.568  13.590  0.0191 -0.3114 -0.0442
  745TMC3    C811070   4.522   3.655  14.003  0.6973  0.3192 -0.3091
  745TMC3    O111071   4.237   3.645  13.586 -0.0094  0.1954  0.0416
  745TMC3    O211072   4.501   3.773  13.973  0.0598 -0.1866 -0.3429
  746TMC3    C111073   2.810   0.534  10.940 -0.2007  0.2741  0.0625
  746TMC3    C211074   2.890   0.450  10.868  0.1180 -0.1404  0.1991
  746TMC3    C311075   2.861   0.321  10.855 -0.5124 -0.3732 -0.1627
  746TMC3    C411076   2.700   0.468  11.004  0.9441 -0.1876 -0.1637
  746TMC3    C511077   2.673   0.332  10.982 -0.3221  0.1648  0.3781
  746TMC3    C611078   2.761   0.260  10.917  0.6101  0.8501  0.8017
  746TMC3     C11079   2.818   0.671  10.951  0.0907 -0.1971  0.1826
  746TMC3     O11080   2.724   0.728  11.002  0.3537 -0.4100 -0.6871
  746TMC3     H11081   2.967   0.494  10.804 -1.5449  0.4001 -1.4326
  746TMC3    H111082   2.633   0.526  11.066 -2.6144 -3.7172 -0.7338
  746TMC3    H211083   2.744   0.157  10.889  1.4476 -0.0045  3.3867
  746TMC3    C711084   2.553   0.273  11.033 -0.2411 -0.8220  0.3920
  746TMC3    C811085   2.898   0.264  10.733  0.6674 -0.5450 -0.6431
  746TMC3    O111086   2.456   0.344  11.019 -0.1037 -0.2345 -0.6062
  746TMC3    O211087   2.829   0.174  10.684  0.5155 -0.1537  0.2169
  747TMC3    C111088   0.629   0.602  11.616  0.6331 -0.0469 -0.2082
  747TMC3    C211089   0.521   0.519  11.632  0.0458 -0.3203  0.3301
  747TMC3    C311090   0.408   0.572  11.697  0.4689 -0.1201 -0.1055
  747TMC3    C411091   0.619   0.737  11.648  0.0125  0.0714 -0.1635
  747TMC3    C511092   0.506   0.782  11.724 -0.2433 -0.0606 -0.0913
  747TMC3    C611093   0.399   0.696  11.751  0.0933  0.3533 -0.5477
  747TMC3     C11094   0.724   0.568  11.511 -0.0340  0.5716 -0.0342
  747TMC3     O11095   0.832   0.629  11.491 -0.3839 -0.5460 -0.4447
  747TMC3     H11096   0.528   0.416  11.597 -2.4737  0.0809 -1.3270
  747TMC3    H111097   0.702   0.796  11.611  0.8917 -1.5487 -0.7852
  747TMC3    H211098   0.309   0.745  11.787  1.2539  1.5420  0.7008
  747TMC3    C711099   0.478   0.926  11.713  0.6945  0.2503  0.2035
  747TMC3    C811100   0.286   0.485  11.696  0.2969  0.8552  0.5522
  747TMC3    O111101   0.366   0.968  11.746  0.7181  0.1562 -0.0081
  747TMC3    O211102   0.266   0.420  11.590  0.5033  0.0704  0.0926
  748MPD2     C11103   2.191   0.986   1.056  0.3483 -0.4557 -0.2345
  748MPD2    C111104   2.274   0.893   1.003  0.2706 -0.2311  0.4737
  748MPD2    C211105   2.393   0.937   0.940  0.3540  0.2361 -0.0613
  748MPD2    C311106   2.428   1.075   0.949 -0.1105  0.2157  0.0228
  748MPD2    C411107   2.340   1.163   1.011 -0.6207  0.8757 -0.0621
  748MPD2    C511108   2.221   1.123   1.066 -0.2099 -0.6674  0.0042
  748MPD2     H11109   2.471   0.874   0.898  0.1041 -0.7988  1.0363
  748MPD2    H111110   2.361   1.268   1.021 -2.7435  1.5110 -2.3005
  748MPD2    H211111   2.100   0.947   1.101  1.2699 -1.8038  0.4511
  748MPD2    H311112   2.157   1.192   1.120  0.3902  2.5314 -3.3791
  748MPD2     N11113   2.547   1.124   0.896 -0.6551  0.3011  0.1205
  748MPD2    H511114   2.604   1.051   0.855 -2.1819 -1.1063  0.4944
  748MPD2    N111115   2.226   0.759   1.010  0.6364 -0.0232 -0.4901
  748MPD2    H711116   2.145   0.742   1.068  0.6964 -0.1672 -0.4490
  749TMC3    C111117   2.720   1.273   0.828  0.6039 -0.7232 -0.6279
  749TMC3    C211118   2.821   1.209   0.896 -0.2285  0.2398  0.1923
  749TMC3    C311119   2.939   1.272   0.896 -0.9601 -0.0136 -0.3497
  749TMC3    C411120   2.736   1.382   0.752 -0.0753  0.0194  0.5707
  749TMC3    C511121   2.861   1.441   0.760  0.0987 -0.1756 -0.3786
  749TMC3    C611122   2.963   1.385   0.828  0.0203  0.3529 -0.4762
  749TMC3     C11123   2.586   1.257   0.892 -0.1091  0.2624  0.6191
  749TMC3     O11124   2.518   1.360   0.891 -0.4668 -0.2122  0.7146
  749TMC3     H11125   2.787   1.140   0.972  0.3505 -0.5168 -0.2378
  749TMC3    H111126   2.650   1.443   0.724  1.7250  1.6937 -1.3826
  749TMC3    H211127   3.066   1.418   0.820 -0.3955  2.0417  1.1046
  749TMC3    C711128   2.883   1.564   0.690 -0.0440  0.2942  0.7533
  749TMC3    C811129   3.052   1.198   0.940 -0.4024  0.2550  1.1416
  749TMC3    O111130   2.981   1.628   0.735  0.1187 -0.4261 -0.3220
  749TMC3    O211131   3.158   1.257   0.955 -0.2171  0.7697  0.4056
  750MPD2     C11132   2.576   2.677  11.295 -0.1794 -0.7008  0.7351
  750MPD2    C111133   2.477   2.609  11.355  0.2276 -0.3051 -0.0577
  750MPD2    C211134   2.437   2.487  11.304 -0.3528 -0.5321  0.6361
  750MPD2    C311135   2.503   2.436  11.195 -0.3450  0.1421 -0.1274
  750MPD2    C411136   2.595   2.515  11.130  0.2762  0.1323  0.1271
  750MPD2    C511137   2.640   2.627  11.185  0.4729 -0.1560  0.2951
  750MPD2     H11138   2.365   2.422  11.353 -0.7088 -0.5719  0.0520
  750MPD2    H111139   2.644   2.478  11.040 -1.3362  1.8006 -1.4316
  750MPD2    H211140   2.602   2.770  11.343 -0.6839 -1.4039  2.3732
  750MPD2    H311141   2.707   2.696  11.135  0.0320  0.3588  0.4118
  750MPD2     N11142   2.470   2.311  11.132 -0.2600 -0.1753 -0.7118
  750MPD2    H511143   2.529   2.278  11.057  0.6607  2.4064 -1.1105
  750MPD2    N111144   2.424   2.660  11.476  0.5411 -0.4056  0.3681
  750MPD2    H711145   2.447   2.755  11.502  2.4051 -0.1014 -2.3318
  751TMC3    C111146   2.356   2.103  11.083 -0.6809 -0.1134 -0.3252
  751TMC3    C211147   2.271   2.006  11.129  0.0811 -0.0215  0.0193
  751TMC3    C311148   2.245   1.901  11.049 -0.2236  0.3369  0.4112
  751TMC3    C411149   2.433   2.083  10.969  0.1058  0.5189  0.3429
  751TMC3    C511150   2.411   1.971  10.891  0.3118  0.0574 -0.1556
  751TMC3    C611151   2.309   1.888  10.924 -0.0829 -0.0097  1.1329
  751TMC3     C11152   2.366   2.227  11.165 -0.1125 -0.4124  0.1119
  751TMC3     O11153   2.285   2.233  11.260  0.2710 -0.2174  0.2339
  751TMC3     H11154   2.208   2.006  11.217 -2.7910 -4.1697 -2.0741
  751TMC3    H111155   2.506   2.156  10.935 -0.8934  1.2428 -0.2184
  751TMC3    H211156   2.302   1.792  10.873 -0.8105 -1.4038  3.8918
  751TMC3    C711157   2.476   1.952  10.761 -0.2252  0.3740 -0.8024
  751TMC3    C811158   2.155   1.794  11.097  0.2323  0.0500 -0.8693
  751TMC3    O111159   2.591   1.993  10.752  0.5822 -0.1177 -0.0540
  751TMC3    O211160   2.060   1.832  11.164  0.1497  0.1965 -0.1445
  752TMC3    C111161   1.597   1.978  17.397  0.3141 -0.3945 -0.0751
  752TMC3    C211162   1.611   1.867  17.470 -0.2064  0.7592 -0.9896
  752TMC3    C311163   1.612   1.870  17.604 -0.4134 -0.0659 -0.4965
  752TMC3    C411164   1.583   2.101  17.458  0.7005 -0.0659  0.9600
  752TMC3    C511165   1.579   2.101  17.599 -0.2236 -0.0532 -0.0412
  752TMC3    C611166   1.599   1.992  17.670  0.2833  0.5370  0.3318
  752TMC3     C11167   1.613   1.964  17.258  0.4266 -0.4964  0.3064
  752TMC3     O11168   1.686   1.879  17.213 -0.1170  0.4103  0.2444
  752TMC3     H11169   1.627   1.773  17.418 -0.8261 -0.3683  0.8432
  752TMC3    H111170   1.579   2.189  17.395 -1.8414 -0.1824  0.9469
  752TMC3    H211171   1.606   1.995   0.030 -0.2862  0.5044  0.3702
  752TMC3    C711172   1.568   2.224  17.678  0.1386  0.6256  1.3032
  752TMC3    C811173   1.600   1.747  17.668  0.1760  0.1810  0.3720
  752TMC3    O111174   1.534   2.210   0.045 -0.0668  0.0563  0.0954
  752TMC3    O211175   1.666   1.655  17.613 -0.4505 -0.4378 -0.3837
  753TMC3    C111176   3.236   2.909  13.136  0.0606  0.2900 -0.1494
  753TMC3    C211177   3.319   2.897  13.244 -0.2921 -0.1260  0.2264
  753TMC3    C311178   3.275   2.823  13.351 -0.6563 -0.0123  0.6382
  753TMC3    C411179   3.110   2.857  13.142 -0.3660 -0.3103 -0.2158
  753TMC3    C511180   3.072   2.784  13.249  0.1472 -0.0537 -0.5040
  753TMC3    C611181   3.155   2.754  13.352  0.3839 -0.1060  0.3674
  753TMC3     C11182   3.268   2.978  13.015  0.0374 -0.8469 -0.0837
  753TMC3     O11183   3.188   3.058  12.964  0.2982  0.3023  0.2076
  753TMC3     H11184   3.417   2.942  13.236  0.5047 -1.7319  1.1855
  753TMC3    H111185   3.038   2.869  13.061  2.3309  1.1213 -2.4169
  753TMC3    H211186   3.116   2.690  13.431 -0.3927  1.0861  0.9441
  753TMC3    C711187   2.926   2.785  13.278  0.6364  0.0484 -0.1557
  753TMC3    C811188   3.366   2.801  13.467  0.4419 -0.2903  0.3923
  753TMC3    O111189   2.867   2.886  13.240  0.5603 -0.2893  0.5727
  753TMC3    O211190   3.392   2.684  13.499  0.7469 -0.1427  0.1383
  754MPD2     C11191   2.373   1.933  13.485  0.6016  0.7585  0.3962
  754MPD2    C111192   2.284   1.830  13.496  0.7598  0.0653 -0.4646
  754MPD2    C211193   2.147   1.865  13.477 -0.3654  0.2668  0.3224
  754MPD2    C311194   2.109   1.991  13.443  0.4243  0.7584 -0.4229
  754MPD2    C411195   2.205   2.085  13.430  0.0093  0.6919  0.7803
  754MPD2    C511196   2.335   2.057  13.452 -0.0499  0.2598  0.0086
  754MPD2     H11197   2.077   1.782  13.479  0.2354 -0.2106  1.3225
  754MPD2    H111198   2.184   2.185  13.393 -1.2267 -0.7103 -2.2923
  754MPD2    H211199   2.480   1.937  13.503  0.6927 -0.3268  0.0665
  754MPD2    H311200   2.410   2.136  13.454  1.3718 -1.1036  0.7554
  754MPD2     N11201   1.974   2.022  13.409  0.4577 -0.0381 -0.1582
  754MPD2    H511202   1.963   2.118  13.378 -2.9113 -0.3319  0.2094
  754MPD2    N111203   2.340   1.701  13.507  0.7083 -0.1326  0.2090
  754MPD2    H711204   2.440   1.688  13.493  0.3758 -0.4458 -1.8560
  755MPD2     C11205   1.285   2.565  13.310 -0.0624  0.3621  0.2901
  755MPD2    C111206   1.354   2.513  13.416  0.2042  0.4027  0.6038
  755MPD2    C211207   1.455   2.426  13.395 -0.4836 -1.0466 -0.6294
  755MPD2    C311208   1.479   2.378  13.269  0.6366  0.6484 -0.5693
  755MPD2    C411209   1.421   2.445  13.164  0.1346  0.4095  0.3712
  755MPD2    C511210   1.320   2.536  13.184 -0.1159 -0.4442 -0.3430
  755MPD2     H11211   1.505   2.377  13.478  0.5301 -0.5382 -0.9524
  755MPD2    H111212   1.454   2.426  13.063  3.9834 -0.1241  1.7056
  755MPD2    H211213   1.199   2.630  13.321 -1.4675 -1.5197  0.4725
  755MPD2    H311214   1.263   2.583  13.105 -1.3029 -0.6308  0.4002
  755MPD2     N11215   1.576   2.274  13.260  0.6151  0.6384 -0.1172
  755MPD2    H511216   1.613   2.245  13.349 -1.1896  1.5910  0.9471
  755MPD2    N111217   1.320   2.534  13.548  0.4043  0.5199  0.0186
  755MPD2    H711218   1.364   2.471  13.614  3.1231 -0.6309 -2.8902
  756MPD2     C11219   2.347   3.145   9.928 -0.0386  0.0021 -0.9140
  756MPD2    C111220   2.242   3.098  10.017  0.4808 -0.1770  0.0222
  756MPD2    C211221   2.118   3.091   9.956 -0.5843  0.2695  0.3290
  756MPD2    C311222   2.089   3.136   9.825  0.7673  0.6875  0.1219
  756MPD2    C411223   2.197   3.184   9.746 -0.1212 -0.0152 -0.6368
  756MPD2    C511224   2.318   3.188   9.801  0.4628 -0.2161  0.0726
  756MPD2     H11225   2.038   3.045  10.014 -1.2908  0.3619 -0.5750
  756MPD2    H111226   2.186   3.235   9.651  0.3419  0.7758 -0.2654
  756MPD2    H211227   2.449   3.154   9.962 -0.3305 -1.6525  0.3692
  756MPD2    H311228   2.397   3.237   9.746  1.0467 -2.8445 -1.4329
  756MPD2     N11229   1.953   3.147   9.774  0.2657 -0.2667  0.4160
  756MPD2    H511230   1.882   3.122   9.843 -0.8663 -1.6301 -1.2427
  756MPD2    N111231   2.258   3.070  10.152 -0.5065 -0.1159  0.5795
  756MPD2    H711232   2.176   3.047  10.208 -0.1509  3.3589  2.4852
  757MPD2     C11233   1.439   2.541   9.995  0.1031  0.2739 -0.3049
  757MPD2    C111234   1.538   2.619  10.053 -0.2584  0.2078  0.8010
  757MPD2    C211235   1.565   2.743   9.998  0.0159 -0.4202 -0.5334
  757MPD2    C311236   1.501   2.783   9.879  0.2091 -0.1353  0.0518
  757MPD2    C411237   1.415   2.700   9.818  0.7289 -0.3212  0.1695
  757MPD2    C511238   1.383   2.582   9.878  0.0749  0.6840  0.6016
  757MPD2     H11239   1.636   2.814  10.038 -0.7736 -1.9058  3.5356
  757MPD2    H111240   1.381   2.722   9.718  0.5300  0.6019  0.4358
  757MPD2    H211241   1.422   2.439  10.028  0.2881  1.0998  2.3873
  757MPD2    H311242   1.321   2.510   9.827  2.1753  0.2975 -1.4626
  757MPD2     N11243   1.536   2.907   9.827 -0.0923 -0.4918  0.8448
  757MPD2    H511244   1.615   2.955   9.867 -0.2516  0.3188  0.1996
  757MPD2    N111245   1.612   2.564  10.161 -0.6659  0.2028 -0.6772
  757MPD2    H711246   1.594   2.465  10.172  0.8624 -0.1128 -1.1556
  758MPD2     C11247   2.580   1.626  15.511 -0.1115 -0.1836  0.5510
  758MPD2    C111248   2.630   1.569  15.624  0.0568  0.4298  0.3567
  758MPD2    C211249   2.596   1.609  15.753 -0.0048  0.6104  0.0511
  758MPD2    C311250   2.499   1.703  15.774  0.8011 -0.4012  0.0288
  758MPD2    C411251   2.451   1.764  15.662 -0.3339 -0.5358  0.2152
  758MPD2    C511252   2.493   1.727  15.535  0.1878 -0.2775  0.2062
  758MPD2     H11253   2.638   1.560  15.840 -0.5732 -1.8560 -1.0811
  758MPD2    H111254   2.378   1.844  15.661  0.2608  0.0554  3.7974
  758MPD2    H211255   2.613   1.606  15.410 -1.5027 -0.2846  0.1243
  758MPD2    H311256   2.438   1.776  15.456 -1.3611 -1.0252  0.8145
  758MPD2     N11257   2.447   1.738  15.899 -0.0632  0.6726  0.0836
  758MPD2    H511258   2.367   1.800  15.899  0.2809  1.1134  1.7969
  758MPD2    N111259   2.735   1.476  15.602 -0.5556 -0.1499 -0.4315
  758MPD2    H711260   2.761   1.476  15.504  1.4459 -0.3314  0.0908
  759MPD2     C11261   1.312   4.684  10.479  0.2193  0.4264  0.6184
  759MPD2    C111262   1.213   0.036  10.520 -0.2926 -1.2719  0.3245
  759MPD2    C211263   1.210   0.170  10.469 -0.5338  0.0034  0.4161
  759MPD2    C311264   1.316   0.205  10.388  0.3382  0.2528 -0.4816
  759MPD2    C411265   1.413   0.121  10.345 -0.3318 -0.1716 -0.7213
  759MPD2    C511266   1.416   4.729  10.395 -0.5870 -0.1011 -0.5221
  759MPD2     H11267   1.124   0.233  10.488 -0.5216  0.2763 -0.4371
  759MPD2    H111268   1.496   0.158  10.286  0.5409 -0.0504  0.6076
  759MPD2    H211269   1.312   4.585  10.522 -4.2503 -0.5426 -1.6149
  759MPD2    H311270   1.490   4.659  10.358  1.5124  1.8993 -0.1481
  759MPD2     N11271   1.318   0.338  10.343  0.3853 -0.3010 -0.6192
  759MPD2    H511272   1.245   0.399  10.379 -0.1447 -1.5755  0.4420
  759MPD2    N111273   1.143   4.734  10.634  0.1870  0.0764 -0.0280
  759MPD2    H711274   1.172   4.647  10.676  1.9518 -0.3688 -2.1687
  760MPD2     C11275   0.611   2.491  11.747 -0.4796  0.3951  0.0562
  760MPD2    C111276   0.747   2.527  11.774  0.0027 -1.5262 -1.0459
  760MPD2    C211277   0.818   2.449  11.858  0.6024  0.5195  1.4150
  760MPD2    C311278   0.764   2.335  11.920 -0.8139 -0.6421 -0.4717
  760MPD2    C411279   0.633   2.306  11.895  0.7483 -0.6769 -0.2599
  760MPD2    C511280   0.560   2.385  11.811 -0.9000  0.5545 -0.4777
  760MPD2     H11281   0.924   2.462  11.878  1.1113 -1.4067  0.0197
  760MPD2    H111282   0.588   2.213  11.927 -0.0011 -1.0731 -2.5025
  760MPD2    H211283   0.547   2.543  11.677 -0.2810 -1.4357 -1.5038
  760MPD2    H311284   0.462   2.355  11.775 -0.8870  0.0128 -0.0558
  760MPD2     N11285   0.830   2.245  12.007  0.2986 -0.5629 -0.7516
  760MPD2    H511286   0.771   2.178  12.055 -0.6042 -0.1699 -1.3062
  760MPD2    N111287   0.815   2.636  11.714  0.2441 -0.1690 -0.3106
  760MPD2    H711288   0.907   2.656  11.751 -0.3457 -0.5511  1.3867
  761MPD2     C11289   2.073   1.313  11.241  0.4880 -0.1403  0.0157
  761MPD2    C111290   2.158   1.315  11.133  0.3020  0.1404 -0.2048
  761MPD2    C211291   2.195   1.431  11.073 -0.5832 -0.2451 -0.0424
  761MPD2    C311292   2.147   1.556  11.115 -0.5038 -0.4356  0.0071
  761MPD2    C411293   2.060   1.554  11.225 -0.0295 -0.5864  0.2302
  761MPD2    C511294   2.029   1.435  11.292 -0.4476  0.4563 -0.5614
  761MPD2     H11295   2.262   1.421  10.989 -0.1134  0.5613  0.2394
  761MPD2    H111296   2.046   1.641  11.288  1.2694  0.4346 -0.9210
  761MPD2    H211297   2.040   1.221  11.289  1.3633 -0.6857 -0.4382
  761MPD2    H311298   1.966   1.438  11.379  1.5621  0.8605  0.8958
  761MPD2     N11299   2.199   1.671  11.063 -0.1868 -0.2661 -0.0222
  761MPD2    H511300   2.280   1.664  11.003  0.6314 -0.8727  1.1446
  761MPD2    N111301   2.209   1.185  11.095  1.0891 -0.5642 -0.3127
  761MPD2    H711302   2.180   1.102  11.146 -0.6282 -0.9348 -1.9191
  762MPD2     C11303   2.604   0.486  10.599  0.0279 -0.2589 -0.9328
  762MPD2    C111304   2.608   0.623  10.608  0.5380 -0.1867 -0.0754
  762MPD2    C211305   2.680   0.695  10.509  0.2565 -0.6124  0.0273
  762MPD2    C311306   2.758   0.630  10.419  0.4467  0.4440 -0.1827
  762MPD2    C411307   2.756   0.492  10.414  0.0630  0.3208 -0.5924
  762MPD2    C511308   2.681   0.423  10.507  0.2472 -0.3411 -0.3068
  762MPD2     H11309   2.691   0.802  10.521 -0.8372 -0.6001  0.9515
  762MPD2    H111310   2.806   0.438  10.334  0.6369  1.2887 -0.8806
  762MPD2    H211311   2.553   0.432  10.678  0.9679 -0.7339 -0.6506
  762MPD2    H311312   2.691   0.315  10.516  2.3099 -0.1000  0.3578
  762MPD2     N11313   2.836   0.697  10.321 -0.2737  0.3134 -0.3834
  762MPD2    H511314   2.894   0.637  10.263 -0.1935  0.6808 -0.6866
  762MPD2    N111315   2.527   0.683  10.716 -0.0077 -0.4746 -0.2948
  762MPD2    H711316   2.462   0.623  10.766  0.0603  0.1971  0.5943
  763MPD2     C11317   4.379   1.572  16.229 -0.7899 -0.4235 -1.0080
  763MPD2    C111318   4.334   1.610  16.106  0.1604  0.5821  0.4588
  763MPD2    C211319   4.340   1.745  16.075 -0.0483  0.1239 -0.1626
  763MPD2    C311320   4.369   1.848  16.159 -0.0061  1.0700  0.0251
  763MPD2    C411321   4.407   1.808  16.282 -0.3529  0.5790 -0.0212
  763MPD2    C511322   4.430   1.676  16.309  0.1196  0.3556  0.1649
  763MPD2     H11323   4.317   1.762  15.970 -3.0638 -1.3424  0.2633
  763MPD2    H111324   4.444   1.881  16.354 -1.2748 -0.0867  1.1252
  763MPD2    H211325   4.382   1.468  16.260  1.7570 -0.2812 -0.8450
  763MPD2    H311326   4.457   1.649  16.411  0.1389  0.1807  0.1130
  763MPD2     N11327   4.378   1.977  16.119  0.1577 -0.0204  0.0684
  763MPD2    H511328   4.347   1.996  16.024 -1.3265  0.5324  0.6596
  763MPD2    N111329   4.297   1.523  16.001  0.1396  0.4291 -0.2279
  763MPD2    H711330   4.275   1.570  15.913  0.0042 -1.4987 -1.2110
  764MPD2     C11331   2.493   2.911  17.223 -0.2995  0.6845 -0.4439
  764MPD2    C111332   2.404   3.023  17.224 -1.5082  0.2876  0.4842
  764MPD2    C211333   2.415   3.129  17.310 -0.3970 -0.2316  0.1990
  764MPD2    C311334   2.515   3.122  17.407  0.0546 -1.2548 -0.2783
  764MPD2    C411335   2.604   3.020  17.393  0.3457 -0.7498 -0.5068
  764MPD2    C511336   2.592   2.914  17.311  0.6314  0.7911  0.1092
  764MPD2     H11337   2.342   3.209  17.313 -1.3271 -1.0690  0.3345
  764MPD2    H111338   2.691   3.008  17.457  0.1858 -0.3063 -0.2112
  764MPD2    H211339   2.473   2.819  17.170 -0.6355  0.5664 -0.1029
  764MPD2    H311340   2.665   2.836  17.293 -1.0132 -0.5976 -0.6488
  764MPD2     N11341   2.514   3.213  17.519 -0.1029  0.1626 -0.1334
  764MPD2    H511342   2.436   3.278  17.523 -0.9480 -0.8092 -0.8139
  764MPD2    N111343   2.298   3.041  17.134 -0.2341 -0.0881 -0.0202
  764MPD2    H711344   2.248   3.129  17.140  1.2388  0.6633  1.0280
  765MPD2     C11345   2.462   0.882  15.509 -0.3349 -0.0808 -0.3834
  765MPD2    C111346   2.510   0.978  15.601  0.3268  0.0431 -0.7770
  765MPD2    C211347   2.649   0.986  15.621  0.9434  1.1559 -0.6098
  765MPD2    C311348   2.741   0.903  15.559 -0.4745  0.5898  0.3676
  765MPD2    C411349   2.680   0.801  15.479  0.3793  0.5429 -0.4666
  765MPD2    C511350   2.543   0.790  15.451  0.1718  0.2810 -0.4017
  765MPD2     H11351   2.697   1.068  15.673  0.8257  1.2541 -0.6572
  765MPD2    H111352   2.747   0.722  15.448 -0.6040 -0.1982 -0.7160
  765MPD2    H211353   2.359   0.893  15.477 -0.8896  0.0287  1.4356
  765MPD2    H311354   2.498   0.718  15.384 -0.8271 -0.9286  1.5756
  765MPD2     N11355   2.876   0.922  15.565  0.1254  0.1244 -0.1520
  765MPD2    H511356   2.907   0.969  15.650 -2.6146 -0.1980  1.0180
  765MPD2    N111357   2.428   1.073  15.657 -0.9263  0.0784  0.2152
  765MPD2    H711358   2.329   1.060  15.641 -0.9479 -0.0762  0.4772
  766MPD2     C11359   1.700   1.070  15.534 -0.4191 -0.4086  0.1876
  766MPD2    C111360   1.834   1.065  15.524 -0.2987 -0.0838  0.0070
  766MPD2    C211361   1.888   0.987  15.420  0.2498  0.4296  0.0086
  766MPD2    C311362   1.809   0.918  15.334 -0.1173  0.2535  0.6432
  766MPD2    C411363   1.671   0.925  15.355 -0.5525  0.0845 -0.0387
  766MPD2    C511364   1.618   1.003  15.452 -0.5379  0.3660  0.2259
  766MPD2     H11365   1.994   0.986  15.399  0.6702  0.3998  2.1054
  766MPD2    H111366   1.602   0.878  15.285 -2.7886  3.3230 -0.0519
  766MPD2    H211367   1.658   1.128  15.615  0.0683 -0.0519  0.1875
  766MPD2    H311368   1.510   1.015  15.453 -0.7965 -2.1767  1.2322
  766MPD2     N11369   1.848   0.843  15.223  0.2322  0.0459 -0.5250
  766MPD2    H511370   1.786   0.825  15.145  1.4600  0.1566 -1.5362
  766MPD2    N111371   1.916   1.137  15.611 -0.4506 -0.1903 -0.1033
  766MPD2    H711372   1.861   1.203  15.666  3.8697  0.7060  3.1569
  767MPD2     C11373   1.459   1.001  15.034  0.1936 -0.2053 -0.0735
  767MPD2    C111374   1.580   1.035  14.983  0.3265  1.1958  0.3652
  767MPD2    C211375   1.600   1.013  14.853  0.9379 -0.2028  0.3512
  767MPD2    C311376   1.497   0.967  14.775  0.1115  0.1570 -0.2389
  767MPD2    C411377   1.375   0.938  14.831  1.3575 -0.0379 -0.3214
  767MPD2    C511378   1.352   0.952  14.964  0.2805  0.1096 -0.2484
  767MPD2     H11379   1.698   1.043  14.816  0.6413  1.0367  0.5810
  767MPD2    H111380   1.297   0.904  14.764  0.0041 -2.3498  2.4248
  767MPD2    H211381   1.447   1.020  15.140  0.2304  0.5297 -0.2048
  767MPD2    H311382   1.258   0.934  15.013  0.0467 -1.0082 -1.0964
  767MPD2     N11383   1.532   0.960  14.638 -0.3981  0.4566  0.2401
  767MPD2    H511384   1.627   0.988  14.612 -0.7429  0.0093 -1.5125
  767MPD2    N111385   1.671   1.097  15.070  0.1917  0.3106 -0.2520
  767MPD2    H711386   1.625   1.117  15.158 -1.1767 -2.3608 -0.3363
  768MPD2     C11387   2.316   0.209  10.531  0.2664  0.0682  0.1044
  768MPD2    C111388   2.277   0.133  10.637 -0.9364 -0.1713  0.3913
  768MPD2    C211389   2.368   0.035  10.685 -0.0711 -0.0218  0.1994
  768MPD2    C311390   2.491   0.007  10.621 -0.3234  0.0167  0.1535
  768MPD2    C411391   2.522   0.093  10.520 -0.5055 -0.0126 -0.5596
  768MPD2    C511392   2.434   0.189  10.473  0.6710  0.1975  0.4292
  768MPD2     H11393   2.325   4.715  10.767 -1.8370 -0.5334 -1.0823
  768MPD2    H111394   2.618   0.091  10.471 -1.4196  1.5880 -2.4213
  768MPD2    H211395   2.258   0.292  10.492  0.9922  1.1834  1.4307
  768MPD2    H311396   2.476   0.242  10.388  0.6717 -0.8933 -0.2471
  768MPD2     N11397   2.587   4.647  10.660 -0.9197  0.5784 -0.0232
  768MPD2    H511398   2.678   4.646  10.615 -1.0995  1.5655 -0.4269
  768MPD2    N111399   2.157   0.156  10.711  0.3013 -0.3127  0.2100
  768MPD2    H711400   2.131   0.100  10.792 -1.0443 -0.2234 -0.1508
  769MPD2     C11401   3.310   2.626  14.925 -0.8418  0.2983 -0.1986
  769MPD2    C111402   3.355   2.518  14.989 -0.1090  0.2899  0.2985
  769MPD2    C211403   3.457   2.540  15.087  0.5837  1.3171 -0.0322
  769MPD2    C311404   3.513   2.660  15.117  0.2745 -0.6628  0.2638
  769MPD2    C411405   3.471   2.764  15.037 -0.5978 -0.0778 -0.2205
  769MPD2    C511406   3.376   2.744  14.938 -0.4927 -0.8299  0.1723
  769MPD2     H11407   3.487   2.452  15.144  0.0200  0.2298 -1.4279
  769MPD2    H111408   3.513   2.862  15.056 -2.5144  0.9153 -1.2383
  769MPD2    H211409   3.234   2.612  14.849 -0.7601 -1.0646 -0.0430
  769MPD2    H311410   3.343   2.830  14.881 -1.0695 -0.7234  0.6567
  769MPD2     N11411   3.601   2.682  15.226 -0.0645  0.1235  0.2709
  769MPD2    H511412   3.619   2.602  15.286  1.6293  0.6685  0.4935
  769MPD2    N111413   3.297   2.396  14.947 -0.0075  0.2100  0.2250
  769MPD2    H711414   3.226   2.403  14.875 -2.1537  1.1602  2.4088
  770MPD2     C11415   3.266   1.335  14.793  0.7621 -0.2991  0.5326
  770MPD2    C111416   3.148   1.387  14.747  0.2754  0.4643  0.2125
  770MPD2    C211417   3.122   1.514  14.769  0.1060 -0.6486 -0.2577
  770MPD2    C311418   3.210   1.597  14.833  0.1255 -0.3571  0.2636
  770MPD2    C411419   3.336   1.555  14.873 -0.0810  0.6637  0.5531
  770MPD2    C511420   3.355   1.418  14.850 -0.4244 -0.0569 -0.3768
  770MPD2     H11421   3.023   1.546  14.736  0.6249  1.1009 -0.0819
  770MPD2    H111422   3.411   1.610  14.927  1.9263  1.2058 -2.7439
  770MPD2    H211423   3.298   1.233  14.777  1.0946 -0.3952  1.7686
  770MPD2    H311424   3.449   1.374  14.881  0.3279  1.6911 -0.1890
  770MPD2     N11425   3.171   1.730  14.857 -0.2827  0.2082  0.0434
  770MPD2    H511426   3.075   1.756  14.838 -0.4745  1.6117  3.0397
  770MPD2    N111427   3.056   1.295  14.694 -0.5428 -0.4806  0.3192
  770MPD2    H711428   3.075   1.195  14.685  2.0306 -0.0468  1.0050
  771MPD2     C11429   4.129   0.348  13.399  0.8108  0.5563  0.4489
  771MPD2    C111430   4.045   0.445  13.456  0.3735 -0.4452  0.1097
  771MPD2    C211431   3.909   0.427  13.443 -0.1958 -0.3823 -0.5043
  771MPD2    C311432   3.853   0.314  13.381 -1.4836 -0.8509 -0.2512
  771MPD2    C411433   3.942   0.214  13.343 -0.2106 -0.0880  1.2431
  771MPD2    C511434   4.078   0.234  13.342  0.9682 -0.0648  0.8928
  771MPD2     H11435   3.834   0.486  13.495  0.4303  1.9373 -2.2719
  771MPD2    H111436   3.904   0.124  13.297  1.5303  0.0832 -0.5337
  771MPD2    H211437   4.237   0.347  13.400  0.8219  0.9747 -0.3251
  771MPD2    H311438   4.143   0.159  13.299 -0.2342 -0.5557 -0.0661
  771MPD2     N11439   3.712   0.313  13.360 -0.4667  0.2888  0.7160
  771MPD2    H511440   3.663   0.399  13.383 -1.0211  0.4162 -0.9440
  771MPD2    N111441   4.085   0.557  13.530  0.5769 -0.3819  0.0481
  771MPD2    H711442   4.006   0.608  13.568  2.0768  2.9842 -1.4170
  772MPD2     C11443   3.817   0.991  13.999  0.4335  0.1201 -0.3391
  772MPD2    C111444   3.782   0.936  13.873 -0.1217  0.1777  1.2193
  772MPD2    C211445   3.651   0.894  13.844 -0.0666 -0.3695 -0.5251
  772MPD2    C311446   3.549   0.911  13.933  0.0485 -0.0074  0.5512
  772MPD2    C411447   3.585   0.964  14.049  0.2150  0.4080  0.4253
  772MPD2    C511448   3.712   1.006  14.083 -0.0670  0.0382 -0.0286
  772MPD2     H11449   3.629   0.858  13.744  4.1183 -0.4985 -1.3674
  772MPD2    H111450   3.505   0.980  14.121  0.0741 -1.8901  0.7634
  772MPD2    H211451   3.917   1.026  14.024  0.6664 -0.1494 -0.9034
  772MPD2    H311452   3.729   1.057  14.178  2.4324 -1.5791  0.3656
  772MPD2     N11453   3.414   0.861  13.921 -0.6449  0.7608  0.0111
  772MPD2    H511454   3.355   0.872  14.003 -3.0613 -2.4104 -1.3082
  772MPD2    N111455   3.890   0.912  13.786 -0.3365  0.0861 -0.3492
  772MPD2    H711456   3.869   0.864  13.699 -0.8096  0.6939 -0.5673
  773MPD2     C11457   3.108   2.094  17.422  0.8981  0.0966  0.3383
  773MPD2    C111458   3.072   1.967  17.375  0.0936  0.0930 -0.0062
  773MPD2    C211459   3.087   1.857  17.459  0.5251  0.2591  0.1433
  773MPD2    C311460   3.128   1.876  17.588  0.5472 -0.2543  0.6165
  773MPD2    C411461   3.158   1.999  17.634 -0.4324  0.2510 -0.1162
  773MPD2    C511462   3.150   2.107  17.553 -0.5653 -0.0178  0.9642
  773MPD2     H11463   3.060   1.763  17.411  1.9762 -0.9601  1.7215
  773MPD2    H111464   3.189   2.020  17.736 -0.2851 -3.3399  0.5945
  773MPD2    H211465   3.107   2.186  17.364 -1.2168 -1.0218 -1.3900
  773MPD2    H311466   3.162   2.207  17.593  1.3545 -0.4282  1.4503
  773MPD2     N11467   3.149   1.759  17.666  0.0020 -0.0013  0.1435
  773MPD2    H511468   3.120   1.671  17.624 -0.8842 -1.5191  3.9094
  773MPD2    N111469   3.012   1.944  17.251  0.7726  0.4191 -0.7374
  773MPD2    H711470   2.966   1.854  17.241  0.4063  0.6240 -0.9071
  774MPD2     C11471   1.671   0.928  13.584 -0.0222  0.0956 -0.2592
  774MPD2    C111472   1.805   0.917  13.599  0.0053 -0.2243  0.3225
  774MPD2    C211473   1.875   1.038  13.593 -1.1117  0.9341 -0.1691
  774MPD2    C311474   1.805   1.161  13.584 -0.7706  0.4598 -0.1404
  774MPD2    C411475   1.671   1.164  13.567 -0.0369  0.0257  0.4208
  774MPD2    C511476   1.605   1.047  13.568  0.4865  0.2206 -0.5299
  774MPD2     H11477   1.982   1.047  13.606 -1.0946  1.3574 -0.6077
  774MPD2    H111478   1.600   1.245  13.552 -0.6209 -0.5143  0.2659
  774MPD2    H211479   1.607   0.841  13.584 -1.4044  1.1254 -2.0253
  774MPD2    H311480   1.499   1.062  13.551  0.4444 -1.0253 -1.4058
  774MPD2     N11481   1.876   1.285  13.593  0.2886 -0.6469  0.4547
  774MPD2    H511482   1.977   1.273  13.596  0.2573 -1.2045 -0.8334
  774MPD2    N111483   1.872   0.793  13.613  0.0155 -0.8170 -0.6084
  774MPD2    H711484   1.813   0.711  13.619  1.1541 -1.6163 -0.4965
  775MPD2     C11485   3.761   2.231  15.532  0.0467 -0.4934 -0.6124
  775MPD2    C111486   3.846   2.306  15.618 -0.8148 -0.7498 -0.0220
  775MPD2    C211487   3.933   2.398  15.561 -0.0005  0.4288  0.8232
  775MPD2    C311488   3.948   2.415  15.427 -0.4582 -0.0379 -0.2187
  775MPD2    C411489   3.886   2.318  15.348  0.4093 -0.3165 -0.2686
  775MPD2    C511490   3.790   2.235  15.401 -0.3531  0.0905 -1.0617
  775MPD2     H11491   3.978   2.465  15.633 -1.6366  1.6256  0.7509
  775MPD2    H111492   3.903   2.317  15.241 -1.9020 -2.4876 -0.6209
  775MPD2    H211493   3.681   2.176  15.580  1.9804 -2.0028  0.9343
  775MPD2    H311494   3.742   2.171  15.328  0.2572 -1.9850  0.3757
  775MPD2     N11495   4.025   2.514  15.362  0.2118  0.0647 -0.2401
  775MPD2    H511496   4.019   2.521  15.261  0.3310 -1.3876 -0.3383
  775MPD2    N111497   3.810   2.302  15.758 -0.0561 -0.1919  0.0914
  775MPD2    H711498   3.724   2.257  15.786  0.9003 -2.5803 -0.8582
  776MPD2     C11499   2.550   3.094  12.149 -0.1681  0.3340  0.5288
  776MPD2    C111500   2.491   3.099  12.022 -0.2762  0.4261 -0.6717
  776MPD2    C211501   2.498   3.218  11.958 -0.0441  0.5880  0.0806
  776MPD2    C311502   2.575   3.329  12.006  0.6174  0.3998 -0.5735
  776MPD2    C411503   2.651   3.316  12.114 -0.0257 -0.8359 -0.1456
  776MPD2    C511504   2.628   3.200  12.186 -0.2133 -0.1753  0.0481
  776MPD2     H11505   2.471   3.220  11.853 -1.6541  0.6183  0.5011
  776MPD2    H111506   2.718   3.397  12.143 -1.4847 -0.3558  1.8987
  776MPD2    H211507   2.538   3.015  12.221 -0.6539 -0.3096 -0.2580
  776MPD2    H311508   2.674   3.192  12.284  2.5037  1.8387 -1.0573
  776MPD2     N11509   2.602   3.442  11.928  0.1484 -0.2305 -0.6271
  776MPD2    H511510   2.685   3.500  11.938 -0.3902  0.4470 -0.0707
  776MPD2    N111511   2.420   2.995  11.976  0.0034  0.0939  0.0626
  776MPD2    H711512   2.419   2.910  12.031 -0.0414 -0.3635 -0.6377
  777MPD2     C11513   3.382   4.674   0.540 -0.2430  0.5431  0.9121
  777MPD2    C111514   3.256   4.717   0.587 -0.3905 -0.5841  0.6157
  777MPD2    C211515   3.146   4.654   0.529 -0.6274 -0.2122  0.3896
  777MPD2    C311516   3.147   4.561   0.423  0.5019 -0.5617  0.0062
  777MPD2    C411517   3.273   4.531   0.377 -0.4586 -0.6179 -0.1592
  777MPD2    C511518   3.387   4.582   0.441 -0.4478 -0.1615  0.4121
  777MPD2     H11519   3.051   4.686   0.572 -1.1379 -1.3914  0.1298
  777MPD2    H111520   3.287   4.456   0.300 -0.4958 -0.5140 -0.2663
  777MPD2    H211521   3.473   4.724   0.571  1.7081 -1.8614 -0.9628
  777MPD2    H311522   3.478   4.539   0.401 -0.9654  0.3157 -1.2679
  777MPD2     N11523   3.030   4.498   0.379  0.5883 -0.5697 -0.0886
  777MPD2    H511524   2.950   4.490   0.442 -1.0661  0.3932 -2.0625
  777MPD2    N111525   3.258   0.081   0.683 -0.5637 -0.2760  0.6673
  777MPD2    H711526   3.348   0.114   0.718 -0.5650 -0.1601  0.5603
  778MPD2     C11527   4.326   0.909  14.975  0.3163  0.4845 -0.3979
  778MPD2    C111528   4.373   0.783  14.944  0.5900 -0.2358  0.0736
  778MPD2    C211529   4.476   0.768  14.850  0.0356  0.0986 -0.2114
  778MPD2    C311530   4.523   0.876  14.779  0.7463  0.3037  0.2154
  778MPD2    C411531   4.482   1.004  14.818  0.7236  0.8218  0.6012
  778MPD2    C511532   4.385   1.017  14.915  0.4886 -0.4255 -0.1074
  778MPD2     H11533   4.519   0.673  14.820  1.2584 -0.0371  1.9376
  778MPD2    H111534   4.528   1.092  14.775  0.9208 -0.1145 -1.0992
  778MPD2    H211535   4.245   0.908  15.047 -0.1146  0.5504 -0.8816
  778MPD2    H311536   4.347   1.118  14.930 -0.3898 -1.0991  2.1864
  778MPD2     N11537   4.612   0.862  14.672  0.0701 -0.7070  0.3646
  778MPD2    H511538   4.657   0.773  14.652  0.9272 -0.5640  1.6314
  778MPD2    N111539   4.319   0.670  15.003 -0.0210 -0.3765  0.1154
  778MPD2    H711540   4.367   0.581  15.000  3.1687  1.3699 -0.2733
  779MPD2     C11541   3.671   4.005  13.547  0.7812 -0.3211 -0.3570
  779MPD2    C111542   3.764   4.003  13.646  0.1803 -0.0910  0.0142
  779MPD2    C211543   3.822   4.126  13.684  0.0551 -0.0526 -0.2178
  779MPD2    C311544   3.792   4.243  13.619 -0.5546  0.0922 -0.6315
  779MPD2    C411545   3.704   4.241  13.515  0.2697 -0.8859  0.2137
  779MPD2    C511546   3.648   4.120  13.478 -0.6261 -0.7363  0.0645
  779MPD2     H11547   3.894   4.125  13.765 -0.2635 -1.2462  0.0497
  779MPD2    H111548   3.673   4.324  13.452  1.2462 -0.4514  0.3101
  779MPD2    H211549   3.624   3.919  13.501 -0.1254 -1.5494  2.8812
  779MPD2    H311550   3.582   4.109  13.392 -0.2913  2.2619 -0.6057
  779MPD2     N11551   3.847   4.360  13.668  0.2217 -0.3378 -0.3892
  779MPD2    H511552   3.909   4.346  13.747  1.0490  0.4711 -0.8993
  779MPD2    N111553   3.800   3.881  13.711 -0.1373  0.5901 -0.0772
  779MPD2    H711554   3.888   3.876  13.760  1.0862  1.7846 -2.1368
  780MPD2     C11555   4.262   3.877   0.877 -0.0726 -0.0475 -0.1594
  780MPD2    C111556   4.167   3.975   0.883 -0.0442 -0.3286 -0.2542
  780MPD2    C211557   4.145   4.048   0.770  0.0694  0.3440 -0.0530
  780MPD2    C311558   4.212   4.024   0.654 -0.4452  0.4698  0.4548
  780MPD2    C411559   4.310   3.929   0.649  0.2729  0.2838  0.1089
  780MPD2    C511560   4.331   3.854   0.762  0.2841  0.6411  0.1830
  780MPD2     H11561   4.073   4.128   0.763  1.1385  1.2448 -0.7900
  780MPD2    H111562   4.368   3.904   0.561 -0.7897 -1.3331 -0.1492
  780MPD2    H211563   4.299   3.812   0.955 -1.8383  0.8434  1.4191
  780MPD2    H311564   4.415   3.786   0.759  0.1657  0.5307 -0.6627
  780MPD2     N11565   4.161   4.091   0.541  0.2138 -0.5578 -0.0036
  780MPD2    H511566   4.093   4.164   0.559 -0.6692 -0.7360 -2.7309
  780MPD2    N111567   4.097   3.985   1.001 -0.4081 -0.7673 -0.3923
  780MPD2    H711568   4.107   3.922   1.079  0.0911  0.5477  0.6004
  781MPD2     C11569   4.498   1.311  12.384  0.4841 -0.1285  0.8345
  781MPD2    C111570   4.634   1.306  12.382  0.7796 -0.5055  1.0127
  781MPD2    C211571   4.699   1.378  12.287 -0.1354 -0.4947 -0.0342
  781MPD2    C311572   4.623   1.448  12.189  0.4071 -0.5334  0.2283
  781MPD2    C411573   4.485   1.450  12.197  0.8708 -0.1097 -0.0186
  781MPD2    C511574   4.428   1.390  12.298 -0.0203  0.1953 -0.6414
  781MPD2     H11575   0.070   1.381  12.287 -0.1546  0.1994 -0.0764
  781MPD2    H111576   4.426   1.495  12.118 -1.2189 -0.1299  1.5157
  781MPD2    H211577   4.447   1.244  12.454 -3.0663  1.4052 -0.2880
  781MPD2    H311578   4.321   1.396  12.312 -0.0223 -2.2854  0.4849
  781MPD2     N11579   4.679   1.509  12.071 -0.1554 -0.2033 -0.8728
  781MPD2    H511580   4.602   1.537  12.010  0.3886 -0.8486 -1.8489
  781MPD2    N111581   4.718   1.234  12.473  1.0510  0.0928  0.2115
  781MPD2    H711582   0.081   1.248  12.462  1.4264 -0.2314  3.4030
  782MPD2     C11583   3.054   2.261   9.847 -0.2672 -0.6452  0.5555
  782MPD2    C111584   3.136   2.199   9.945  0.7634 -0.3326  0.1624
  782MPD2    C211585   3.216   2.285  10.016  0.3251  0.3882  0.3972
  782MPD2    C311586   3.238   2.421   9.979 -0.7201 -0.2562  0.1729
  782MPD2    C411587   3.157   2.473   9.885 -0.3040  0.1514  0.3235
  782MPD2    C511588   3.068   2.393   9.820  0.1343  0.1339 -0.5395
  782MPD2     H11589   3.265   2.240  10.102  0.5251 -2.4184 -1.1962
  782MPD2    H111590   3.162   2.579   9.865 -0.1552  0.2812  1.0526
  782MPD2    H211591   2.982   2.202   9.792  0.9574 -0.8084 -0.8541
  782MPD2    H311592   3.002   2.442   9.749 -0.5213 -1.8567 -1.3019
  782MPD2     N11593   3.325   2.494  10.054 -0.1706  0.0953  0.4330
  782MPD2    H511594   3.378   2.446  10.126  4.9836  2.8902 -1.5294
  782MPD2    N111595   3.131   2.063   9.992 -0.2554 -0.7511  0.0823
  782MPD2    H711596   3.205   2.036  10.056  0.7046 -1.0459 -1.1563
  783MPD2     C11597   2.423   1.666  10.537  0.1783 -0.1504 -0.6216
  783MPD2    C111598   2.480   1.784  10.571  0.2903  0.2190 -0.2573
  783MPD2    C211599   2.597   1.824  10.509 -0.1226  0.6246 -0.3901
  783MPD2    C311600   2.657   1.738  10.418  0.5067  0.1639  0.5850
  783MPD2    C411601   2.594   1.623  10.379  0.1154 -0.2377  0.0509
  783MPD2    C511602   2.477   1.592  10.437  0.3479  0.2618 -0.1682
  783MPD2     H11603   2.646   1.918  10.531 -1.8111  1.5494 -0.5457
  783MPD2    H111604   2.643   1.548  10.319  0.8773 -0.2825  0.7357
  783MPD2    H211605   2.326   1.637  10.577  0.0652  1.0250 -0.0361
  783MPD2    H311606   2.425   1.503  10.401  1.1350 -0.8643  1.4686
  783MPD2     N11607   2.782   1.772  10.361 -0.5611  0.3026 -0.6516
  783MPD2    H511608   2.820   1.863  10.387 -0.6370 -0.3079  1.5678
  783MPD2    N111609   2.417   1.859  10.675 -0.2319  0.3049  0.4574
  783MPD2    H711610   2.318   1.846  10.692 -0.6704  1.3690 -1.1942
  784MPD2     C11611   0.930   1.837   0.721  0.3371  0.0277  0.1253
  784MPD2    C111612   0.961   1.952   0.792 -0.2434 -0.4142  0.6330
  784MPD2    C211613   0.879   2.068   0.772  0.4924  0.1014  0.0175
  784MPD2    C311614   0.761   2.060   0.698  0.0443  0.6563 -0.5380
  784MPD2    C411615   0.732   1.936   0.648 -0.0634  1.2799  0.0068
  784MPD2    C511616   0.815   1.828   0.649 -0.1415  0.2926  0.0268
  784MPD2     H11617   0.907   2.163   0.817  0.0235  0.5960 -0.7434
  784MPD2    H111618   0.647   1.919   0.583  1.2829 -3.1831 -0.5443
  784MPD2    H211619   0.996   1.751   0.718 -0.5890 -0.6831  0.3728
  784MPD2    H311620   0.788   1.745   0.585 -1.0417 -0.2712  1.1387
  784MPD2     N11621   0.682   2.173   0.680 -0.3255  0.0041  0.3207
  784MPD2    H511622   0.714   2.259   0.724 -0.5978 -0.0745  0.6667
  784MPD2    N111623   1.079   1.971   0.861 -0.1241 -0.6642 -0.4976
  784MPD2    H711624   1.083   2.059   0.911  2.9014 -0.3297 -1.2880
  785MPD2     C11625   1.346   0.855  11.179 -0.5004 -0.2840  0.7091
  785MPD2    C111626   1.211   0.888  11.157  0.3626 -0.0925 -0.2071
  785MPD2    C211627   1.129   0.795  11.097 -0.6270 -0.0511  0.6240
  785MPD2    C311628   1.176   0.676  11.049  0.1207 -0.6289 -0.6927
  785MPD2    C411629   1.312   0.645  11.061 -0.2906  0.2416  0.1147
  785MPD2    C511630   1.389   0.729  11.133 -0.1769  0.6605  0.1167
  785MPD2     H11631   1.028   0.834  11.086 -0.4711 -0.2329 -1.4308
  785MPD2    H111632   1.352   0.549  11.031 -2.1555  0.3397 -2.6903
  785MPD2    H211633   1.408   0.924  11.234  0.1721 -1.1329  1.0228
  785MPD2    H311634   1.496   0.712  11.133 -0.7683 -3.1185  0.2519
  785MPD2     N11635   1.081   0.597  10.976  0.7997 -0.2941  0.2468
  785MPD2    H511636   0.986   0.632  10.982  0.7015 -0.2299 -1.7849
  785MPD2    N111637   1.143   1.010  11.194  0.3267  0.3787  0.0457
  785MPD2    H711638   1.045   1.020  11.170 -0.3529 -0.3917  2.4490
  786MPD2     C11639   4.417   3.356  14.932 -0.2188 -0.6365 -0.7820
  786MPD2    C111640   4.438   3.220  14.970  0.2988  0.1113 -0.0165
  786MPD2    C211641   4.496   3.189  15.089 -0.8253 -0.5655  0.2798
  786MPD2    C311642   4.512   3.298  15.179 -0.9209 -0.4046  0.1159
  786MPD2    C411643   4.484   3.427  15.144  0.4460 -0.3876 -0.0516
  786MPD2    C511644   4.437   3.460  15.015  1.0305 -0.3267 -0.0985
  786MPD2     H11645   4.533   3.089  15.108  1.4684  0.1076 -0.5361
  786MPD2    H111646   4.497   3.508  15.215  0.2835  0.0542 -0.5260
  786MPD2    H211647   4.363   3.375  14.840 -0.6936  1.0841 -0.1378
  786MPD2    H311648   4.421   3.562  14.981  0.4227 -0.4085 -0.0600
  786MPD2     N11649   4.561   3.283  15.309 -0.2695  0.5594 -0.2181
  786MPD2    H511650   4.555   3.370  15.362 -3.4588  0.4993 -0.4547
  786MPD2    N111651   4.417   3.108  14.881 -0.4071 -0.0148 -0.3965
  786MPD2    H711652   4.439   3.017  14.919 -0.6323 -0.4464 -1.3190
  787MPD2     C11653   0.092   2.651  14.874  0.6254  0.7474 -0.0595
  787MPD2    C111654   0.032   2.642  14.752  0.3785  0.3406 -0.1752
  787MPD2    C211655   0.085   2.564  14.645  0.4441  0.1981 -0.3163
  787MPD2    C311656   0.200   2.494  14.668  0.1888 -0.1307  0.0673
  787MPD2    C411657   0.258   2.501  14.790 -0.2449  0.4977 -0.7003
  787MPD2    C511658   0.215   2.588  14.889 -0.4002 -0.3636  0.2399
  787MPD2     H11659   0.041   2.564  14.546 -0.3660  1.5127  0.0576
  787MPD2    H111660   0.351   2.448  14.810 -0.0300  1.5477  1.1869
  787MPD2    H211661   0.047   2.703  14.958  2.3841 -0.2628  1.4902
  787MPD2    H311662   0.279   2.609  14.974 -1.7810 -0.6736  1.3520
  787MPD2     N11663   0.253   2.429  14.556  0.2619 -0.4874 -0.3553
  787MPD2    H511664   0.203   2.458  14.473 -1.3174 -0.7218  0.4981
  787MPD2    N111665   4.646   2.713  14.735 -0.2435  0.1214  0.5556
  787MPD2    H711666   4.626   2.790  14.797  0.9468 -0.2150  1.3629
  788MPD2     C11667   1.679   2.167   0.719  0.1634 -0.5729 -0.9574
  788MPD2    C111668   1.805   2.184   0.659  0.9725 -0.8741 -0.1559
  788MPD2    C211669   1.838   2.299   0.586  1.0612  0.8367 -0.2936
  788MPD2    C311670   1.731   2.384   0.551 -0.3446  0.0945  0.1607
  788MPD2    C411671   1.602   2.367   0.607  0.3268 -0.2782  0.8811
  788MPD2    C511672   1.577   2.265   0.702 -0.2171  0.4015 -0.2729
  788MPD2     H11673   1.938   2.299   0.546  1.2902  0.6985  0.2700
  788MPD2    H111674   1.520   2.434   0.584  0.6958  0.3199  1.3042
  788MPD2    H211675   1.653   2.086   0.786 -0.1449  1.4277  1.3892
  788MPD2    H311676   1.484   2.249   0.754 -0.0587 -0.1211 -0.1485
  788MPD2     N11677   1.738   2.488   0.452 -0.1773  0.4197 -0.3300
  788MPD2    H511678   1.673   2.566   0.460  0.2644  0.7793 -0.2193
  788MPD2    N111679   1.905   2.087   0.658  0.4916  0.3505  0.3933
  788MPD2    H711680   1.999   2.114   0.631  1.2845 -1.4559  1.3852
  789MPD2     C11681   2.078   1.261  16.732  0.3091  0.1621  0.9468
  789MPD2    C111682   1.998   1.328  16.633  0.6260 -0.4444  0.3339
  789MPD2    C211683   1.902   1.422  16.672  0.4301 -0.4857  0.8117
  789MPD2    C311684   1.887   1.453  16.807 -0.0811  1.1831  0.0132
  789MPD2    C411685   1.973   1.400  16.899  0.2344 -0.5583  0.7184
  789MPD2    C511686   2.067   1.302  16.859 -0.1965  0.6033  0.5772
  789MPD2     H11687   1.852   1.481  16.596 -1.1703 -0.4083  1.9268
  789MPD2    H111688   1.964   1.418  17.006  1.5209 -0.6705  0.8422
  789MPD2    H211689   2.156   1.187  16.716  0.2017  0.3700 -0.5585
  789MPD2    H311690   2.131   1.256  16.933  0.6397  2.8343  1.2291
  789MPD2     N11691   1.788   1.536  16.862 -0.4625 -0.2482 -0.0822
  789MPD2    H511692   1.780   1.536  16.963 -0.8030 -0.6545 -0.1076
  789MPD2    N111693   2.006   1.300  16.496 -0.0184 -0.7004 -0.2383
  789MPD2    H711694   1.938   1.347  16.438  0.1024  1.3548  1.2938
  790MPD2     C11695   3.103   3.421  13.299 -0.9196  0.3052  0.0663
  790MPD2    C111696   2.983   3.399  13.361  0.4741  0.2418 -0.1915
  790MPD2    C211697   2.887   3.334  13.281 -0.5537 -0.4469  0.3327
  790MPD2    C311698   2.904   3.309  13.149  0.2834 -0.0041  0.2693
  790MPD2    C411699   3.028   3.350  13.092 -0.0868 -0.1016 -0.1754
  790MPD2    C511700   3.129   3.384  13.170 -0.3370  0.3043  0.5013
  790MPD2     H11701   2.785   3.324  13.316 -0.7728 -0.8286 -0.4120
  790MPD2    H111702   3.057   3.333  12.989 -0.6406 -0.7912 -0.2096
  790MPD2    H211703   3.183   3.479  13.341 -0.5983  0.7519 -1.1614
  790MPD2    H311704   3.222   3.403  13.119 -0.7668  2.2868  0.4440
  790MPD2     N11705   2.808   3.230  13.082 -0.2058  0.1635  0.4515
  790MPD2    H511706   2.751   3.171  13.143  1.3425 -2.3633 -0.5554
  790MPD2    N111707   2.967   3.434  13.498  0.0632 -0.1164 -0.6810
  790MPD2    H711708   3.050   3.476  13.540 -0.7350  1.1669 -0.3904
  791MPD2     C11709   2.181   3.101  12.745  0.2607  0.8162  0.4467
  791MPD2    C111710   2.226   2.997  12.821  0.2622 -0.9194 -0.6349
  791MPD2    C211711   2.146   2.877  12.829  0.6041  0.7563  0.9267
  791MPD2    C311712   2.025   2.873  12.758 -0.0106  0.5262  0.0569
  791MPD2    C411713   1.991   2.976  12.671 -0.2073  0.2781  0.1576
  791MPD2    C511714   2.074   3.089  12.667  0.7210  0.1085  0.5241
  791MPD2     H11715   2.165   2.798  12.901  0.9139 -0.3596 -0.3917
  791MPD2    H111716   1.901   2.971  12.611  1.5720 -0.6088 -2.4419
  791MPD2    H211717   2.250   3.184  12.732  3.1583 -1.7691 -0.7604
  791MPD2    H311718   2.059   3.170  12.597 -1.7363  0.2125  1.1671
  791MPD2     N11719   1.949   2.749  12.778 -0.3758 -0.5225 -0.5022
  791MPD2    H511720   1.990   2.678  12.837  1.4712  0.3065 -0.7714
  791MPD2    N111721   2.350   3.011  12.884 -0.1194 -0.5012  0.2284
  791MPD2    H711722   2.406   3.095  12.876  0.6092 -0.9691  0.3726
  792MPD2     C11723   2.876   3.183  11.502  0.1872  0.4238 -0.4756
  792MPD2    C111724   2.803   3.251  11.408 -0.9967 -0.8138 -0.1662
  792MPD2    C211725   2.674   3.289  11.435 -0.5820 -0.6646 -1.2449
  792MPD2    C311726   2.604   3.235  11.536 -0.0411  0.2236  0.2991
  792MPD2    C411727   2.678   3.162  11.634 -0.0682  0.5313  0.5194
  792MPD2    C511728   2.809   3.140  11.614 -0.2086  0.4718  0.2516
  792MPD2     H11729   2.630   3.372  11.382  1.4054  1.1282 -0.0692
  792MPD2    H111730   2.623   3.131  11.722 -0.9617 -1.3627 -0.7114
  792MPD2    H211731   2.979   3.156  11.485  0.2877  0.7367 -0.3534
  792MPD2    H311732   2.868   3.079  11.681  0.5133 -0.0050 -0.8157
  792MPD2     N11733   2.464   3.256  11.565  0.8205 -0.3884  0.3006
  792MPD2    H511734   2.423   3.182  11.621  0.2098  0.6720  1.2571
  792MPD2    N111735   2.872   3.288  11.292 -0.2188 -0.7889  0.1230
  792MPD2    H711736   2.969   3.257  11.293  0.8797  2.5306  0.2505
  793MPD2     C11737   1.901   3.261  10.795 -0.0796 -0.4078  0.4328
  793MPD2    C111738   2.033   3.261  10.829  0.2197  0.8607  0.1063
  793MPD2    C211739   2.073   3.288  10.954  0.0505 -0.2528  0.2046
  793MPD2    C311740   1.979   3.323  11.046  0.0606 -0.4655  0.0948
  793MPD2    C411741   1.842   3.337  11.017 -0.3918 -0.3596  0.5134
  793MPD2    C511742   1.807   3.305  10.886 -0.3515 -0.0758  0.2010
  793MPD2     H11743   2.176   3.287  10.986  0.4272  0.9408 -1.0111
  793MPD2    H111744   1.766   3.354  11.092  0.1499  0.9006  0.7647
  793MPD2    H211745   1.872   3.235  10.693  0.0189 -0.8713  0.5209
  793MPD2    H311746   1.705   3.307  10.851 -0.7249  1.2851  1.3486
  793MPD2     N11747   2.026   3.339  11.175  0.5060 -0.6255 -0.3576
  793MPD2    H511748   2.123   3.310  11.179  1.4862  2.4230 -2.0581
  793MPD2    N111749   2.136   3.228  10.743  0.7726 -0.3747  0.1607
  793MPD2    H711750   2.230   3.218  10.779  0.0505  0.1672  2.1773
  794MPD2     C11751   2.366   2.070  16.818 -0.2874 -0.4896 -0.2508
  794MPD2    C111752   2.458   2.074  16.709 -0.3835  0.1242 -0.3407
  794MPD2    C211753   2.405   2.097  16.587  0.0381 -0.2557 -0.2357
  794MPD2    C311754   2.272   2.135  16.570 -0.3735  0.9816  0.4854
  794MPD2    C411755   2.189   2.158  16.675 -0.0730  0.3343 -0.3306
  794MPD2    C511756   2.241   2.126  16.796 -0.5185 -0.6104  0.0463
  794MPD2     H11757   2.471   2.098  16.501  0.5266 -3.6418  0.1048
  794MPD2    H111758   2.087   2.192  16.674  0.4608  1.9506  0.9522
  794MPD2    H211759   2.391   2.042  16.920 -1.7467  3.1380  1.1165
  794MPD2    H311760   2.170   2.126  16.878 -0.3923 -1.6185  0.1565
  794MPD2     N11761   2.215   2.160  16.443  0.4130 -0.1603  0.0540
  794MPD2    H511762   2.122   2.200  16.438  0.2979 -0.3607  0.6409
  794MPD2    N111763   2.593   2.041  16.725  0.7613  0.0451 -0.3813
  794MPD2    H711764   2.645   2.004  16.646  2.3494  1.4041  0.0364
  795MPD2     C11765   0.172   4.630  13.656  0.2690  0.0744 -0.1511
  795MPD2    C111766   0.146   4.524  13.567 -0.6778  0.5566 -0.1956
  795MPD2    C211767   0.225   4.413  13.579 -0.6040 -0.5041  0.7989
  795MPD2    C311768   0.331   4.402  13.671  0.0349 -0.0202  0.2886
  795MPD2    C411769   0.349   4.502  13.767 -0.1882  0.0416 -0.2984
  795MPD2    C511770   0.270   4.615  13.753 -0.4937  0.2947 -0.2858
  795MPD2     H11771   0.190   4.336  13.511 -1.2818 -0.7047  1.3733
  795MPD2    H111772   0.426   4.498  13.843  1.4883  2.8657 -1.8479
  795MPD2    H211773   0.118   4.724  13.652 -1.0842 -0.7080 -0.2370
  795MPD2    H311774   0.295   4.699  13.817 -1.0490  0.6567 -0.5462
  795MPD2     N11775   0.410   4.287  13.663 -0.1271 -0.6629 -0.3385
  795MPD2    H511776   0.377   4.211  13.605  0.6256 -1.4000  0.2063
  795MPD2    N111777   0.045   4.523  13.462 -0.2669  0.0974 -0.0089
  795MPD2    H711778   0.037   4.442  13.402 -1.6155  1.1381 -1.2239
  796MPD2     C11779   4.693   0.784  15.899  0.3244 -0.0666  0.5921
  796MPD2    C111780   4.720   0.871  16.004 -0.0370  0.2631  0.2257
  796MPD2    C211781   4.688   1.006  15.987  0.1214  0.3066  0.8486
  796MPD2    C311782   4.631   1.048  15.868 -0.7400 -0.8719  0.3040
  796MPD2    C411783   4.623   0.962  15.756 -0.0428  0.1187 -0.3497
  796MPD2    C511784   4.646   0.827  15.775 -0.0855  0.2312  1.0617
  796MPD2     H11785   4.693   1.074  16.071  1.8247  2.0397 -0.6273
  796MPD2    H111786   4.584   0.986  15.658  3.5228  1.0098 -1.5447
  796MPD2    H211787   4.712   0.679  15.916 -4.2220 -0.9758  0.0091
  796MPD2    H311788   4.627   0.756  15.695  0.9148  0.9024  0.2227
  796MPD2     N11789   4.609   1.189  15.861  0.1951  0.4024  0.4150
  796MPD2    H511790   4.633   1.248  15.939 -2.1444 -1.3972  2.4917
  796MPD2    N111791   0.020   0.813  16.128 -1.0840 -0.3822  0.2068
  796MPD2    H711792   0.005   0.713  16.138  1.3153 -0.5029  2.4492
  797MPD2     C11793   1.873   0.671  17.028 -0.1663 -0.0492  0.4223
  797MPD2    C111794   1.791   0.665  17.139  0.2553  0.0693 -0.4181
  797MPD2    C211795   1.654   0.650  17.116 -0.1348  0.1609  0.5706
  797MPD2    C311796   1.593   0.644  16.990 -0.2264  0.4142 -0.4426
  797MPD2    C411797   1.676   0.645  16.884 -0.4712  0.0046  0.0013
  797MPD2    C511798   1.811   0.658  16.905 -0.4605 -0.0152 -0.6252
  797MPD2     H11799   1.593   0.663  17.205 -0.0575  1.8145  0.3972
  797MPD2    H111800   1.638   0.641  16.783  1.2039  0.6713 -0.6629
  797MPD2    H211801   1.980   0.690  17.036 -0.2115  0.8546 -1.3087
  797MPD2    H311802   1.867   0.663  16.813 -0.0859  1.7249 -0.3040
  797MPD2     N11803   1.451   0.634  16.968  0.8832 -0.0103 -0.3701
  797MPD2    H511804   1.410   0.611  16.878  0.7141 -1.0354 -0.0322
  797MPD2    N111805   1.832   0.705  17.271  0.1597  0.4060  0.1293
  797MPD2    H711806   1.757   0.716  17.338  0.5892  0.9237  0.5174
  798MPD2     C11807   1.187   1.042  17.498 -0.2335 -0.4663 -0.6711
  798MPD2    C111808   1.244   0.946  17.421  0.1625 -0.4452 -0.2658
  798MPD2    C211809   1.379   0.916  17.441 -0.6560 -0.0093 -0.8991
  798MPD2    C311810   1.458   0.991  17.526 -0.3050  0.7798 -0.1120
  798MPD2    C411811   1.399   1.093  17.598  0.3921 -0.2820  0.3985
  798MPD2    C511812   1.266   1.118  17.582  0.4694 -0.3283 -0.2399
  798MPD2     H11813   1.424   0.847  17.371  0.7818  0.3603 -0.3432
  798MPD2    H111814   1.438   1.168  17.666  3.4721  0.2914 -2.0002
  798MPD2    H211815   1.081   1.064  17.486 -0.4223 -0.6272  0.7660
  798MPD2    H311816   1.221   1.200  17.637 -2.3800 -0.2130 -2.7369
  798MPD2     N11817   1.600   0.963  17.528  0.2994 -0.1271  0.2341
  798MPD2    H511818   1.623   0.886  17.467  3.6577  1.4670 -0.4932
  798MPD2    N111819   1.173   0.869  17.329 -0.0920  0.2301  0.4018
  798MPD2    H711820   1.232   0.801  17.281 -0.4571  0.7315 -0.7688
  799MPD2     C11821   4.559   2.168  14.969 -0.5508  0.8517  0.0794
  799MPD2    C111822   4.512   2.079  14.871  0.4851  0.0662  0.8727
  799MPD2    C211823   4.455   2.127  14.753 -0.1321  0.1712  0.1320
  799MPD2    C311824   4.474   2.259  14.708  0.2695 -0.4262  0.6157
  799MPD2    C411825   4.531   2.344  14.796 -0.2527 -0.0879 -0.1277
  799MPD2    C511826   4.569   2.296  14.923  0.6778  0.2572 -0.5019
  799MPD2     H11827   4.408   2.053  14.689  0.1068 -0.4488  0.6698
  799MPD2    H111828   4.557   2.445  14.767 -1.8236  0.5623  0.6986
  799MPD2    H211829   4.592   2.142  15.069 -0.8748  2.2214  0.5428
  799MPD2    H311830   4.604   2.369  14.995 -1.7634  1.6595 -0.7301
  799MPD2     N11831   4.433   2.309  14.580 -0.2361 -0.5159 -0.6969
  799MPD2    H511832   4.458   2.407  14.569  0.1075 -0.2540  2.4469
  799MPD2    N111833   4.493   1.948  14.905 -0.6132  0.2668 -0.9219
  799MPD2    H711834   4.435   1.894  14.841  0.0367 -2.4505  0.8069
  800MPD2     C11835   0.087   3.774  14.403  0.1196  0.3951  0.1402
  800MPD2    C111836   0.133   3.661  14.338 -0.7767  0.5789  0.1272
  800MPD2    C211837   0.049   3.596  14.251 -0.5691  0.0612 -0.0719
  800MPD2    C311838   4.673   3.663  14.204 -0.7635 -0.3221 -0.3049
  800MPD2    C411839   4.631   3.781  14.263  0.0173  0.2585 -0.1676
  800MPD2    C511840   4.708   3.832  14.367 -0.6702 -0.2269 -0.7021
  800MPD2     H11841   0.064   3.506  14.194 -0.3912  0.4059 -0.5680
  800MPD2    H111842   4.544   3.837  14.232 -0.4861  0.8173  2.2526
  800MPD2    H211843   0.153   3.822  14.474  0.8023 -1.4331  0.7415
  800MPD2    H311844   4.663   3.904  14.435  0.7626 -0.6146  0.6575
  800MPD2     N11845   4.608   3.599  14.090  0.1336  0.4048 -0.2511
  800MPD2    H511846   4.635   3.502  14.079  0.4387  0.6744 -1.8491
  800MPD2    N111847   0.268   3.628  14.358  0.3008 -0.1410  0.0773
  800MPD2    H711848   0.323   3.691  14.415 -2.1853  1.8612  0.2877
  801MPD2     C11849   0.532   4.157  14.109 -0.1423 -0.0319 -1.0396
  801MPD2    C111850   0.461   4.051  14.162  0.4653  0.5026  0.3756
  801MPD2    C211851   0.351   4.073  14.239  0.1386  0.1026 -0.0017
  801MPD2    C311852   0.307   4.195  14.268  0.4022 -0.3808  0.0452
  801MPD2    C411853   0.373   4.303  14.217  0.4521  0.7670 -0.9139
  801MPD2    C511854   0.493   4.284  14.144  0.0852  0.3137 -0.0999
  801MPD2     H11855   0.289   3.991  14.271 -0.5045  0.7446  0.4085
  801MPD2    H111856   0.339   4.402  14.243 -0.9748  0.0385  0.0180
  801MPD2    H211857   0.629   4.141  14.062  0.1064  1.8754 -1.1864
  801MPD2    H311858   0.554   4.368  14.112  0.1558 -0.0440 -0.9058
  801MPD2     N11859   0.197   4.214  14.357  0.4910  0.7254  0.1046
  801MPD2    H511860   0.153   4.306  14.360  1.7591  1.2766  1.5508
  801MPD2    N111861   0.484   3.918  14.145  0.7192 -0.0912  1.0512
  801MPD2    H711862   0.419   3.852  14.188 -3.4740  1.8028 -2.3721
  802MPD2     C11863   0.096   0.075   0.661  0.3605 -1.0348  0.6519
  802MPD2    C111864   0.065   0.123   0.536 -0.2768 -0.1898  0.2100
  802MPD2    C211865   0.133   0.064   0.430  0.2504 -0.9179  0.0249
  802MPD2    C311866   0.216   4.692   0.450 -0.1438 -0.0749  0.2014
  802MPD2    C411867   0.229   4.639   0.569 -0.4836 -0.0288 -0.5143
  802MPD2    C511868   0.176   4.702   0.677 -0.0924 -0.2161 -0.6654
  802MPD2     H11869   0.106   0.098   0.331  1.7478  2.3074  0.7157
  802MPD2    H111870   0.284   4.546   0.581  0.3717  0.4888 -0.4050
  802MPD2    H211871   0.052   0.109   0.754  0.4249 -1.5716  0.8741
  802MPD2    H311872   0.184   4.650   0.772 -0.5297  0.1810 -0.4155
  802MPD2     N11873   0.287   4.631   0.342  0.2515  0.1594  0.6199
  802MPD2    H511874   0.322   4.538   0.360  2.8166  0.8877 -0.5368
  802MPD2    N111875   4.715   0.231   0.507  0.0777  0.6204  0.3866
  802MPD2    H711876   4.697   0.235   0.407  2.2209 -1.4021 -0.0824
  803MPD2     C11877   0.638   2.908  11.893 -1.2410  0.1766  0.0436
  803MPD2    C111878   0.712   2.943  12.001  0.1602 -0.1390  1.1643
  803MPD2    C211879   0.733   2.862  12.110 -0.3726 -1.3384  0.3914
  803MPD2    C311880   0.649   2.748  12.121 -0.2856 -0.0435  0.1476
  803MPD2    C411881   0.567   2.716  12.012  0.5701 -1.2774 -0.1482
  803MPD2    C511882   0.572   2.792  11.898  0.6721  0.2547  0.3854
  803MPD2     H11883   0.790   2.891  12.197 -1.8886 -0.9122  1.2522
  803MPD2    H111884   0.494   2.637  12.024 -2.8321  1.9984  0.7840
  803MPD2    H211885   0.638   2.966  11.801  2.6126 -0.5966 -0.4630
  803MPD2    H311886   0.509   2.758  11.816 -0.2193 -0.4528  1.3446
  803MPD2     N11887   0.640   2.674  12.241 -0.2789 -0.4436  0.1769
  803MPD2    H511888   0.573   2.597  12.241 -2.5555  1.5414 -0.0903
  803MPD2    N111889   0.782   3.065  12.001  0.0896 -0.7802  0.4351
  803MPD2    H711890   0.839   3.091  12.080  0.4821  1.2573 -0.5158
  804MPD2     C11891   0.349   4.185  17.300 -0.8867 -0.0058 -0.5555
  804MPD2    C111892   0.415   4.095  17.384  0.4614  0.5156 -0.0804
  804MPD2    C211893   0.542   4.127  17.439 -0.4377  0.0369 -0.1805
  804MPD2    C311894   0.610   4.240  17.401 -0.0001 -0.4042 -0.3867
  804MPD2    C411895   0.552   4.319  17.303 -0.0383 -0.0219  0.2498
  804MPD2    C511896   0.425   4.292  17.263  0.5851  0.3090 -0.1303
  804MPD2     H11897   0.587   4.062  17.513 -0.1147 -2.1104 -2.2613
  804MPD2    H111898   0.592   4.415  17.271 -0.1634 -0.4771 -1.2778
  804MPD2    H211899   0.247   4.170  17.266 -2.4099  2.5201  2.7828
  804MPD2    H311900   0.389   4.366  17.192 -0.3170  0.0172  0.0226
  804MPD2     N11901   0.737   4.259  17.458 -0.6137 -0.7266  0.3421
  804MPD2    H511902   0.766   4.192  17.529  0.7875  3.0740  3.3569
  804MPD2    N111903   0.359   3.974  17.429  0.2521  0.1068 -0.0276
  804MPD2    H711904   0.417   3.910  17.482 -1.5654 -0.2754  1.4989
  805MPD2     C11905   4.454   2.469  15.459 -0.5804  0.2141 -0.8711
  805MPD2    C111906   4.526   2.352  15.429  0.1040 -0.1815  0.1630
  805MPD2    C211907   4.639   2.334  15.508 -0.4859  0.6143 -0.1170
  805MPD2    C311908   4.691   2.432  15.589 -0.8002  0.0949  0.3911
  805MPD2    C411909   4.621   2.555  15.597  0.1227  0.3744 -0.2948
  805MPD2    C511910   4.507   2.566  15.536 -0.5674  0.0169 -0.4529
  805MPD2     H11911   4.690   2.239  15.495  0.0508  0.9208 -0.2519
  805MPD2    H111912   4.662   2.640  15.652  0.2594  1.6401 -2.3589
  805MPD2    H211913   4.355   2.484  15.417 -1.2942 -0.9282  0.4318
  805MPD2    H311914   4.449   2.658  15.539 -1.1454 -0.3235 -1.3726
  805MPD2     N11915   0.073   2.407  15.658  0.0178  0.0981 -0.1214
  805MPD2    H511916   0.113   2.316  15.640  0.8702  0.5855 -0.7141
  805MPD2    N111917   4.476   2.246  15.346  0.8181  0.5739  0.3664
  805MPD2    H711918   4.528   2.159  15.342 -0.7600 -0.3425 -0.2213
  806MPD2     C11919   0.191   1.865   0.980 -0.1854 -0.1257 -0.0313
  806MPD2    C111920   0.283   1.957   0.942  0.0369  0.0952 -0.5605
  806MPD2    C211921   0.302   1.978   0.809  1.0451  0.1326  0.9591
  806MPD2    C311922   0.226   1.909   0.720 -0.3668  0.7693  0.1582
  806MPD2    C411923   0.136   1.814   0.765 -0.1670 -0.0772 -0.4271
  806MPD2    C511924   0.118   1.797   0.893 -0.1638 -0.3873 -0.0909
  806MPD2     H11925   0.386   2.041   0.785  0.0677  1.4116  0.9261
  806MPD2    H111926   0.079   1.752   0.697  1.1266  0.2811 -1.8168
  806MPD2    H211927   0.182   1.843   1.085  0.1060 -2.1973 -0.4435
  806MPD2    H311928   0.056   1.720   0.936 -1.0102 -0.5751 -1.6434
  806MPD2     N11929   0.252   1.933   0.584  0.3572 -0.3825  0.0592
  806MPD2    H511930   0.327   1.999   0.564  1.1109 -0.7914  1.5089
  806MPD2    N111931   0.356   2.014   1.051  0.5068 -0.0102  0.1763
  806MPD2    H711932   0.322   2.007   1.147  1.0915  0.3373  0.4067
  807MPD2     C11933   0.209   2.290   1.693  0.5651  0.3444 -0.3741
  807MPD2    C111934   0.208   2.179   1.623 -0.0147 -0.6849 -0.4758
  807MPD2    C211935   0.106   2.089   1.639  0.7290  0.4304  0.0289
  807MPD2    C311936   0.007   2.104   1.729  0.3954 -0.5078 -0.4182
  807MPD2    C411937   0.016   2.217   1.812  0.0751 -0.7670 -0.0251
  807MPD2    C511938   0.115   2.306   1.795 -0.8122  0.3344 -0.4089
  807MPD2     H11939   0.104   1.994   1.588 -0.0022  0.5191 -0.1073
  807MPD2    H111940   4.687   2.239   1.894 -0.2182  0.0699 -0.4765
  807MPD2    H211941   0.284   2.365   1.669 -0.1638  0.5138 -2.0976
  807MPD2    H311942   0.124   2.387   1.867 -1.1130  1.3144 -1.4838
  807MPD2     N11943   4.642   2.007   1.741  0.1481 -0.1198  0.0506
  807MPD2    H511944   4.630   1.934   1.672 -0.4138  1.3379 -1.3815
  807MPD2    N111945   0.311   2.147   1.530 -0.2191 -0.1525 -0.0049
  807MPD2    H711946   0.272   2.079   1.466 -0.8791  1.5845 -1.4390
  808MPD2     C11947   4.554   4.077   9.531  0.5987 -0.2433 -0.6624
  808MPD2    C111948   4.611   4.005   9.630 -0.5046  0.1141 -1.0089
  808MPD2    C211949   4.711   4.058   9.709 -0.1729 -0.3554 -0.6697
  808MPD2    C311950   0.011   4.188   9.685 -0.0989  0.4461  0.3572
  808MPD2    C411951   4.677   4.270   9.602 -0.1116 -0.3541 -0.5987
  808MPD2    C511952   4.579   4.217   9.524 -0.3432  0.0021 -0.7212
  808MPD2     H11953   0.041   3.997   9.770 -0.1294  0.1553 -0.2063
  808MPD2    H111954   4.705   4.373   9.587 -1.2946 -0.3585 -2.7726
  808MPD2    H211955   4.477   4.037   9.467 -0.0733  1.4546 -0.8913
  808MPD2    H311956   4.555   4.275   9.436 -0.4802  0.1186 -0.6074
  808MPD2     N11957   0.118   4.250   9.753 -0.3444  0.7585  0.1659
  808MPD2    H511958   0.136   4.348   9.736 -0.0801  0.7039  0.1383
  808MPD2    N111959   4.568   3.872   9.663 -0.2889 -0.4285 -0.2279
  808MPD2    H711960   4.609   3.821   9.741  0.1549  0.4289  0.1046
  809MPD2     C11961   1.068   4.524   9.748  0.8857  0.1866  0.2047
  809MPD2    C111962   0.993   4.413   9.703  0.0074  0.3584 -0.1441
  809MPD2    C211963   0.854   4.418   9.712 -0.7638  0.3139  0.4685
  809MPD2    C311964   0.795   4.523   9.780 -0.4269  0.3297  0.0779
  809MPD2    C411965   0.872   4.627   9.833 -0.9220  1.0505  0.2975
  809MPD2    C511966   1.008   4.625   9.807 -0.1535 -0.5483  0.0920
  809MPD2     H11967   0.804   4.329   9.674 -1.1286  0.7730 -0.1446
  809MPD2    H111968   0.826   4.700   9.898 -0.8326  0.3544  1.1299
  809MPD2    H211969   1.176   4.518   9.744  0.9030  0.1704  0.7244
  809MPD2    H311970   1.072   4.701   9.851  0.8402  0.8491 -3.7600
  809MPD2     N11971   0.659   4.542   9.791 -0.2955 -0.7170  0.3679
  809MPD2    H511972   0.625   4.617   9.851  1.2591 -0.5567  1.0573
  809MPD2    N111973   1.052   4.289   9.675  0.3041 -0.3625  0.3644
  809MPD2    H711974   0.990   4.208   9.668 -0.0154 -0.0275 -0.7320
  810MPD2     C11975   4.558   3.084  10.359 -0.3776 -0.0344 -0.3111
  810MPD2    C111976   4.484   2.990  10.432 -0.2273 -0.0402 -0.3095
  810MPD2    C211977   4.425   3.040  10.541 -0.3798  0.1297 -0.7597
  810MPD2    C311978   4.443   3.166  10.598  0.1623 -0.4380 -0.5057
  810MPD2    C411979   4.521   3.251  10.518  0.4402  0.8633 -0.4699
  810MPD2    C511980   4.577   3.207  10.405  0.0442 -0.1415 -0.4255
  810MPD2     H11981   4.377   2.959  10.595 -0.4967  0.1550 -0.8274
  810MPD2    H111982   4.531   3.351  10.559 -0.8050 -0.2854  2.6687
  810MPD2    H211983   4.602   3.074  10.261 -0.7382 -0.1036 -0.4674
  810MPD2    H311984   4.647   3.275  10.357 -1.5165  1.9657  0.3123
  810MPD2     N11985   4.381   3.215  10.715  0.2358  0.1390 -0.5548
  810MPD2    H511986   4.407   3.310  10.740 -0.7655  0.8711 -2.2768
  810MPD2    N111987   4.471   2.855  10.401  0.0325 -0.0898  0.2153
  810MPD2    H711988   4.407   2.797  10.454 -0.0953  1.1022  1.3504
  811MPD2     C11989   3.921   2.938  10.529  0.1911 -0.3431  0.4610
  811MPD2    C111990   4.016   2.947  10.437 -0.1074  0.1643 -0.1842
  811MPD2    C211991   4.079   3.069  10.409  0.1183 -0.3357 -0.4564
  811MPD2    C311992   4.046   3.185  10.486 -0.6475 -0.6306  0.0556
  811MPD2    C411993   3.958   3.175  10.595  0.2211 -0.1450  0.3518
  811MPD2    C511994   3.890   3.047  10.608  0.0165  0.0932 -0.4579
  811MPD2     H11995   4.159   3.078  10.337  0.1489 -0.1715 -0.4002
  811MPD2    H111996   3.943   3.249  10.673  1.8472 -0.1080  0.6248
  811MPD2    H211997   3.874   2.841  10.541 -1.9917  0.6006 -0.3304
  811MPD2    H311998   3.821   3.026  10.689 -1.5283  2.3081 -1.1873
  811MPD2     N11999   4.112   3.303  10.453  0.7467 -0.1527  0.4121
  811MPD2    H512000   4.191   3.296  10.390  2.5811  1.6113  2.5098
  811MPD2    N112001   4.055   2.828  10.368 -0.0339  0.7330 -0.3845
  811MPD2    H712002   4.022   2.738  10.400 -3.4189  1.7793 -0.9351
  812MPD2     C12003   3.819   2.717  12.032 -0.1333 -0.3412  0.1074
  812MPD2    C112004   3.710   2.758  12.102  0.2598 -0.3073 -0.2672
  812MPD2    C212005   3.686   2.705  12.229 -0.2868 -0.6638  0.1238
  812MPD2    C312006   3.757   2.592  12.274 -0.1490 -0.0012  0.2020
  812MPD2    C412007   3.860   2.542  12.203  0.2120  0.4583 -0.0241
  812MPD2    C512008   3.888   2.604  12.082  0.5485  0.3148 -0.8085
  812MPD2     H12009   3.618   2.757  12.296  0.5125 -0.0950  0.5007
  812MPD2    H112010   3.918   2.455  12.231 -3.6544 -1.5613  1.6627
  812MPD2    H212011   3.855   2.763  11.941  0.0651  2.2298  1.4833
  812MPD2    H312012   3.977   2.575  12.026 -0.6480 -2.7626 -1.1060
  812MPD2     N12013   3.731   2.526  12.403 -0.0852  0.2429 -0.1160
  812MPD2    H512014   3.669   2.570  12.470 -2.2470 -1.2472 -1.1493
  812MPD2    N112015   3.627   2.865  12.055  0.5910 -0.2202 -0.3087
  812MPD2    H712016   3.640   2.871  11.954 -0.7442  0.1593 -0.4600
  813MPD2     C12017   2.513   4.391  12.752 -0.5541 -0.2496  0.0551
  813MPD2    C112018   2.469   4.501  12.824 -0.7600  0.4903 -0.0187
  813MPD2    C212019   2.350   4.495  12.896 -0.2940 -0.2793 -0.5609
  813MPD2    C312020   2.292   4.371  12.919 -0.5140  0.2012 -0.2915
  813MPD2    C412021   2.349   4.253  12.869 -0.4146  0.2410 -0.2595
  813MPD2    C512022   2.453   4.268  12.785 -0.4865  0.6489  0.3123
  813MPD2     H12023   2.307   4.585  12.938  1.6137 -0.9073  2.7138
  813MPD2    H112024   2.305   4.155  12.883 -0.4731  0.7017  2.8151
  813MPD2    H212025   2.598   4.396  12.686  0.1495  0.4055  1.0156
  813MPD2    H312026   2.499   4.179  12.743 -2.1127 -0.4440  0.8599
  813MPD2     N12027   2.176   4.376  12.994  0.4060  1.1037 -0.0210
  813MPD2    H512028   2.135   4.465  13.019 -1.7351 -0.7307  2.9806
  813MPD2    N112029   2.538   4.624  12.839 -0.2352 -0.4134  0.1537
  813MPD2    H712030   2.482   4.696  12.882 -0.8777 -1.7972  1.6133
  814MPD2     C12031   2.927   1.159  12.298  0.6833 -0.8993 -0.6235
  814MPD2    C112032   2.932   1.208  12.169 -0.3487 -0.6681  0.0711
  814MPD2    C212033   2.965   1.341  12.151 -0.0474  0.4344  0.2965
  814MPD2    C312034   3.003   1.418  12.255  0.9614  0.7159 -0.7544
  814MPD2    C412035   2.990   1.369  12.383  0.4470  0.2055  0.3270
  814MPD2    C512036   2.947   1.239  12.400  0.2023  0.0397  0.4124
  814MPD2     H12037   2.955   1.379  12.050  2.8223  1.7782  0.5325
  814MPD2    H112038   3.045   1.413  12.465 -0.1741  0.7161  0.4733
  814MPD2    H212039   2.890   1.059  12.317 -2.6173  0.3058 -0.7704
  814MPD2    H312040   2.955   1.199  12.501 -0.4335 -1.0469  0.0304
  814MPD2     N12041   3.065   1.544  12.248  0.4031  0.1557 -0.5184
  814MPD2    H512042   3.096   1.599  12.327 -2.5432 -0.3555  1.0203
  814MPD2    N112043   2.888   1.143  12.058 -0.0446  0.0617  0.2546
  814MPD2    H712044   2.892   1.191  11.969 -2.5250 -0.6767 -0.2571
  815MPD2     C12045   3.086   4.063  12.100 -0.3387 -0.3419 -0.1461
  815MPD2    C112046   3.066   4.116  11.975  0.1800 -0.0484 -0.2430
  815MPD2    C212047   2.941   4.127  11.918 -0.2227  0.4043  0.5070
  815MPD2    C312048   2.832   4.068  11.979  0.1790 -0.1474  0.1119
  815MPD2    C412049   2.848   4.012  12.109  0.7387  0.4057  0.6651
  815MPD2    C512050   2.975   4.014  12.170  0.6815 -0.3386  0.1572
  815MPD2     H12051   2.927   4.191  11.831 -1.1363  2.0084  1.8398
  815MPD2    H112052   2.762   3.964  12.155  1.2435  0.3064  1.4972
  815MPD2    H212053   3.175   4.074  12.160  0.4673  3.3120 -2.0575
  815MPD2    H312054   2.986   3.970  12.268  2.3175 -0.1211  0.0627
  815MPD2     N12055   2.709   4.086  11.919 -0.0852  0.2838  0.1868
  815MPD2    H512056   2.706   4.131  11.829 -0.1424 -1.4330 -0.6790
  815MPD2    N112057   3.181   4.165  11.911 -0.1521 -0.5292  1.0186
  815MPD2    H712058   3.268   4.141  11.957  0.3575 -3.1762 -1.2808
  816MPD2     C12059   4.098   3.751  17.560  0.1019  0.3990  0.0827
  816MPD2    C112060   4.009   3.751  17.459  0.3228 -0.2964 -0.6815
  816MPD2    C212061   4.037   3.684  17.345  0.0005 -0.4634 -0.1985
  816MPD2    C312062   4.159   3.621  17.321  0.1939  0.1652 -0.2945
  816MPD2    C412063   4.249   3.620  17.429 -0.4394  0.3762 -0.6211
  816MPD2    C512064   4.217   3.688  17.544 -0.1539  0.3748 -0.6922
  816MPD2     H12065   3.975   3.679  17.256  0.8880 -1.0466 -0.7759
  816MPD2    H112066   4.347   3.577  17.413 -0.1021  0.2118  1.9644
  816MPD2    H212067   4.070   3.813  17.645  0.6562  1.4999 -0.5430
  816MPD2    H312068   4.290   3.683  17.624 -0.9839 -1.2246 -0.0187
  816MPD2     N12069   4.180   3.566  17.194 -0.3072  0.5931  0.0427
  816MPD2    H512070   4.099   3.555  17.134 -1.0340 -0.4355  1.2190
  816MPD2    N112071   3.895   3.832  17.479 -0.0147  0.2027  0.1112
  816MPD2    H712072   3.880   3.873  17.571  0.4719 -2.1540  1.2248
  817MPD2     C12073   3.708   0.832   9.571  0.1579  0.6577 -0.0982
  817MPD2    C112074   3.676   0.714   9.506 -0.5158  0.5956 -0.8658
  817MPD2    C212075   3.549   0.692   9.458  0.0036  0.2333  0.1499
  817MPD2    C312076   3.449   0.786   9.491  0.7134  0.1717 -0.8474
  817MPD2    C412077   3.477   0.892   9.568  0.0636  0.5247 -0.4589
  817MPD2    C512078   3.607   0.914   9.604 -0.3700  0.5703 -0.1296
  817MPD2     H12079   3.535   0.605   9.395  0.7569  0.8100 -0.8190
  817MPD2    H112080   3.400   0.964   9.593  1.2194  1.4605  0.4511
  817MPD2    H212081   3.807   0.862   9.604  0.3565 -1.1309  0.9701
  817MPD2    H312082   3.626   1.005   9.660  1.4934  0.1482 -0.0638
  817MPD2     N12083   3.320   0.746   9.456  0.2939  0.1397 -0.1465
  817MPD2    H512084   3.325   0.685   9.376 -1.2713  1.2203 -1.0620
  817MPD2    N112085   3.769   0.607   9.482 -0.0858 -0.4231 -0.1775
  817MPD2    H712086   3.729   0.517   9.458 -1.4118  0.3646 -0.9090
  818MPD2     C12087   2.160   1.359  10.356 -0.3622  0.5699 -0.6331
  818MPD2    C112088   2.058   1.271  10.398  0.1777 -0.3339  0.2919
  818MPD2    C212089   2.048   1.147  10.339 -0.0409  0.0507  0.0637
  818MPD2    C312090   2.126   1.111  10.231  0.0888 -0.0786 -1.3060
  818MPD2    C412091   2.219   1.201  10.186  0.3873 -0.1291 -0.5490
  818MPD2    C512092   2.236   1.322  10.247  0.1575  0.0039  0.6095
  818MPD2     H12093   1.978   1.071  10.372  1.0234 -0.0349  2.1591
  818MPD2    H112094   2.282   1.173  10.102 -0.7660 -3.3588 -0.3326
  818MPD2    H212095   2.179   1.460  10.393 -1.3618  0.9261 -1.1007
  818MPD2    H312096   2.311   1.392  10.213 -0.1356  0.0507  0.0565
  818MPD2     N12097   2.116   0.976  10.184  0.3924  1.2161  0.3060
  818MPD2    H512098   2.072   0.912  10.250  0.0113  0.0076 -1.0985
  818MPD2    N112099   1.960   1.297  10.495  0.0863  0.0003 -0.2526
  818MPD2    H712100   1.885   1.230  10.507  1.1878 -1.3108 -0.6994
  819MPD2     C12101   0.220   1.789  15.742  0.3703  0.4302 -0.6301
  819MPD2    C112102   0.300   1.673  15.751 -0.2850 -0.3440  0.4320
  819MPD2    C212103   0.414   1.675  15.838  0.9310 -0.0495 -0.3218
  819MPD2    C312104   0.452   1.790  15.904  0.3878  0.7253 -1.0723
  819MPD2    C412105   0.365   1.901  15.900  0.9007 -0.1609 -0.2602
  819MPD2    C512106   0.256   1.901  15.817 -0.2672 -0.4808  0.3279
  819MPD2     H12107   0.471   1.583  15.847 -0.1796 -0.6989  0.1271
  819MPD2    H112108   0.386   1.989  15.961  0.0060 -0.0030 -0.1811
  819MPD2    H212109   0.135   1.783  15.676  0.5251 -1.5433 -0.6517
  819MPD2    H312110   0.198   1.992  15.824 -0.1641 -0.5751  2.4832
  819MPD2     N12111   0.574   1.789  15.982 -0.0427  0.3623  0.1301
  819MPD2    H512112   0.626   1.702  15.989  1.3331  1.1254 -0.5506
  819MPD2    N112113   0.260   1.556  15.675  0.2008 -0.8317  0.1448
  819MPD2    H712114   0.183   1.572  15.611  0.9951  0.5719 -0.4649
  820MPD2     C12115   4.192   1.421  15.291 -0.0369 -0.1338  0.0104
  820MPD2    C112116   4.291   1.518  15.306 -0.0415  0.3332  0.6230
  820MPD2    C212117   4.422   1.476  15.325 -0.2436  0.4520 -0.5119
  820MPD2    C312118   4.463   1.341  15.318  0.3970 -0.4368 -0.1324
  820MPD2    C412119   4.365   1.246  15.294 -0.2343 -0.2770 -0.2347
  820MPD2    C512120   4.232   1.288  15.292  0.4727 -0.5944 -0.1068
  820MPD2     H12121   4.496   1.555  15.332  0.7257 -0.5733  0.9463
  820MPD2    H112122   4.370   1.138  15.282  0.9448 -0.0007 -2.2622
  820MPD2    H212123   4.087   1.444  15.278  0.5660  1.3518 -2.2660
  820MPD2    H312124   4.163   1.210  15.263 -0.5976  0.7749 -1.2594
  820MPD2     N12125   4.593   1.293  15.342  0.0238  0.3983  0.6735
  820MPD2    H512126   4.612   1.193  15.348  3.3341  0.9196 -1.3120
  820MPD2    N112127   4.248   1.650  15.281  0.2732 -0.6965  0.3194
  820MPD2    H712128   4.151   1.669  15.257 -0.0070 -0.9546  1.2504
  821MPD2     C12129   4.380   3.724  13.339 -0.6319  0.2915 -0.3406
  821MPD2    C112130   4.459   3.622  13.384 -0.0982  0.5586 -0.1949
  821MPD2    C212131   4.589   3.599  13.327  0.2590 -0.0947  0.0112
  821MPD2    C312132   4.629   3.676  13.225  0.7185 -1.0944 -0.2783
  821MPD2    C412133   4.551   3.787  13.188 -0.4409 -0.0638 -0.1329
  821MPD2    C512134   4.428   3.809  13.245 -0.0154  0.0431 -0.0250
  821MPD2     H12135   4.649   3.516  13.361  1.5160  0.9072  0.2233
  821MPD2    H112136   4.585   3.844  13.103 -0.4121  0.8802  0.5074
  821MPD2    H212137   4.282   3.749  13.378 -0.2369  0.4611  0.5651
  821MPD2    H312138   4.377   3.901  13.221 -0.2885  0.1203  0.8486
  821MPD2     N12139   0.022   3.657  13.167  0.3438 -0.4971 -0.1735
  821MPD2    H512140   0.054   3.730  13.104  0.0943  1.2683  1.7674
  821MPD2    N112141   4.439   3.555  13.504  0.1211  0.1256  0.0047
  821MPD2    H712142   4.513   3.488  13.524  0.9479  0.8124 -0.7237
  822MPD2     C12143   1.186   3.493  15.922 -0.2593 -0.2100  0.2185
  822MPD2    C112144   1.204   3.476  16.053 -0.1580 -1.2835 -0.2433
  822MPD2    C212145   1.133   3.554  16.143  0.0433  0.4408  0.7798
  822MPD2    C312146   1.035   3.642  16.106 -0.1520  0.9600 -0.2279
  822MPD2    C412147   1.011   3.652  15.967 -0.1200  0.0857 -0.7985
  822MPD2    C512148   1.084   3.575  15.876  0.0639 -0.2052 -0.8652
  822MPD2     H12149   1.158   3.535  16.247  2.9033 -0.8977 -0.1552
  822MPD2    H112150   0.924   3.708  15.936 -0.4847  0.1985  0.4115
  822MPD2    H212151   1.242   3.437  15.849  1.7946  1.0282  0.8396
  822MPD2    H312152   1.053   3.579  15.773  2.2200 -2.0689 -1.5971
  822MPD2     N12153   0.968   3.727  16.197  0.4006 -0.5449  0.0419
  822MPD2    H512154   0.991   3.710  16.294 -0.1429  0.9478  0.4293
  822MPD2    N112155   1.296   3.379  16.110 -0.3711  0.3155  0.0833
  822MPD2    H712156   1.301   3.379  16.211  1.7112  1.2681 -0.0237
  823MPD2     C12157   0.545   3.914  16.912 -0.2589  0.1532 -0.0969
  823MPD2    C112158   0.657   3.871  16.840  0.1185 -0.7045  0.2468
  823MPD2    C212159   0.743   3.781  16.901 -0.2505  0.5339 -0.2276
  823MPD2    C312160   0.728   3.731  17.030 -0.1375  0.4589 -1.0220
  823MPD2    C412161   0.626   3.778  17.096  0.1346  0.5674 -0.1648
  823MPD2    C512162   0.531   3.868  17.040  0.0954  0.4309 -0.1868
  823MPD2     H12163   0.831   3.756  16.843  0.1683  2.0350 -0.2412
  823MPD2    H112164   0.612   3.742  17.197  1.2689 -1.3729 -0.6911
  823MPD2    H212165   0.483   3.992  16.869 -0.4768 -0.2478 -0.5048
  823MPD2    H312166   0.447   3.910  17.095  0.7690  0.8652  0.5212
  823MPD2     N12167   0.814   3.638  17.098  0.8135  0.0601 -0.2128
  823MPD2    H512168   0.780   3.601  17.186 -0.2612 -1.7455 -1.4093
  823MPD2    N112169   0.669   3.912  16.701 -0.0297  0.3253 -0.2496
  823MPD2    H712170   0.620   3.991  16.658  0.5687  1.5345  1.3090
  824MPD2     C12171   1.674   2.569  16.239 -0.1475  0.3977  0.2305
  824MPD2    C112172   1.689   2.667  16.149 -1.0101  0.5191 -0.0809
  824MPD2    C212173   1.748   2.633  16.030 -0.4475 -0.1120  0.3066
  824MPD2    C312174   1.799   2.504  16.005  0.2244 -0.1812  0.1866
  824MPD2    C412175   1.796   2.413  16.104  0.1639 -0.5479  0.5582
  824MPD2    C512176   1.737   2.448  16.221 -0.8756 -0.3284  0.3193
  824MPD2     H12177   1.762   2.712  15.957 -1.9973  0.3767  0.5299
  824MPD2    H112178   1.832   2.313  16.085 -1.1971 -0.8506 -0.4014
  824MPD2    H212179   1.621   2.589  16.332  0.9384  3.4792  0.1852
  824MPD2    H312180   1.715   2.373  16.297 -1.0455 -1.3559 -0.7469
  824MPD2     N12181   1.844   2.480  15.871  0.5349 -0.1612 -0.1500
  824MPD2    H512182   1.838   2.554  15.802 -0.8038 -1.1821 -1.1085
  824MPD2    N112183   1.632   2.792  16.177 -0.1660 -1.2806 -0.1045
  824MPD2    H712184   1.582   2.798  16.265  2.5842 -1.0881  1.4351
  825MPD2     C12185   2.360   2.755  15.234 -0.1768  0.1307 -0.2410
  825MPD2    C112186   2.279   2.776  15.340 -0.9161  0.8164 -0.8935
  825MPD2    C212187   2.271   2.904  15.391  0.7032  0.9025 -0.1535
  825MPD2    C312188   2.342   3.015  15.342 -0.3610  0.4308 -0.5893
  825MPD2    C412189   2.428   2.993  15.242 -0.4959  0.5691 -0.2743
  825MPD2    C512190   2.428   2.866  15.187  0.5857 -0.4438 -0.0204
  825MPD2     H12191   2.217   2.921  15.484 -1.8545  0.7839 -1.6017
  825MPD2    H112192   2.485   3.073  15.197  1.1444  0.6544  1.9743
  825MPD2    H212193   2.388   2.660  15.189  1.6889  0.2726  0.6500
  825MPD2    H312194   2.510   2.849  15.118 -2.4432 -1.0945 -3.4623
  825MPD2     N12195   2.341   3.140  15.407 -0.4316  0.2995  0.1751
  825MPD2    H512196   2.420   3.201  15.387 -0.3414  0.5049  1.1889
  825MPD2    N112197   2.221   2.659  15.396 -0.0417  0.7250  0.4833
  825MPD2    H712198   2.213   2.579  15.334 -0.8269  1.3779 -0.2694
  826MPD2     C12199   1.476   2.740  14.074  0.5210  0.4412  0.3616
  826MPD2    C112200   1.470   2.783  13.945 -0.2612 -0.3087  0.5770
  826MPD2    C212201   1.385   2.885  13.912 -0.3548  0.3274  0.3314
  826MPD2    C312202   1.296   2.944  14.009 -0.4060  0.6334 -0.1974
  826MPD2    C412203   1.305   2.896  14.136 -0.0841  0.0372  0.4527
  826MPD2    C512204   1.396   2.796  14.165  0.0599  0.0103  0.4972
  826MPD2     H12205   1.376   2.923  13.811 -0.3809 -1.7711 -0.4728
  826MPD2    H112206   1.239   2.937  14.211  1.0160  1.7964  0.4688
  826MPD2    H212207   1.545   2.661  14.102 -0.5069 -1.2611 -1.9007
  826MPD2    H312208   1.404   2.764  14.268  0.2880 -1.5284 -0.0053
  826MPD2     N12209   1.188   3.033  13.984  0.4209  0.9032  0.5872
  826MPD2    H512210   1.136   3.057  14.067  0.3798 -1.5955  1.2983
  826MPD2    N112211   1.554   2.719  13.853  0.7041 -0.3229 -0.2416
  826MPD2    H712212   1.598   2.636  13.892  0.2774 -0.1021  0.7044
  827MPD2     C12213   2.949   3.963   9.751  0.0232  0.3189 -0.1289
  827MPD2    C112214   2.878   3.919   9.860  1.4831  0.1239 -0.5928
  827MPD2    C212215   2.739   3.917   9.851 -0.1664 -0.7040  0.1758
  827MPD2    C312216   2.679   3.958   9.735  0.2765  0.2395 -0.0214
  827MPD2    C412217   2.750   3.996   9.622  0.5602  0.1854  0.0238
  827MPD2    C512218   2.887   4.000   9.633 -0.0772  0.3528  0.1877
  827MPD2     H12219   2.678   3.890   9.937  0.6959  2.0474  1.6436
  827MPD2    H112220   2.705   4.061   9.547  0.1364 -0.8049 -0.5748
  827MPD2    H212221   3.057   3.967   9.755  0.0828 -1.4957 -0.2578
  827MPD2    H312222   2.947   4.033   9.548 -0.2072 -0.1450 -0.0978
  827MPD2     N12223   2.537   3.957   9.741 -0.0419 -0.3941  0.0861
  827MPD2    H512224   2.497   3.922   9.827 -0.4541  0.0096  0.0576
  827MPD2    N112225   2.951   3.900   9.977 -0.2008  0.6560  0.3026
  827MPD2    H712226   3.047   3.932   9.973  0.2842 -0.6101  1.8515
  828MPD2     C12227   0.852   3.490  12.607 -0.1156 -0.3639 -0.1460
  828MPD2    C112228   0.802   3.601  12.546 -0.6029 -0.0350  0.4696
  828MPD2    C212229   0.872   3.660  12.443 -0.3480  0.5989 -0.7347
  828MPD2    C312230   0.996   3.608  12.397  0.2208 -0.3824  0.0997
  828MPD2    C412231   1.038   3.488  12.456 -0.4189 -0.1664  1.1415
  828MPD2    C512232   0.971   3.435  12.565 -0.0524  0.3069  0.5641
  828MPD2     H12233   0.835   3.745  12.388  1.7994  2.6922  1.0702
  828MPD2    H112234   1.140   3.454  12.440 -0.4264  0.4363 -0.1949
  828MPD2    H212235   0.800   3.459  12.697  2.5266 -1.4713  0.9980
  828MPD2    H312236   1.016   3.355  12.622  2.3169  2.2182  1.3337
  828MPD2     N12237   1.074   3.674  12.294  0.3132  0.2003 -0.4554
  828MPD2    H512238   1.157   3.625  12.265  0.3359  0.1245 -0.2602
  828MPD2    N112239   0.689   3.669  12.592  0.3740  0.5290 -0.7744
  828MPD2    H712240   0.690   3.764  12.556  1.6365  1.1643  0.9091
  829MPD2     C12241   0.387   4.289  12.165  0.3282  0.7019  0.1240
  829MPD2    C112242   0.287   4.229  12.229 -0.3350  0.1884  0.1696
  829MPD2    C212243   0.318   4.168  12.347 -0.1090 -0.1451  0.0402
  829MPD2    C312244   0.440   4.165  12.410  0.5685 -0.1754  0.0975
  829MPD2    C412245   0.542   4.227  12.347 -0.4346 -0.0710 -0.4007
  829MPD2    C512246   0.514   4.276  12.224 -0.3515 -0.6340 -0.2928
  829MPD2     H12247   0.239   4.119  12.402  0.7963 -0.3452  1.1538
  829MPD2    H112248   0.645   4.233  12.378  0.1129  0.9756 -2.4664
  829MPD2    H212249   0.382   4.331  12.065  0.7904  0.9984  0.2285
  829MPD2    H312250   0.598   4.313  12.167 -0.6835  0.9952  0.2587
  829MPD2     N12251   0.466   4.091  12.529  0.4670  0.1554  0.1387
  829MPD2    H512252   0.562   4.085  12.563  0.3399  3.6492  1.1503
  829MPD2    N112253   0.147   4.221  12.189 -0.0045  0.4425  0.0665
  829MPD2    H712254   0.092   4.163  12.251  0.1681 -1.0521 -1.1942
  830MPD2     C12255   1.372   1.547  16.170  0.7617  0.2040  0.3947
  830MPD2    C112256   1.299   1.615  16.069  0.4424 -0.9260  0.1652
  830MPD2    C212257   1.359   1.645  15.946 -0.1726 -0.1528 -0.5536
  830MPD2    C312258   1.498   1.614  15.934 -0.3777  0.4955 -1.1865
  830MPD2    C412259   1.566   1.546  16.037  0.0967  0.5526  0.1121
  830MPD2    C512260   1.505   1.520  16.158  0.3519 -0.0409 -0.6506
  830MPD2     H12261   1.304   1.685  15.862  0.1080 -0.1889 -0.7559
  830MPD2    H112262   1.672   1.526  16.037  0.4420  2.3221  0.2443
  830MPD2    H212263   1.327   1.515  16.263  1.8243  0.6976  1.0694
  830MPD2    H312264   1.559   1.476  16.241 -1.3904 -0.9559 -0.0160
  830MPD2     N12265   1.574   1.642  15.823 -0.2249  0.0682 -0.5885
  830MPD2    H512266   1.675   1.642  15.834 -0.1951 -0.5736 -0.8411
  830MPD2    N112267   1.166   1.652  16.092 -0.2112 -0.0921 -0.4238
  830MPD2    H712268   1.136   1.633  16.187  0.4150 -0.8683 -0.3906
  831MPD2     C12269   1.189   3.900  16.508  0.6102  0.2617 -0.7598
  831MPD2    C112270   1.229   3.775  16.455  0.2282 -0.0325  0.4877
  831MPD2    C212271   1.170   3.660  16.507 -1.1436  0.5727 -0.6733
  831MPD2    C312272   1.084   3.667  16.617  0.8381  0.4020 -0.4427
  831MPD2    C412273   1.065   3.786  16.679 -0.0058 -0.4622 -0.1472
  831MPD2    C512274   1.118   3.906  16.626 -0.1675 -0.5703 -0.3912
  831MPD2     H12275   1.215   3.566  16.480 -0.3577  1.1206 -1.2562
  831MPD2    H112276   1.008   3.796  16.770  0.4004  1.7282 -0.1264
  831MPD2    H212277   1.242   3.988  16.474  1.0430  0.6136  0.8408
  831MPD2    H312278   1.109   3.995  16.688 -0.3524 -1.3352  0.6893
  831MPD2     N12279   1.024   3.554  16.667 -0.2340  0.7511 -0.0927
  831MPD2    H512280   0.988   3.560  16.761 -2.2062 -2.2309 -0.6482
  831MPD2    N112281   1.322   3.774  16.347 -0.2443 -0.3582  0.6394
  831MPD2    H712282   1.346   3.865  16.308 -1.4348 -0.0849  0.5266
  832MPD2     C12283   4.499   0.158  17.234  0.0598 -0.9106  0.2726
  832MPD2    C112284   4.435   0.277  17.219 -0.3145 -0.6840 -0.2366
  832MPD2    C212285   4.306   0.274  17.179  0.1390  0.2955  0.2094
  832MPD2    C312286   4.247   0.153  17.153  0.4528  0.4220 -0.3072
  832MPD2    C412287   4.308   0.031  17.174 -0.0877  0.2658 -0.4643
  832MPD2    C512288   4.440   0.038  17.212 -0.3133 -0.3260 -0.1595
  832MPD2     H12289   4.265   0.369  17.148  1.7005  1.3806  1.4814
  832MPD2    H112290   4.252   4.678  17.156  0.2122  0.1130 -0.6271
  832MPD2    H212291   4.601   0.157  17.272  0.7912  2.4938 -1.5865
  832MPD2    H312292   4.498   4.686  17.230 -0.3569  0.0809  1.9735
  832MPD2     N12293   4.113   0.146  17.102  0.6316 -0.4292 -0.1089
  832MPD2    H512294   4.067   0.056  17.097  0.1375 -0.2004  0.3621
  832MPD2    N112295   4.496   0.400  17.255 -0.6254  0.2478  0.2686
  832MPD2    H712296   4.433   0.478  17.264 -0.9884 -0.0797  0.5834
  833MPD2     C12297   1.792   1.695  12.779 -0.8827  1.3764  0.1897
  833MPD2    C112298   1.810   1.796  12.687  0.1266  0.2559  0.1178
  833MPD2    C212299   1.914   1.789  12.596 -0.2963  0.2294 -0.7578
  833MPD2    C312300   2.017   1.694  12.617 -0.0447 -0.2033  0.2761
  833MPD2    C412301   1.999   1.590  12.712  0.0765 -0.0110  0.6099
  833MPD2    C512302   1.886   1.592  12.785  0.4390 -0.3776 -0.3500
  833MPD2     H12303   1.921   1.858  12.512  0.2079  2.0449  0.7707
  833MPD2    H112304   2.066   1.505  12.725 -1.6975 -1.9451 -2.8754
  833MPD2    H212305   1.709   1.713  12.846 -1.2709  0.5584 -0.0694
  833MPD2    H312306   1.875   1.513  12.859 -0.8358 -1.4634 -1.7015
  833MPD2     N12307   2.133   1.694  12.534 -0.0179  0.3416 -0.4237
  833MPD2    H512308   2.202   1.621  12.544  0.7875  1.0563 -0.8175
  833MPD2    N112309   1.716   1.899  12.677  0.6216  0.0511  0.4654
  833MPD2    H712310   1.627   1.882  12.721  0.0207  0.2380 -0.6662
  834MPD2     C12311   1.930   1.140  11.933 -0.2091  0.0704 -0.4464
  834MPD2    C112312   1.857   1.242  11.983 -0.2718 -0.0258 -0.1514
  834MPD2    C212313   1.919   1.358  12.030 -0.4988 -0.0587 -0.4140
  834MPD2    C312314   2.052   1.365  12.018  0.4087  0.0567 -0.4293
  834MPD2    C412315   2.126   1.271  11.951  0.3011  0.8046 -0.5608
  834MPD2    C512316   2.065   1.151  11.913 -0.3422  0.3815  0.2340
  834MPD2     H12317   1.872   1.442  12.079 -0.0076  0.7392 -1.2999
  834MPD2    H112318   2.234   1.271  11.958  0.1184 -1.6255  2.1644
  834MPD2    H212319   1.872   1.055  11.900  2.0894 -1.3521 -0.8467
  834MPD2    H312320   2.125   1.072  11.868  0.6345  1.0649  0.3365
  834MPD2     N12321   2.106   1.473  12.091  0.1600  0.5494  0.0137
  834MPD2    H512322   2.057   1.515  12.169  0.1249 -2.1342  1.4286
  834MPD2    N112323   1.715   1.241  11.986 -0.5166 -0.1881 -0.0075
  834MPD2    H712324   1.678   1.319  12.041  1.6788  1.3244 -0.6542
  835MPD2     C12325   1.424   4.666  11.257  0.0058  0.1109 -0.6056
  835MPD2    C112326   1.340   4.645  11.369  0.1029 -0.0991  0.1007
  835MPD2    C212327   1.390   4.574  11.477 -0.3212  0.9749 -0.4705
  835MPD2    C312328   1.518   4.522  11.464  0.1665  0.5759  0.7032
  835MPD2    C412329   1.595   4.537  11.347 -0.2119  0.8141  0.6305
  835MPD2    C512330   1.545   4.605  11.241 -0.1676  0.1430 -0.3359
  835MPD2     H12331   1.327   4.570  11.564  2.3127  1.6878  1.4936
  835MPD2    H112332   1.689   4.484  11.339 -0.0740  0.8890  1.8146
  835MPD2    H212333   1.405   4.736  11.177  0.4024  0.0100 -0.7881
  835MPD2    H312334   1.602   4.644  11.157  2.0859 -0.8171  0.7325
  835MPD2     N12335   1.587   4.455  11.571 -0.2539  0.0827 -0.4913
  835MPD2    H512336   1.684   4.433  11.552 -0.2148 -0.0926 -0.0851
  835MPD2    N112337   1.198   4.686  11.373 -0.0053 -0.0078  0.7644
  835MPD2    H712338   1.142   4.699  11.456  3.4408  2.0155  2.7983
  836MPD2     C12339   1.147   4.366  11.932 -0.0643 -0.3292  0.3231
  836MPD2    C112340   1.226   4.296  12.023 -0.1238 -0.3338 -0.2443
  836MPD2    C212341   1.171   4.270  12.146  0.1419 -0.2034 -0.0070
  836MPD2    C312342   1.047   4.315  12.176 -0.4129 -0.3828 -0.0881
  836MPD2    C412343   0.968   4.371  12.077 -0.4866 -0.2474 -0.2652
  836MPD2    C512344   1.015   4.395  11.956 -1.0995 -0.9866 -0.2423
  836MPD2     H12345   1.245   4.242  12.221  1.1146  1.1284 -0.4828
  836MPD2    H112346   0.865   4.392  12.106  0.3726  1.1437  1.7682
  836MPD2    H212347   1.190   4.380  11.834 -0.6527  1.2375  0.2916
  836MPD2    H312348   0.960   4.452  11.883  1.2916  0.6809 -0.7430
  836MPD2     N12349   0.992   4.313  12.307  0.1736  0.0259  0.2989
  836MPD2    H512350   0.913   4.376  12.316  0.0884 -0.0712  0.2361
  836MPD2    N112351   1.359   4.270  11.975  0.4599 -0.2168  0.5268
  836MPD2    H712352   1.386   4.311  11.886 -1.2022  1.1774  0.6537
  837MPD2     C12353   4.563   3.849  10.795  0.0550 -0.3048 -0.5461
  837MPD2    C112354   4.544   3.891  10.667 -0.5698 -0.3542  0.0021
  837MPD2    C212355   4.559   4.022  10.630 -0.2572  0.0577 -0.4563
  837MPD2    C312356   4.606   4.113  10.720 -0.1731 -0.7401 -0.0047
  837MPD2    C412357   4.630   4.074  10.846 -0.7469  0.1185 -0.2729
  837MPD2    C512358   4.610   3.939  10.886  0.4040  0.1445  0.0875
  837MPD2     H12359   4.528   4.049  10.530 -1.8118 -3.8601 -1.0344
  837MPD2    H112360   4.678   4.134  10.922  1.9809 -1.0056 -1.1020
  837MPD2    H212361   4.562   3.749  10.838  0.9888  0.1899  0.6082
  837MPD2    H312362   4.632   3.909  10.987  0.9959 -1.1572 -0.4263
  837MPD2     N12363   4.627   4.247  10.672  0.5516 -0.0069 -0.1899
  837MPD2    H512364   4.601   4.259  10.575 -0.3384  1.4867  0.2421
  837MPD2    N112365   4.490   3.808  10.560  0.3677 -0.1516 -0.1478
  837MPD2    H712366   4.477   3.856  10.471  0.8168  1.5829  0.7184
  838MPD2     C12367   2.694   1.986  11.117  1.0752  0.2094 -0.5197
  838MPD2    C112368   2.742   2.070  11.217 -0.8325  0.1857  0.4305
  838MPD2    C212369   2.698   2.045  11.348 -0.5210  0.5839 -0.0407
  838MPD2    C312370   2.637   1.930  11.382 -0.0415  1.0589  0.7618
  838MPD2    C412371   2.601   1.849  11.281 -0.3165 -0.6201  0.2445
  838MPD2    C512372   2.619   1.876  11.148 -0.6515 -0.5769  0.3530
  838MPD2     H12373   2.728   2.112  11.427 -0.4701 -1.1410  1.4023
  838MPD2    H112374   2.558   1.750  11.295  1.5507 -1.4529  0.0958
  838MPD2    H212375   2.724   2.001  11.014  0.8171 -1.0690 -0.7796
  838MPD2    H312376   2.589   1.808  11.070 -0.5960 -1.4469  1.0937
  838MPD2     N12377   2.622   1.904  11.521  0.2285  0.7272 -0.1356
  838MPD2    H512378   2.685   1.955  11.582 -0.3914 -0.9007  1.8685
  838MPD2    N112379   2.823   2.178  11.203  0.3629  0.1211  0.6447
  838MPD2    H712380   2.851   2.229  11.286  1.6133  1.6781 -0.7369
  839MPD2     C12381   2.916   1.783  11.568 -0.3434  0.4929 -0.5362
  839MPD2    C112382   2.943   1.790  11.433 -0.0977  0.0046  0.4622
  839MPD2    C212383   3.001   1.902  11.381 -0.6781  0.1317  0.2541
  839MPD2    C312384   3.037   2.002  11.464  0.3603  0.4901 -0.7632
  839MPD2    C412385   2.997   2.002  11.598  0.4444 -0.6079  0.0068
  839MPD2    C512386   2.951   1.883  11.650  0.1982  0.1461  0.0400
  839MPD2     H12387   3.014   1.903  11.273  0.2567 -2.1739  0.3328
  839MPD2    H112388   3.016   2.088  11.660 -0.6436  0.0659 -0.5996
  839MPD2    H212389   2.872   1.695  11.613 -0.6168  0.3465 -1.0821
  839MPD2    H312390   2.932   1.875  11.757  2.6069 -0.1085  0.4390
  839MPD2     N12391   3.110   2.115  11.418 -0.8350  0.6154  0.2714
  839MPD2    H512392   3.098   2.197  11.477 -0.0699 -2.0022  4.0414
  839MPD2    N112393   2.892   1.696  11.339  0.1204 -1.2152  0.6712
  839MPD2    H712394   2.908   1.704  11.239 -1.9440  0.3061  0.4416
  840MPD2     C12395   3.123   4.470  10.164 -0.4270  0.2241 -0.1220
  840MPD2    C112396   3.127   4.409  10.285  0.2711  1.0865  0.2745
  840MPD2    C212397   3.146   4.480  10.401  0.3458  0.2920  0.1691
  840MPD2    C312398   3.172   4.617  10.392 -0.6524  0.1327 -0.9281
  840MPD2    C412399   3.182   4.674  10.267  0.3528  0.2908  0.0193
  840MPD2    C512400   3.147   4.601  10.156 -0.5086  0.2813 -0.0415
  840MPD2     H12401   3.131   4.425  10.494 -2.0606 -0.2844 -0.5560
  840MPD2    H112402   3.212   0.041  10.262  1.9515 -0.2576 -1.8842
  840MPD2    H212403   3.090   4.415  10.076  0.8385 -0.2830 -0.2761
  840MPD2    H312404   3.145   4.638  10.054 -2.0039 -1.3789 -0.6174
  840MPD2     N12405   3.210   4.695  10.508  0.0383  0.4088 -0.6204
  840MPD2    H512406   3.247   0.051  10.492  0.7630 -0.1098 -1.8683
  840MPD2    N112407   3.105   4.271  10.279  0.1616  0.1584  0.4466
  840MPD2    H712408   3.068   4.235  10.191  0.3676 -0.7144  0.7143
  841MPD2     C12409   2.671   4.229  15.076 -0.2137  0.5574  0.6565
  841MPD2    C112410   2.721   4.103  15.052  0.8402 -0.2814  0.5003
  841MPD2    C212411   2.858   4.082  15.052 -0.7940  0.1525  0.6410
  841MPD2    C312412   2.944   4.183  15.047  0.1038 -0.5510 -0.1627
  841MPD2    C412413   2.898   4.311  15.065 -0.6480 -1.0364  0.4428
  841MPD2    C512414   2.763   4.335  15.081 -0.4536  0.2310 -0.1312
  841MPD2     H12415   2.901   3.987  15.022 -3.5964 -0.0874 -2.6269
  841MPD2    H112416   2.956   4.402  15.055 -3.1892  0.2828 -2.3829
  841MPD2    H212417   2.563   4.238  15.066  0.0966  1.3907 -2.0234
  841MPD2    H312418   2.713   4.431  15.074  1.3789  1.1709 -0.3910
  841MPD2     N12419   3.078   4.153  15.004 -0.6757  0.0541  0.1386
  841MPD2    H512420   3.096   4.054  14.994 -0.2773 -0.0146  1.5718
  841MPD2    N112421   2.633   4.001  15.021 -0.7302  0.1793 -0.0765
  841MPD2    H712422   2.684   3.914  15.013 -2.7686 -1.1549  1.4162
  842MPD2     C12423   3.648   0.559  16.762  0.2819  0.6478 -0.4529
  842MPD2    C112424   3.561   0.462  16.709 -0.4241 -0.8959 -0.5217
  842MPD2    C212425   3.513   0.355  16.784 -0.4636  0.4519  0.4072
  842MPD2    C312426   3.540   0.358  16.917 -0.7950  0.1657  0.4466
  842MPD2    C412427   3.620   0.461  16.973  0.3901  0.0465  0.0816
  842MPD2    C512428   3.682   0.554  16.894 -0.5210 -0.2646 -0.4731
  842MPD2     H12429   3.443   0.284  16.743  0.8059 -2.5742  3.4073
  842MPD2    H112430   3.641   0.473  17.079 -0.1763 -0.6248  0.2698
  842MPD2    H212431   3.687   0.639  16.700  1.1490  0.2900 -0.3832
  842MPD2    H312432   3.763   0.618  16.927  0.4819 -2.1952  0.8286
  842MPD2     N12433   3.492   0.269  17.011  0.0575 -0.6109  0.0698
  842MPD2    H512434   3.518   0.284  17.108  0.1213 -1.9361  0.2615
  842MPD2    N112435   3.515   0.500  16.582 -0.3671  0.0317  0.4481
  842MPD2    H712436   3.531   0.593  16.544  0.9193  0.3812  1.8573
  843MPD2     C12437   1.589   0.648   0.027  0.1821 -0.0463 -0.3527
  843MPD2    C112438   1.707   0.602   0.066 -0.3057 -0.2493  0.3570
  843MPD2    C212439   1.788   0.686   0.142  0.4595  0.3609 -0.6553
  843MPD2    C312440   1.748   0.814   0.170 -0.4401  0.2794  1.0501
  843MPD2    C412441   1.632   0.865   0.113 -0.0806 -0.4881 -0.1574
  843MPD2    C512442   1.560   0.783   0.037 -0.6960 -0.6757 -0.5107
  843MPD2     H12443   1.877   0.642   0.186  0.3757  2.6653  1.8490
  843MPD2    H112444   1.598   0.967   0.105  0.2794 -0.3827 -0.3384
  843MPD2    H212445   1.537   0.588  17.701  1.4720  0.0128 -1.3165
  843MPD2    H312446   1.481   0.824  17.724  0.5121  0.3762 -1.3656
  843MPD2     N12447   1.820   0.916   0.242  0.3730  0.1131 -0.3844
  843MPD2    H512448   1.783   1.009   0.225  1.3806  0.1887 -2.1481
  843MPD2    N112449   1.741   0.476   0.030 -0.2922  0.1751  0.6992
  843MPD2    H712450   1.671   0.416  17.737 -0.2183  0.7690 -0.2985
  844MPD2     C12451   4.099   4.598  16.674 -0.6307 -0.2532 -1.0464
  844MPD2    C112452   4.226   4.543  16.666 -0.3069 -0.1626 -0.0957
  844MPD2    C212453   4.332   4.608  16.724 -0.6604 -0.8945 -0.1872
  844MPD2    C312454   4.321   4.730  16.780  0.3511 -0.2277 -0.0264
  844MPD2    C412455   4.195   0.051  16.778 -0.0289 -0.1560 -0.2382
  844MPD2    C512456   4.088   4.728  16.731  0.7446 -0.1820 -0.0926
  844MPD2     H12457   4.429   4.560  16.733  0.2588  0.9434 -0.2859
  844MPD2    H112458   4.180   0.147  16.824 -0.1937 -0.5372  0.5071
  844MPD2    H212459   4.015   4.558  16.618 -1.0241 -2.2833  0.9957
  844MPD2    H312460   3.996   0.044  16.714 -0.1393 -1.0655  1.9768
  844MPD2     N12461   4.440   0.049  16.833  0.3176  0.5896 -0.0128
  844MPD2    H512462   4.526   0.002  16.809  1.7506  2.9544  0.5133
  844MPD2    N112463   4.257   4.433  16.587 -0.3320 -0.1844  0.2635
  844MPD2    H712464   4.350   4.394  16.580  0.7468  2.1481  1.5130
  845MPD2     C12465   4.699   0.993  16.921  0.0288  0.2699  0.1610
  845MPD2    C112466   4.633   0.918  17.020 -1.0319  0.2684 -0.6138
  845MPD2    C212467   4.637   0.781  17.017 -1.0629 -0.1968 -0.0720
  845MPD2    C312468   4.719   0.714  16.924  0.3087 -0.2642 -0.0328
  845MPD2    C412469   0.044   0.792  16.828  0.3052 -0.6595  0.3091
  845MPD2    C512470   0.026   0.928  16.816  0.0897  0.1931 -0.4224
  845MPD2     H12471   4.605   0.719  17.100 -1.7474 -0.7343 -0.7426
  845MPD2    H112472   0.114   0.748  16.757 -1.1494 -1.6080 -0.5408
  845MPD2    H212473   4.713   1.100  16.933 -0.8310  0.3526  0.4102
  845MPD2    H312474   0.091   0.983  16.748 -0.3214 -0.6707 -1.5131
  845MPD2     N12475   4.729   0.573  16.935  0.2325  0.1555 -0.1167
  845MPD2    H512476   4.660   0.525  16.991 -1.4885  1.2838 -1.2203
  845MPD2    N112477   4.559   0.990  17.125  0.0952 -0.1095  0.5352
  845MPD2    H712478   4.561   1.091  17.114 -0.8500 -0.1974 -0.4928
  846MPD2     C12479   0.986   1.027  13.608  0.6019  0.1915 -0.0507
  846MPD2    C112480   0.933   1.155  13.612 -0.0770 -0.1159  0.2086
  846MPD2    C212481   0.892   1.212  13.727 -0.4902 -0.0500 -0.4314
  846MPD2    C312482   0.912   1.147  13.844  0.2890 -0.0928  0.7019
  846MPD2    C412483   0.981   1.029  13.851 -0.1294  0.5805 -0.4475
  846MPD2    C512484   1.021   0.973  13.729 -0.2824 -0.5543  0.4055
  846MPD2     H12485   0.844   1.309  13.735  0.1141 -0.0961  3.6729
  846MPD2    H112486   1.004   0.981  13.946  1.4788  1.1508 -0.5483
  846MPD2    H212487   1.006   0.974  13.515 -0.0863 -0.7265  0.3287
  846MPD2    H312488   1.073   0.878  13.733 -0.3978 -0.5692  1.6339
  846MPD2     N12489   0.861   1.211  13.955  0.0605 -0.2638 -0.1693
  846MPD2    H512490   0.798   1.288  13.932  1.7687  1.6534  1.6534
  846MPD2    N112491   0.922   1.235  13.500  0.4376  0.5157 -0.5178
  846MPD2    H712492   0.902   1.334  13.508  0.3426  0.4656 -0.1548
  847MPD2     C12493   0.973   1.989  14.441  0.2926  0.2321 -0.5530
  847MPD2    C112494   0.976   1.974  14.576 -0.7833  0.0447  0.0367
  847MPD2    C212495   1.072   1.890  14.624 -0.7300 -0.7118 -0.5189
  847MPD2    C312496   1.163   1.825  14.538 -0.3681  0.5560 -0.4462
  847MPD2    C412497   1.164   1.852  14.404 -0.5000  0.5827 -0.2791
  847MPD2    C512498   1.058   1.925  14.357  0.5036 -0.4019 -0.7813
  847MPD2     H12499   1.077   1.877  14.731 -3.0115 -1.9501 -0.5653
  847MPD2    H112500   1.222   1.794  14.333  1.8796 -0.0890  2.1744
  847MPD2    H212501   0.903   2.054  14.390  0.3775  2.0696  1.6740
  847MPD2    H312502   1.050   1.932  14.250  1.4195  0.1378 -0.8111
  847MPD2     N12503   1.268   1.748  14.585 -0.3793  0.1341 -0.1852
  847MPD2    H512504   1.355   1.744  14.534 -0.2875  0.5261 -0.0630
  847MPD2    N112505   0.899   2.052  14.665 -0.1075  0.0533  0.5079
  847MPD2    H712506   0.892   2.014  14.759  1.5972  0.2674  0.7203
  848MPD2     C12507   3.793   0.366  16.385  0.7052  0.0134  0.1485
  848MPD2    C112508   3.872   0.419  16.488  0.1938  0.1649 -0.2425
  848MPD2    C212509   3.950   0.532  16.460  0.0247  0.2241  0.1852
  848MPD2    C312510   3.943   0.601  16.342  0.3850  0.0274 -0.3216
  848MPD2    C412511   3.858   0.553  16.245  0.6965 -0.0381  0.2294
  848MPD2    C512512   3.794   0.436  16.262  0.5942  0.1719 -0.7990
  848MPD2     H12513   4.014   0.565  16.541  1.6310 -1.6145 -0.3243
  848MPD2    H112514   3.849   0.589  16.143 -1.8897  2.3491  1.2932
  848MPD2    H212515   3.738   0.272  16.388  1.9923 -0.7385 -0.0505
  848MPD2    H312516   3.745   0.386  16.178  2.8856 -3.4286  0.0033
  848MPD2     N12517   4.029   0.710  16.310  0.0174 -0.2033  0.5455
  848MPD2    H512518   4.009   0.744  16.217  0.3981  2.1760  1.3218
  848MPD2    N112519   3.882   0.353  16.613 -0.0612 -1.0311 -0.5726
  848MPD2    H712520   3.943   0.397  16.682 -1.5065 -1.3935  0.9261
  849MPD2     C12521   2.370   4.478  14.209  0.3913 -0.0469 -0.6996
  849MPD2    C112522   2.415   4.345  14.185  0.3257  0.5591  0.0293
  849MPD2    C212523   2.481   4.277  14.290  0.0533  0.6119 -0.8191
  849MPD2    C312524   2.469   4.329  14.421 -0.3571  0.1641 -0.2420
  849MPD2    C412525   2.410   4.451  14.444  0.3018  0.5336 -0.1333
  849MPD2    C512526   2.363   4.523  14.336 -0.2792 -0.7271  0.1245
  849MPD2     H12527   2.528   4.183  14.265  0.6516  0.4143  1.0490
  849MPD2    H112528   2.402   4.494  14.544  0.7384  1.2352 -0.3986
  849MPD2    H212529   2.319   4.535  14.133  1.4991  0.7825 -0.8167
  849MPD2    H312530   2.316   4.621  14.335 -1.6143 -1.3868 -1.2407
  849MPD2     N12531   2.513   4.266  14.537  0.7474 -0.3390 -0.4049
  849MPD2    H512532   2.507   4.305  14.631 -0.1227 -1.2008 -0.0986
  849MPD2    N112533   2.445   4.296  14.062 -0.0599  0.8255  0.3734
  849MPD2    H712534   2.484   4.202  14.058 -0.6276  0.7965 -3.7106
  850MPD2     C12535   1.182   2.705  14.970 -0.3389 -0.1003  0.1585
  850MPD2    C112536   1.129   2.780  15.068 -0.3751 -0.4382  0.4115
  850MPD2    C212537   1.179   2.904  15.089 -1.1573 -0.5177  0.2037
  850MPD2    C312538   1.291   2.953  15.011  0.3009  0.1981  0.5443
  850MPD2    C412539   1.334   2.876  14.907 -0.2363 -0.0338  0.4540
  850MPD2    C512540   1.289   2.750  14.901  0.0342 -0.3058  0.6256
  850MPD2     H12541   1.140   2.963  15.171  1.9985  2.1839 -0.2258
  850MPD2    H112542   1.423   2.907  14.854 -0.4350  0.5728  0.4619
  850MPD2    H212543   1.153   2.601  14.962  0.1400 -0.1591 -0.7371
  850MPD2    H312544   1.336   2.682  14.831  0.6067  2.9328 -2.0905
  850MPD2     N12545   1.357   3.072  15.034 -0.1707  0.4171 -0.2966
  850MPD2    H512546   1.446   3.080  14.986 -0.0266 -0.0238 -0.0997
  850MPD2    N112547   1.033   2.721  15.150  0.6391 -0.4956  0.1832
  850MPD2    H712548   1.016   2.621  15.149  0.6214 -0.5024  1.0297
  851MPD2     C12549   1.347   2.463  15.896 -0.1988  0.5305 -0.4367
  851MPD2    C112550   1.325   2.436  15.764 -0.2126  0.1526  0.5537
  851MPD2    C212551   1.403   2.340  15.702  0.5506 -0.3035  0.4561
  851MPD2    C312552   1.493   2.260  15.769  0.2860 -0.3446 -0.3958
  851MPD2    C412553   1.523   2.297  15.899  0.0060  0.0233 -0.6550
  851MPD2    C512554   1.444   2.396  15.962 -0.6469  0.0534  0.2744
  851MPD2     H12555   1.402   2.330  15.594  0.6600  3.1380  0.1467
  851MPD2    H112556   1.605   2.255  15.956 -0.3351  1.0599  0.5984
  851MPD2    H212557   1.295   2.542  15.950 -2.5689 -1.9756  0.9657
  851MPD2    H312558   1.465   2.428  16.064 -2.1934 -1.3075  1.0282
  851MPD2     N12559   1.565   2.164  15.699  0.3394 -0.2606 -0.1143
  851MPD2    H512560   1.549   2.155  15.599 -0.8312 -2.4136  0.2562
  851MPD2    N112561   1.229   2.516  15.696  0.2346 -0.1389 -0.6455
  851MPD2    H712562   1.199   2.598  15.748  0.4667  0.5326 -1.5798
  852MPD2     C12563   1.156   0.760  10.246 -0.2142 -0.1705  0.3497
  852MPD2    C112564   1.116   0.819  10.356 -0.2073 -0.0535  0.1585
  852MPD2    C212565   1.131   0.955  10.360  0.3278  0.1454  0.8618
  852MPD2    C312566   1.182   1.027  10.249  0.3007 -0.1170 -0.1862
  852MPD2    C412567   1.204   0.964  10.132 -0.8264  0.5876 -0.2580
  852MPD2    C512568   1.194   0.831  10.133 -0.8215  0.4596 -0.1492
  852MPD2     H12569   1.095   1.013  10.444 -2.6927 -2.8991  1.6749
  852MPD2    H112570   1.245   1.006  10.041 -1.3615  1.5432 -0.0533
  852MPD2    H212571   1.141   0.654  10.227 -2.0211  0.4478 -1.7165
  852MPD2    H312572   1.229   0.778  10.045 -0.8710  0.2250 -0.0283
  852MPD2     N12573   1.201   1.167  10.263 -0.2976 -0.0405 -0.2841
  852MPD2    H512574   1.167   1.206  10.350 -0.6308  0.8994 -0.8401
  852MPD2    N112575   1.060   0.751  10.466 -0.1982 -0.0469 -0.3720
  852MPD2    H712576   1.032   0.812  10.542 -1.9079 -2.5895  1.0470
  853MPD2     C12577   2.785   0.379  12.563 -0.3078  0.4070 -0.7457
  853MPD2    C112578   2.668   0.417  12.503 -0.2970  0.1165 -0.3251
  853MPD2    C212579   2.668   0.420  12.364  0.4510  0.4707 -0.7132
  853MPD2    C312580   2.778   0.388  12.284  0.9584 -0.8459  0.1649
  853MPD2    C412581   2.885   0.337  12.349  0.4945  0.6667  0.3755
  853MPD2    C512582   2.894   0.341  12.485  0.2874 -1.3743  0.6495
  853MPD2     H12583   2.567   0.422  12.325 -0.2303  0.0784  1.0126
  853MPD2    H112584   2.969   0.300  12.291  0.7790 -1.4790  2.1569
  853MPD2    H212585   2.790   0.388  12.671 -0.5603 -2.4707 -0.4777
  853MPD2    H312586   2.983   0.311  12.539 -0.0386 -2.0478  0.8021
  853MPD2     N12587   2.769   0.360  12.147  0.5271 -0.1571  0.9503
  853MPD2    H512588   2.850   0.313  12.109 -0.9298 -2.2612  0.4174
  853MPD2    N112589   2.558   0.460  12.581  0.1012 -0.3813  0.0496
  853MPD2    H712590   2.557   0.446  12.681 -0.9274  0.7761  0.1899
  854MPD2     C12591   4.636   1.436  12.831 -0.1694  0.1445 -0.5037
  854MPD2    C112592   4.591   1.317  12.880  0.0675  0.6311  1.1079
  854MPD2    C212593   4.661   1.262  12.985  0.3946 -0.2536 -1.0898
  854MPD2    C312594   0.034   1.319  13.048  0.0395 -0.4234  0.0581
  854MPD2    C412595   0.075   1.440  12.994  0.5023  0.5310  0.8935
  854MPD2    C512596   0.006   1.493  12.887 -0.4389 -0.5713  0.7749
  854MPD2     H12597   4.629   1.167  13.027 -0.6055  0.8404  0.6626
  854MPD2    H112598   0.156   1.491  13.044  0.2295 -0.2403  2.1053
  854MPD2    H212599   4.577   1.487  12.757 -2.6380  1.3399  2.3238
  854MPD2    H312600   0.031   1.591  12.847  2.7608 -0.7466  2.3764
  854MPD2     N12601   0.112   1.266  13.156 -0.4298  0.7853 -0.7209
  854MPD2    H512602   0.194   1.314  13.194  0.9958 -2.7423  0.6803
  854MPD2    N112603   4.475   1.265  12.824  0.3491 -0.1646  0.0244
  854MPD2    H712604   4.422   1.328  12.764  0.3955 -1.7571 -1.6813
  855MPD2     C12605   4.536   0.671  13.904  0.6170 -0.3092  1.4309
  855MPD2    C112606   4.612   0.595  13.819  0.9221 -0.0976  0.0067
  855MPD2    C212607   4.675   0.653  13.713 -0.4063  0.3621 -0.5615
  855MPD2    C312608   4.667   0.789  13.694  0.2383 -0.0670  0.3064
  855MPD2    C412609   4.584   0.866  13.769 -0.1109  0.0755  1.0828
  855MPD2    C512610   4.514   0.805  13.869  0.2168  0.1994  0.0535
  855MPD2     H12611   4.727   0.591  13.641  1.1897 -1.1579  1.8944
  855MPD2    H112612   4.587   0.973  13.751 -0.1311 -0.0467  0.3154
  855MPD2    H212613   4.469   0.631  13.980 -0.7338 -1.0889 -0.1822
  855MPD2    H312614   4.442   0.866  13.922  2.0511  1.3651  1.2033
  855MPD2     N12615   0.012   0.857  13.599  0.0026  0.0807  0.1400
  855MPD2    H512616   4.732   0.955  13.578 -1.3337 -0.4481 -1.2379
  855MPD2    N112617   4.637   0.455  13.845  0.1741  0.1113  0.3521
  855MPD2    H712618   4.685   0.409  13.769 -1.3569 -0.9963  0.0537
  856MPD2     C12619   1.744   1.358  13.961 -0.2197  0.5719  0.7807
  856MPD2    C112620   1.816   1.456  14.019  0.3678  0.2447  0.0941
  856MPD2    C212621   1.766   1.584  14.035  0.1605 -0.1336 -0.8123
  856MPD2    C312622   1.637   1.618  13.984 -0.5485 -1.0227  0.4524
  856MPD2    C412623   1.570   1.519  13.915 -0.5098  0.6097 -0.5429
  856MPD2    C512624   1.614   1.386  13.918 -0.8202  0.1439 -0.1222
  856MPD2     H12625   1.837   1.660  14.066 -1.4011  0.9346  0.1331
  856MPD2    H112626   1.467   1.533  13.884 -1.6437 -2.0040  2.1143
  856MPD2    H212627   1.775   1.256  13.940  1.0613  1.3989 -1.2510
  856MPD2    H312628   1.560   1.301  13.879 -0.3478 -1.1729  2.0584
  856MPD2     N12629   1.580   1.747  13.981  0.6136 -0.0495 -0.0016
  856MPD2    H512630   1.499   1.762  13.922  0.0473 -3.7607 -0.1246
  856MPD2    N112631   1.948   1.445  14.075  0.4633 -0.6242  0.5074
  856MPD2    H712632   1.985   1.530  14.116 -3.8519  2.6419 -2.4176
  857MPD2     C12633   3.274   3.426  12.439 -0.6233 -0.2759 -1.0961
  857MPD2    C112634   3.400   3.411  12.505 -0.5250  0.1281  0.3099
  857MPD2    C212635   3.458   3.518  12.567 -0.3991  0.1996  0.5547
  857MPD2    C312636   3.410   3.646  12.572  0.3275  0.0802 -0.6003
  857MPD2    C412637   3.288   3.655  12.509 -0.1061 -0.0399 -0.4683
  857MPD2    C512638   3.219   3.555  12.442 -1.3121 -0.2517 -0.7015
  857MPD2     H12639   3.557   3.508  12.611 -0.7417  1.9439  1.7573
  857MPD2    H112640   3.240   3.752  12.515  0.6750  0.2198  1.4498
  857MPD2    H212641   3.231   3.347  12.378 -0.8620 -1.5388  0.7122
  857MPD2    H312642   3.130   3.586  12.390 -0.2198 -0.2615 -2.5737
  857MPD2     N12643   3.492   3.753  12.611  0.1114  0.2652 -0.0722
  857MPD2    H512644   3.572   3.721  12.664 -0.3614 -1.7944 -0.5992
  857MPD2    N112645   3.458   3.285  12.489 -0.0055 -0.0750 -0.5838
  857MPD2    H712646   3.403   3.207  12.455 -2.5550  1.0593  0.9691
  858MPD2     C12647   4.597   2.871  16.334  0.0210 -0.9095 -0.6189
  858MPD2    C112648   4.572   2.748  16.387 -0.0311 -0.1240  0.3223
  858MPD2    C212649   4.572   2.730  16.520  0.2006  0.0807  0.3480
  858MPD2    C312650   4.586   2.838  16.610  0.1442 -0.2981  0.0599
  858MPD2    C412651   4.606   2.960  16.552 -0.1593  0.4129  1.0500
  858MPD2    C512652   4.620   2.974  16.417 -0.3312  0.3090  1.1202
  858MPD2     H12653   4.551   2.629  16.553  2.0277 -0.4415 -0.1109
  858MPD2    H112654   4.613   3.048  16.615  1.2549  1.2845 -0.3277
  858MPD2    H212655   4.599   2.880  16.226  0.0113 -0.6719 -0.5998
  858MPD2    H312656   4.636   3.076  16.386 -1.1827  0.8543  2.4665
  858MPD2     N12657   4.573   2.829  16.747  0.5655  0.0357  0.2022
  858MPD2    H512658   4.583   2.915  16.801  4.2710 -0.2036 -0.0741
  858MPD2    N112659   4.553   2.642  16.292  0.0748 -0.0933  0.1779
  858MPD2    H712660   4.575   2.660  16.195 -2.3073 -1.0984 -0.5596
  859MPD2     C12661   2.729   4.315  15.664 -0.7377  0.7668 -0.3531
  859MPD2    C112662   2.863   4.348  15.661 -0.0187  0.3483  0.8457
  859MPD2    C212663   2.949   4.258  15.711  0.5551  0.3399  0.2225
  859MPD2    C312664   2.898   4.147  15.780  0.2325 -0.6662  0.2810
  859MPD2    C412665   2.762   4.130  15.800 -0.0099  0.2380 -0.2838
  859MPD2    C512666   2.679   4.214  15.738 -0.2457 -0.3631 -0.3742
  859MPD2     H12667   3.055   4.272  15.692  0.9668 -0.9386  1.4925
  859MPD2    H112668   2.723   4.038  15.842 -0.3288  0.4424 -0.1278
  859MPD2    H212669   2.650   4.383  15.635 -1.2813  0.9613  1.5672
  859MPD2    H312670   2.573   4.194  15.752  0.0348 -2.2417 -0.9346
  859MPD2     N12671   2.987   4.050  15.830  0.0168  1.1067 -0.3917
  859MPD2    H512672   3.076   4.056  15.782  0.2326  0.2362 -0.0858
  859MPD2    N112673   2.899   4.462  15.582  0.1500 -0.2014 -0.4833
  859MPD2    H712674   2.820   4.521  15.559 -0.2658 -1.1107 -1.3831
  860MPD2     C12675   0.200   0.392  12.168 -0.2008  0.4229 -0.6570
  860MPD2    C112676   0.273   0.419  12.277 -0.3710  0.0771  1.1559
  860MPD2    C212677   0.255   0.342  12.392  0.1483 -0.0164  0.2320
  860MPD2    C312678   0.156   0.247  12.395 -0.2952  0.2253  0.7714
  860MPD2    C412679   0.073   0.231  12.286 -0.3257 -0.2376  0.2041
  860MPD2    C512680   0.089   0.301  12.174 -0.1943 -0.1254  0.2351
  860MPD2     H12681   0.315   0.360  12.480  1.8704 -0.4053 -0.8793
  860MPD2    H112682   4.733   0.157  12.270  0.8329 -1.1849 -1.0178
  860MPD2    H212683   0.218   0.452  12.079 -1.6819  0.7855 -0.7121
  860MPD2    H312684   0.015   0.284  12.096  1.8480  1.0144 -1.9488
  860MPD2     N12685   0.116   0.196  12.520 -0.1260  0.0979  0.0473
  860MPD2    H512686   0.168   0.223  12.603  0.1593 -0.3994  0.0284
  860MPD2    N112687   0.375   0.513  12.283  0.1664  0.2515 -0.3197
  860MPD2    H712688   0.407   0.520  12.379  1.2199 -1.9243 -0.5026
  861MPD2     C12689   3.917   3.195  11.080 -0.3536 -0.3917 -0.3120
  861MPD2    C112690   3.947   3.317  11.143  0.2458 -0.1801 -0.0985
  861MPD2    C212691   3.916   3.436  11.075 -0.2741 -0.7035  0.5528
  861MPD2    C312692   3.839   3.434  10.958 -0.1038  0.8031 -0.2960
  861MPD2    C412693   3.806   3.304  10.906 -0.1159 -0.4874 -0.0131
  861MPD2    C512694   3.845   3.188  10.966  0.0913 -0.0519  0.2771
  861MPD2     H12695   3.916   3.528  11.131  1.4136 -0.7366  0.6143
  861MPD2    H112696   3.751   3.296  10.813  1.5990  0.4944 -1.1012
  861MPD2    H212697   3.949   3.096  11.108 -0.2010 -0.1933  0.2278
  861MPD2    H312698   3.836   3.092  10.917  0.2100  0.8660 -1.5771
  861MPD2     N12699   3.781   3.550  10.893 -0.1037  0.1723  0.1884
  861MPD2    H512700   3.735   3.520  10.808  0.4967  0.6480 -0.2935
  861MPD2    N112701   3.996   3.328  11.274  0.0544 -0.1258 -0.5137
  861MPD2    H712702   4.016   3.418  11.316  0.7796  0.3814 -1.9346
  862MPD2     C12703   3.224   3.507  10.512  0.8989 -0.2539  0.0407
  862MPD2    C112704   3.336   3.476  10.582  0.1081 -0.3349  0.4479
  862MPD2    C212705   3.369   3.343  10.605 -0.2322 -0.3068 -0.0860
  862MPD2    C312706   3.292   3.240  10.562  0.7283 -0.7394  0.0558
  862MPD2    C412707   3.184   3.271  10.485  0.2209  0.0276  0.8399
  862MPD2    C512708   3.156   3.406  10.456  0.1774 -1.0124  0.7420
  862MPD2     H12709   3.452   3.329  10.674  1.5311  0.2033 -2.1250
  862MPD2    H112710   3.113   3.198  10.447  0.0952  0.4792  0.2000
  862MPD2    H212711   3.190   3.609  10.497  3.0432  0.4746  0.2097
  862MPD2    H312712   3.072   3.434  10.393  1.8106 -0.3625 -1.1342
  862MPD2     N12713   3.324   3.111  10.593  0.5157  0.3325  0.4589
  862MPD2    H512714   3.252   3.042  10.572 -1.0598  1.3433  2.4316
  862MPD2    N112715   3.416   3.570  10.651 -0.1845 -0.5486 -0.4832
  862MPD2    H712716   3.491   3.532  10.707 -0.2335  0.4385  0.2445
  863MPD2     C12717   2.886   1.489  16.249  0.5795  0.3248  0.2764
  863MPD2    C112718   2.823   1.544  16.358  0.2549  0.9293  0.3212
  863MPD2    C212719   2.861   1.516  16.489  0.0109 -0.5091 -0.1082
  863MPD2    C312720   2.955   1.420  16.511 -0.0525 -0.2747  0.3828
  863MPD2    C412721   3.002   1.346  16.399 -0.1493 -0.0615  0.2283
  863MPD2    C512722   2.969   1.386  16.272 -0.1202  0.2254 -0.9761
  863MPD2     H12723   2.808   1.571  16.566  1.7019  0.9064  0.0382
  863MPD2    H112724   3.080   1.272  16.412  0.8576  1.0190  0.3951
  863MPD2    H212725   2.865   1.514  16.146  2.8397 -2.3910 -0.8514
  863MPD2    H312726   3.026   1.343  16.190 -3.1005 -1.3501 -2.2542
  863MPD2     N12727   2.981   1.384  16.643  0.1283 -0.6463 -0.4739
  863MPD2    H512728   2.945   1.441  16.719  0.7404  0.6591 -1.1642
  863MPD2    N112729   2.718   1.631  16.329 -0.3861  0.3262  0.0039
  863MPD2    H712730   2.686   1.631  16.233  0.8017 -0.7416 -0.3994
  864MPD2     C12731   3.391   3.084  17.128 -0.2782  0.6670  0.3812
  864MPD2    C112732   3.437   2.960  17.081  0.5536  0.0828 -0.2486
  864MPD2    C212733   3.572   2.947  17.049  1.0583 -0.3178  0.5068
  864MPD2    C312734   3.659   3.050  17.059 -0.4566  0.2402  1.0540
  864MPD2    C412735   3.614   3.172  17.102  0.0727 -0.3674 -0.7651
  864MPD2    C512736   3.483   3.187  17.139  0.6331  0.5131 -0.1491
  864MPD2     H12737   3.612   2.855  17.009  1.6712 -0.7264  2.0470
  864MPD2    H112738   3.684   3.254  17.106  0.4216 -0.7586  0.8281
  864MPD2    H212739   3.287   3.098  17.155 -1.0316 -0.3980 -1.9836
  864MPD2    H312740   3.447   3.284  17.170 -1.3164 -0.0490 -0.6219
  864MPD2     N12741   3.795   3.039  17.011 -0.2799 -0.4679 -0.2451
  864MPD2    H512742   3.830   2.945  16.997 -0.0040 -0.6753  1.8229
  864MPD2    N112743   3.346   2.853  17.078  0.0207  0.2550  0.6982
  864MPD2    H712744   3.247   2.872  17.091  0.3068  1.9456  0.3598
  865MPD2     C12745   3.892   2.998  16.106  0.4695  0.3037 -0.9401
  865MPD2    C112746   3.907   2.878  16.178  0.1168  0.2109 -0.4438
  865MPD2    C212747   3.973   2.887  16.305  0.7591  1.0812  0.2679
  865MPD2    C312748   4.017   3.008  16.351  0.3307  1.2589  0.2166
  865MPD2    C412749   4.015   3.123  16.277  0.3633 -0.4685 -0.2762
  865MPD2    C512750   3.954   3.111  16.152 -0.3723 -0.3764 -0.3859
  865MPD2     H12751   3.994   2.800  16.365 -0.2170  0.9763  0.4687
  865MPD2    H112752   4.064   3.219  16.287 -1.5607  0.8381 -3.2966
  865MPD2    H212753   3.834   3.001  16.014 -3.0643  2.0911  1.3444
  865MPD2    H312754   3.945   3.208  16.106 -2.0245 -0.4087 -0.1577
  865MPD2     N12755   4.087   2.999  16.471  0.6393 -0.1924  1.0627
  865MPD2    H512756   4.106   2.904  16.498 -1.1680 -0.2665  2.0874
  865MPD2    N112757   3.845   2.759  16.132 -0.1970  0.3193 -0.0146
  865MPD2    H712758   3.815   2.750  16.035  1.2017  0.3635 -0.4480
  866MPD2     C12759   4.279   3.680  11.986 -0.1159  0.4829  0.0828
  866MPD2    C112760   4.345   3.689  11.867 -0.4353 -0.2472  0.0511
  866MPD2    C212761   4.278   3.753  11.763  0.2428 -0.3271 -0.5073
  866MPD2    C312762   4.150   3.794  11.783  0.2468 -0.2544 -0.8172
  866MPD2    C412763   4.093   3.797  11.909  0.3161 -0.4936  0.5835
  866MPD2    C512764   4.158   3.737  12.011 -0.6088  0.1583  0.3583
  866MPD2     H12765   4.332   3.772  11.671  0.6926  2.6719  0.3792
  866MPD2    H112766   3.994   3.841  11.923  0.0056 -1.2065  0.6308
  866MPD2    H212767   4.322   3.645  12.079  0.2762 -1.4140 -0.8264
  866MPD2    H312768   4.110   3.731  12.108  1.6626  1.0400  1.5541
  866MPD2     N12769   4.075   3.859  11.686  0.5738  0.0526 -0.5882
  866MPD2    H512770   3.981   3.889  11.707  1.0578  1.1920 -0.0612
  866MPD2    N112771   4.484   3.653  11.864  0.5354  0.1012 -0.5254
  866MPD2    H712772   4.519   3.629  11.956 -0.4828  1.1853  0.1494
  867MPD2     C12773   1.986   2.902  16.106  0.2870 -0.1324 -0.2932
  867MPD2    C112774   2.024   2.805  16.199  0.7113  0.4127  0.0633
  867MPD2    C212775   2.012   2.837  16.332  0.2247  0.3857 -0.2519
  867MPD2    C312776   1.970   2.962  16.375 -0.5513 -0.0036  0.3651
  867MPD2    C412777   1.940   3.059  16.279  0.0463  0.0660  0.0883
  867MPD2    C512778   1.938   3.023  16.147  0.3862  0.3811 -0.2438
  867MPD2     H12779   2.031   2.762  16.408 -0.3289 -2.1854 -2.6202
  867MPD2    H112780   1.918   3.161  16.308  0.5372 -0.3368  1.8526
  867MPD2    H212781   1.992   2.887  15.999  2.6019 -0.7295 -0.0854
  867MPD2    H312782   1.903   3.103  16.082  0.0244 -0.2783 -0.8564
  867MPD2     N12783   1.995   3.002  16.511 -0.9651  0.2422 -0.1262
  867MPD2    H512784   1.977   3.100  16.533 -1.7555  0.3788 -1.3386
  867MPD2    N112785   2.076   2.677  16.152 -0.1648 -0.6838  0.4686
  867MPD2    H712786   2.078   2.662  16.052 -1.2748 -0.6231  0.4294
  868MPD2     C12787   3.691   2.310  13.273 -0.2427 -0.0312 -0.2814
  868MPD2    C112788   3.765   2.210  13.336 -0.3450 -0.0454  0.1519
  868MPD2    C212789   3.791   2.234  13.471 -0.4743  0.1889 -0.8148
  868MPD2    C312790   3.736   2.337  13.546  0.0002  0.4859  1.0610
  868MPD2    C412791   3.665   2.438  13.480  0.2564 -0.4547  0.3234
  868MPD2    C512792   3.646   2.419  13.342 -0.0425 -0.0446  0.6711
  868MPD2     H12793   3.863   2.174  13.525  0.1541  2.1939  0.5641
  868MPD2    H112794   3.638   2.533  13.524 -3.0482 -1.2871  0.0885
  868MPD2    H212795   3.684   2.306  13.165  1.5284 -0.4415 -0.3947
  868MPD2    H312796   3.599   2.497  13.285  2.2906  0.6074 -0.3469
  868MPD2     N12797   3.752   2.335  13.688 -0.3157  0.9243 -0.1047
  868MPD2    H512798   3.810   2.258  13.718 -0.5712  0.3968 -0.9462
  868MPD2    N112799   3.828   2.112  13.264  0.4638  0.0849  0.0687
  868MPD2    H712800   3.817   2.110  13.163  1.7529  0.1258 -0.0650
  869MPD2     C12801   0.509   4.452   0.482  0.0368  0.1723  0.6792
  869MPD2    C112802   0.615   4.477   0.398  0.4589 -0.0313  0.3710
  869MPD2    C212803   0.675   4.374   0.322 -0.5196  0.4243  0.2352
  869MPD2    C312804   0.648   4.244   0.355  0.6474 -0.5126  0.0385
  869MPD2    C412805   0.537   4.215   0.436 -0.2369  0.5677  0.1633
  869MPD2    C512806   0.472   4.318   0.499 -0.5572 -0.1019 -0.7526
  869MPD2     H12807   0.761   4.385   0.257  1.0583 -0.7982  2.1069
  869MPD2    H112808   0.501   4.115   0.458  1.7720 -0.3990 -0.9452
  869MPD2    H212809   0.466   4.531   0.543 -0.6753 -0.1036  0.5257
  869MPD2    H312810   0.391   4.291   0.565  1.3050 -1.6788  0.8762
  869MPD2     N12811   0.729   4.141   0.310 -0.5213 -0.4888 -0.6166
  869MPD2    H512812   0.679   4.054   0.319 -0.0349 -0.5886  1.2330
  869MPD2    N112813   0.648   4.617   0.385 -0.0074  0.3086  0.3363
  869MPD2    H712814   0.605   4.683   0.450 -0.2218  1.6821 -1.2146
  870MPD2     C12815   0.388   3.155   1.566 -0.0428 -0.0543  0.9932
  870MPD2    C112816   0.321   3.038   1.547 -0.7496  0.2920 -0.5654
  870MPD2    C212817   0.187   3.054   1.529  0.2569  0.1299  0.6364
  870MPD2    C312818   0.120   3.174   1.522 -0.4104 -0.1813 -0.6630
  870MPD2    C412819   0.190   3.298   1.520 -0.2639 -0.1439  0.2064
  870MPD2    C512820   0.330   3.277   1.545 -0.5926 -0.4733 -1.1251
  870MPD2     H12821   0.125   2.965   1.536 -1.3474  1.2152  0.2671
  870MPD2    H112822   0.148   3.395   1.496  2.2531  0.0120 -3.5456
  870MPD2    H212823   0.494   3.157   1.592  0.3641  1.5059 -0.7868
  870MPD2    H312824   0.387   3.368   1.560  1.3167 -1.9256  0.5148
  870MPD2     N12825   4.719   3.151   1.498  0.8943 -0.5206 -0.2939
  870MPD2    H512826   4.688   3.056   1.482 -0.8635  0.0596 -0.3651
  870MPD2    N112827   0.372   2.908   1.537 -0.3111  0.1911 -0.0125
  870MPD2    H712828   0.306   2.832   1.528  0.8032 -0.7298 -0.3339
  871MPD2     C12829   1.273   3.259  16.684 -0.1143  0.1639 -0.4611
  871MPD2    C112830   1.275   3.205  16.808 -0.2291 -0.2902 -0.7116
  871MPD2    C212831   1.282   3.071  16.827  0.2028 -0.1456 -0.3949
  871MPD2    C312832   1.257   2.988  16.720 -0.2746 -0.2186 -0.3738
  871MPD2    C412833   1.260   3.042  16.590 -0.1164  0.3768 -0.0561
  871MPD2    C512834   1.278   3.175  16.578  0.2684 -0.0114 -0.1671
  871MPD2     H12835   1.290   3.033  16.928 -0.3264  1.4553  0.2450
  871MPD2    H112836   1.233   2.984  16.503 -1.2835 -1.1504  1.3152
  871MPD2    H212837   1.275   3.363  16.653  2.2616  0.1414 -0.3971
  871MPD2    H312838   1.282   3.223  16.481  1.0480 -0.9408 -0.6011
  871MPD2     N12839   1.230   2.849  16.745  0.2400 -0.6504 -0.9027
  871MPD2    H512840   1.221   2.819  16.841  0.8405  0.9088 -0.3561
  871MPD2    N112841   1.271   3.290  16.926 -0.3058  0.2716  0.4301
  871MPD2    H712842   1.281   3.388  16.903 -0.1077 -0.0110 -0.6895
  872MPD2     C12843   1.783   0.136  13.937  0.7446  0.2601  0.1437
  872MPD2    C112844   1.762   0.274  13.917 -0.3398 -0.1271  0.2630
  872MPD2    C212845   1.673   0.341  13.993  0.1541 -0.3251  0.8643
  872MPD2    C312846   1.610   0.274  14.098 -0.1384  0.9842 -0.0037
  872MPD2    C412847   1.645   0.145  14.122  0.3369 -0.5180 -0.2110
  872MPD2    C512848   1.731   0.075  14.040  0.1677  0.4801  0.4503
  872MPD2     H12849   1.656   0.448  13.986 -1.7801 -0.7114 -0.4304
  872MPD2    H112850   1.604   0.088  14.205 -2.4136 -2.1042 -2.6592
  872MPD2    H212851   1.855   0.088  13.872  2.3530  1.2800  1.1602
  872MPD2    H312852   1.770   4.714  14.060  3.0440  0.7461 -3.9322
  872MPD2     N12853   1.520   0.341  14.189 -0.5253  0.2463  0.8989
  872MPD2    H512854   1.480   0.283  14.262  1.1259  1.4048  2.7029
  872MPD2    N112855   1.838   0.350  13.829 -0.3581  0.9113 -0.2471
  872MPD2    H712856   1.817   0.449  13.843  0.6194  1.1629 -0.5404
  873MPD2     C12857   4.476   0.114   0.960 -0.3688 -0.2278 -0.8740
  873MPD2    C112858   4.368   0.194   0.959  0.3750 -0.5892 -0.9077
  873MPD2    C212859   4.252   0.138   0.907  0.6820  0.4392 -0.2266
  873MPD2    C312860   4.236   0.008   0.862  0.8992 -0.3156  0.8955
  873MPD2    C412861   4.355   4.676   0.847  0.4940 -0.0827  0.3060
  873MPD2    C512862   4.465   4.729   0.908 -0.0498  0.3541 -0.0218
  873MPD2     H12863   4.163   0.200   0.904  0.1020 -0.2649  2.4833
  873MPD2    H112864   4.372   4.574   0.814 -1.8710  0.2134 -1.8673
  873MPD2    H212865   4.573   0.144   0.999 -0.9350  0.1875  0.2084
  873MPD2    H312866   4.555   4.670   0.918  0.8800  1.6067 -1.2312
  873MPD2     N12867   4.108   4.686   0.815  0.2719  0.0945  0.5893
  873MPD2    H512868   4.110   4.587   0.792  1.1617  0.7351 -2.1749
  873MPD2    N112869   4.382   0.323   1.005  0.2512  0.3504 -0.3416
  873MPD2    H712870   4.475   0.339   1.041  0.4875 -1.5472 -0.1155
  874MPD2     C12871   3.512   0.958  15.865 -0.3493  0.3618 -0.3249
  874MPD2    C112872   3.560   0.894  15.975 -1.5661 -0.1912  0.4446
  874MPD2    C212873   3.686   0.927  16.016 -0.0873  0.0593  0.3416
  874MPD2    C312874   3.771   1.014  15.948 -0.2735 -0.2127 -0.6740
  874MPD2    C412875   3.717   1.088  15.842  0.5070 -0.5033  0.0120
  874MPD2    C512876   3.590   1.055  15.806 -0.0069  0.8290  0.3010
  874MPD2     H12877   3.729   0.872  16.099 -1.5179 -3.2078 -1.0650
  874MPD2    H112878   3.770   1.164  15.786 -0.3578  1.7635  2.2632
  874MPD2    H212879   3.408   0.956  15.833 -0.9965 -0.9689  1.8974
  874MPD2    H312880   3.548   1.107  15.720  0.3743  0.2175 -0.2487
  874MPD2     N12881   3.909   1.041  15.980 -0.0955  0.2232  0.3881
  874MPD2    H512882   3.943   1.136  15.967  0.5095 -0.2939 -1.6855
  874MPD2    N112883   3.480   0.791  16.032 -0.2812 -0.1980  0.1341
  874MPD2    H712884   3.400   0.758  15.979  0.0385  0.4436 -0.7369
  875MPD2     C12885   4.253   3.539  14.188  1.0960  0.3146 -0.4085
  875MPD2    C112886   4.125   3.601  14.199  0.2747 -0.6397  0.3924
  875MPD2    C212887   4.097   3.661  14.319 -0.1458  0.7480 -0.3389
  875MPD2    C312888   4.182   3.653  14.427  0.3439 -0.4939 -0.1557
  875MPD2    C412889   4.310   3.601  14.407  0.1510 -0.4284  0.3810
  875MPD2    C512890   4.341   3.540  14.290  0.3393  0.0729 -0.5813
  875MPD2     H12891   4.007   3.717  14.341 -1.8396 -2.3103  0.4989
  875MPD2    H112892   4.389   3.620  14.479 -0.1773  0.8264  0.4109
  875MPD2    H212893   4.281   3.481  14.101 -0.0584  0.6162 -0.9772
  875MPD2    H312894   4.443   3.506  14.273  1.2509  2.3428  0.3726
  875MPD2     N12895   4.138   3.707  14.553  0.4574 -0.1211 -0.4573
  875MPD2    H512896   4.054   3.765  14.557  1.1384  0.8313 -0.1366
  875MPD2    N112897   4.020   3.603  14.105 -0.2819  0.4536 -0.0570
  875MPD2    H712898   3.939   3.662  14.123  2.0032  3.1779  1.1779
  876MPD2     C12899   3.118   0.045  15.745  0.1403 -0.1232 -0.0946
  876MPD2    C112900   3.241   0.091  15.764  0.3208  0.5597  0.3335
  876MPD2    C212901   3.315   0.037  15.860  0.2567  0.2378 -0.9627
  876MPD2    C312902   3.263   4.678  15.946  0.5753  0.0852 -0.2513
  876MPD2    C412903   3.130   4.655  15.941 -0.1649  0.0643 -0.6097
  876MPD2    C512904   3.065   4.702  15.838  0.1157  0.4645  0.0178
  876MPD2     H12905   3.423   0.051  15.864 -0.1619  3.5542 -0.9939
  876MPD2    H112906   3.080   4.590  16.012 -1.3129  0.7732 -0.7672
  876MPD2    H212907   3.062   0.106  15.675 -0.8036 -1.8948 -0.8808
  876MPD2    H312908   2.961   4.670  15.833  0.6547 -1.3720  0.5148
  876MPD2     N12909   3.340   4.627  16.059 -0.0048  0.2209 -1.0780
  876MPD2    H512910   3.433   4.664  16.069  0.4029 -1.0553 -0.1110
  876MPD2    N112911   3.284   0.191  15.673 -0.2188  0.8384 -0.0319
  876MPD2    H712912   3.214   0.205  15.600 -0.8326 -1.1309  0.1517
  877MPD2     C12913   2.974   0.376  15.124  0.0737 -0.2004 -0.1353
  877MPD2    C112914   3.101   0.400  15.089 -0.1141 -0.1733  0.4054
  877MPD2    C212915   3.143   0.366  14.959 -0.3215  0.1675 -0.1487
  877MPD2    C312916   3.059   0.308  14.869  0.1857 -0.1301  0.2238
  877MPD2    C412917   2.931   0.278  14.906 -0.0644  0.7447  0.7979
  877MPD2    C512918   2.887   0.321  15.027  0.4238 -0.4674 -0.5255
  877MPD2     H12919   3.245   0.393  14.935  0.1137  0.2815  1.7637
  877MPD2    H112920   2.867   0.217  14.844  0.6228  0.8319  0.0032
  877MPD2    H212921   2.933   0.403  15.221  1.2246  1.2020 -0.0433
  877MPD2    H312922   2.788   0.310  15.070 -0.4218  0.6188 -2.2165
  877MPD2     N12923   3.107   0.268  14.741  0.7422 -0.1591  0.5576
  877MPD2    H512924   3.054   0.200  14.687 -0.8122  0.3562  1.4556
  877MPD2    N112925   3.208   0.437  15.188  0.1770  0.6927 -0.1563
  877MPD2    H712926   3.303   0.436  15.153  0.0484 -1.5078 -0.4493
  878MPD2     C12927   3.093   4.647  13.387 -0.5052  0.4506  0.1244
  878MPD2    C112928   2.957   4.654  13.348  0.0346  0.2514  0.0668
  878MPD2    C212929   2.854   4.591  13.424  0.4877 -0.2941 -0.1982
  878MPD2    C312930   2.891   4.522  13.538 -0.0440  0.0122 -0.3061
  878MPD2    C412931   3.027   4.521  13.578  0.2327  0.3447  0.5549
  878MPD2    C512932   3.122   4.584  13.507 -0.3155  0.3157 -0.3189
  878MPD2     H12933   2.749   4.605  13.403  0.2215  0.0766  1.4379
  878MPD2    H112934   3.049   4.487  13.678  1.8562  0.6782  0.3176
  878MPD2    H212935   3.173   4.686  13.325 -1.1138  1.2513 -0.1627
  878MPD2    H312936   3.227   4.583  13.533 -0.5390  2.7818  0.6850
  878MPD2     N12937   2.789   4.457  13.604 -0.5542 -0.7436  0.7351
  878MPD2    H512938   2.707   4.456  13.543 -1.2950 -1.0735  1.7276
  878MPD2    N112939   2.928   4.725  13.227 -0.2681  0.0014 -0.4551
  878MPD2    H712940   3.005   0.023  13.171 -1.1351 -1.6809 -2.7015
  879MPD2     C12941   3.591   1.569  16.931 -0.1881  0.3124  0.2717
  879MPD2    C112942   3.565   1.461  17.009  0.2494 -0.0129 -0.2601
  879MPD2    C212943   3.506   1.350  16.949  0.1204  0.2061 -0.1551
  879MPD2    C312944   3.451   1.355  16.821  0.4708  0.3517 -0.3130
  879MPD2    C412945   3.461   1.476  16.753 -0.2776 -0.8068  1.3603
  879MPD2    C512946   3.539   1.582  16.806  0.5840 -0.2267 -0.5183
  879MPD2     H12947   3.494   1.261  17.009  0.1987  0.1252 -0.2606
  879MPD2    H112948   3.437   1.486  16.648  0.6229  0.0329  1.2289
  879MPD2    H212949   3.658   1.643  16.971 -1.6439  0.6124  2.1665
  879MPD2    H312950   3.551   1.678  16.757 -0.9506  1.4017  2.2757
  879MPD2     N12951   3.406   1.249  16.740 -0.0880  0.6437  0.1947
  879MPD2    H512952   3.374   1.281  16.649 -0.3649  0.4341  0.2190
  879MPD2    N112953   3.627   1.452  17.138  0.0260  0.4054 -0.7275
  879MPD2    H712954   3.695   1.523  17.163  1.7177 -0.8227 -1.8630
  880MPD2     C12955   4.670   2.712   0.076  0.1488 -0.0704 -0.3702
  880MPD2    C112956   4.637   2.728   0.210 -0.3844 -0.2461  0.6779
  880MPD2    C212957   4.722   2.663   0.303 -0.1140 -0.0426  0.2188
  880MPD2    C312958   0.094   2.592   0.267 -0.2003 -0.1711 -0.4879
  880MPD2    C412959   0.115   2.571   0.133  0.4661 -0.3735 -0.0567
  880MPD2    C512960   0.038   2.632   0.038 -0.2679  0.4461  0.4977
  880MPD2     H12961   4.710   2.686   0.408  0.7398 -2.3017  0.7960
  880MPD2    H112962   0.196   2.516   0.086 -0.6942 -3.0254  1.0694
  880MPD2    H212963   4.614   2.767   0.001  0.8836  0.4140 -0.5638
  880MPD2    H312964   0.061   2.612  17.682  1.1704  0.8375  0.7399
  880MPD2     N12965   0.182   2.543   0.365  0.2361 -0.0643 -0.0687
  880MPD2    H512966   0.162   2.566   0.462  0.5351 -2.6866  0.6206
  880MPD2    N112967   4.532   2.815   0.243  0.2775  0.3622  0.3311
  880MPD2    H712968   4.493   2.880   0.175 -1.6588 -0.8852  0.2522
  881MPD2     C12969   4.456   3.768   0.078 -0.4644 -0.5346  0.1022
  881MPD2    C112970   4.554   3.668   0.074  0.8886 -0.1564  1.0704
  881MPD2    C212971   4.534   3.544   0.127  0.4734  0.4487  0.1117
  881MPD2    C312972   4.414   3.523   0.198 -0.5689 -0.2262  0.6364
  881MPD2    C412973   4.329   3.627   0.220 -0.2924 -0.5376 -0.4486
  881MPD2    C512974   4.351   3.746   0.160  0.0217  0.4023  0.4173
  881MPD2     H12975   4.612   3.470   0.136  3.1569  3.1226 -1.0185
  881MPD2    H112976   4.232   3.605   0.262 -1.8148 -0.1862 -3.7392
  881MPD2    H212977   4.473   3.868   0.039 -1.4869 -1.2127 -2.1007
  881MPD2    H312978   4.276   3.824   0.172 -0.5088  0.0311 -0.5230
  881MPD2     N12979   4.380   3.404   0.257 -0.6681 -0.1764  0.1199
  881MPD2    H512980   4.291   3.399   0.305 -0.7283 -0.7195 -0.0437
  881MPD2    N112981   4.659   3.696  17.733  0.3767 -0.0347  0.4992
  881MPD2    H712982   4.660   3.789  17.693  1.3756  0.8943  2.7335
  882MPD2     C12983   3.219   0.007  13.964  0.0344  0.3403  0.0499
  882MPD2    C112984   3.189   0.100  14.064 -0.0123 -0.0914  0.3935
  882MPD2    C212985   3.070   0.163  14.051  0.2349 -0.6805  0.0284
  882MPD2    C312986   2.977   0.143  13.951  0.1843  0.5805 -0.0565
  882MPD2    C412987   3.003   0.046  13.851  0.5582  0.1291 -0.4611
  882MPD2    C512988   3.132   4.728  13.855  0.1285 -0.1181 -0.3137
  882MPD2     H12989   3.031   0.216  14.138 -0.0757 -2.1189  0.7609
  882MPD2    H112990   2.936   0.018  13.770 -0.1960  1.1447 -0.1791
  882MPD2    H212991   3.306   4.680  13.968  0.4424  0.8056 -1.2109
  882MPD2    H312992   3.167   4.663  13.776 -2.7725 -1.5846 -0.4160
  882MPD2     N12993   2.850   0.204  13.946 -0.2744  0.4976 -0.4643
  882MPD2    H512994   2.791   0.177  13.868 -1.7568 -0.1730  0.9105
  882MPD2    N112995   3.281   0.091  14.179  0.0345 -0.2168  0.1409
  882MPD2    H712996   3.351   0.017  14.185  1.5229  1.2100  0.1980
  883MPD2     C12997   0.398   0.411  16.268  0.3847  0.0608  0.2924
  883MPD2    C112998   0.459   0.505  16.187  1.3142 -0.2283 -0.3989
  883MPD2    C212999   0.576   0.570  16.230 -0.0018 -0.2503 -0.0688
  883MPD2    C313000   0.633   0.555  16.356  0.5009  0.0002 -0.1532
  883MPD2    C413001   0.575   0.456  16.437 -0.0304  0.1553  0.0228
  883MPD2    C513002   0.458   0.391  16.391  0.3808  0.2207 -0.3403
  883MPD2     H13003   0.624   0.637  16.159 -0.3209 -0.9917 -0.9849
  883MPD2    H113004   0.608   0.424  16.535  0.5178 -0.0661 -0.2342
  883MPD2    H213005   0.314   0.347  16.242 -0.5235  0.3445  2.5582
  883MPD2    H313006   0.405   0.317  16.451 -0.2485 -0.4503 -1.7163
  883MPD2     N13007   0.751   0.621  16.388  0.1201 -0.7695 -0.4372
  883MPD2    H513008   0.800   0.678  16.319 -1.0419  0.8779  0.0955
  883MPD2    N113009   0.407   0.543  16.062 -0.1923 -0.2126 -0.3987
  883MPD2    H713010   0.456   0.620  16.018  0.5493 -1.6949 -2.2031
  884MPD2     C13011   2.644   1.129  15.147  0.2791 -0.4464 -0.3793
  884MPD2    C113012   2.568   1.161  15.033 -0.0141 -0.5254  0.4533
  884MPD2    C213013   2.445   1.204  15.056 -0.1553 -0.6663  0.3864
  884MPD2    C313014   2.399   1.225  15.188  0.4288  0.0564  0.8278
  884MPD2    C413015   2.474   1.186  15.293  0.1889 -0.7466 -0.0207
  884MPD2    C513016   2.597   1.146  15.274  0.3895 -0.2763  0.1928
  884MPD2     H13017   2.381   1.225  14.970 -1.2455  0.9494  1.5797
  884MPD2    H113018   2.431   1.194  15.393  1.1852  1.3928  0.2391
  884MPD2    H213019   2.747   1.098  15.134 -0.0809 -0.6144 -2.9417
  884MPD2    H313020   2.661   1.104  15.351  3.4881  1.6863 -1.3101
  884MPD2     N13021   2.257   1.265  15.193  0.2688 -0.4492  0.1095
  884MPD2    H513022   2.196   1.277  15.113  0.3897 -0.3420  0.0335
  884MPD2    N113023   2.615   1.135  14.904 -0.9218  0.0529 -0.2222
  884MPD2    H713024   2.558   1.158  14.824 -0.4627 -2.6258 -1.2976
  885MPD2     C13025   0.671   1.476   0.665  0.6912 -0.3553 -0.0886
  885MPD2    C113026   0.789   1.463   0.600  0.6303 -0.1878  0.7170
  885MPD2    C213027   0.800   1.493   0.466  0.3271  0.6038 -0.1887
  885MPD2    C313028   0.694   1.550   0.399 -0.1184  0.2294 -0.3129
  885MPD2    C413029   0.571   1.561   0.462  0.4656  0.9315  0.3490
  885MPD2    C513030   0.560   1.523   0.597 -1.1989 -0.6639 -1.1378
  885MPD2     H13031   0.891   1.481   0.408  0.3483  1.7126 -0.3801
  885MPD2    H113032   0.476   1.585   0.416  1.0500  2.1611 -0.1970
  885MPD2    H213033   0.676   1.432   0.764  0.4433  1.3017  0.6409
  885MPD2    H313034   0.463   1.533   0.645  0.3630  0.4830  1.8034
  885MPD2     N13035   0.707   1.577   0.265 -0.2125 -0.1531 -0.8746
  885MPD2    H513036   0.791   1.539   0.223  0.8374  0.7200  0.4175
  885MPD2    N113037   0.899   1.436   0.679 -0.1181  0.6720 -0.7879
  885MPD2    H713038   0.888   1.438   0.780  0.5559  1.8521 -0.7403
  886MPD2     C13039   2.150   0.330  15.690 -0.2339  0.4792  0.1724
  886MPD2    C113040   2.219   0.219  15.639  0.2520 -0.0891  0.1196
  886MPD2    C213041   2.190   0.164  15.515 -0.2843  0.3621 -0.1302
  886MPD2    C313042   2.101   0.235  15.443  0.4537 -0.0739 -0.0170
  886MPD2    C413043   2.030   0.344  15.493  0.2799  0.1811  0.0420
  886MPD2    C513044   2.054   0.388  15.621  0.0084 -0.0392  0.5815
  886MPD2     H13045   2.237   0.073  15.479  0.6606  0.3498  1.1765
  886MPD2    H113046   1.945   0.395  15.449  0.6947  2.2019  1.5240
  886MPD2    H213047   2.170   0.366  15.791  1.5228  1.9712 -0.7175
  886MPD2    H313048   2.012   0.480  15.661  0.1827  1.6983 -3.1970
  886MPD2     N13049   2.085   0.205  15.302  0.2091 -0.3206 -0.0749
  886MPD2    H513050   2.133   0.122  15.268  1.8343 -1.0279  3.9546
  886MPD2    N113051   2.324   0.158  15.713  0.1948 -0.9836 -0.0745
  886MPD2    H713052   2.355   0.071  15.671  0.8808 -1.2816  1.0785
  887MPD2     C13053   3.061   0.231  16.071  0.0644  0.7121 -0.5599
  887MPD2    C113054   2.956   0.283  16.007 -0.0181 -0.2449  0.0006
  887MPD2    C213055   2.977   0.402  15.929 -0.0561 -0.4939 -0.6510
  887MPD2    C313056   3.103   0.451  15.910 -0.5635  0.0629  0.0822
  887MPD2    C413057   3.211   0.385  15.968 -0.2709 -0.0186  0.0303
  887MPD2    C513058   3.187   0.286  16.050  0.1338  0.1394  0.0294
  887MPD2     H13059   2.897   0.461  15.884 -1.3122 -0.3502  1.7936
  887MPD2    H113060   3.316   0.410  15.960 -0.6585  1.7142  0.4118
  887MPD2    H213061   3.053   0.148  16.141 -2.2843  0.0008 -1.6905
  887MPD2    H313062   3.272   0.234  16.092  0.4058 -0.2484 -0.9934
  887MPD2     N13063   3.118   0.567  15.836 -0.2187 -0.1739  0.3155
  887MPD2    H513064   3.033   0.605  15.794  0.4372  1.7762  0.7431
  887MPD2    N113065   2.828   0.225  16.004 -0.6280 -0.2759 -0.3719
  887MPD2    H713066   2.766   0.261  15.932  0.0485  0.2047 -0.7178
  888MPD2     C13067   4.490   0.214  14.787 -0.7104 -0.2038  0.1426
  888MPD2    C113068   4.530   0.203  14.916  0.1820 -0.2926  0.4699
  888MPD2    C213069   4.616   0.295  14.973  0.4923 -0.5575  0.2756
  888MPD2    C313070   4.656   0.405  14.897  0.0070 -0.1201  0.4892
  888MPD2    C413071   4.632   0.414  14.759  0.2737  0.4227 -0.0608
  888MPD2    C513072   4.545   0.317  14.709  0.0691 -0.6030  0.1440
  888MPD2     H13073   4.654   0.274  15.072 -4.2088  2.3749  2.7199
  888MPD2    H113074   4.677   0.487  14.692  2.4210 -1.1310 -0.2800
  888MPD2    H213075   4.428   0.137  14.744 -2.0894  1.1392 -0.3065
  888MPD2    H313076   4.544   0.324  14.601 -0.9262 -2.4951  0.0201
  888MPD2     N13077   4.731   0.510  14.968  0.4131 -0.0783 -0.1328
  888MPD2    H513078   4.732   0.508  15.070 -0.2103  3.3005 -0.0508
  888MPD2    N113079   4.481   0.100  14.992 -0.0070 -0.2696 -0.6059
  888MPD2    H713080   4.531   0.075  15.077 -2.2910  0.6110  0.9680
  889MPD2     C13081   3.173   4.434  12.788 -0.4197  0.6602 -0.1358
  889MPD2    C113082   3.299   4.419  12.838 -0.0916 -0.1750 -0.1634
  889MPD2    C213083   3.335   4.520  12.921  0.0107 -0.2447 -0.3483
  889MPD2    C313084   3.257   4.635  12.950  0.1755  0.1561  0.2314
  889MPD2    C413085   3.134   4.647  12.886 -0.0385  0.3622 -0.0195
  889MPD2    C513086   3.093   4.546  12.801  0.4924  0.3706 -0.1356
  889MPD2     H13087   3.421   4.516  12.986  0.9774  2.1747 -1.4533
  889MPD2    H113088   3.072   4.736  12.890 -0.9953 -0.3472  0.9717
  889MPD2    H213089   3.133   4.364  12.716  1.1524 -1.3124  0.9124
  889MPD2    H313090   3.007   4.553  12.736  0.1219 -1.2876  0.1758
  889MPD2     N13091   3.307   4.737  13.042 -0.1649 -0.4009 -0.1831
  889MPD2    H513092   3.402   4.720  13.074 -0.3291  2.3934  1.8240
  889MPD2    N113093   3.366   4.293  12.831  0.0952 -0.5701 -0.2990
  889MPD2    H713094   3.307   4.223  12.786 -0.3984  1.2832 -2.5334
  890MPD2     C13095   3.178   1.330  14.290  0.6491 -0.2900 -0.1472
  890MPD2    C113096   3.279   1.328  14.382  0.5408  0.0101 -0.1135
  890MPD2    C213097   3.341   1.205  14.413  0.3290 -0.1342  0.4171
  890MPD2    C313098   3.293   1.089  14.355  0.4289  0.1879  0.0363
  890MPD2    C413099   3.181   1.101  14.274  0.4990  0.3995 -0.0120
  890MPD2    C513100   3.124   1.220  14.232 -0.6771 -0.8316 -0.3570
  890MPD2     H13101   3.422   1.197  14.484  1.2588  2.0269 -0.3832
  890MPD2    H113102   3.134   1.013  14.231 -0.6385  0.7829  0.4343
  890MPD2    H213103   3.128   1.420  14.258  0.2178 -1.0075 -1.5096
  890MPD2    H313104   3.040   1.227  14.164  0.8848 -2.8808 -2.5109
  890MPD2     N13105   3.347   0.970  14.405 -0.4583 -0.4530  0.4632
  890MPD2    H513106   3.403   0.981  14.489 -0.0272 -0.4370  0.1798
  890MPD2    N113107   3.320   1.454  14.428 -0.1377  0.4498  0.2097
  890MPD2    H713108   3.264   1.535  14.402  0.7428  1.0121  0.0722
  891MPD2     C13109   1.455   0.278  16.559  0.3727 -0.5364  0.3568
  891MPD2    C113110   1.435   0.153  16.629  0.2084 -0.0139  0.1811
  891MPD2    C213111   1.505   0.140  16.752 -0.2721 -0.6611  0.2930
  891MPD2    C313112   1.611   0.228  16.780 -0.6417  0.0207 -0.4659
  891MPD2    C413113   1.637   0.340  16.697 -0.4573  0.1792  0.0465
  891MPD2    C513114   1.548   0.372  16.601  1.1892  0.8124  0.7807
  891MPD2     H13115   1.483   0.064  16.826  1.5536  1.3650  2.8818
  891MPD2    H113116   1.708   0.417  16.728  1.0504 -0.3883 -1.9541
  891MPD2    H213117   1.408   0.298  16.464  1.1002  2.0847  0.5447
  891MPD2    H313118   1.564   0.460  16.541  1.8748 -1.0463 -1.7647
  891MPD2     N13119   1.676   0.215  16.905 -0.0703  0.0110 -0.6087
  891MPD2    H513120   1.647   0.149  16.977  0.5822  0.1238 -0.2413
  891MPD2    N113121   1.347   0.066  16.576  0.5116 -0.5489  0.3640
  891MPD2    H713122   1.307   0.084  16.485  1.1432 -2.0148 -0.2035
  892MPD2     C13123   2.484   0.428  14.787 -0.5892 -0.1738 -0.1145
  892MPD2    C113124   2.382   0.491  14.710  0.8410 -0.1974  0.1782
  892MPD2    C213125   2.406   0.484  14.575  0.2205  0.8220 -0.4568
  892MPD2    C313126   2.512   0.427  14.513 -0.0934 -0.2047  0.0350
  892MPD2    C413127   2.607   0.363  14.591  0.0375 -0.0143  0.0686
  892MPD2    C513128   2.591   0.361  14.727  0.4606 -0.3390 -0.7122
  892MPD2     H13129   2.329   0.538  14.520 -2.0900  0.0381  2.0401
  892MPD2    H113130   2.698   0.318  14.552  0.6557 -0.3036  1.8182
  892MPD2    H213131   2.485   0.426  14.896 -0.6247 -0.4867 -0.1205
  892MPD2    H313132   2.670   0.311  14.783  0.5700 -0.4514 -0.9677
  892MPD2     N13133   2.531   0.419  14.373  0.3245  0.1607 -0.3939
  892MPD2    H513134   2.618   0.373  14.347 -1.1859 -2.0391 -1.5660
  892MPD2    N113135   2.269   0.557  14.761 -0.0645  0.1377  0.1752
  892MPD2    H713136   2.213   0.613  14.696  1.4436 -0.4701 -1.6445
  893MPD2     C13137   4.638   0.471   1.581  0.4575 -0.0899 -0.3546
  893MPD2    C113138   4.593   0.398   1.472 -0.6507  0.1141 -0.3390
  893MPD2    C213139   4.458   0.397   1.448  0.2623  0.4081 -0.6177
  893MPD2    C313140   4.373   0.491   1.509  0.0438  0.3200  0.4522
  893MPD2    C413141   4.428   0.575   1.601  0.2842  0.5204  0.1851
  893MPD2    C513142   4.558   0.561   1.643 -0.3805  0.5734  0.5089
  893MPD2     H13143   4.419   0.332   1.370 -1.1972  1.5567 -0.8478
  893MPD2    H113144   4.368   0.641   1.663  0.4178 -0.2668  1.1560
  893MPD2    H213145   0.006   0.475   1.608  0.4539 -0.6527 -0.2412
  893MPD2    H313146   4.600   0.627   1.718  2.0772  1.2178 -1.4373
  893MPD2     N13147   4.233   0.495   1.479 -0.2698 -0.3888 -0.7279
  893MPD2    H513148   4.181   0.568   1.527 -1.0512 -0.4568 -1.4769
  893MPD2    N113149   4.689   0.324   1.399  0.8311  0.7481  0.0268
  893MPD2    H713150   0.041   0.310   1.445 -0.2556 -0.9828  1.6089
  894MPD2     C13151   2.444   2.095   0.638  0.2749 -0.7964  0.0110
  894MPD2    C113152   2.530   2.083   0.743 -0.2827  0.4371  0.3986
  894MPD2    C213153   2.624   2.176   0.773 -0.7991 -0.1100 -0.2679
  894MPD2    C313154   2.618   2.300   0.719  0.0339 -0.1584 -0.2875
  894MPD2    C413155   2.531   2.312   0.615 -0.1890  0.0965  0.4721
  894MPD2    C513156   2.451   2.215   0.565 -0.3473 -0.2895 -0.0909
  894MPD2     H13157   2.686   2.158   0.861 -0.7112  0.2503 -0.2577
  894MPD2    H113158   2.516   2.409   0.569  2.2394  0.4574  0.4050
  894MPD2    H213159   2.379   2.013   0.610  0.0321  0.2736 -2.6209
  894MPD2    H313160   2.386   2.217   0.479 -0.8402 -0.2483  0.2813
  894MPD2     N13161   2.700   2.403   0.768  0.1139 -0.0302  0.4418
  894MPD2    H513162   2.764   2.374   0.841  0.1348  1.0297  0.8425
  894MPD2    N113163   2.534   1.965   0.821 -0.5237  0.0375 -0.3102
  894MPD2    H713164   2.610   1.948   0.887 -0.8640  0.9600  0.3169
  895MPD2     C13165   1.597   0.273  13.513  0.1309 -0.3211  0.2359
  895MPD2    C113166   1.584   0.144  13.561 -0.2206 -0.4347  0.2408
  895MPD2    C213167   1.624   0.037  13.488  0.1886 -0.1138 -0.0936
  895MPD2    C313168   1.647   0.050  13.357 -0.2318 -0.3409  0.0811
  895MPD2    C413169   1.647   0.170  13.299 -0.2277  0.5007 -0.1361
  895MPD2    C513170   1.634   0.277  13.376  0.5215  0.4222 -0.5165
  895MPD2     H13171   1.601   4.681  13.536  1.5120 -0.2383  0.3068
  895MPD2    H113172   1.643   0.170  13.191 -2.5251  0.6021 -0.0446
  895MPD2    H213173   1.561   0.367  13.552  0.2181 -0.2845  0.2265
  895MPD2    H313174   1.629   0.375  13.329 -0.8725  1.4392  1.7686
  895MPD2     N13175   1.647   4.670  13.274 -0.7940 -0.5016 -0.6483
  895MPD2    H513176   1.629   4.684  13.175  1.4165  0.0889 -0.9528
  895MPD2    N113177   1.520   0.126  13.690  0.5178 -0.1284 -0.3414
  895MPD2    H713178   1.516   0.030  13.723 -1.4767  0.8661  2.3047
  896MPD2     C13179   4.160   2.631   1.676  0.7378  0.2000 -0.1833
  896MPD2    C113180   4.098   2.581   1.564 -0.0898 -0.2337  0.3481
  896MPD2    C213181   3.967   2.546   1.556  0.2105 -0.8099  0.4019
  896MPD2    C313182   3.878   2.564   1.661 -0.0273 -0.4002  0.8850
  896MPD2    C413183   3.935   2.597   1.780 -0.4313  0.1374  0.3413
  896MPD2    C513184   4.075   2.624   1.791 -0.4670 -1.0323 -0.4596
  896MPD2     H13185   3.920   2.502   1.469  0.3005 -2.0728  0.9851
  896MPD2    H113186   3.881   2.603   1.874  1.6499 -0.1637  1.5804
  896MPD2    H213187   4.266   2.655   1.685 -0.4092  4.3084  1.8966
  896MPD2    H313188   4.116   2.660   1.884 -0.4532 -0.0458 -0.8374
  896MPD2     N13189   3.737   2.534   1.653 -0.0034  0.3027  0.6613
  896MPD2    H513190   3.693   2.499   1.568  0.4834 -0.2514  0.6390
  896MPD2    N113191   4.182   2.565   1.450 -0.1080  0.3761 -0.2851
  896MPD2    H713192   4.276   2.604   1.458 -0.9303  1.7784  2.6283
  897MPD2     C13193   0.187   4.587  11.292  0.0432  0.8349 -0.4374
  897MPD2    C113194   0.142   4.595  11.158 -0.3508 -0.3425 -0.0311
  897MPD2    C213195   0.011   4.567  11.127  0.1049  0.4064  0.0297
  897MPD2    C313196   4.656   4.536  11.228  0.2765  0.3388  0.0803
  897MPD2    C413197   4.704   4.515  11.354 -0.3538  0.2698  0.0078
  897MPD2    C513198   0.095   4.547  11.385 -0.4574  0.4752  0.3051
  897MPD2     H13199   4.723   4.558  11.022  0.7980 -0.3537 -0.0665
  897MPD2    H113200   4.635   4.484  11.432  0.3490  0.3276  0.6559
  897MPD2    H213201   0.287   4.617  11.319  0.4093 -1.5516  0.8272
  897MPD2    H313202   0.132   4.561  11.486 -3.5118  0.9432  1.3490
  897MPD2     N13203   4.518   4.524  11.218  0.1713  0.7086 -0.1208
  897MPD2    H513204   4.463   4.493  11.298  2.4402 -2.3101  0.2643
  897MPD2    N113205   0.234   4.644  11.062  0.1577  0.4239  0.0475
  897MPD2    H713206   0.323   4.675  11.099 -0.5974  2.7164 -0.0946
  898MPD2     C13207   2.927   0.740   0.307 -0.1588  0.3532  0.8025
  898MPD2    C113208   2.890   0.637   0.221 -0.2499 -0.6402 -0.1363
  898MPD2    C213209   2.787   0.652   0.129  0.0814 -1.2344 -0.3263
  898MPD2    C313210   2.723   0.774   0.122 -0.3899  0.6140 -0.2297
  898MPD2    C413211   2.753   0.875   0.208  0.5552 -0.4361  0.1554
  898MPD2    C513212   2.852   0.855   0.299 -0.0803 -1.0234 -0.0654
  898MPD2     H13213   2.772   0.570   0.060  0.4838  0.6956 -2.7344
  898MPD2    H113214   2.704   0.972   0.214 -0.7843 -1.0815 -0.4043
  898MPD2    H213215   3.016   0.745   0.368  1.3672  4.0268 -1.7443
  898MPD2    H313216   2.867   0.940   0.366 -1.4449  1.1237 -2.4702
  898MPD2     N13217   2.629   0.788   0.025 -0.1952 -0.3300  0.0602
  898MPD2    H513218   2.609   0.709  17.713  0.1367 -0.7567  0.5137
  898MPD2    N113219   2.952   0.513   0.230 -0.4749  0.5541 -0.0483
  898MPD2    H713220   2.917   0.442   0.166  0.2602 -1.2008  1.5062
  899MPD2     C13221   2.922   0.729  17.060 -0.1946  0.0484 -0.2068
  899MPD2    C113222   2.977   0.837  17.136 -0.0740  0.5779 -0.1564
  899MPD2    C213223   2.990   0.822  17.276 -0.3562 -0.2100 -0.0226
  899MPD2    C313224   2.944   0.702  17.333 -0.4217 -0.3847 -0.1876
  899MPD2    C413225   2.901   0.598  17.257 -0.6478 -0.2640  0.2219
  899MPD2    C513226   2.878   0.614  17.121  0.9551  0.5732  0.3856
  899MPD2     H13227   3.026   0.892  17.351  0.4299 -0.4098 -0.2083
  899MPD2    H113228   2.883   0.500  17.299  1.0335 -0.2128  1.0190
  899MPD2    H213229   2.910   0.735  16.952  1.1469  0.1184 -0.3486
  899MPD2    H313230   2.834   0.538  17.057  0.7939  0.4803  0.6085
  899MPD2     N13231   2.958   0.670  17.472  0.3698 -0.2740  0.2919
  899MPD2    H513232   2.960   0.572  17.499  0.5099 -0.5294 -0.6311
  899MPD2    N113233   3.010   0.959  17.070  0.4133  0.0506  0.7610
  899MPD2    H713234   2.987   0.962  16.971  1.2459 -2.3899  0.4963
  900MPD2     C13235   2.433   2.822  12.572  0.6897  0.4547  0.2021
  900MPD2    C113236   2.340   2.724  12.585 -0.1723  0.3700 -0.1688
  900MPD2    C213237   2.217   2.731  12.517  0.4567 -0.0921 -0.1672
  900MPD2    C313238   2.191   2.836  12.428  0.2030 -0.4933  0.0271
  900MPD2    C413239   2.272   2.947  12.437 -0.0033  0.4567 -0.1322
  900MPD2    C513240   2.397   2.934  12.496 -0.0823 -0.3041 -0.6130
  900MPD2     H13241   2.155   2.643  12.509  1.2159 -0.7466  1.3707
  900MPD2    H113242   2.254   3.036  12.379 -0.3387 -0.1035 -0.8799
  900MPD2    H213243   2.524   2.825  12.631 -1.2506 -2.1462  3.2726
  900MPD2    H313244   2.453   3.027  12.490  1.9158 -1.4850 -0.2331
  900MPD2     N13245   2.067   2.829  12.362  0.4441 -0.1709  0.2749
  900MPD2    H513246   2.008   2.747  12.365  2.6445 -1.8453 -2.5181
  900MPD2    N113247   2.372   2.606  12.651  0.2880 -0.0105 -0.4792
  900MPD2    H713248   2.473   2.599  12.663  0.4340  1.2987 -0.8700
  901MPD2     C13249   2.220   1.602  13.070  0.2439 -0.1216  0.9036
  901MPD2    C113250   2.275   1.599  12.943 -0.0499  0.2450 -0.1775
  901MPD2    C213251   2.287   1.717  12.871  1.1565 -0.2187 -0.2023
  901MPD2    C313252   2.269   1.838  12.935 -0.2688  0.1460  0.1972
  901MPD2    C413253   2.227   1.840  13.069  1.0708 -0.0416 -0.4676
  901MPD2    C513254   2.207   1.723  13.142 -0.4375 -0.5157 -0.2597
  901MPD2     H13255   2.314   1.700  12.768  3.4365  0.3653  0.2839
  901MPD2    H113256   2.204   1.936  13.114  3.4778  0.3370 -0.0334
  901MPD2    H213257   2.189   1.513  13.124 -1.6510  1.4970  2.4764
  901MPD2    H313258   2.174   1.718  13.245  2.0542  0.6321  0.5727
  901MPD2     N13259   2.278   1.953  12.858  0.2012  0.1053 -0.3886
  901MPD2    H513260   2.335   1.949  12.774  0.6914 -0.1949 -0.0413
  901MPD2    N113261   2.288   1.473  12.886  0.3492 -0.0926 -0.4365
  901MPD2    H713262   2.256   1.392  12.938 -1.8865  0.5200 -0.8809
  902MPD2     C13263   1.439   0.633  13.053  0.3514 -0.0979 -1.1163
  902MPD2    C113264   1.370   0.647  12.934  0.6158 -0.7426 -0.3525
  902MPD2    C213265   1.351   0.537  12.851  0.7806 -0.0982 -0.5258
  902MPD2    C313266   1.401   0.414  12.897 -1.4389 -0.7029  0.9300
  902MPD2    C413267   1.475   0.398  13.019 -0.2412 -0.2309  0.3782
  902MPD2    C513268   1.485   0.510  13.096 -0.5329 -0.2495 -0.3530
  902MPD2     H13269   1.304   0.542  12.753  1.1982  0.9992 -0.6726
  902MPD2    H113270   1.511   0.302  13.054  0.4486 -0.0537  0.1496
  902MPD2    H213271   1.464   0.717  13.117 -3.8357 -0.3704  0.8487
  902MPD2    H313272   1.544   0.505  13.187 -0.2487  2.3418 -0.3907
  902MPD2     N13273   1.377   0.313  12.814  0.1742  0.9209  0.2104
  902MPD2    H513274   1.324   0.339  12.732 -0.0021 -1.8015 -0.5348
  902MPD2    N113275   1.330   0.779  12.906 -0.1280 -0.1543  0.2025
  902MPD2    H713276   1.337   0.854  12.974  1.3007 -2.0745  2.1615
  903MPD2     C13277   1.243   0.316  12.048  0.3441 -0.1334 -0.0978
  903MPD2    C113278   1.222   0.331  12.184  0.5173  0.0363  0.4256
  903MPD2    C213279   1.127   0.426  12.218 -0.0167  0.0034 -0.0918
  903MPD2    C313280   1.062   0.513  12.127  0.0357 -0.3565 -0.6064
  903MPD2    C413281   1.098   0.503  11.992  0.3906  0.1538 -0.7773
  903MPD2    C513282   1.183   0.400  11.953 -0.2286  0.4551  0.0206
  903MPD2     H13283   1.096   0.436  12.322  1.5061 -0.9234  0.4436
  903MPD2    H113284   1.054   0.562  11.912 -0.3056 -0.4851 -0.8641
  903MPD2    H213285   1.317   0.250  12.005 -1.3439 -0.7883 -2.0110
  903MPD2    H313286   1.185   0.376  11.847  3.4215  2.0221 -0.2330
  903MPD2     N13287   0.971   0.606  12.178  0.1797  0.6792  0.3495
  903MPD2    H513288   0.960   0.590  12.278 -1.4911  1.7154  0.3175
  903MPD2    N113289   1.284   0.238  12.270 -0.2287 -0.5884  0.0523
  903MPD2    H713290   1.337   0.160  12.232  0.9658  0.7400 -1.0170
  904MPD2     C13291   1.359   4.399  13.960  0.4400  1.1495  0.7636
  904MPD2    C113292   1.342   4.264  13.995  0.2525  0.0875  0.1578
  904MPD2    C213293   1.442   4.210  14.082 -0.5881 -0.4863  0.1792
  904MPD2    C313294   1.543   4.283  14.137  0.0838 -0.1607  0.1008
  904MPD2    C413295   1.545   4.424  14.117  0.3696 -0.1883  0.1691
  904MPD2    C513296   1.449   4.479  14.024  0.7005  0.0293 -0.4548
  904MPD2     H13297   1.449   4.103  14.090  1.8494 -0.3901 -0.6258
  904MPD2    H113298   1.612   4.497  14.159  0.0173  2.2473 -3.4880
  904MPD2    H213299   1.285   4.454  13.902  0.9374  1.0826  0.0739
  904MPD2    H313300   1.454   4.582  13.992 -0.7224  0.1800 -0.1905
  904MPD2     N13301   1.639   4.221  14.219 -0.2536  0.4583 -0.2578
  904MPD2    H513302   1.634   4.120  14.223  1.7937  0.3263 -0.8620
  904MPD2    N113303   1.224   4.195  13.956 -0.5424 -0.2663  0.2604
  904MPD2    H713304   1.153   4.239  13.898 -2.1634 -2.2522  0.7598
  905MPD2     C13305   0.771   4.528  13.482 -0.0756  0.5554  0.0042
  905MPD2    C113306   0.887   4.459  13.533 -0.8750  0.4694 -0.0008
  905MPD2    C213307   0.998   4.445  13.451  0.0145  0.3122  0.5596
  905MPD2    C313308   0.996   4.480  13.313  0.0568  0.2933  0.3543
  905MPD2    C413309   0.873   4.530  13.263  0.5584  0.3983  0.4768
  905MPD2    C513310   0.759   4.548  13.340  0.5158  0.1891  0.1826
  905MPD2     H13311   1.084   4.389  13.485  0.0540  0.7470  1.1667
  905MPD2    H113312   0.860   4.544  13.156  0.8453 -0.8066  0.2835
  905MPD2    H213313   0.679   4.540  13.538 -0.1022  0.6619 -0.0630
  905MPD2    H313314   0.673   4.586  13.287  0.9695 -0.3722 -0.9686
  905MPD2     N13315   1.113   4.461  13.230 -0.0641  0.3128  0.1596
  905MPD2    H513316   1.102   4.450  13.130 -4.2150  0.0683  0.6214
  905MPD2    N113317   0.878   4.395  13.658  0.1090  0.1471 -0.9222
  905MPD2    H713318   0.782   4.373  13.683  0.8392 -3.5531 -1.3999
  906MPD2     C13319   3.167   4.715  11.354  0.2437  0.6411  0.0472
  906MPD2    C113320   3.158   4.643  11.238 -0.5601  0.0105 -1.1598
  906MPD2    C213321   3.128   4.505  11.254 -0.0518  0.9613  0.5614
  906MPD2    C313322   3.111   4.446  11.380  0.4943 -0.0398  0.3976
  906MPD2    C413323   3.122   4.520  11.494 -0.4912  0.1573  0.2668
  906MPD2    C513324   3.166   4.652  11.482  0.2467 -0.2906 -0.0333
  906MPD2     H13325   3.103   4.457  11.160 -0.3116  1.1584  0.5277
  906MPD2    H113326   3.111   4.477  11.593 -1.3603 -0.0041  0.1050
  906MPD2    H213327   3.182   0.084  11.350  0.9656  0.4800 -1.7175
  906MPD2    H313328   3.162   4.713  11.571  1.3746 -0.9211  0.4534
  906MPD2     N13329   3.079   4.310  11.400 -0.6450 -0.2995  1.3315
  906MPD2    H513330   3.075   4.275  11.495  2.5234 -3.1622  0.3814
  906MPD2    N113331   3.179   4.694  11.113 -0.4806 -0.7872 -0.1356
  906MPD2    H713332   3.173   4.615  11.050  2.2391 -0.6850 -0.5316
  907MPD2     C13333   2.746   3.594  15.740  0.0793 -0.0873 -0.1322
  907MPD2    C113334   2.674   3.502  15.807 -0.3102 -0.2936 -0.5311
  907MPD2    C213335   2.739   3.423  15.900 -0.9287 -0.4702  0.4764
  907MPD2    C313336   2.864   3.454  15.940 -0.2981  0.0402  0.1979
  907MPD2    C413337   2.937   3.544  15.867  0.3547  0.5255  0.5321
  907MPD2    C513338   2.880   3.609  15.762  0.4935  0.2260  0.0809
  907MPD2     H13339   2.690   3.337  15.944 -1.6565 -0.6680 -0.7224
  907MPD2    H113340   3.042   3.556  15.892  0.1668  1.8615  0.7302
  907MPD2    H213341   2.696   3.647  15.659  0.9318  1.4794  0.3696
  907MPD2    H313342   2.932   3.687  15.707 -0.1138 -0.0908 -0.9288
  907MPD2     N13343   2.912   3.386  16.060 -0.0856 -0.5054  0.0154
  907MPD2    H513344   2.849   3.340  16.125  2.2604 -4.4426 -0.5141
  907MPD2    N113345   2.538   3.469  15.763  0.4790  0.3278 -0.3641
  907MPD2    H713346   2.507   3.375  15.787  1.7075 -0.0193 -0.1285
  908MPD2     C13347   0.121   4.731  10.074  0.0088 -0.7729 -0.3269
  908MPD2    C113348   0.096   4.616  10.139 -0.3048  0.3911 -0.0373
  908MPD2    C213349   0.143   4.608  10.272  0.4750  0.4348 -0.3595
  908MPD2    C313350   0.228   4.703  10.319 -0.1671 -0.4129 -0.2871
  908MPD2    C413351   0.266   0.077  10.237  0.7792 -0.8251 -0.3156
  908MPD2    C513352   0.207   0.086  10.118  0.1417  0.4646  0.7559
  908MPD2     H13353   0.133   4.520  10.334 -0.3542  0.6389 -0.2000
  908MPD2    H113354   0.334   0.153  10.274  0.9870 -2.0448  1.8296
  908MPD2    H213355   0.075   0.021   9.980  1.0604 -0.2603 -0.6964
  908MPD2    H313356   0.233   0.177  10.066  2.4782 -0.9968 -0.6351
  908MPD2     N13357   0.295   4.678  10.443 -0.0786  0.3346 -0.0856
  908MPD2    H513358   0.279   4.593  10.495 -1.6649 -0.9174 -2.6269
  908MPD2    N113359   0.024   4.515  10.080  0.1154  0.0619 -0.2148
  908MPD2    H713360   4.728   4.534   9.986 -1.8834  0.8454  0.6495
  909MPD2     C13361   0.262   2.389  11.542  0.3234  0.4412 -0.2504
  909MPD2    C113362   0.311   2.510  11.576 -0.3697 -0.0794  0.2177
  909MPD2    C213363   0.275   2.553  11.705 -0.7636 -0.4917  0.2163
  909MPD2    C313364   0.187   2.481  11.786  0.2867  0.2704 -0.2739
  909MPD2    C413365   0.148   2.358  11.747 -0.0812  0.2604 -0.0591
  909MPD2    C513366   0.182   2.308  11.624 -0.2793  0.7418 -1.0410
  909MPD2     H13367   0.305   2.652  11.736  0.8313 -0.7950 -0.3604
  909MPD2    H113368   0.076   2.304  11.807 -0.2245 -0.0652 -0.5224
  909MPD2    H213369   0.291   2.348  11.446 -0.2638  3.2105 -1.6058
  909MPD2    H313370   0.151   2.208  11.598 -0.5639  0.7361 -0.6893
  909MPD2     N13371   0.146   2.548  11.907  0.5227 -0.1854  0.3038
  909MPD2    H513372   0.173   2.644  11.927  1.3206 -0.4317  0.4295
  909MPD2    N113373   0.381   2.592  11.489 -0.2251  0.0761  0.0966
  909MPD2    H713374   0.428   2.675  11.525  1.4502 -0.7080 -0.2744
  910MPD2     C13375   1.884   4.159  16.210 -0.2629  0.5049 -0.4219
  910MPD2    C113376   1.933   4.055  16.131  0.4575 -0.4027 -0.1322
  910MPD2    C213377   1.871   4.033  16.009  0.2159 -0.3406 -0.0910
  910MPD2    C313378   1.761   4.110  15.967  0.2329  0.7799 -0.0783
  910MPD2    C413379   1.702   4.189  16.060 -0.0716  0.2247  0.4566
  910MPD2    C513380   1.768   4.220  16.175 -0.4594  0.8346  0.6088
  910MPD2     H13381   1.913   3.957  15.945 -0.8193 -0.1687 -0.9803
  910MPD2    H113382   1.608   4.241  16.048  1.1927  2.3680 -0.2107
  910MPD2    H213383   1.919   4.177  16.311  1.8184 -0.7909 -0.9199
  910MPD2    H313384   1.727   4.295  16.242 -2.9562 -0.2126  0.2720
  910MPD2     N13385   1.694   4.098  15.841  0.7265 -0.2158  0.2177
  910MPD2    H513386   1.610   4.155  15.839 -0.1360 -1.5929 -2.6985
  910MPD2    N113387   2.027   3.956  16.164  0.4455 -0.1973  0.2745
  910MPD2    H713388   2.049   3.882  16.098  0.6730  0.6511 -0.5953
  911MPD2     C13389   4.567   0.027  16.280  0.1316 -0.1518 -0.3380
  911MPD2    C113390   4.580   0.012  16.417  0.2493  0.3691 -0.2091
  911MPD2    C213391   4.534   0.115  16.497  0.0582 -0.0790 -0.7369
  911MPD2    C313392   4.497   0.244  16.451  0.3279 -0.0542  0.4897
  911MPD2    C413393   4.514   0.267  16.315  0.0288  0.0256 -0.0115
  911MPD2    C513394   4.537   0.153  16.232 -0.9092  0.2128  0.3949
  911MPD2     H13395   4.529   0.089  16.602 -2.2720 -1.1484 -1.1212
  911MPD2    H113396   4.508   0.361  16.262 -1.7943 -1.4219 -2.3586
  911MPD2    H213397   4.586   4.683  16.211 -1.8800 -0.3157 -0.6993
  911MPD2    H313398   4.544   0.172  16.126 -0.1511 -2.0516  0.0338
  911MPD2     N13399   4.474   0.340  16.553  0.4286 -0.8694  0.6594
  911MPD2    H513400   4.488   0.298  16.644  2.0171 -1.2950  0.2128
  911MPD2    N113401   4.651   4.634  16.468 -0.1770 -0.1543  0.2460
  911MPD2    H713402   4.689   4.567  16.402  0.7467 -0.5229  1.1500
  912MPD2     C13403   4.252   0.142  15.879 -0.4767 -0.5362 -0.3980
  912MPD2    C113404   4.231   0.141  16.017  0.7283  0.0692 -0.1628
  912MPD2    C213405   4.245   0.032  16.094 -0.1964 -0.6215 -0.3567
  912MPD2    C313406   4.285   4.651  16.038  0.2561  0.4266  0.0773
  912MPD2    C413407   4.328   4.657  15.903 -0.3978 -0.2112 -0.2130
  912MPD2    C513408   4.305   0.027  15.825  0.2062 -0.4686 -0.4704
  912MPD2     H13409   4.207   0.036  16.195 -0.1770 -0.2575 -0.3648
  912MPD2    H113410   4.365   4.566  15.855 -1.5652 -0.5810 -0.3996
  912MPD2    H213411   4.233   0.231  15.821 -0.0348  0.4110  0.8902
  912MPD2    H313412   4.326   0.027  15.719 -1.5362 -2.0299 -0.8099
  912MPD2     N13413   4.285   4.533  16.113  0.0389 -0.2638 -0.3555
  912MPD2    H513414   4.243   4.547  16.204  0.5308  1.2388 -0.3561
  912MPD2    N113415   4.210   0.274  16.075 -0.5719  0.2267  0.2222
  912MPD2    H713416   4.223   0.352  16.012  0.8031 -1.4876 -1.6362
  913MPD2     C13417   0.851   1.778   9.966 -0.7411 -0.1782 -0.4178
  913MPD2    C113418   0.821   1.892  10.047  0.1552  0.2236 -0.4770
  913MPD2    C213419   0.809   2.022   9.993 -0.4603 -0.3934  0.1911
  913MPD2    C313420   0.851   2.047   9.862  0.2696 -0.2282 -0.4274
  913MPD2    C413421   0.893   1.937   9.786  0.4743 -0.0542 -0.1976
  913MPD2    C513422   0.888   1.805   9.835  0.3672  0.3967 -0.1049
  913MPD2     H13423   0.786   2.113  10.047  0.1758  1.7809 -3.1696
  913MPD2    H113424   0.922   1.952   9.683 -0.0447 -0.3154 -0.3800
  913MPD2    H213425   0.843   1.675  10.000  0.5042 -0.1790 -0.1484
  913MPD2    H313426   0.907   1.729   9.760 -2.7616 -0.8394  0.3672
  913MPD2     N13427   0.864   2.175   9.802 -0.0467  0.5262  0.3257
  913MPD2    H513428   0.907   2.182   9.710 -0.0686  0.2931  0.2977
  913MPD2    N113429   0.788   1.860  10.182 -0.1587  0.8176 -0.2548
  913MPD2    H713430   0.804   1.761  10.198 -0.3914  1.2177  2.4014
  914MPD2     C13431   2.553   1.223  11.961  0.2632  0.4218 -0.3673
  914MPD2    C113432   2.566   1.333  12.031 -0.5602 -0.1508 -0.0332
  914MPD2    C213433   2.554   1.333  12.170 -0.9484 -0.3206  0.3530
  914MPD2    C313434   2.520   1.210  12.234 -0.3320  0.6550 -0.4896
  914MPD2    C413435   2.488   1.101  12.155  0.1654 -0.0049 -0.4864
  914MPD2    C513436   2.506   1.107  12.019  0.0173 -0.1932  0.0528
  914MPD2     H13437   2.570   1.429  12.218  1.1191 -0.5087  0.0427
  914MPD2    H113438   2.443   1.012  12.196 -2.1657  1.1401 -0.5641
  914MPD2    H213439   2.549   1.226  11.853  1.5653 -0.0536 -0.4221
  914MPD2    H313440   2.491   1.016  11.962  0.5131 -0.5780  0.5366
  914MPD2     N13441   2.498   1.200  12.378 -0.8891 -0.1469 -0.0614
  914MPD2    H513442   2.507   1.285  12.433 -2.0388  0.6561 -1.1074
  914MPD2    N113443   2.583   1.451  11.954 -0.0254 -0.0238 -0.0976
  914MPD2    H713444   2.571   1.445  11.853 -1.1839  0.4008  0.0114
  915MPD2     C13445   1.050   1.362  16.043 -0.3291 -0.1937  0.3596
  915MPD2    C113446   0.930   1.405  16.010  0.6670 -0.2313  0.9814
  915MPD2    C213447   0.837   1.446  16.106 -0.2526  0.5213 -0.7558
  915MPD2    C313448   0.877   1.428  16.245  0.3730  0.3209  0.4356
  915MPD2    C413449   0.999   1.376  16.272 -0.6484 -0.1454  0.6306
  915MPD2    C513450   1.089   1.348  16.168  0.4217  0.4920 -1.1185
  915MPD2     H13451   0.740   1.489  16.087 -0.9068  0.1689  1.7545
  915MPD2    H113452   1.032   1.340  16.369  0.0261 -0.7185  0.1855
  915MPD2    H213453   1.119   1.333  15.965  0.1094 -1.1134  1.0985
  915MPD2    H313454   1.188   1.309  16.188 -0.5615 -2.6401 -2.3704
  915MPD2     N13455   0.787   1.464  16.346 -0.5779 -0.1172  0.9779
  915MPD2    H513456   0.702   1.511  16.317 -0.3944 -1.0887 -1.1463
  915MPD2    N113457   0.903   1.409  15.866  0.1885 -0.7785 -0.7037
  915MPD2    H713458   0.980   1.383  15.805 -0.5654 -2.5805 -0.8876
  916MPD2     C13459   3.931   4.512  15.984  0.8023 -0.0918  0.3519
  916MPD2    C113460   3.886   4.394  16.045  0.5331 -0.4468 -0.5920
  916MPD2    C213461   3.930   4.268  16.002  0.5796  0.0716  0.0452
  916MPD2    C313462   4.021   4.262  15.903 -0.5156  0.0564 -0.0119
  916MPD2    C413463   4.086   4.383  15.857 -0.4889 -0.4468 -0.1057
  916MPD2    C513464   4.032   4.509  15.891  0.2471 -0.5455  0.2816
  916MPD2     H13465   3.881   4.181  16.043  0.4768  0.2062  0.2082
  916MPD2    H113466   4.170   4.379  15.789  0.2392 -0.5397  0.8104
  916MPD2    H213467   3.894   4.609  16.012 -2.0073 -0.6322 -1.4343
  916MPD2    H313468   4.067   4.604  15.853 -1.4734  0.1783  0.4840
  916MPD2     N13469   4.051   4.130  15.849  0.2456 -0.8278  0.3505
  916MPD2    H513470   3.991   4.056  15.881 -2.3125  1.1685  0.1367
  916MPD2    N113471   3.780   4.417  16.132  0.7467 -0.8719 -0.0651
  916MPD2    H713472   3.735   4.508  16.133 -0.8500 -1.6688  1.1295
  917MPD2     C13473   3.522   1.947  10.970 -0.4595  0.2979  0.1319
  917MPD2    C113474   3.596   1.944  11.084  0.2565  0.0575 -0.0201
  917MPD2    C213475   3.724   1.993  11.088 -0.0239 -0.3252 -0.7370
  917MPD2    C313476   3.793   2.036  10.980  0.2577  0.2436  0.3325
  917MPD2    C413477   3.721   2.047  10.869  0.3560  0.6080 -0.3644
  917MPD2    C513478   3.590   2.001  10.867 -0.5453  0.2136 -0.0254
  917MPD2     H13479   3.785   1.978  11.176 -0.7166 -0.3236 -0.2584
  917MPD2    H113480   3.755   2.092  10.777  0.6896 -0.7542 -0.9115
  917MPD2    H213481   3.420   1.910  10.964 -0.8914  1.6536 -0.6799
  917MPD2    H313482   3.539   1.998  10.771  1.6548 -2.0431 -1.1428
  917MPD2     N13483   3.926   2.093  10.968 -0.1961 -0.4637 -0.0980
  917MPD2    H513484   3.942   2.142  10.880 -0.9958 -0.2626 -0.1259
  917MPD2    N113485   3.525   1.909  11.200  0.2072  0.0545 -0.1376
  917MPD2    H713486   3.436   1.865  11.181 -0.3293  1.5274 -1.0072
  918MPD2     C13487   3.609   2.294  12.134  1.1307 -0.1144 -0.5958
  918MPD2    C113488   3.710   2.241  12.053  0.0180 -0.4633 -0.1315
  918MPD2    C213489   3.669   2.176  11.938 -0.5465 -0.2089 -0.3724
  918MPD2    C313490   3.535   2.153  11.907  0.1567  0.4955  0.9005
  918MPD2    C413491   3.440   2.205  11.988  0.8269  0.5349 -0.5296
  918MPD2    C513492   3.478   2.274  12.101 -0.2431 -0.6389  0.3573
  918MPD2     H13493   3.731   2.116  11.872 -2.0666 -0.2753 -1.7632
  918MPD2    H113494   3.335   2.188  11.969  0.5498  0.7470  0.8507
  918MPD2    H213495   3.636   2.355  12.219  0.7958 -0.9727  0.1235
  918MPD2    H313496   3.400   2.319  12.160 -0.2731  0.3699 -0.4548
  918MPD2     N13497   3.499   2.082  11.788 -0.2039 -0.2135 -0.0603
  918MPD2    H513498   3.575   2.051  11.729  0.2418  0.0611  0.3656
  918MPD2    N113499   3.841   2.246  12.101 -0.0066 -0.3962  0.4606
  918MPD2    H713500   3.853   2.288  12.192 -0.2107 -0.6440  0.6012
  919MPD2     C13501   4.265   1.165  12.045  0.2287 -0.1938  0.3760
  919MPD2    C113502   4.356   1.064  12.018  0.6775  0.5521 -0.3448
  919MPD2    C213503   4.443   1.076  11.909 -0.1329 -0.1946 -0.3548
  919MPD2    C313504   4.444   1.188  11.824 -0.1628 -0.1803  0.8036
  919MPD2    C413505   4.352   1.288  11.856 -0.1023 -0.2466  0.8095
  919MPD2    C513506   4.275   1.278  11.970 -0.3723 -0.1444  0.7743
  919MPD2     H13507   4.502   0.988  11.886 -0.3426 -0.7298  1.1703
  919MPD2    H113508   4.336   1.381  11.803 -0.5424 -1.7822 -1.7453
  919MPD2    H213509   4.200   1.170  12.132  1.5338 -1.4261  1.4257
  919MPD2    H313510   4.200   1.356  11.983  0.0665  0.6765 -1.5132
  919MPD2     N13511   4.540   1.213  11.722 -0.6456  0.1986  0.4767
  919MPD2    H513512   4.532   1.303  11.677  2.1857 -0.1111 -0.6678
  919MPD2    N113513   4.355   0.947  12.093  0.7151  0.1607  0.1167
  919MPD2    H713514   4.420   0.878  12.058 -0.5343 -0.5605 -0.7517
  920MPD2     C13515   4.253   1.446  10.943  0.3064 -0.1704  0.2204
  920MPD2    C113516   4.220   1.360  11.043  0.2583  0.0178 -0.6392
  920MPD2    C213517   4.311   1.350  11.147 -0.0522  0.2633  0.8977
  920MPD2    C313518   4.434   1.412  11.150  0.3020  0.0680 -0.7048
  920MPD2    C413519   4.467   1.496  11.051 -0.2158  0.4531  0.3570
  920MPD2    C513520   4.379   1.506  10.949 -0.2862 -0.3376 -0.4376
  920MPD2     H13521   4.298   1.269  11.218  0.5775  0.1159  0.8463
  920MPD2    H113522   4.560   1.550  11.045  0.3527 -1.0788 -4.3933
  920MPD2    H213523   4.192   1.449  10.853 -1.8461  0.6881  1.6841
  920MPD2    H313524   4.414   1.561  10.862  1.0201 -0.0155  0.2877
  920MPD2     N13525   4.522   1.377  11.261 -0.3566  0.6736 -0.4728
  920MPD2    H513526   4.478   1.330  11.340 -0.6763  1.8060  0.0111
  920MPD2    N113527   4.103   1.281  11.040  0.1525  0.4754  0.0866
  920MPD2    H713528   4.101   1.213  11.115  1.4172  2.6845  2.1370
  921MPD2     C13529   0.814   4.274  16.880  0.0245  0.8322 -0.9626
  921MPD2    C113530   0.772   4.392  16.812  0.0696  0.1177 -0.0459
  921MPD2    C213531   0.633   4.416  16.809 -0.4480 -0.1319 -0.0959
  921MPD2    C313532   0.544   4.327  16.868 -0.3867  0.1559  0.8409
  921MPD2    C413533   0.595   4.228  16.949  0.0273 -0.5660  0.1448
  921MPD2    C513534   0.727   4.186  16.943  0.1920 -0.2064  0.5666
  921MPD2     H13535   0.587   4.503  16.763 -2.7581 -2.2411 -1.8143
  921MPD2    H113536   0.529   4.163  17.006 -0.1213 -0.7745 -0.2679
  921MPD2    H213537   0.915   4.235  16.878  0.0539  0.9063 -0.9371
  921MPD2    H313538   0.760   4.091  16.983 -0.1083 -1.1793 -1.4863
  921MPD2     N13539   0.402   4.331  16.857  0.2611 -0.1740  0.0292
  921MPD2    H513540   0.349   4.249  16.886 -0.6599  0.7565  0.9470
  921MPD2    N113541   0.874   4.458  16.732 -0.4611 -0.7011  0.2449
  921MPD2    H713542   0.966   4.414  16.738 -0.0614 -0.0213 -0.8176
  922MPD2     C13543   1.638   2.848  17.274  0.3166  0.5714  0.5415
  922MPD2    C113544   1.544   2.917  17.353  0.1047 -0.1537  0.3757
  922MPD2    C213545   1.439   2.848  17.408 -0.0268  0.1697  0.1701
  922MPD2    C313546   1.441   2.709  17.398  0.1402  0.1529  0.4181
  922MPD2    C413547   1.519   2.642  17.317 -0.0774 -0.4895 -0.1548
  922MPD2    C513548   1.622   2.713  17.257  0.5271 -0.3472  0.2944
  922MPD2     H13549   1.376   2.892  17.484 -2.8440 -3.3709 -0.1148
  922MPD2    H113550   1.520   2.534  17.320 -0.8699 -0.4967 -0.3284
  922MPD2    H213551   1.717   2.897  17.218 -0.6452  0.3265 -1.0252
  922MPD2    H313552   1.692   2.659  17.194  0.2524 -0.4394  0.0722
  922MPD2     N13553   1.355   2.640  17.485 -0.1910  0.2901  0.6613
  922MPD2    H513554   1.312   2.696  17.558  0.2946  3.4967 -1.4760
  922MPD2    N113555   1.550   3.053  17.386  0.0758 -0.2995 -0.1774
  922MPD2    H713556   1.490   3.094  17.456 -1.5664 -0.7059 -1.3440
  923MPD2     C13557   2.345   4.518   9.129 -0.7202 -0.5170  0.4738
  923MPD2    C113558   2.327   4.607   9.231  0.9299  0.5925  0.5317
  923MPD2    C213559   2.437   4.675   9.284  0.1669 -0.7656  0.8107
  923MPD2    C313560   2.563   4.641   9.244  1.1096  0.6595 -0.4094
  923MPD2    C413561   2.580   4.539   9.155  0.7282  0.7392  0.4996
  923MPD2    C513562   2.477   4.490   9.089 -0.9800 -0.1947 -0.9629
  923MPD2     H13563   2.422   0.013   9.361  0.6223 -2.2658  2.3736
  923MPD2    H113564   2.681   4.515   9.122 -0.5142 -2.4639 -0.9553
  923MPD2    H213565   2.264   4.470   9.076  1.3127 -2.9767 -0.4576
  923MPD2    H313566   2.488   4.413   9.014  0.8410 -0.5431 -0.3400
  923MPD2     N13567   2.680   4.694   9.301  0.2757  0.4351 -0.3322
  923MPD2    H513568   2.766   4.648   9.273 -0.4313 -0.4731 -1.0018
  923MPD2    N113569   2.193   4.633   9.265  0.6144  0.1260  0.3986
  923MPD2    H713570   2.125   4.583   9.208 -0.9667 -0.2878  2.6455
  924MPD2     C13571   2.970   2.674  16.046  0.3192  0.3003 -0.0370
  924MPD2    C113572   2.912   2.728  16.157  0.0700  0.3832 -0.1551
  924MPD2    C213573   2.963   2.845  16.207 -0.6342 -0.0346  0.6339
  924MPD2    C313574   3.088   2.895  16.165  0.1747  0.2915  0.2495
  924MPD2    C413575   3.149   2.827  16.060 -0.1915  0.3569 -0.1398
  924MPD2    C513576   3.092   2.723  16.000  1.2979 -0.1340 -0.1036
  924MPD2     H13577   2.902   2.901  16.278  0.3523  0.2192  1.2858
  924MPD2    H113578   3.250   2.848  16.028  0.7374 -2.1165  1.1585
  924MPD2    H213579   2.949   2.585  15.989  1.5805 -0.1108  0.1344
  924MPD2    H313580   3.149   2.673  15.923  0.6906 -1.4747  0.3290
  924MPD2     N13581   3.159   3.011  16.216 -0.2905  0.0840  0.2255
  924MPD2    H513582   3.238   3.049  16.166 -0.7222 -0.7945 -1.1233
  924MPD2    N113583   2.790   2.667  16.208 -0.7419 -0.4379  0.6748
  924MPD2    H713584   2.741   2.608  16.142  2.9256 -0.5500 -1.9226
  925MPD2     C13585   1.623   0.575  14.862 -0.3764  0.0147 -0.3788
  925MPD2    C113586   1.489   0.611  14.856  0.1788 -0.0621 -0.0035
  925MPD2    C213587   1.423   0.630  14.972  0.4588 -1.1142 -1.1191
  925MPD2    C313588   1.486   0.625  15.095  0.4358 -0.8029  0.2961
  925MPD2    C413589   1.624   0.614  15.096  0.9358  0.6817  0.2148
  925MPD2    C513590   1.693   0.585  14.978 -0.1490 -0.4191  0.2127
  925MPD2     H13591   1.315   0.632  14.974  0.5141 -0.1303  0.7869
  925MPD2    H113592   1.676   0.620  15.191 -1.0802  0.6681  1.3281
  925MPD2    H213593   1.676   0.536  14.776  0.0727  0.5595 -0.3472
  925MPD2    H313594   1.799   0.562  14.973 -0.3674 -1.1733 -1.1887
  925MPD2     N13595   1.422   0.642  15.219  0.6704 -0.3076 -0.2062
  925MPD2    H513596   1.487   0.625  15.295 -0.6462 -0.0977  0.9727
  925MPD2    N113597   1.419   0.603  14.732  0.1480  0.3418  0.4316
  925MPD2    H713598   1.318   0.609  14.739  0.1656  0.1103  0.9046
  926MPD2     C13599   0.146   3.896  13.517 -0.8714  0.0091  0.8431
  926MPD2    C113600   0.058   3.986  13.457 -0.1567 -0.1841 -0.1573
  926MPD2    C213601   0.107   4.083  13.374 -0.9910  0.4558 -0.0137
  926MPD2    C313602   0.247   4.087  13.339 -0.0201  0.9815  0.2745
  926MPD2    C413603   0.330   3.998  13.398 -0.5736  0.5957 -0.3913
  926MPD2    C513604   0.276   3.902  13.471 -1.1700  0.2467  0.1928
  926MPD2     H13605   0.036   4.151  13.329 -1.2580 -1.3916 -2.3665
  926MPD2    H113606   0.436   3.994  13.376 -0.8831  0.7743 -1.9177
  926MPD2    H213607   0.108   3.810  13.571  0.0692 -0.2142  1.1525
  926MPD2    H313608   0.345   3.835  13.522 -0.2648  1.1539  0.1514
  926MPD2     N13609   0.295   4.192  13.258 -0.1718  0.9245 -0.3225
  926MPD2    H513610   0.393   4.183  13.234 -0.5383  1.6527 -2.0593
  926MPD2    N113611   4.656   3.985  13.470  0.5127 -0.8253 -0.3883
  926MPD2    H713612   4.599   4.054  13.422  2.0705  1.7041  1.4265
  927MPD2     C13613   0.755   1.368  17.705 -0.5497  0.0619 -0.4897
  927MPD2    C113614   0.617   1.389  17.722  0.6488 -0.1829  0.1025
  927MPD2    C213615   0.549   1.445  17.610 -0.0593  0.8024  0.7667
  927MPD2    C313616   0.622   1.479  17.493 -0.0065  0.2052  0.8345
  927MPD2    C413617   0.756   1.465  17.483 -0.5615  0.3604 -1.0701
  927MPD2    C513618   0.820   1.421  17.592  0.7227 -0.0185  0.0987
  927MPD2     H13619   0.442   1.463  17.611 -0.3545 -1.0156  1.1714
  927MPD2    H113620   0.809   1.477  17.390 -1.9249  0.8334 -1.7874
  927MPD2    H213621   0.814   1.316   0.031 -1.2665  1.1554  0.8458
  927MPD2    H313622   0.927   1.406  17.588  0.4751 -1.0863 -2.5130
  927MPD2     N13623   0.550   1.523  17.378 -0.0882  0.2212  0.3034
  927MPD2    H513624   0.450   1.514  17.394 -0.1941 -1.4112 -1.3632
  927MPD2    N113625   0.557   1.352   0.100  0.3234  0.5170 -0.8319
  927MPD2    H713626   0.633   1.317   0.157 -1.0634 -0.9860  0.0865
  928MPD2     C13627   2.077   4.240   0.546 -0.2019 -0.7489  0.0491
  928MPD2    C113628   2.179   4.318   0.606  0.4090  0.1097 -0.1824
  928MPD2    C213629   2.300   4.336   0.543  0.5332 -1.0873  1.0401
  928MPD2    C313630   2.321   4.284   0.413  0.2001 -0.6800  0.8026
  928MPD2    C413631   2.228   4.203   0.361  0.3262  0.0999  0.3805
  928MPD2    C513632   2.101   4.191   0.424 -0.3245 -0.5809 -0.7994
  928MPD2     H13633   2.386   4.387   0.585  0.2241 -0.2243  0.6187
  928MPD2    H113634   2.234   4.152   0.265  0.4883 -0.7444  0.8405
  928MPD2    H213635   1.985   4.215   0.598 -0.1139 -1.1933 -0.0079
  928MPD2    H313636   2.024   4.129   0.378 -1.4356  0.6512 -0.5995
  928MPD2     N13637   2.437   4.301   0.338  0.8212 -0.0259  0.3512
  928MPD2    H513638   2.445   4.253   0.248  1.5954 -2.2781  1.6188
  928MPD2    N113639   2.156   4.362   0.744  0.3998  0.0991  0.1747
  928MPD2    H713640   2.079   4.328   0.799  0.7645 -1.2638 -0.1537
  929MPD2     C13641   2.785   0.291  10.058  0.0390  0.5147 -0.1106
  929MPD2    C113642   2.663   0.232  10.059  0.1693 -0.5830  0.3484
  929MPD2    C213643   2.549   0.308  10.040 -0.3428 -0.2283  0.7584
  929MPD2    C313644   2.556   0.446  10.025 -0.2800  0.2444 -0.1065
  929MPD2    C413645   2.677   0.509  10.021  0.1355  0.2292  1.6668
  929MPD2    C513646   2.794   0.428  10.032 -0.2093 -0.0146 -0.7231
  929MPD2     H13647   2.458   0.249  10.052  0.2486 -1.2366  0.2715
  929MPD2    H113648   2.693   0.615  10.008  0.3824 -0.0723 -0.4947
  929MPD2    H213649   2.878   0.239  10.083 -0.2990 -0.2741 -0.4973
  929MPD2    H313650   2.885   0.486  10.026 -0.0004 -0.0689  2.0658
  929MPD2     N13651   2.437   0.530  10.021 -0.7029 -0.0017  0.0663
  929MPD2    H513652   2.438   0.628  10.047  0.5354 -0.1893  0.6753
  929MPD2    N113653   2.645   0.098  10.091 -0.3017  0.1581 -0.1656
  929MPD2    H713654   2.550   0.064  10.100 -0.2745  0.4735  1.2914
  930MPD2     C13655   4.388   1.420  14.430 -0.2565  0.3673  0.4658
  930MPD2    C113656   4.486   1.506  14.386 -0.4369  0.2424 -0.5621
  930MPD2    C213657   4.489   1.544  14.256  0.1799 -0.4189 -0.7547
  930MPD2    C313658   4.405   1.493  14.161 -0.3068 -0.0762  0.6290
  930MPD2    C413659   4.312   1.404  14.200 -0.0016  0.7342 -0.3259
  930MPD2    C513660   4.305   1.366  14.334  0.6050  1.1861  0.0700
  930MPD2     H13661   4.561   1.618  14.221 -0.2711  0.9427  1.1941
  930MPD2    H113662   4.251   1.354  14.126 -0.9109  0.8923  0.3114
  930MPD2    H213663   4.387   1.380  14.531  1.0647  0.3901  0.4959
  930MPD2    H313664   4.227   1.303  14.372  0.4142  0.8819 -0.8187
  930MPD2     N13665   4.420   1.519  14.025  0.0044  0.2736 -0.5048
  930MPD2    H513666   4.361   1.468  13.960 -0.7817  0.3234  0.1727
  930MPD2    N113667   4.580   1.557  14.477  0.3558  0.4052 -0.7434
  930MPD2    H713668   4.645   1.628  14.447  2.9906 -1.7991 -0.2974
  931MPD2     C13669   0.861   0.884   0.407  0.3792 -0.1927  0.2909
  931MPD2    C113670   0.741   0.906   0.487 -0.3632  0.4247 -0.2950
  931MPD2    C213671   0.708   0.811   0.581  0.2217 -0.0403 -0.1140
  931MPD2    C313672   0.781   0.696   0.586 -0.2244  0.8966 -0.4342
  931MPD2    C413673   0.887   0.666   0.506  0.1050 -0.1162  0.4494
  931MPD2    C513674   0.925   0.765   0.415  0.1009  0.1556 -0.2012
  931MPD2     H13675   0.613   0.810   0.632  0.1955  1.8127 -0.1234
  931MPD2    H113676   0.944   0.574   0.515 -1.4503 -1.0836  0.4411
  931MPD2    H213677   0.882   0.957   0.329  0.1777  1.7562  2.0359
  931MPD2    H313678   1.013   0.752   0.353  0.8633 -0.7289  1.0833
  931MPD2     N13679   0.749   0.588   0.677 -0.1884 -0.4306 -0.5625
  931MPD2    H513680   0.817   0.512   0.672 -2.4473 -2.4640 -0.4922
  931MPD2    N113681   0.660   1.023   0.460 -0.2443 -0.1562 -0.3189
  931MPD2    H713682   0.700   1.090   0.396 -1.1911  0.0828 -0.6603
  932MPD2     C13683   1.312   0.800  11.541 -0.2200 -0.6337  0.3581
  932MPD2    C113684   1.397   0.842  11.639  0.3252 -0.6567 -0.0667
  932MPD2    C213685   1.519   0.771  11.658 -0.2650 -0.7070  0.5054
  932MPD2    C313686   1.549   0.657  11.582  0.2728  0.2232  0.4847
  932MPD2    C413687   1.450   0.610  11.495  0.0483  1.4522  0.5793
  932MPD2    C513688   1.338   0.680  11.479 -0.5538 -0.2176 -0.8370
  932MPD2     H13689   1.587   0.814  11.731 -0.6898 -0.7344  0.9139
  932MPD2    H113690   1.467   0.518  11.440  2.0116  1.7269  0.7231
  932MPD2    H213691   1.214   0.843  11.524  0.4833  1.0593  0.6850
  932MPD2    H313692   1.261   0.643  11.413 -1.0718 -0.5855 -0.0366
  932MPD2     N13693   1.659   0.573  11.599 -0.4003  0.2217 -0.9544
  932MPD2    H513694   1.660   0.484  11.550 -0.6636  0.6494 -1.7362
  932MPD2    N113695   1.372   0.955  11.721 -0.1044  0.2010  0.5095
  932MPD2    H713696   1.440   0.976  11.793  1.8025 -0.0701 -1.2221
  933MPD2     C13697   1.635   4.277   1.134  0.0346  0.3820 -0.6158
  933MPD2    C113698   1.702   4.383   1.186  0.1310 -0.9709  0.4679
  933MPD2    C213699   1.635   4.463   1.286  0.1769 -0.6963  0.2092
  933MPD2    C313700   1.510   4.420   1.335 -0.9357  0.2897  0.8672
  933MPD2    C413701   1.444   4.308   1.279  0.1113  0.4548 -0.6153
  933MPD2    C513702   1.506   4.246   1.177  0.4917  0.3423 -0.1587
  933MPD2     H13703   1.688   4.541   1.339  1.0644 -0.8611 -0.4348
  933MPD2    H113704   1.349   4.268   1.314 -0.2509  0.5135 -1.5392
  933MPD2    H213705   1.682   4.208   1.065 -0.5753  1.1202 -1.7701
  933MPD2    H313706   1.473   4.160   1.120  0.0529  0.6899 -0.4324
  933MPD2     N13707   1.439   4.495   1.434 -0.4273  0.0677  0.0115
  933MPD2    H513708   1.359   4.446   1.474 -1.3984  1.2273 -0.4920
  933MPD2    N113709   1.838   4.396   1.153 -0.1748 -0.4616  0.3587
  933MPD2    H713710   1.885   4.345   1.079 -0.2239  2.3908 -1.6624
  934MPD2     C13711   3.695   2.262   1.943 -0.3458 -0.1625 -0.0266
  934MPD2    C113712   3.766   2.178   1.868 -0.4320 -0.0517  0.2643
  934MPD2    C213713   3.705   2.090   1.778 -0.1057  0.1195  0.1618
  934MPD2    C313714   3.568   2.092   1.768  0.2379 -0.3745  0.1473
  934MPD2    C413715   3.500   2.186   1.842 -0.2517 -0.7477  0.4164
  934MPD2    C513716   3.558   2.267   1.930  0.1510  0.0401 -0.6089
  934MPD2     H13717   3.763   2.035   1.705 -0.5650  0.5852 -0.5615
  934MPD2    H113718   3.392   2.182   1.852 -0.0936 -3.1713  1.1298
  934MPD2    H213719   3.737   2.342   2.003 -3.0937  0.4874  1.0479
  934MPD2    H313720   3.494   2.328   1.994 -1.9499 -2.0867 -0.7249
  934MPD2     N13721   3.489   2.019   1.671  0.2849  0.1694  0.0467
  934MPD2    H513722   3.391   2.042   1.663  0.1773 -0.6195 -0.8824
  934MPD2    N113723   3.909   2.176   1.876 -0.0775 -0.1315  0.0038
  934MPD2    H713724   3.957   2.114   1.812 -1.0702  1.0239 -1.8915
  935MPD2     C13725   3.644   1.369   0.933  0.0722 -0.4152  0.7047
  935MPD2    C113726   3.515   1.339   0.978  0.0066  0.1653  0.0768
  935MPD2    C213727   3.451   1.441   1.055 -0.2271  0.2876  0.1654
  935MPD2    C313728   3.518   1.547   1.100  0.4568 -0.0432  0.4787
  935MPD2    C413729   3.644   1.571   1.048  0.0106  0.6111  0.6945
  935MPD2    C513730   3.714   1.486   0.961  0.3632  0.2463  0.2477
  935MPD2     H13731   3.348   1.426   1.087 -0.0315 -1.0848  0.1596
  935MPD2    H113732   3.694   1.657   1.090  0.8253 -0.5106  2.0111
  935MPD2    H213733   3.694   1.307   0.859 -0.0807  0.3672 -0.0555
  935MPD2    H313734   3.814   1.506   0.925  0.1092 -0.4851 -0.8379
  935MPD2     N13735   3.468   1.637   1.196  0.2279 -0.6435  0.6786
  935MPD2    H513736   3.528   1.714   1.222 -1.6610  0.3897  1.9464
  935MPD2    N113737   3.442   1.229   0.936  0.0731  0.1298  0.3443
  935MPD2    H713738   3.342   1.225   0.955 -0.2708  0.5764 -1.4030
  936MPD2     C13739   1.465   3.232  12.281  0.0614  0.5550  0.2958
  936MPD2    C113740   1.514   3.198  12.405  0.0670  0.7592 -0.5317
  936MPD2    C213741   1.630   3.258  12.446  0.5290 -0.2176 -0.2128
  936MPD2    C313742   1.708   3.333  12.362  0.5807 -0.2657  0.4176
  936MPD2    C413743   1.659   3.366  12.239  0.3418 -0.2033 -0.0220
  936MPD2    C513744   1.536   3.317  12.202  0.5810 -0.3860 -0.1734
  936MPD2     H13745   1.655   3.253  12.551 -0.2603 -0.2295 -0.0215
  936MPD2    H113746   1.718   3.424  12.169  0.0291 -0.2420 -0.3170
  936MPD2    H213747   1.368   3.197  12.247  1.2973 -3.1301  0.5746
  936MPD2    H313748   1.493   3.344  12.105  0.4234  1.0381  0.2920
  936MPD2     N13749   1.829   3.398  12.410 -0.2842 -0.1800  0.2676
  936MPD2    H513750   1.873   3.470  12.354  2.1529 -2.8952 -1.3227
  936MPD2    N113751   1.438   3.126  12.498 -0.1926 -0.1321  0.3181
  936MPD2    H713752   1.482   3.122  12.589 -0.3289 -2.5392  0.2668
  937MPD2     C13753   4.560   0.326  11.870 -0.0724  0.0423  0.4334
  937MPD2    C113754   4.600   0.435  11.945  0.1913 -0.4714  0.5108
  937MPD2    C213755   4.719   0.495  11.910 -0.2625  0.2609  0.6436
  937MPD2    C313756   0.069   0.458  11.808 -0.5016 -0.0113  0.2188
  937MPD2    C413757   0.041   0.334  11.755  0.1640 -0.5907  0.5105
  937MPD2    C513758   4.655   0.281  11.780  0.1363  0.2019 -0.4152
  937MPD2     H13759   0.004   0.592  11.952 -0.3774  1.1808 -1.4172
  937MPD2    H113760   0.101   0.296  11.673  0.2274  0.5590  0.0280
  937MPD2    H213761   4.471   0.266  11.883 -2.0055  2.8059 -0.0602
  937MPD2    H313762   4.630   0.196  11.718  0.0818 -0.7654  0.9299
  937MPD2     N13763   0.186   0.531  11.780  0.0665  0.2929  0.1408
  937MPD2    H513764   0.208   0.611  11.838  1.6116 -1.0864  1.4716
  937MPD2    N113765   4.505   0.502  12.025 -0.3278 -0.3284  0.1832
  937MPD2    H713766   4.546   0.591  12.054 -3.4637  1.4323 -0.8401
  938MPD2     C13767   2.701   1.989   0.460 -0.0324 -0.0112  0.4340
  938MPD2    C113768   2.822   1.966   0.530  0.1126 -0.1771 -0.3272
  938MPD2    C213769   2.857   1.843   0.584 -0.8567 -0.5486 -0.4465
  938MPD2    C313770   2.768   1.738   0.560  0.2879 -0.3953 -0.4997
  938MPD2    C413771   2.654   1.754   0.486 -0.4574 -0.4612 -0.4485
  938MPD2    C513772   2.625   1.878   0.438  0.3165  0.0538 -0.1813
  938MPD2     H13773   2.950   1.833   0.639 -0.6191  1.3419 -0.5249
  938MPD2    H113774   2.576   1.687   0.451 -0.0896  0.1607 -2.4534
  938MPD2    H213775   2.671   2.087   0.426  0.3162 -0.3977 -1.0053
  938MPD2    H313776   2.539   1.889   0.373 -0.4553 -1.1036  0.6519
  938MPD2     N13777   2.784   1.604   0.601 -0.0635 -0.2846 -0.3567
  938MPD2    H513778   2.701   1.545   0.596 -0.3938  0.0646  0.8699
  938MPD2    N113779   2.889   2.081   0.570 -0.6735 -0.5034 -0.2013
  938MPD2    H713780   2.956   2.071   0.645  0.0623  2.4615 -0.4798
  939MPD2     C13781   3.815   2.510   0.752 -0.3393 -0.1136 -0.4147
  939MPD2    C113782   3.752   2.625   0.730 -0.1243  0.5580 -0.2124
  939MPD2    C213783   3.736   2.683   0.601 -0.3462 -0.5783  0.3133
  939MPD2    C313784   3.772   2.611   0.493  0.5818  0.2625  0.2629
  939MPD2    C413785   3.828   2.485   0.517  0.0006  0.7501  0.3569
  939MPD2    C513786   3.848   2.438   0.640 -0.0284 -0.2228  0.1045
  939MPD2     H13787   3.665   2.763   0.584  0.2748  0.0685  0.7488
  939MPD2    H113788   3.850   2.423   0.431 -0.5066  1.3705 -0.2214
  939MPD2    H213789   3.829   2.451   0.842  0.9462  0.0447 -0.5059
  939MPD2    H313790   3.903   2.345   0.636  0.4284  0.1467 -2.4985
  939MPD2     N13791   3.734   2.654   0.359 -0.5930 -0.8420  0.7342
  939MPD2    H513792   3.712   2.753   0.354 -0.3646 -0.8831 -1.1074
  939MPD2    N113793   3.718   2.692   0.844  0.4597 -0.3863  0.0897
  939MPD2    H713794   3.735   2.648   0.934 -0.2251 -1.4367 -0.2954
  940MPD2     C13795   2.294   3.411  13.811 -0.2700  0.4167  0.0179
  940MPD2    C113796   2.235   3.521  13.735 -0.1667  0.1001  1.4118
  940MPD2    C213797   2.292   3.570  13.622 -0.4098  0.4595  0.1863
  940MPD2    C313798   2.395   3.504  13.566  0.2760 -0.2411  0.3911
  940MPD2    C413799   2.443   3.387  13.627  0.4771  0.2901 -0.5303
  940MPD2    C513800   2.398   3.341  13.749 -0.1839 -0.5969  0.0900
  940MPD2     H13801   2.247   3.656  13.574  2.3084  1.9442  0.2749
  940MPD2    H113802   2.520   3.327  13.580 -0.0363 -1.8278  1.3262
  940MPD2    H213803   2.258   3.373  13.906 -0.6185  0.7612  0.0239
  940MPD2    H313804   2.444   3.263  13.809 -0.1818 -1.5249 -1.1124
  940MPD2     N13805   2.477   3.537  13.459  0.6078 -0.1843  0.3737
  940MPD2    H513806   2.575   3.513  13.465  1.3079  1.8572 -2.7381
  940MPD2    N113807   2.120   3.596  13.776  0.4230 -0.7076  0.0001
  940MPD2    H713808   2.093   3.672  13.714  0.0265  0.2650  1.3810
  941MPD2     C13809   1.607   3.532   9.819 -0.3894 -0.3465 -0.0121
  941MPD2    C113810   1.679   3.453   9.903  0.1935  0.5594  0.0120
  941MPD2    C213811   1.607   3.352   9.966  0.6435 -0.4618 -0.4932
  941MPD2    C313812   1.471   3.324   9.945  0.0280  0.6870  0.0408
  941MPD2    C413813   1.402   3.416   9.873  0.4625  0.0925  0.2614
  941MPD2    C513814   1.473   3.521   9.812  0.1199  0.8555 -0.2254
  941MPD2     H13815   1.670   3.277  10.013  0.3427 -0.5701 -0.2642
  941MPD2    H113816   1.296   3.399   9.855 -0.0273  1.8842  1.4264
  941MPD2    H213817   1.649   3.616   9.764 -2.0068 -0.3632 -1.2676
  941MPD2    H313818   1.424   3.582   9.737  2.3210  1.5837 -1.0728
  941MPD2     N13819   1.400   3.211   9.987 -0.1478 -0.2964 -0.4571
  941MPD2    H513820   1.302   3.210   9.959 -0.1397  0.6099 -0.5272
  941MPD2    N113821   1.820   3.437   9.904 -0.2972 -0.0672 -0.3638
  941MPD2    H713822   1.863   3.364   9.960 -1.2768 -0.7558 -0.5212
  942MPD2     C13823   1.153   4.428  10.128  0.2815 -0.0409  0.1576
  942MPD2    C113824   1.207   4.552  10.148  0.3325  0.0264 -0.8423
  942MPD2    C213825   1.347   4.560  10.120  0.7261 -0.0510  0.3647
  942MPD2    C313826   1.420   4.452  10.070  0.7411  0.3960 -0.2236
  942MPD2    C413827   1.362   4.329  10.049  0.0069  0.5933 -0.1895
  942MPD2    C513828   1.226   4.316  10.083  0.3696  0.0246  0.5898
  942MPD2     H13829   1.395   4.652  10.152  2.2987 -1.0533  0.8856
  942MPD2    H113830   1.419   4.242  10.018  1.6634  1.8821 -0.7734
  942MPD2    H213831   1.048   4.412  10.149  0.0092  2.1550  0.4659
  942MPD2    H313832   1.176   4.224  10.056 -0.4487  0.9140 -0.9584
  942MPD2     N13833   1.559   4.467  10.054 -0.2185  0.0252 -0.2733
  942MPD2    H513834   1.608   4.390  10.010  1.1709 -0.5272  2.2080
  942MPD2    N113835   1.137   4.669  10.183 -0.0164 -0.0320  0.2982
  942MPD2    H713836   1.190   0.018  10.176  2.0481 -1.3139  0.1118
  943MPD2     C13837   0.104   3.668  10.446  0.3204 -0.0383 -0.3046
  943MPD2    C113838   0.136   3.548  10.381  0.4582 -0.8893  0.3644
  943MPD2    C213839   0.134   3.434  10.457  0.9987  0.2553 -0.4235
  943MPD2    C313840   0.100   3.422  10.586 -0.5093  0.8830 -0.8332
  943MPD2    C413841   0.063   3.543  10.645  0.5352 -0.2478 -0.1510
  943MPD2    C513842   0.065   3.661  10.579  0.0098  0.9617 -0.0518
  943MPD2     H13843   0.145   3.338  10.407 -2.0012 -0.7879  0.8561
  943MPD2    H113844   0.048   3.550  10.752  1.3492 -1.3872  0.0417
  943MPD2    H213845   0.107   3.764  10.396  0.7048 -0.5524 -1.2558
  943MPD2    H313846   0.060   3.751  10.640 -0.4040  0.2349  0.9981
  943MPD2     N13847   0.085   3.302  10.662  0.6136  0.2776 -0.4169
  943MPD2    H513848   0.044   3.306  10.754 -0.7073 -0.2504 -0.9889
  943MPD2    N113849   0.187   3.554  10.245  0.0368 -0.0478  0.1782
  943MPD2    H713850   0.199   3.643  10.198 -2.7978  0.4693  0.4507
  944MPD2     C13851   0.286   2.872  10.897  0.0934  0.0274 -0.1471
  944MPD2    C113852   0.223   2.763  10.953  0.3734 -0.8244 -0.6784
  944MPD2    C213853   0.153   2.781  11.073 -0.0056 -0.4731  0.6971
  944MPD2    C313854   0.137   2.907  11.133  1.0403 -0.0571 -0.1432
  944MPD2    C413855   0.188   3.013  11.063 -0.2726  0.0130  0.0517
  944MPD2    C513856   0.261   2.998  10.948 -0.5325 -0.5030 -0.1394
  944MPD2     H13857   0.103   2.697  11.120  0.6977 -1.5600 -0.4914
  944MPD2    H113858   0.193   3.116  11.097 -0.2371 -0.1084  0.4082
  944MPD2    H213859   0.352   2.860  10.812  2.4305 -1.2904  1.8578
  944MPD2    H313860   0.306   3.089  10.909  0.1288 -0.6432  0.2960
  944MPD2     N13861   0.077   2.910  11.258  0.1486  0.1594  0.2404
  944MPD2    H513862   0.057   2.821  11.302  2.5276  0.1763  1.4008
  944MPD2    N113863   0.246   2.638  10.893  0.0368 -0.1004 -0.1224
  944MPD2    H713864   0.305   2.644  10.811  1.6322 -0.5595  1.0091
    1TMC1    C113865   3.727   2.750  14.809  0.2476 -0.1611 -0.2137
    1TMC1    C213866   3.804   2.686  14.900  0.3188 -0.1669 -0.0529
    1TMC1    C313867   3.797   2.550  14.896  0.3990 -0.8761  0.0508
    1TMC1    C413868   3.668   2.680  14.710 -0.4409 -0.4899  0.3466
    1TMC1    C513869   3.689   2.549  14.693 -0.7336 -0.1702 -0.5890
    1TMC1    C613870   3.751   2.477  14.790 -0.4860  0.3863  1.1596
    1TMC1     C13871   3.728   2.899  14.806  0.0530  0.5261 -0.4807
    1TMC1     O13872   3.829   2.948  14.853 -0.2168  0.0781  0.0425
    1TMC1     H13873   3.861   2.739  14.975 -2.6452  1.0637  1.3568
    1TMC1    H113874   3.633   2.727  14.618 -2.8706 -1.6180  0.7082
    1TMC1    H213875   3.769   2.370  14.789  0.2099  0.5154 -0.8505
    1TMC1    C713876   3.639   2.470  14.579 -0.1099 -0.1823 -0.1882
    1TMC1    C813877   3.864   2.480  14.999 -0.0667  0.2573 -0.6034
    1TMC1    O113878   3.678   2.357  14.558 -0.4475 -0.1223  0.5407
    1TMC1    O213879   3.908   2.546  15.092 -0.1683 -0.3186  0.3241
    1TMC1    O313880   3.521   2.520  14.549  0.7839  0.6911 -0.6078
    1TMC1    H313881   3.491   2.605  14.587  0.5972  0.4249 -0.1518
    1TMC1    O513882   3.880   2.347  14.983  0.0118  0.0373 -0.2748
    1TMC1    H513883   3.816   2.302  14.924  0.2627 -0.3992 -0.2182
    2MPD2     C13884   3.616   3.375  14.695 -0.3388  0.2905 -0.9669
    2MPD2    C113885   3.550   3.294  14.600 -0.4357  0.4867  0.0888
    2MPD2    C213886   3.569   3.156  14.604  0.5107  0.3817  0.2760
    2MPD2    C313887   3.633   3.102  14.715  0.1619 -0.1986 -0.3014
    2MPD2    C413888   3.687   3.177  14.817 -0.0687  0.4278  0.2749
    2MPD2    C513889   3.687   3.313  14.795 -0.4387 -1.1906 -0.1746
    2MPD2     H13890   3.534   3.084  14.531  0.5966  1.0233 -0.3925
    2MPD2    H113891   3.733   3.139  14.907  1.8144  0.6624 -0.5933
    2MPD2    H213892   3.624   3.483  14.689  3.5562 -0.0645 -2.0160
    2MPD2    H313893   3.733   3.376  14.870 -2.2631  0.7508 -0.7046
    2MPD2     N13894   3.636   2.961  14.721  0.0934  0.2353  0.2087
    2MPD2    H513895   3.568   2.911  14.666 -1.1253  2.3447 -0.2119
    2MPD2    N113896   3.475   3.359  14.497 -0.1919 -0.1938  0.9760
    2MPD2    H713897   3.467   3.460  14.510  2.5234  0.1413 -0.0379
    3TMC2    C113898   3.382   3.389  14.284  0.1163 -0.5066  0.3406
    3TMC2    C213899   3.392   3.345  14.155  0.3217 -0.2678 -0.2145
    3TMC2    C313900   3.354   3.422  14.053 -1.5518  0.1437  0.1808
    3TMC2    C413901   3.344   3.523  14.309 -0.5473 -0.4838 -0.3309
    3TMC2    C513902   3.309   3.604  14.201 -0.0485 -0.0904  0.2967
    3TMC2    C613903   3.311   3.551  14.074 -0.0923  0.3355 -0.0621
    3TMC2     C13904   3.423   3.296  14.385  0.2488 -0.7409  0.3371
    3TMC2     O13905   3.447   3.184  14.344 -0.2262  0.5275 -0.3037
    3TMC2     H13906   3.430   3.249  14.124 -0.0077  0.2230 -2.1208
    3TMC2    H113907   3.334   3.555  14.412 -0.4532 -0.8970 -0.1921
    3TMC2    H213908   3.271   3.608  13.991 -0.9935 -0.4231 -0.1610
    3TMC2    C713909   3.265   3.744  14.224 -0.0413 -0.5061  0.3539
    3TMC2    C813910   3.388   3.373  13.914 -0.9319 -0.5341  0.6549
    3TMC2    O113911   3.252   3.791  14.334 -0.2055 -0.6026  0.1731
    3TMC2    O213912   3.303   3.326  13.840  0.4499 -0.3762 -0.7536
    3TMC2    O513913   3.470   3.479  13.879 -0.0481  0.5192  0.0551
    3TMC2    H513914   3.535   3.507  13.947 -2.4044  1.1403  2.0632
    4TMC2    C113915   2.990   4.146  13.397  0.0114 -0.0701 -0.0247
    4TMC2    C213916   3.087   4.154  13.302 -0.6481 -0.6478 -0.1107
    4TMC2    C313917   3.220   4.163  13.339 -0.4140  0.6930  0.6043
    4TMC2    C413918   3.019   4.136  13.530  0.4132 -0.4528  0.3750
    4TMC2    C513919   3.152   4.139  13.560  0.2513 -0.3166  0.0673
    4TMC2    C613920   3.253   4.153  13.468 -0.3148 -0.3345  0.1956
    4TMC2     C13921   2.855   4.108  13.356  0.1745  0.2530  0.0723
    4TMC2     O13922   2.774   4.077  13.444 -0.6143 -0.0711 -0.5562
    4TMC2     H13923   3.052   4.164  13.200  1.1918  1.0445 -0.5656
    4TMC2    H113924   2.939   4.115  13.601 -0.4950  1.2920 -0.1199
    4TMC2    H213925   3.356   4.172  13.496 -0.1251  1.4792 -1.7148
    4TMC2    C713926   3.198   4.100  13.692  0.2924  0.6663 -0.3931
    4TMC2    C813927   3.328   4.214  13.256  0.2954  0.5468  0.3895
    4TMC2    O113928   3.309   4.046  13.694 -0.0859  0.2088  0.5995
    4TMC2    O213929   3.427   4.280  13.292 -0.1218 -0.4217  0.8760
    4TMC2    O513930   3.289   4.189  13.129 -0.4667  0.4119  0.1046
    4TMC2    H513931   3.214   4.128  13.115 -0.7649  0.2877  2.1683
    5MPD2     C13932   2.517   3.969  13.001 -0.1485  0.2745 -0.1140
    5MPD2    C113933   2.639   4.001  12.943 -0.2767  1.0166 -0.5848
    5MPD2    C213934   2.744   4.039  13.019 -0.1523  0.0823  0.2205
    5MPD2    C313935   2.726   4.059  13.152 -0.2019  0.1926  0.2752
    5MPD2    C413936   2.597   4.043  13.210  0.1423  0.2912 -0.4815
    5MPD2    C513937   2.495   3.994  13.136  0.0395 -0.2073  0.1442
    5MPD2     H13938   2.845   4.043  12.980 -0.8154  1.2869 -1.3649
    5MPD2    H113939   2.580   4.046  13.317  0.6431  2.5767 -0.4631
    5MPD2    H213940   2.438   3.919  12.947  0.7512 -1.5490  0.2412
    5MPD2    H313941   2.407   3.967  13.194  0.5547 -1.3581  0.3981
    5MPD2     N13942   2.840   4.091  13.224 -0.9959 -0.1187  0.2478
    5MPD2    H513943   2.927   4.094  13.171 -0.6627 -1.6365  0.7174
    5MPD2    N113944   2.649   3.975  12.804 -0.1419 -0.1865  0.8047
    5MPD2    H713945   2.562   3.941  12.764  0.3370  1.5408 -1.7366
    6MPD1     C13946   1.784   0.759  12.570 -0.0636  0.8256  0.2589
    6MPD1    C113947   1.730   0.663  12.646  0.1405 -0.6667 -0.0254
    6MPD1    C213948   1.779   0.530  12.641  0.0883 -0.4183 -0.3421
    6MPD1    C313949   1.882   0.497  12.558  0.8986  0.6155  0.3462
    6MPD1    C413950   1.940   0.602  12.482 -0.3316  0.4430 -0.4458
    6MPD1    C513951   1.886   0.726  12.486 -0.4489 -0.6650 -0.5845
    6MPD1     H13952   1.721   0.452  12.689  0.1906 -0.0746  0.3414
    6MPD1    H113953   2.026   0.589  12.417  1.2778  0.1880  1.7308
    6MPD1    H213954   1.750   0.862  12.571 -0.0422  0.8304  0.4240
    6MPD1    H313955   1.914   0.812  12.426 -0.6302 -1.3231 -1.6097
    6MPD1     N13956   1.931   0.369  12.538  0.7001 -0.2023  0.4906
    6MPD1    H513957   2.010   0.355  12.476  1.1709  0.0578  1.0317
    6MPD1    N113958   1.623   0.691  12.729 -0.3071 -0.2327  0.3450
    6MPD1    H613959   1.632   0.784  12.768  2.2357 -0.4277  0.2167
    6MPD1    H713960   1.607   0.624  12.804  0.4024 -1.5048 -0.6356
    7MPD2     C13961   2.029   4.222  12.698 -0.6829 -0.4033  0.5435
    7MPD2    C113962   2.098   4.295  12.606  0.1449  0.1796 -0.1736
    7MPD2    C213963   2.193   4.231  12.523  0.4468  0.9300  0.1850
    7MPD2    C313964   2.216   4.095  12.541  0.3203 -0.5029 -0.8678
    7MPD2    C413965   2.138   4.030  12.636  0.5125  0.2787  0.3333
    7MPD2    C513966   2.040   4.091  12.704  0.0264 -0.2298  0.1798
    7MPD2     H13967   2.246   4.285  12.446  2.1445 -0.6577  0.2419
    7MPD2    H113968   2.157   3.925  12.652 -1.0575 -0.2366 -1.1565
    7MPD2    H213969   1.955   4.272  12.760  0.0998  1.9175 -0.3971
    7MPD2    H313970   1.976   4.038  12.774  0.4033  0.6197  1.1823
    7MPD2     N13971   2.335   4.030  12.486  0.3586 -0.0168 -0.6818
    7MPD2    H513972   2.341   3.930  12.504 -1.8216 -0.2997 -1.6458
    7MPD2    N113973   2.090   4.440  12.597  0.0589  0.0495  0.0154
    7MPD2    H713974   2.151   4.489  12.532  3.0476 -1.9877  1.2916
    8TMC3    C113975   2.563   4.021  12.417  0.5245  0.3080  0.2807
    8TMC3    C213976   2.605   3.976  12.539  0.4673  0.5589 -0.2186
    8TMC3    C313977   2.729   4.013  12.583 -0.0412  0.3598  0.5189
    8TMC3    C413978   2.648   4.096  12.341  0.1389  0.2864 -1.4912
    8TMC3    C513979   2.767   4.143  12.395  0.1702 -0.6231 -0.1126
    8TMC3    C613980   2.812   4.093  12.514 -1.2875  0.3989  0.5113
    8TMC3     C13981   2.438   4.095  12.425 -0.2175  0.4708  0.4271
    8TMC3     O13982   2.451   4.214  12.387  0.0220 -0.2119  0.1553
    8TMC3     H13983   2.550   3.903  12.597  1.3469  0.4182  0.4532
    8TMC3    H113984   2.606   4.132  12.247  0.3056 -1.2020 -2.1396
    8TMC3    H213985   2.911   4.129  12.539 -0.3006 -2.3987  0.6187
    8TMC3    C713986   2.790   4.280  12.368  0.6295  0.2921 -0.2020
    8TMC3    C813987   2.759   4.022  12.729 -0.2527 -0.3933 -0.1886
    8TMC3    O113988   2.906   4.319  12.360 -0.2409  0.4132  0.0920
    8TMC3    O213989   2.873   4.065  12.756  0.3397 -0.0617  0.3685
    9TMC3    C113990   1.988   0.154  12.604 -0.8701  0.8416  0.3330
    9TMC3    C213991   2.120   0.176  12.565 -0.3811 -0.5794 -0.1568
    9TMC3    C313992   2.214   0.077  12.579  0.4130  0.0631  0.1691
    9TMC3    C413993   1.963   0.029  12.661 -0.2115  0.1594 -0.3098
    9TMC3    C513994   2.054   4.662  12.648 -0.4054 -0.3241 -0.4229
    9TMC3    C613995   2.184   4.686  12.620  0.3051  0.6573  0.4516
    9TMC3     C13996   1.893   0.254  12.610  0.0277  0.1572  1.0937
    9TMC3     O13997   1.809   0.238  12.698  0.3658 -0.9574 -0.7399
    9TMC3     H13998   2.147   0.277  12.539  0.8792 -0.7185  0.6544
    9TMC3    H113999   1.861   0.002  12.684  0.4235 -0.8112  1.3319
    9TMC3    H214000   2.256   4.620  12.666  0.2368  0.0885 -0.2500
    9TMC3    C714001   2.021   4.520  12.682 -1.0950 -0.6219  0.1650
    9TMC3    C814002   2.351   0.099  12.542  0.1806  0.3314  0.2496
    9TMC3    O114003   1.931   4.503  12.769  0.1900  0.4524  0.1968
    9TMC3    O214004   2.395   0.211  12.521  0.7055 -0.0037 -0.0427
   10MPD2     C14005   2.773   4.584  12.374 -0.0063  0.0715 -0.1766
   10MPD2    C114006   2.675   4.492  12.400 -0.1001  0.4132 -0.0450
   10MPD2    C214007   2.552   4.551  12.424  0.0423  0.8628  0.3757
   10MPD2    C314008   2.537   4.690  12.451 -0.2275 -0.2418  0.0675
   10MPD2    C414009   2.641   0.039  12.432 -0.7611  0.1527  0.3339
   10MPD2    C514010   2.754   4.719  12.390 -0.6420  0.6069 -0.1856
   10MPD2     H14011   2.463   4.491  12.436  1.3244 -0.9585  0.6882
   10MPD2    H114012   2.633   0.144  12.456 -0.3598  0.1842  0.3261
   10MPD2    H214013   2.873   4.556  12.343 -0.0981 -0.4459 -0.0156
   10MPD2    H314014   2.844   0.038  12.368  0.2393  0.1541  2.2831
   10MPD2     N14015   2.408   4.717  12.493  0.4105 -0.1044  0.0424
   10MPD2    H514016   2.345   4.637  12.484 -1.2164  1.2690 -0.8832
   10MPD2    N114017   2.680   4.348  12.389 -0.0965 -0.5902  0.3244
   10MPD2    H714018   2.598   4.292  12.410 -1.4785  1.7830  1.2883
   11MPD2     C14019   3.094   3.988  14.176 -0.1800 -0.3391 -1.0240
   11MPD2    C114020   3.185   3.928  14.088 -0.2250  0.2139 -0.4046
   11MPD2    C214021   3.194   3.981  13.965  0.0201 -0.2895 -0.3356
   11MPD2    C314022   3.122   4.091  13.930 -1.2211 -0.0584  0.2453
   11MPD2    C414023   3.042   4.151  14.020  0.4458 -0.0625 -0.1538
   11MPD2    C514024   3.026   4.101  14.144 -0.4267 -0.2553  0.9009
   11MPD2     H14025   3.249   3.926  13.890 -1.2678  1.2130 -2.3890
   11MPD2    H114026   2.982   4.237  13.992  0.3173 -0.4537 -1.0898
   11MPD2    H214027   3.076   3.943  14.273 -0.4614  1.0990 -0.4059
   11MPD2    H314028   2.963   4.151  14.216  1.0844  1.3070  1.1508
   11MPD2     N14029   3.113   4.139  13.796  0.3012 -0.0570 -0.0881
   11MPD2    H514030   3.036   4.202  13.775  0.0405 -0.7245 -1.1315
   11MPD2    N114031   3.261   3.813  14.111  0.0647  0.5180  0.2766
   11MPD2    H714032   3.314   3.780  14.031 -0.9685  2.6183 -1.2691
    1MPD1     C14033   0.866   0.133  16.743  0.0163  0.8844 -0.6251
    1MPD1    C114034   0.993   0.157  16.693 -0.0147  0.2001  0.8262
    1MPD1    C214035   1.012   0.206  16.573 -1.0433  0.2898  0.0187
    1MPD1    C314036   0.904   0.221  16.485  0.0411 -0.5312  0.1942
    1MPD1    C414037   0.780   0.189  16.531 -0.2870  0.5823  0.3875
    1MPD1    C514038   0.755   0.151  16.657  0.2343 -0.9339 -0.4161
    1MPD1     H14039   1.110   0.237  16.539 -0.8559 -0.5656 -0.2034
    1MPD1    H114040   0.695   0.184  16.463 -0.9315  2.3649  1.0642
    1MPD1    H214041   0.847   0.091  16.841  4.0340 -0.3137 -0.3816
    1MPD1    H314042   0.651   0.128  16.678 -0.4356  1.7021 -0.8279
    1MPD1     N14043   0.918   0.275  16.358 -0.1891 -0.1296  0.0968
    1MPD1    H514044   0.836   0.276  16.298  1.0079 -0.0024 -1.5665
    1MPD1    N114045   1.091   0.155  16.789  0.1067 -0.2807 -0.3086
    1MPD1    H614046   1.060   0.084  16.856  0.0844  1.1331  1.1874
    1MPD1    H714047   1.176   0.120  16.745  0.9610  2.2702 -0.6834
    2MPD1     C14048   1.558   0.818  15.760 -0.2023  0.1117 -1.0123
    2MPD1    C114049   1.579   0.683  15.788  0.4880 -0.7841  0.7412
    2MPD1    C214050   1.475   0.612  15.852  0.5090  0.2801  0.1486
    2MPD1    C314051   1.353   0.682  15.885  0.4787  0.9680 -0.2643
    2MPD1    C414052   1.340   0.815  15.861  0.0862 -0.0776  0.1176
    2MPD1    C514053   1.441   0.878  15.790 -0.1983 -0.5181 -0.2631
    2MPD1     H14054   1.491   0.508  15.881  0.6382  0.4035  0.5138
    2MPD1    H114055   1.252   0.873  15.887  0.1907  0.7046 -1.2526
    2MPD1    H214056   1.643   0.874  15.723 -0.0611  0.0081 -0.8499
    2MPD1    H314057   1.432   0.985  15.775 -1.2933 -0.4547  0.9043
    2MPD1     N14058   1.253   0.604  15.949  0.2514 -0.0387 -0.1213
    2MPD1    H514059   1.278   0.508  15.971 -1.6055 -1.2058 -3.1712
    2MPD1    N114060   1.694   0.618  15.738 -0.6776 -0.8068 -0.4239
    2MPD1    H614061   1.777   0.676  15.742  0.2136 -2.2649  2.0585
    2MPD1    H714062   1.712   0.536  15.794  1.0441  0.3151  0.6735
    3TMC3    C114063   1.049   0.532  15.999 -0.4123  0.1759  0.2843
    3TMC3    C214064   0.914   0.515  15.947 -0.2536  0.4576  0.5804
    3TMC3    C314065   0.839   0.417  16.003  0.1264  0.2068 -0.5323
    3TMC3    C414066   1.087   0.477  16.113  0.8958 -0.1361 -0.3676
    3TMC3    C514067   1.008   0.376  16.161  0.2611  0.3137 -0.4240
    3TMC3    C614068   0.890   0.347  16.104 -0.0784  0.9225 -1.1264
    3TMC3     C14069   1.124   0.645  15.961 -0.2972 -0.3965 -0.2243
    3TMC3     O14070   1.060   0.737  15.906  0.3179  0.0060 -0.6862
    3TMC3     H14071   0.879   0.570  15.860  0.9063  1.2376  0.6037
    3TMC3    H114072   1.184   0.493  16.158  0.1671  0.1309  1.1414
    3TMC3    H214073   0.829   0.264  16.139  1.0523 -0.7063 -3.0434
    3TMC3    C714074   1.031   0.319  16.295 -1.1787 -0.0751  0.6181
    3TMC3    C814075   0.716   0.369  15.937  0.4583  0.0367 -0.0890
    3TMC3    O114076   1.149   0.318  16.331 -0.3418 -0.2305 -0.2799
    3TMC3    O214077   0.645   0.291  15.997  0.8163 -0.1900 -0.3662
    4MPD1     C14078   0.432   0.292  15.505  0.6561  0.4686 -0.4653
    4MPD1    C114079   0.541   0.369  15.473  0.5482 -0.8657 -0.6205
    4MPD1    C214080   0.634   0.391  15.569 -0.0237 -0.3987 -0.7553
    4MPD1    C314081   0.614   0.356  15.707  0.2560  0.2661  0.5351
    4MPD1    C414082   0.499   0.283  15.735 -0.6907 -0.1611 -0.7522
    4MPD1    C514083   0.418   0.248  15.632 -0.1521  0.1364  0.4235
    4MPD1     H14084   0.727   0.439  15.541  0.2549  0.7411  2.1145
    4MPD1    H114085   0.480   0.252  15.837 -0.8302  0.8243 -0.4713
    4MPD1    H214086   0.373   0.252  15.424 -0.0088  0.8176 -0.1517
    4MPD1    H314087   0.337   0.179  15.650 -0.3370  0.1575 -0.3335
    4MPD1     N14088   0.712   0.396  15.802  0.2899  0.6742  0.4077
    4MPD1    H514089   0.793   0.444  15.764 -0.5095 -0.5190 -2.7761
    4MPD1    N114090   0.576   0.398  15.336 -0.4506 -0.0270 -0.0525
    4MPD1    H614091   0.627   0.485  15.325  1.5356 -1.4149 -1.8392
    4MPD1    H714092   0.494   0.403  15.276 -1.3261  1.2850  1.2505
    1TCq1    O114093   1.525   0.141  12.072 -0.4202  0.2235  0.3150
    1TCq1    C114094   1.523   0.024  12.007 -0.9830  0.4067  0.2078
    1TCq1    O214095   1.508   4.651  12.059  0.1360 -0.2639 -0.2545
    1TCq1    C214096   1.613   0.034  11.898  0.1398 -0.0244 -0.4450
    1TCq1    C314097   1.572   0.099  11.789  0.2259  0.2154  0.3086
    1TCq1    C414098   1.628   0.061  11.673 -0.3200 -0.0776  0.6043
    1TCq1    C514099   1.749   4.730  11.668 -0.3200 -0.0570 -0.9946
    1TCq1    C614100   1.794   4.677  11.783 -0.2702 -0.2174  0.2362
    1TCq1    C714101   1.720   4.689  11.893  0.3535  0.1336 -0.5235
    1TCq1    C814102   1.918   4.593  11.788 -0.5418  0.1575 -0.4714
    1TCq1    O414103   1.922   4.528  11.891  0.6691 -0.4467 -0.5243
    1TCq1    C914104   1.602   0.152  11.563  0.0512  0.3808  0.1794
    1TCq1    O514105   1.702   0.182  11.492  0.0483  0.3881  0.0692
    1TCq1    O614106   1.499   0.222  11.568  0.7884  0.5589  0.6127
    1TCq1    H114107   1.536   0.217  12.011 -2.2170  0.5865  0.4318
    1TCq1    H214108   1.482   0.158  11.797 -0.3345 -0.1457 -3.6180
    1TCq1    H314109   1.808   4.732  11.577  2.6650  1.2642  0.9598
    1TCq1    H414110   1.747   4.643  11.987 -1.7184  0.2680  0.1266
    2MPD1     C14111   2.398   4.491  11.678  0.4309  0.1926  0.4259
    2MPD1    C114112   2.355   4.560  11.576  0.3349 -0.6197  0.4234
    2MPD1    C214113   2.225   4.604  11.574  1.1309 -0.2542  0.2817
    2MPD1    C314114   2.143   4.568  11.682 -0.3308  0.4876  0.1828
    2MPD1    C414115   2.187   4.497  11.788  0.0893  0.2328 -0.4536
    2MPD1    C514116   2.315   4.464  11.783 -0.6003  0.3732 -0.6770
    2MPD1     H14117   2.189   4.673  11.499 -1.5974 -0.2178  1.6275
    2MPD1    H114118   2.132   4.480  11.880  1.6511  0.8298  0.5977
    2MPD1    H214119   2.499   4.456  11.691  0.7346  1.0536  0.4180
    2MPD1    H314120   2.356   4.412  11.868 -3.1628  0.2004  0.4626
    2MPD1     N14121   2.012   4.613  11.686  0.6768  0.4068 -0.2402
    2MPD1    H514122   1.975   4.656  11.602  1.2564  1.4456  0.0389
    2MPD1    N114123   2.442   4.608  11.480  0.5121 -0.2104 -0.1012
    2MPD1    H614124   2.400   4.611  11.387 -0.1659 -0.9498  0.1852
    2MPD1    H714125   2.526   4.550  11.472 -0.1362 -1.4391  2.1812
    1TMC1    C114126   1.900   4.714  16.772  0.3054 -0.4130  0.3989
    1TMC1    C214127   1.957   0.085  16.706 -0.3886 -0.1139  0.9200
    1TMC1    C314128   1.908   0.113  16.588  0.3899  0.2395  0.1916
    1TMC1    C414129   1.799   4.638  16.716 -0.6105  0.1992  0.0242
    1TMC1    C514130   1.760   4.671  16.586  0.2332 -0.2356 -0.2330
    1TMC1    C614131   1.815   0.037  16.521 -0.9853 -0.4386 -0.0201
    1TMC1     C14132   1.955   4.667  16.897  1.1762 -0.1337  0.1481
    1TMC1     O14133   2.002   0.023  16.962 -0.5598  0.1220  0.2080
    1TMC1     H14134   2.039   0.140  16.751 -1.3255  0.4365  1.9371
    1TMC1    H114135   1.746   4.567  16.778  0.0057 -0.8556 -0.6370
    1TMC1    H214136   1.782   0.068  16.423 -0.3621  1.5294  0.3783
    1TMC1    C714137   1.646   4.612  16.509  0.7804 -0.2610  0.2156
    1TMC1    C814138   1.950   0.229  16.511 -0.7969  0.3771 -0.4371
    1TMC1    O114139   1.613   4.644  16.394  0.1762 -0.5770  0.0833
    1TMC1    O214140   1.946   0.241  16.391  0.1131  0.0283 -0.1044
    1TMC1    O314141   1.580   4.533  16.596  0.2764  0.2101 -0.4240
    1TMC1    H314142   1.607   4.542  16.690  0.8697  0.6362 -0.6365
    1TMC1    O514143   1.995   0.321  16.594 -0.2249 -0.1481  0.5813
    1TMC1    H514144   1.953   0.309  16.682  2.1469 -2.2377  1.4317
    2MPD1     C14145   2.144   4.296  17.205  0.8733 -0.6320 -0.8012
    2MPD1    C114146   2.125   4.242  17.079  0.3586 -0.1028 -0.0379
    2MPD1    C214147   2.073   4.324  16.982 -0.0280 -0.0984  0.0650
    2MPD1    C314148   2.040   4.456  17.007  0.1336 -0.2270 -0.3645
    2MPD1    C414149   2.068   4.513  17.126 -0.0329  0.5297 -0.3801
    2MPD1    C514150   2.124   4.428  17.225  0.4798 -0.0904  0.1625
    2MPD1     H14151   2.058   4.287  16.881 -0.6885  0.5812 -0.0861
    2MPD1    H114152   2.056   4.618  17.146 -0.1126  0.3418  0.5484
    2MPD1    H214153   2.177   4.237  17.289  2.2570  1.8035  0.3435
    2MPD1    H314154   2.141   4.476  17.320  0.7580  0.0145  0.0606
    2MPD1     N14155   1.984   4.528  16.900 -0.3756  0.3872  0.6194
    2MPD1    H514156   1.974   4.462  16.824  5.8700  0.7604 -0.5491
    2MPD1    N114157   2.123   4.101  17.054  0.2766  0.7041  0.0018
    2MPD1    H614158   2.200   4.063  17.108  0.0055  1.1525  0.7136
    2MPD1    H714159   2.151   4.079  16.959  2.7089 -0.8537  1.0786
    1MPD1     C14160   3.835   4.433  12.200  0.0669  0.2359 -0.3940
    1MPD1    C114161   3.914   4.481  12.096 -0.6639 -0.3827 -0.2119
    1MPD1    C214162   3.871   4.587  12.023 -0.7750 -0.0862  0.4842
    1MPD1    C314163   3.743   4.640  12.048  0.0948 -0.0063 -0.2003
    1MPD1    C414164   3.660   4.575  12.138  0.3679 -0.0251  0.4002
    1MPD1    C514165   3.708   4.479  12.220 -0.1727 -0.0673 -0.0432
    1MPD1     H14166   3.940   4.643  11.962 -0.6545 -1.6450 -0.8248
    1MPD1    H114167   3.570   4.619  12.177  0.1039 -1.1418  1.0568
    1MPD1    H214168   3.867   4.358  12.271 -0.5755  0.3581  0.0322
    1MPD1    H314169   3.644   4.440  12.298 -2.0425  1.9815 -0.5692
    1MPD1     N14170   3.707   0.028  11.985 -0.2945  0.2059  0.1901
    1MPD1    H514171   3.770   0.067  11.916  0.4281  1.8907  1.7983
    1MPD1    N114172   4.053   4.452  12.098 -0.0291  0.4255 -0.1979
    1MPD1    H614173   4.066   4.359  12.140  0.8051  0.6112 -0.0384
    1MPD1    H714174   4.113   4.468  12.017  0.6118 -1.8969 -0.2142
    2MPD1     C14175   0.413   1.395  10.521 -0.4707  0.4359  0.0800
    2MPD1    C114176   0.330   1.386  10.411  0.0039 -0.1272 -0.0255
    2MPD1    C214177   0.200   1.355  10.439 -0.1426 -0.2699 -0.3509
    2MPD1    C314178   0.148   1.348  10.569  0.2572  0.2667 -0.8809
    2MPD1    C414179   0.232   1.379  10.673  0.4833 -0.1773  0.9073
    2MPD1    C514180   0.364   1.402  10.648  0.0957 -0.3441 -0.9745
    2MPD1     H14181   0.131   1.342  10.356 -1.2995 -0.8971  0.7051
    2MPD1    H114182   0.192   1.382  10.773  0.6154  1.9006  0.9013
    2MPD1    H214183   0.521   1.403  10.511 -0.1903 -0.9161  2.0703
    2MPD1    H314184   0.430   1.435  10.727 -2.4146 -0.1449  1.0495
    2MPD1     N14185   0.010   1.322  10.593  0.2270  0.7989  0.4498
    2MPD1    H514186   4.722   1.319  10.692 -2.1833 -2.0206 -0.2774
    2MPD1    N114187   0.386   1.362  10.285 -0.1643 -0.2180 -0.7579
    2MPD1    H614188   0.324   1.383  10.207 -0.3383  0.9284 -0.3101
    2MPD1    H714189   0.469   1.421  10.277  0.4712 -1.3285 -2.3143
    3MPD1     C14190   3.697   1.108  10.338  0.5748 -0.7616 -1.0253
    3MPD1    C114191   3.740   1.012  10.423  0.0849 -0.6958 -0.1237
    3MPD1    C214192   3.868   1.030  10.474  0.0765 -0.2927  0.4744
    3MPD1    C314193   3.945   1.143  10.448 -0.2883  0.1341  0.7865
    3MPD1    C414194   3.890   1.246  10.363  0.0004  0.2380 -0.0109
    3MPD1    C514195   3.769   1.221  10.299 -0.3693 -0.8140  0.1156
    3MPD1     H14196   3.921   0.952  10.527 -0.1885 -0.3051  0.7237
    3MPD1    H114197   3.940   1.342  10.361 -0.9678  0.7230 -0.6517
    3MPD1    H214198   3.602   1.086  10.291  0.0311 -0.7276  0.0606
    3MPD1    H314199   3.729   1.311  10.253  2.4376 -0.0898 -0.8994
    3MPD1     N14200   4.075   1.147  10.506 -0.7077 -0.2533 -0.2277
    3MPD1    H514201   4.090   1.076  10.576 -0.0539  0.7953  0.6943
    3MPD1    N114202   3.674   0.890  10.432 -0.5437 -0.5997 -0.2340
    3MPD1    H614203   3.574   0.910  10.432 -0.5440 -0.5907  0.5768
    3MPD1    H714204   3.688   0.844  10.521  1.5858  0.7379  0.1212
    4MPD2     C14205   3.465   0.611  11.473  0.1594  0.3183  0.2455
    4MPD2    C114206   3.524   0.642  11.596  0.2713 -1.1374  0.0171
    4MPD2    C214207   3.610   0.743  11.598  0.4027  0.4470 -0.4898
    4MPD2    C314208   3.649   0.815  11.483  0.1966 -0.3228  0.5356
    4MPD2    C414209   3.589   0.778  11.368  0.1617  0.0536 -0.1183
    4MPD2    C514210   3.504   0.681  11.364 -0.5834  0.0947 -0.4028
    4MPD2     H14211   3.659   0.757  11.693  0.4463 -1.7484 -0.1868
    4MPD2    H114212   3.619   0.820  11.273  1.7442  2.0887  1.2904
    4MPD2    H214213   3.392   0.531  11.468  0.5462 -0.1421  1.9884
    4MPD2    H314214   3.464   0.654  11.266 -0.2222 -0.3693 -0.4224
    4MPD2     N14215   3.746   0.918  11.485 -0.5421  0.1749 -0.6072
    4MPD2    H514216   3.768   0.951  11.392  1.2450 -0.3102 -0.3450
    4MPD2    N114217   3.508   0.569  11.712  0.3011 -0.1046  0.0998
    4MPD2    H714218   3.554   0.605  11.795  0.4091 -2.2602  0.9846
    5TMC3    C114219   3.453   0.413  11.884 -0.2973  0.1577  0.3430
    5TMC3    C214220   3.477   0.276  11.890 -0.8727  0.0902 -0.7645
    5TMC3    C314221   3.593   0.227  11.946 -0.5271  0.6830 -0.1614
    5TMC3    C414222   3.549   0.496  11.937  0.0108 -0.2377  0.0777
    5TMC3    C514223   3.664   0.444  11.980 -0.1031  0.0304  0.1924
    5TMC3    C614224   3.689   0.312  11.990 -0.1758  0.0174 -0.2350
    5TMC3     C14225   3.435   0.456  11.741 -0.2361 -0.0688  0.2408
    5TMC3     O14226   3.362   0.386  11.671 -0.7668 -0.1409 -0.5202
    5TMC3     H14227   3.411   0.206  11.840  0.2483 -1.2414 -0.3982
    5TMC3    H114228   3.532   0.601  11.957 -0.3223 -0.2263 -0.2738
    5TMC3    H214229   3.775   0.271  12.041  1.7018  1.9068 -1.8393
    5TMC3    C714230   3.775   0.535  11.954  1.5050  0.4112  0.1423
    5TMC3    C814231   3.590   0.093  12.006  0.3109 -0.3929 -0.0233
    5TMC3    O114232   3.746   0.653  11.954 -0.3531  0.2321  0.0356
    5TMC3    O214233   3.491   0.062  12.066 -0.0782  0.0117 -0.3653
    6TMC3    C114234   4.520   1.262  10.574  0.5802  0.0117  0.0894
    6TMC3    C214235   4.406   1.273  10.495 -0.7839  0.3984 -0.2951
    6TMC3    C314236   4.294   1.223  10.552 -0.0653 -0.5467 -0.2644
    6TMC3    C414237   4.535   1.186  10.688 -0.5310 -0.0748  0.1882
    6TMC3    C514238   4.413   1.135  10.732  0.0489 -1.1112  0.4195
    6TMC3    C614239   4.292   1.149  10.664 -0.5135 -0.4314 -0.2668
    6TMC3     C14240   4.643   1.299  10.505  0.0316 -0.5325  0.3734
    6TMC3     O14241   4.660   1.291  10.387 -0.4733 -1.0056 -0.2273
    6TMC3     H14242   4.413   1.340  10.411  3.3100 -2.0265 -1.8846
    6TMC3    H114243   4.624   1.173  10.747 -0.5995  1.8589  0.7359
    6TMC3    H214244   4.201   1.120  10.715 -2.0680  0.3194 -2.6083
    6TMC3    C714245   4.409   1.078  10.869 -0.3906 -0.4009 -0.3011
    6TMC3    C814246   4.174   1.233  10.470 -0.3939 -0.1778  0.1666
    6TMC3    O114247   4.295   1.030  10.897  0.1412  0.3577  0.3022
    6TMC3    O214248   4.178   1.307  10.367 -0.0204  0.4069 -0.2820
    7MPD2     C14249   4.241   0.594  11.764  0.0584  0.0965 -0.3268
    7MPD2    C114250   4.144   0.688  11.798  0.2715  0.2699  0.5316
    7MPD2    C214251   4.019   0.644  11.841  0.8638  0.1501 -0.5303
    7MPD2    C314252   4.001   0.511  11.857 -0.3622  0.5546  0.3334
    7MPD2    C414253   4.095   0.419  11.830 -0.2271  0.2609  0.1954
    7MPD2    C514254   4.216   0.461  11.782  0.6164  0.3101  0.2175
    7MPD2     H14255   3.938   0.714  11.859  1.4490  1.4709 -3.0620
    7MPD2    H114256   4.077   0.313  11.831 -0.2825  0.2988  2.2326
    7MPD2    H214257   4.340   0.626  11.732 -0.1585  0.9115 -0.1834
    7MPD2    H314258   4.290   0.383  11.764  0.6867  0.4990 -0.3066
    7MPD2     N14259   3.885   0.457  11.910 -0.2429  0.0479 -0.8995
    7MPD2    H514260   3.871   0.357  11.902 -0.0694 -0.2499  2.6224
    7MPD2    N114261   4.180   0.823  11.766 -0.2110 -0.8053 -0.6061
    7MPD2    H714262   4.264   0.834  11.711  0.7319  0.2286  1.0280
    8TMC3    C114263   4.105   1.038  11.725  0.0528  0.1743 -1.0192
    8TMC3    C214264   4.184   1.034  11.613 -0.3280  0.1699 -0.0302
    8TMC3    C314265   4.133   1.017  11.485  1.1145  0.0196 -0.8333
    8TMC3    C414266   3.976   1.059  11.706 -0.1527  0.3501 -0.4517
    8TMC3    C514267   3.920   1.032  11.581 -0.6018  0.0177  0.1463
    8TMC3    C614268   3.996   1.008  11.464 -0.3399 -0.3397 -0.1294
    8TMC3     C14269   4.112   0.930  11.821  0.3941  0.1884 -0.6779
    8TMC3     O14270   4.030   0.934  11.915 -0.5168 -0.2422 -0.6617
    8TMC3     H14271   4.291   1.031  11.630  0.2737 -0.3566 -3.8378
    8TMC3    H114272   3.917   1.079  11.795  0.1018  1.3920 -0.5151
    8TMC3    H214273   3.966   0.979  11.363 -0.8385  2.6852 -0.8388
    8TMC3    C714274   3.785   0.980  11.598  0.1393  0.6259  0.2546
    8TMC3    C814275   4.219   1.035  11.374  0.0379  0.2775  0.6650
    8TMC3    O114276   3.738   0.962  11.708 -0.4077 -0.0395 -0.1756
    8TMC3    O214277   4.162   1.052  11.266 -0.4189 -0.3939  0.2304
    9MPD2     C14278   4.576   0.960  11.342  0.2889  0.0438 -0.2333
    9MPD2    C114279   4.449   0.993  11.298 -0.1129  0.4400  0.0239
    9MPD2    C214280   4.429   1.027  11.162 -0.2603 -0.9519  0.2415
    9MPD2    C314281   4.532   1.014  11.077 -0.2159  0.8457 -0.2966
    9MPD2    C414282   4.653   0.967  11.120 -0.6851  0.3361 -0.3564
    9MPD2    C514283   4.675   0.939  11.253  0.5338  0.5276  0.1947
    9MPD2     H14284   4.336   1.067  11.124 -0.7029 -3.6898 -1.5968
    9MPD2    H114285   0.000   0.960  11.053  0.2466 -0.1261  0.8731
    9MPD2    H214286   4.597   0.944  11.447 -0.9369  1.2678  0.1869
    9MPD2    H314287   0.040   0.921  11.285  0.4175 -0.4203  0.0368
    9MPD2     N14288   4.526   1.067  10.945  0.4852 -0.1545  0.1092
    9MPD2    H514289   4.615   1.093  10.904 -1.3678  1.5969 -2.7519
    9MPD2    N114290   4.350   1.000  11.398 -0.4273  0.6837 -0.1026
    9MPD2    H714291   4.374   0.964  11.490  0.8765  1.3114 -0.1930
    1MPD1     C14292   2.543   3.503  16.247  0.1478  0.3600 -0.9000
    1MPD1    C114293   2.596   3.541  16.371  0.1755 -0.6294 -0.0919
    1MPD1    C214294   2.631   3.673  16.391  0.2866  0.1820  0.1477
    1MPD1    C314295   2.662   3.750  16.280 -0.3432  0.1263 -0.0106
    1MPD1    C414296   2.619   3.712  16.153 -0.0823  0.4694 -0.0986
    1MPD1    C514297   2.557   3.586  16.142  0.2445 -0.0587  0.4298
    1MPD1     H14298   2.664   3.714  16.486  0.1215  0.1833  0.2034
    1MPD1    H114299   2.633   3.764  16.059 -2.4540 -0.4646 -0.9661
    1MPD1    H214300   2.512   3.402  16.224 -2.0918  0.7024  0.5837
    1MPD1    H314301   2.518   3.563  16.043  0.1839 -0.0283  0.4468
    1MPD1     N14302   2.734   3.869  16.287  0.3192  0.5729  0.4068
    1MPD1    H514303   2.756   3.911  16.197  0.9971 -0.1057  0.2595
    1MPD1    N114304   2.573   3.459  16.480  0.0128 -0.2301 -0.2187
    1MPD1    H614305   2.657   3.469  16.537  0.1677  1.7278 -0.7975
    1MPD1    H714306   2.572   3.361  16.453  1.2691 -0.0944 -0.7433
    2TMC2    C114307   3.026   4.152  16.269  0.0018  0.7381  0.1114
    2TMC2    C214308   2.975   4.277  16.281 -0.9203 -0.3903  0.3163
    2TMC2    C314309   2.866   4.292  16.356  0.1900  0.0385 -0.3909
    2TMC2    C414310   2.956   4.042  16.292  0.9004  0.5388 -1.0043
    2TMC2    C514311   2.841   4.057  16.372  0.4522 -0.9658  0.7370
    2TMC2    C614312   2.799   4.184  16.407 -0.0245 -0.2657  0.3685
    2TMC2     C14313   3.149   4.137  16.207 -0.1747 -0.7211 -0.2128
    2TMC2     O14314   3.207   4.031  16.230  0.1114  0.0724  0.0415
    2TMC2     H14315   3.037   4.362  16.255 -1.9578  0.2370 -0.1017
    2TMC2    H114316   3.010   3.948  16.294 -0.6786 -0.3336  1.5205
    2TMC2    H214317   2.704   4.198  16.457 -0.5581 -0.7616 -0.5168
    2TMC2    C714318   2.766   3.938  16.404  0.2059  0.6323  0.3067
    2TMC2    C814319   2.810   4.422  16.376 -0.0605 -0.1002 -0.1555
    2TMC2    O114320   2.712   3.930  16.514 -0.4781 -0.3023  0.0978
    2TMC2    O214321   2.731   4.444  16.465  0.2042 -0.1642 -0.1848
    2TMC2    O514322   2.861   4.510  16.293  0.1938  0.0916 -0.1127
    2TMC2    H514323   2.918   4.470  16.224 -0.8452 -0.3782 -0.6969
    3MPD1     C14324   3.497   4.262  15.843  0.1842  0.2066 -0.0494
    3MPD1    C114325   3.381   4.337  15.824  0.1709  0.1913  0.5993
    3MPD1    C214326   3.283   4.327  15.920 -0.1902  0.3165  0.5343
    3MPD1    C314327   3.278   4.222  16.015 -0.2595 -0.6896  0.1646
    3MPD1    C414328   3.390   4.135  16.013 -0.3333  0.2511 -0.9977
    3MPD1    C514329   3.500   4.163  15.930 -0.2861  0.1013  0.4586
    3MPD1     H14330   3.191   4.383  15.914 -0.6181 -0.4657 -0.1365
    3MPD1    H114331   3.386   4.057  16.088  1.5683  1.0367 -0.0751
    3MPD1    H214332   3.591   4.275  15.792  0.5340 -0.6836  0.3535
    3MPD1    H314333   3.591   4.104  15.937 -1.5268 -1.8557 -0.1944
    3MPD1     N14334   3.164   4.220  16.101  1.2848  0.3821 -0.0366
    3MPD1    H514335   3.085   4.281  16.086  1.5725  0.4168 -1.4393
    3MPD1    N114336   3.371   4.449  15.742 -0.4930  0.2044  0.3303
    3MPD1    H614337   3.406   4.428  15.650 -0.5756 -0.4572  0.4488
    3MPD1    H714338   3.275   4.484  15.733 -0.7643 -1.2457 -2.2160
    1TMC1    C114339   0.776   2.894  13.213  0.1593  0.3633  0.0971
    1TMC1    C214340   0.810   3.014  13.265  0.3858 -0.5824 -0.2399
    1TMC1    C314341   0.710   3.079  13.334  0.1212  0.0302  0.2148
    1TMC1    C414342   0.654   2.836  13.225 -0.9498  0.2742  0.4239
    1TMC1    C514343   0.563   2.917  13.277  0.3766 -0.2199 -0.0021
    1TMC1    C614344   0.580   3.038  13.332  0.4735 -0.3817 -0.1916
    1TMC1     C14345   0.871   2.821  13.135 -0.1809  0.2936  0.2526
    1TMC1     O14346   0.842   2.727  13.065  0.7099  0.2795 -0.7625
    1TMC1     H14347   0.906   3.063  13.250  0.4323 -0.4979  0.3331
    1TMC1    H114348   0.637   2.744  13.171 -0.5447  2.1230 -2.8217
    1TMC1    H214349   0.493   3.079  13.382  0.6872  0.0373 -0.1661
    1TMC1    C714350   0.430   2.862  13.288  0.2615  0.1498 -0.1595
    1TMC1    C814351   0.734   3.188  13.426 -0.5272 -0.5450 -0.3176
    1TMC1    O114352   0.326   2.927  13.298 -0.0429  0.1136 -0.5517
    1TMC1    O214353   0.647   3.270  13.462 -0.1230 -0.3715 -0.2041
    1TMC1    O314354   0.437   2.725  13.296  0.1437  0.1140 -0.6259
    1TMC1    H314355   0.528   2.687  13.295 -0.4073 -1.1814 -1.3151
    1TMC1    O514356   0.845   3.169  13.497  0.3559 -0.3114 -0.5616
    1TMC1    H514357   0.917   3.113  13.460 -0.2765  0.2865 -2.6776
    2MPD2     C14358   1.119   2.765  12.963  0.1216 -0.4801  0.5802
    2MPD2    C114359   1.118   2.839  13.077  0.2596 -0.3828 -0.0882
    2MPD2    C214360   1.236   2.893  13.128 -0.0834  0.4026 -0.3380
    2MPD2    C314361   1.353   2.870  13.067  0.1866  0.2896  0.0927
    2MPD2    C414362   1.349   2.801  12.940  0.2548 -0.1044  0.2774
    2MPD2    C514363   1.236   2.750  12.893 -0.5381  0.0375  0.3556
    2MPD2     H14364   1.235   2.938  13.226  2.1893  0.7915 -0.4946
    2MPD2    H114365   1.431   2.788  12.871 -0.3397 -4.5829  0.4215
    2MPD2    H214366   1.030   2.719  12.922 -2.0116  2.2205  2.1648
    2MPD2    H314367   1.232   2.691  12.802  0.4886 -1.1503  1.0707
    2MPD2     N14368   1.468   2.924  13.122 -0.3613 -0.0400 -0.3399
    2MPD2    H514369   1.473   2.944  13.222  1.6037  3.4118 -1.1165
    2MPD2    N114370   1.000   2.868  13.151  0.5492 -0.1185  0.0750
    2MPD2    H714371   1.015   2.930  13.230 -2.1609 -1.7500  1.9031
    3TCq1    O114372   1.960   3.240  12.985  0.3847 -0.3980  0.0206
    3TCq1    C114373   2.027   3.149  13.059  0.6555 -0.7520  0.2391
    3TCq1    O214374   2.130   3.175  13.120 -0.3009  0.5330 -0.4312
    3TCq1    C214375   1.927   3.069  13.131 -0.7404 -0.5678  0.4349
    3TCq1    C314376   1.918   3.112  13.258  0.1771 -0.2372  0.4277
    3TCq1    C414377   1.801   3.089  13.329  0.3985 -0.1016  0.1500
    3TCq1    C514378   1.696   3.022  13.266 -0.1269  0.4780 -0.1847
    3TCq1    C614379   1.706   2.989  13.135  0.8566 -0.1923 -0.2954
    3TCq1    C714380   1.820   3.009  13.063 -0.0201  1.2324 -0.2634
    3TCq1    C814381   1.590   2.930  13.063  0.0827 -0.5238  0.0141
    3TCq1    O414382   1.618   2.918  12.943 -0.0900 -0.2565  0.1890
    3TCq1    C914383   1.789   3.112  13.474  0.1653  0.2270 -0.1692
    3TCq1    O514384   1.892   3.103  13.547 -0.3200  0.2839  0.3337
    3TCq1    O614385   1.675   3.090  13.523  0.0322 -0.2393 -0.2059
    3TCq1    H114386   1.885   3.210  12.929  0.3813  0.7371 -0.5902
    3TCq1    H214387   2.006   3.154  13.305  0.5367  0.0214 -0.4834
    3TCq1    H314388   1.609   2.992  13.323  0.3484 -0.8220 -0.1588
    3TCq1    H414389   1.828   2.987  12.957 -0.1556  3.2698 -0.7006
    1MPD2     C14390   1.092   3.646  15.174  0.9301 -0.3280 -0.8639
    1MPD2    C114391   0.957   3.652  15.216 -0.2787 -0.4293  0.6723
    1MPD2    C214392   0.909   3.564  15.310  0.7911 -0.7731  0.0922
    1MPD2    C314393   0.996   3.480  15.372 -0.3679 -0.7820 -0.4495
    1MPD2    C414394   1.129   3.477  15.335  0.0586  0.6952  0.6423
    1MPD2    C514395   1.175   3.561  15.235 -0.1685  0.5155  0.4067
    1MPD2     H14396   0.810   3.566  15.353  1.7404  1.4375  2.2369
    1MPD2    H114397   1.196   3.407  15.384 -1.2157 -0.5326  0.6162
    1MPD2    H214398   1.124   3.721  15.102  1.8076  0.7174  0.6157
    1MPD2    H314399   1.282   3.558  15.217 -0.1261 -0.5670  0.8134
    1MPD2     N14400   0.936   3.396  15.465  0.5805  0.3450 -0.1180
    1MPD2    H514401   0.835   3.399  15.481  0.6336 -0.9953  0.4489
    1MPD2    N114402   0.870   3.751  15.160  0.2359 -0.1237 -0.2015
    1MPD2    H714403   0.903   3.809  15.083  1.5658  0.4208  0.7957
    2TMC3    C114404   0.676   3.890  15.122 -0.1578  0.0306 -0.3112
    2TMC3    C214405   0.583   3.937  15.208  0.1790  0.1371 -0.3726
    2TMC3    C314406   0.451   3.945  15.171 -0.4907 -0.1204 -0.2457
    2TMC3    C414407   0.645   3.875  14.991  0.3233 -0.1912  0.0200
    2TMC3    C514408   0.521   3.906  14.952 -0.3520 -0.2600 -0.5577
    2TMC3    C614409   0.418   3.921  15.039  0.4607 -0.7536  0.1593
    2TMC3     C14410   0.735   3.773  15.187 -0.1751  0.4070 -0.8874
    2TMC3     O14411   0.651   3.698  15.235  0.2079  0.4382  0.3634
    2TMC3     H14412   0.607   3.950  15.313  0.6980  0.8623 -0.5837
    2TMC3    H114413   0.726   3.863  14.920  4.0448  0.3744  4.2254
    2TMC3    H214414   0.315   3.943  15.012  0.5204 -1.9058 -1.0194
    2TMC3    C714415   0.507   3.994  14.838  0.2489 -0.6136  0.7277
    2TMC3    C814416   0.365   3.890  15.277  0.3182 -0.0703  0.2146
    2TMC3    O114417   0.398   4.004  14.786 -0.1275 -0.0410 -0.1488
    2TMC3    O214418   0.247   3.909  15.280 -0.0832 -0.0569  0.1959
    3TCq1    O114419   1.203   0.188  14.638  0.2275  0.6855 -0.3097
    3TCq1    C114420   1.293   0.097  14.666 -0.0288  0.0787  0.7137
    3TCq1    O214421   1.413   0.113  14.669 -0.4824  0.0182 -0.4597
    3TCq1    C214422   1.222   4.711  14.709  0.7452 -0.3295 -0.2773
    3TCq1    C314423   1.277   4.644  14.814  0.0203  1.0428 -0.4962
    3TCq1    C414424   1.237   4.510  14.825  0.6043 -0.0471  0.0984
    3TCq1    C514425   1.158   4.460  14.731 -0.2503  0.4360  0.8262
    3TCq1    C614426   1.103   4.532  14.635 -0.0287  0.0861 -0.2256
    3TCq1    C714427   1.131   4.663  14.618 -0.3808 -0.6664  0.3358
    3TCq1    C814428   0.976   4.487  14.576 -0.1005  0.0509 -0.5627
    3TCq1    O414429   0.934   4.539  14.473 -0.4758  0.4290  0.0622
    3TCq1    C914430   1.300   4.427  14.923 -0.1013 -0.8891  0.0559
    3TCq1    O514431   1.290   4.303  14.916 -0.3808  0.2868  0.0703
    3TCq1    O614432   1.362   4.485  15.019  0.5850  0.2470  0.4322
    3TCq1    H114433   1.113   0.160  14.666  0.2699  1.2699  0.4095
    3TCq1    H214434   1.352   4.687  14.880 -0.3808  1.7404 -0.4925
    3TCq1    H314435   1.138   4.354  14.740  2.1284  0.0671  1.7516
    3TCq1    H414436   1.093   4.726  14.539 -1.5405  0.1289  1.5166
    4MPD2     C14437   0.732   4.301  14.496  0.0594  0.6500  0.5524
    4MPD2    C114438   0.802   4.307  14.613  0.3140 -0.2257 -0.3192
    4MPD2    C214439   0.764   4.226  14.712 -0.4113  0.4071 -1.0814
    4MPD2    C314440   0.656   4.143  14.706  0.2836  0.2227 -0.7851
    4MPD2    C414441   0.584   4.146  14.589 -0.0932 -0.4881  0.2873
    4MPD2    C514442   0.623   4.220  14.484  0.2347 -0.3704 -0.0961
    4MPD2     H14443   0.817   4.227  14.807 -1.6280 -0.9147 -0.3934
    4MPD2    H114444   0.491   4.090  14.585 -0.4435  0.0551  0.8445
    4MPD2    H214445   0.757   4.359  14.407 -3.3567  0.0679 -0.7971
    4MPD2    H314446   0.549   4.226  14.405  0.6213 -0.2133 -0.4457
    4MPD2     N14447   0.625   4.066  14.816  0.1891 -0.3656 -0.0214
    4MPD2    H514448   0.690   4.068  14.894 -1.9508 -0.6021  1.7400
    4MPD2    N114449   0.919   4.386  14.641  0.6569  0.6779 -0.7648
    4MPD2    H714450   0.965   4.355  14.726  1.5456  0.5244 -1.3000
    5TMC2    C114451   0.683   3.304  15.671  0.4355  0.0833 -0.4034
    5TMC2    C214452   0.705   3.337  15.804  0.1260  0.0170 -0.2366
    5TMC2    C314453   0.837   3.319  15.847  0.6773  0.1348  0.2897
    5TMC2    C414454   0.784   3.253  15.598 -0.1668 -0.1863  0.4971
    5TMC2    C514455   0.909   3.251  15.636 -0.9431 -0.1248 -0.5243
    5TMC2    C614456   0.935   3.282  15.762  0.5563 -0.8396 -0.5545
    5TMC2     C14457   0.615   3.407  15.603 -0.7602 -0.1171 -0.5555
    5TMC2     O14458   0.663   3.429  15.490 -0.0400  0.2608 -0.7409
    5TMC2     H14459   0.627   3.363  15.874 -0.4215  1.5936 -1.4332
    5TMC2    H114460   0.768   3.233  15.492 -0.4895 -0.1584  0.5407
    5TMC2    H214461   1.040   3.272  15.787  0.4137  0.0800  0.4236
    5TMC2    C714462   1.004   3.314  15.548 -0.6287  0.2251 -0.0509
    5TMC2    C814463   0.870   3.364  15.976 -0.6680  0.0314  0.0500
    5TMC2    O114464   1.120   3.291  15.568  0.4188  0.0967  0.1926
    5TMC2    O214465   0.796   3.431  16.048  0.1317 -0.0271 -0.2990
    5TMC2    O514466   0.956   3.272  16.033  0.5300  0.5841 -0.1001
    5TMC2    H514467   0.996   3.210  15.969  0.1654  0.3333 -0.0867
    6MPD2     C14468   0.286   3.790  15.544  0.3365 -1.1220 -0.3749
    6MPD2    C114469   0.384   3.734  15.464  0.1234 -1.1138 -0.5739
    6MPD2    C214470   0.468   3.633  15.511  0.1877  0.1617 -0.4684
    6MPD2    C314471   0.445   3.575  15.629  0.4057  0.1750 -0.3863
    6MPD2    C414472   0.352   3.632  15.716  0.0951  0.0195 -0.1893
    6MPD2    C514473   0.277   3.741  15.678  0.1640 -0.3089  0.3357
    6MPD2     H14474   0.550   3.602  15.448  2.0585 -0.3956  2.2332
    6MPD2    H114475   0.346   3.598  15.819 -2.5743 -2.5134 -1.1563
    6MPD2    H214476   0.217   3.871  15.526  0.3450 -1.0918 -0.2740
    6MPD2    H314477   0.204   3.789  15.743  1.6353  1.4758  0.6487
    6MPD2     N14478   0.529   3.476  15.678  0.2607  0.3203 -0.3895
    6MPD2    H514479   0.506   3.433  15.767 -1.7718  0.1260 -0.9984
    6MPD2    N114480   0.437   3.804  15.354  1.0294  0.0380  0.2760
    6MPD2    H714481   0.523   3.765  15.319  0.6298 -0.4270 -0.1803
  945NH3     N114482   0.426   2.012   8.594 -0.6155  0.4955  0.3868
  945NH3     H214483   0.412   1.911   8.596  0.0323  0.4172  0.8161
  945NH3     H314484   0.526   2.021   8.587 -0.4258 -0.3207  1.9801
  945NH3     H414485   0.403   2.044   8.687 -0.7361  0.6393  0.3067
  946SOD     NA14486   2.849   0.036  16.366  0.0835 -0.3614  0.2109
  947SOD     NA14487   3.726   1.885  13.597  0.2087 -0.2623  0.8968
  948SOD     NA14488   1.507   4.293  12.776  0.1461  0.4440 -0.2807
  949SOD     NA14489   2.037   2.647   3.432  0.5901  0.2179  0.0422
  950SOD     NA14490   0.853   3.083   9.672 -0.6351  0.0344  0.0072
  951SOD     NA14491   2.282   0.418  11.135 -0.1299 -0.6617 -0.1127
  952SOD     NA14492   1.742   3.076  13.720 -0.0432 -0.5266 -0.3659
  953SOD     NA14493   1.631   1.360  17.241  0.3537 -0.7041  0.0433
  954SOL     OW14494   0.968   0.141  15.013 -0.1611  0.2884 -0.9938
  954SOL    HW114495   1.043   0.200  15.022  0.1059 -0.1617 -0.2121
  954SOL    HW214496   0.971   0.094  15.096 -2.5027 -0.2074 -1.2121
  955SOL     OW14497   3.635   1.422   3.912 -0.2672 -0.1884  0.3452
  955SOL    HW114498   3.669   1.421   3.823  3.4786  0.5712  1.7894
  955SOL    HW214499   3.556   1.470   3.886  1.1786  1.9996  0.0249
  956SOL     OW14500   0.451   2.138   3.948  0.2279 -0.0694  0.0297
  956SOL    HW114501   0.467   2.176   4.034  0.9330  2.1557 -1.0993
  956SOL    HW214502   0.362   2.170   3.931  0.2099 -0.4715 -0.6289
  957SOL     OW14503   2.073   0.554  10.466 -0.3507 -0.0063  0.0009
  957SOL    HW114504   2.015   0.528  10.395  0.6333 -1.0993 -0.3962
  957SOL    HW214505   2.069   0.470  10.512 -2.6442  0.3612  0.4665
  958SOL     OW14506   2.597   0.739   7.563 -0.3996 -0.6827 -0.6898
  958SOL    HW114507   2.579   0.724   7.470 -1.0383 -1.7012 -0.4034
  958SOL    HW214508   2.678   0.689   7.579  0.0194  0.7335  1.6171
  959SOL     OW14509   2.233   3.415   2.989 -0.5247 -0.3872 -0.6579
  959SOL    HW114510   2.220   3.419   2.894 -0.6308  1.1963 -0.5899
  959SOL    HW214511   2.298   3.486   2.990  0.0448 -0.8492 -4.0085
  960SOL     OW14512   4.015   0.646  15.367 -0.4810 -0.4776 -0.1472
  960SOL    HW114513   3.957   0.576  15.397  1.0562 -1.3911  0.6885
  960SOL    HW214514   4.096   0.607  15.400 -0.5384 -2.6154 -2.4747
  961SOL     OW14515   2.349   1.264   8.399 -0.1660 -0.5434 -0.1935
  961SOL    HW114516   2.354   1.172   8.425  1.1741 -0.7208 -1.0949
  961SOL    HW214517   2.261   1.261   8.360 -0.2597 -0.3795  0.0054
  962SOL     OW14518   4.372   2.177   8.012 -0.2063 -0.4928 -0.8281
  962SOL    HW114519   4.360   2.082   8.002  1.9000 -0.7348 -1.0112
  962SOL    HW214520   4.454   2.187   8.060 -0.2649 -1.9478 -0.4382
  963SOL     OW14521   1.668   3.893   1.273  0.3178 -0.1560  0.2461
  963SOL    HW114522   1.709   3.949   1.339 -0.7068  1.6469 -0.6820
  963SOL    HW214523   1.586   3.941   1.274 -1.2610 -2.9173  2.9213
  964SOL     OW14524   2.194   3.724   4.797 -0.3179 -0.1303 -1.0031
  964SOL    HW114525   2.184   3.686   4.709 -0.4175  1.8550 -1.8508
  964SOL    HW214526   2.167   3.653   4.855  2.2580 -0.3642 -0.0928
  965SOL     OW14527   1.674   0.546   8.091  0.0751  0.0544 -0.2163
  965SOL    HW114528   1.670   0.642   8.098 -1.2312 -0.1775  2.2438
  965SOL    HW214529   1.627   0.526   8.010  0.0484 -2.2038  0.3717
  966SOL     OW14530   1.886   3.849   1.733  0.0985 -0.1364 -0.3395
  966SOL    HW114531   1.979   3.874   1.733 -0.2978  1.3850 -3.0966
  966SOL    HW214532   1.848   3.934   1.752 -2.0049 -1.3980  1.0551
  967SOL     OW14533   1.160   1.316   2.725 -0.1474  0.3423 -0.1045
  967SOL    HW114534   1.174   1.223   2.709  5.0688  1.3325 -1.1878
  967SOL    HW214535   1.113   1.339   2.644 -1.9334  0.4316  0.9491
  968SOL     OW14536   1.715   1.013  13.899  0.1689 -0.3431 -0.9366
  968SOL    HW114537   1.704   1.062  13.817  0.0900  1.6254  0.2344
  968SOL    HW214538   1.635   0.961  13.896 -1.2893  1.8049  0.4537
  969SOL     OW14539   1.329   0.466   0.224 -0.1417 -0.3277  0.1182
  969SOL    HW114540   1.379   0.388   0.200 -1.4742 -1.5009  1.1704
  969SOL    HW214541   1.387   0.506   0.289 -1.0885 -0.6921  1.1868
  970SOL     OW14542   4.466   0.319   3.070 -0.1063 -0.4485  0.1455
  970SOL    HW114543   4.501   0.295   2.984 -1.2709  2.3710 -1.0964
  970SOL    HW214544   4.423   0.401   3.046  0.3723 -0.9391 -2.4377
  971SOL     OW14545   1.224   1.889   2.010  0.2454  0.2484 -0.0332
  971SOL    HW114546   1.227   1.815   1.950  1.3541 -1.1472  1.7205
  971SOL    HW214547   1.238   1.843   2.093 -1.8894 -1.6137 -0.7182
  972SOL     OW14548   1.694   1.355   2.748 -0.1716 -0.0300 -0.0803
  972SOL    HW114549   1.605   1.389   2.756  0.8848  3.1366 -1.5782
  972SOL    HW214550   1.688   1.309   2.664 -3.3766  0.8974 -0.3630
  973SOL     OW14551   1.560   3.495   0.105 -0.1673 -0.4137 -0.3693
  973SOL    HW114552   1.468   3.478   0.085  0.0683 -1.4175 -0.6447
  973SOL    HW214553   1.565   3.466   0.196  1.3551  0.8762 -0.0347
  974SOL     OW14554   0.194   0.079   2.866  0.3291 -0.0185 -0.0063
  974SOL    HW114555   0.107   0.088   2.904 -0.0095  0.1054 -0.8137
  974SOL    HW214556   0.193   0.142   2.793  1.2474 -0.6381 -0.5564
  975SOL     OW14557   1.092   0.441   4.234  0.0317  0.0460 -0.6394
  975SOL    HW114558   1.087   0.527   4.275  0.4906  0.2187 -0.9431
  975SOL    HW214559   1.152   0.408   4.301  1.6306  1.7163 -1.2326
  976SOL     OW14560   0.671   3.910   2.426  0.2138 -0.0324 -0.1095
  976SOL    HW114561   0.597   3.872   2.472  0.3096  0.0161  0.0839
  976SOL    HW214562   0.744   3.876   2.479  1.2208  1.6871 -0.3934
  977SOL     OW14563   2.588   4.372  15.382  0.2709  0.1129 -0.6690
  977SOL    HW114564   2.525   4.362  15.454  3.0545 -0.9167  1.6422
  977SOL    HW214565   2.539   4.330  15.311  0.9245 -1.6457 -0.1012
  978SOL     OW14566   1.292   1.333  16.969  0.4920  0.0995  0.2097
  978SOL    HW114567   1.242   1.256  16.996 -1.6620  1.0227 -1.1304
  978SOL    HW214568   1.278   1.392  17.044  1.3539 -1.5256  1.6362
  979SOL     OW14569   3.112   1.942   5.828 -0.4781  0.4522  0.1686
  979SOL    HW114570   3.137   1.935   5.736  0.3401  3.7395  0.1237
  979SOL    HW214571   3.091   1.851   5.849 -0.8355 -0.3881 -3.7859
  980SOL     OW14572   0.365   4.046  10.236  0.4438 -0.2302 -0.0816
  980SOL    HW114573   0.428   4.039  10.164  0.8453  0.5744  0.1846
  980SOL    HW214574   0.402   3.985  10.300  1.7568  1.3957  0.7055
  981SOL     OW14575   2.979   3.150   9.049 -0.2231  0.0345 -0.2040
  981SOL    HW114576   3.045   3.191   9.104  0.0556 -1.3611  0.5036
  981SOL    HW214577   2.908   3.142   9.112 -1.7403  1.6646 -1.6944
  982SOL     OW14578   2.463   0.942   7.325 -0.4064 -0.5651  0.2325
  982SOL    HW114579   2.526   0.961   7.394  0.8466 -3.0225 -0.2208
  982SOL    HW214580   2.481   0.849   7.309 -1.2114 -0.8431  0.9140
  983SOL     OW14581   0.110   2.570   6.229  0.7033 -0.6589 -0.1243
  983SOL    HW114582   0.103   2.636   6.160  0.1745 -0.1745  0.3854
  983SOL    HW214583   0.161   2.622   6.291  0.9824 -0.6503 -0.3627
  984SOL     OW14584   4.587   0.200  10.198 -0.9469 -0.0976 -0.6909
  984SOL    HW114585   4.602   0.196  10.292  0.5004 -0.3798 -0.9431
  984SOL    HW214586   4.659   0.258  10.173 -0.9172  0.3565  0.4750
  985SOL     OW14587   1.943   1.054  11.445 -0.0632  0.1374  0.4248
  985SOL    HW114588   1.895   1.020  11.521 -1.9192 -0.3715 -0.9879
  985SOL    HW214589   1.889   1.130  11.424  1.0712  0.9112  0.2741
  986SOL     OW14590   4.554   3.588  11.011  0.1192 -0.0868  0.2372
  986SOL    HW114591   4.589   3.640  11.083  1.3232  1.4658 -1.4700
  986SOL    HW214592   4.470   3.630  10.992 -0.3799 -0.5849  1.3431
  987SOL     OW14593   1.358   3.822  15.098  0.4503  0.2798 -0.4173
  987SOL    HW114594   1.324   3.905  15.130  0.5066 -0.2730  1.0665
  987SOL    HW214595   1.300   3.821  15.022 -2.4513 -0.3696  1.7754
  988SOL     OW14596   1.970   0.791   6.856  0.2491  0.4759 -0.1607
  988SOL    HW114597   1.988   0.698   6.842  0.5243  0.3199  1.1773
  988SOL    HW214598   1.970   0.827   6.768  0.2964  0.7820 -0.0350
  989SOL     OW14599   3.485   3.660   3.009 -0.1570  0.0900  0.5015
  989SOL    HW114600   3.541   3.695   2.940 -0.5153 -0.2560  0.0351
  989SOL    HW214601   3.428   3.610   2.950 -1.8973  2.3457  0.2794
  990SOL     OW14602   3.055   1.426   3.490  0.5269 -0.5378 -0.2529
  990SOL    HW114603   2.974   1.399   3.448  0.2120  0.0240 -0.0011
  990SOL    HW214604   3.116   1.356   3.464 -0.3291 -0.9180 -1.2166
  991SOL     OW14605   2.658   1.900  17.187 -0.3261  0.7099  0.0572
  991SOL    HW114606   2.615   1.850  17.118  1.1760 -1.4014  0.6599
  991SOL    HW214607   2.602   1.978  17.192  0.6242  1.2627  2.2715
  992SOL     OW14608   2.436   0.496  15.211 -0.3535  0.5944  0.5334
  992SOL    HW114609   2.370   0.487  15.142 -0.8591  1.6013  0.8855
  992SOL    HW214610   2.381   0.510  15.288 -1.8134 -1.6900 -0.0963
  993SOL     OW14611   0.096   3.367  12.782 -0.0293 -0.6560 -0.9447
  993SOL    HW114612   0.122   3.456  12.805 -1.5982 -0.0445 -1.5308
  993SOL    HW214613   0.184   3.332  12.768  0.6962  0.8568 -0.1760
  994SOL     OW14614   2.922   1.900   3.033  0.6970  0.0491  0.0163
  994SOL    HW114615   2.866   1.854   2.970  0.4722  0.3157  0.0211
  994SOL    HW214616   2.907   1.865   3.121 -1.5371  1.0078  0.0261
  995SOL     OW14617   0.862   1.156   3.912 -0.5376  0.0941  0.5970
  995SOL    HW114618   0.805   1.232   3.904 -0.7038 -0.1511 -0.4337
  995SOL    HW214619   0.902   1.147   3.999  0.5361 -0.4004  0.0480
  996SOL     OW14620   1.222   4.185   3.162  0.0906  0.8143 -0.0781
  996SOL    HW114621   1.304   4.180   3.114  0.3620  2.8365  0.1562
  996SOL    HW214622   1.223   4.280   3.179 -0.2846  0.7396  0.3754
  997SOL     OW14623   0.168   0.361   7.481  0.9456 -0.9151  0.1068
  997SOL    HW114624   0.196   0.445   7.445  0.2103 -0.8843 -0.3942
  997SOL    HW214625   0.153   0.313   7.399 -0.3454 -0.6661  0.1918
  998SOL     OW14626   1.243   1.442   1.511 -0.6747 -0.1017  0.3580
  998SOL    HW114627   1.228   1.371   1.448  0.1163 -0.5996  0.7192
  998SOL    HW214628   1.282   1.390   1.582  0.9645  1.0458  0.2771
  999SOL     OW14629   3.940   4.369  12.703 -0.5469 -1.1860 -0.8188
  999SOL    HW114630   3.880   4.410  12.641 -1.8622  2.0787  2.5404
  999SOL    HW214631   3.990   4.325  12.634  1.8034 -1.0488  0.7951
 1000SOL     OW14632   1.896   2.995   7.808  0.1190 -0.1034 -0.0325
 1000SOL    HW114633   1.850   2.911   7.802  0.4847 -0.4013  1.2842
 1000SOL    HW214634   1.975   2.963   7.764  0.0379 -2.1620  1.3088
 1001SOL     OW14635   3.019   1.093   3.942  0.1041  1.0577  0.2960
 1001SOL    HW114636   2.997   1.145   3.865 -2.1214 -2.5023 -1.4599
 1001SOL    HW214637   2.951   1.026   3.940 -2.3716  3.6085  0.0134
 1002SOL     OW14638   4.178   2.733   9.306 -0.0854  0.0144 -0.0907
 1002SOL    HW114639   4.240   2.731   9.379  1.7528 -3.7816 -1.7114
 1002SOL    HW214640   4.211   2.657   9.257 -1.0404 -0.0562 -0.6099
 1003SOL     OW14641   0.135   1.163   4.226  0.2188  0.1049 -0.5530
 1003SOL    HW114642   0.172   1.137   4.141  0.7548 -0.4025 -0.1684
 1003SOL    HW214643   0.139   1.077   4.269 -1.5392  0.4716  0.3193
 1004SOL     OW14644   1.697   1.484   7.830 -0.1607 -0.1830  0.4184
 1004SOL    HW114645   1.781   1.487   7.786 -0.6177 -0.3997 -0.4738
 1004SOL    HW214646   1.725   1.513   7.916 -0.3824  0.1393  0.3836
 1005SOL     OW14647   3.919   0.821   8.640  0.2459  0.2760 -0.1956
 1005SOL    HW114648   3.841   0.876   8.635 -0.0517 -0.1783 -0.5720
 1005SOL    HW214649   3.974   0.858   8.709 -0.5429 -0.5530  0.8670
 1006SOL     OW14650   1.798   4.033   8.663 -0.2280 -0.2924 -0.0615
 1006SOL    HW114651   1.712   4.069   8.644 -0.4100  0.2806  1.8057
 1006SOL    HW214652   1.769   3.945   8.687 -0.6661 -0.4797 -1.3112
 1007SOL     OW14653   1.292   1.388  12.129 -0.6159  0.1570 -0.0192
 1007SOL    HW114654   1.306   1.477  12.096  0.0116  0.7091  1.7178
 1007SOL    HW214655   1.330   1.399  12.216 -0.1142 -0.9172 -0.1101
 1008SOL     OW14656   2.675   1.558   6.787 -0.0824  0.4714  0.2045
 1008SOL    HW114657   2.729   1.567   6.709  0.8863  0.4095  0.8714
 1008SOL    HW214658   2.611   1.488   6.770  0.9189 -0.9382  2.2755
 1009SOL     OW14659   1.410   4.484   2.274  0.4054 -0.4749 -0.0356
 1009SOL    HW114660   1.484   4.542   2.254 -0.0594  0.2871  0.4571
 1009SOL    HW214661   1.455   4.401   2.259 -1.0953 -0.9517 -1.8904
 1010SOL     OW14662   0.316   4.486   8.765  0.6755 -0.0339  0.0628
 1010SOL    HW114663   0.388   4.457   8.710 -0.3859 -3.5375  0.5361
 1010SOL    HW214664   0.245   4.468   8.705 -0.1927  0.4272  0.9497
 1011SOL     OW14665   0.722   4.220   9.919  0.6883 -0.6040  0.4329
 1011SOL    HW114666   0.696   4.279   9.847 -1.8596 -1.2042  0.8650
 1011SOL    HW214667   0.744   4.284   9.986 -0.3648 -1.5374  1.6629
 1012SOL     OW14668   1.741   1.518  12.509  0.0623  0.8299  0.1072
 1012SOL    HW114669   1.663   1.572  12.499  0.7547  1.9292  0.6731
 1012SOL    HW214670   1.772   1.555  12.591  1.1859  0.4916 -0.1553
 1013SOL     OW14671   4.382   1.989   4.728  0.1676  0.4960  0.5629
 1013SOL    HW114672   4.394   1.894   4.735 -0.6573  0.3481 -0.0028
 1013SOL    HW214673   4.461   2.018   4.683  1.2271 -0.8709  1.5368
 1014SOL     OW14674   3.885   2.334   9.242  0.0986 -0.7131 -0.2317
 1014SOL    HW114675   3.913   2.255   9.288 -0.7930 -1.4965 -1.0577
 1014SOL    HW214676   3.941   2.321   9.165 -0.2983 -1.1101 -0.4499
 1015SOL     OW14677   0.942   4.442   4.986 -0.1439  0.2528  0.0233
 1015SOL    HW114678   0.917   4.381   4.916 -1.5738  2.9628 -1.8511
 1015SOL    HW214679   0.906   4.526   4.959 -0.4822 -0.5670 -2.1162
 1016SOL     OW14680   2.689   2.147   7.302  0.5253 -0.9086 -0.0699
 1016SOL    HW114681   2.772   2.181   7.270 -0.3523  0.2375 -1.1263
 1016SOL    HW214682   2.624   2.205   7.261 -0.0807 -2.2326 -0.9682
 1017SOL     OW14683   4.521   3.396  11.556  0.1531  0.0742  0.8126
 1017SOL    HW114684   4.533   3.486  11.586  1.1813  0.2670 -0.1581
 1017SOL    HW214685   4.479   3.411  11.471  1.1925 -0.2620  0.2391
 1018SOL     OW14686   0.819   3.810   2.881  0.0685 -0.3721 -0.6903
 1018SOL    HW114687   0.847   3.782   2.794  0.1016 -0.6388 -0.5930
 1018SOL    HW214688   0.725   3.824   2.868 -0.0044 -1.0096 -0.8687
 1019SOL     OW14689   0.001   1.308  10.911 -0.1979  0.0861  0.1174
 1019SOL    HW114690   4.693   1.334  10.991  0.8679  2.7119 -0.1255
 1019SOL    HW214691   0.079   1.271  10.953 -1.9461 -1.7551  1.7191
 1020SOL     OW14692   2.165   3.031   1.614  0.4397  0.0861  0.3195
 1020SOL    HW114693   2.249   3.061   1.649  0.4540 -0.4705  0.7717
 1020SOL    HW214694   2.110   3.053   1.689  0.2173  1.3579 -0.2214
 1021SOL     OW14695   0.549   3.496   8.092 -0.0200 -0.8935 -0.0306
 1021SOL    HW114696   0.515   3.529   8.175 -1.0032  0.4811 -0.9780
 1021SOL    HW214697   0.599   3.417   8.112 -1.4773 -2.1075 -1.1568
 1022SOL     OW14698   2.095   2.842   5.892 -0.5908  0.5392 -0.2858
 1022SOL    HW114699   2.119   2.789   5.968  0.7502 -0.7141 -1.5678
 1022SOL    HW214700   2.093   2.923   5.942  1.3866 -0.1343  0.8811
 1023SOL     OW14701   3.569   3.806   7.305 -0.2413  0.0104 -0.2041
 1023SOL    HW114702   3.534   3.887   7.344 -0.0408 -0.1589  0.3187
 1023SOL    HW214703   3.642   3.790   7.364  0.6131  0.9072 -0.9992
 1024SOL     OW14704   0.644   2.768   9.451  0.0337  0.3506 -0.1384
 1024SOL    HW114705   0.567   2.825   9.440 -1.2375 -1.7898 -2.4680
 1024SOL    HW214706   0.684   2.809   9.527  0.8146 -1.1232  0.2413
 1025SOL     OW14707   4.029   1.565   0.759  0.1432  0.2859  0.7466
 1025SOL    HW114708   4.025   1.482   0.712 -0.9339  0.2161  0.9591
 1025SOL    HW214709   3.939   1.595   0.747  0.0377 -0.9025 -1.2883
 1026SOL     OW14710   0.680   2.107   6.142  0.4864 -0.1247 -0.0128
 1026SOL    HW114711   0.767   2.136   6.117  0.4702  0.6770  0.8700
 1026SOL    HW214712   0.657   2.178   6.203  0.0051 -0.9681  0.7868
 1027SOL     OW14713   0.583   2.921  16.643 -0.1057 -0.1673 -0.0543
 1027SOL    HW114714   0.575   2.831  16.613 -1.0004 -0.0945 -0.0391
 1027SOL    HW214715   0.599   2.964  16.559  0.9786  0.4748  0.4744
 1028SOL     OW14716   1.992   4.715  13.568  0.2348  0.9842  0.1968
 1028SOL    HW114717   1.921   4.668  13.613 -1.7935  3.3358 -0.5215
 1028SOL    HW214718   2.016   0.046  13.630 -0.6868  0.9933  0.5466
 1029SOL     OW14719   2.041   0.734   2.711  0.5008  0.0689 -0.1249
 1029SOL    HW114720   2.089   0.809   2.678 -0.1634  0.6765  0.2980
 1029SOL    HW214721   1.955   0.766   2.739  0.2054 -0.8358  0.0299
 1030SOL     OW14722   1.508   3.125   4.210  0.3331 -0.0791 -0.1682
 1030SOL    HW114723   1.468   3.079   4.284  0.2353 -1.3808 -1.0331
 1030SOL    HW214724   1.594   3.082   4.211  0.8184  0.8982  0.6848
 1031SOL     OW14725   0.611   0.004  10.252  0.3794 -0.0025  0.3655
 1031SOL    HW114726   0.619   4.654  10.290 -1.2626 -0.3624 -0.1070
 1031SOL    HW214727   0.557   0.041  10.322 -0.0018 -2.1378  1.1864
 1032SOL     OW14728   3.211   2.020   3.860  0.0988  0.3748  0.2812
 1032SOL    HW114729   3.157   2.081   3.809  1.6427  0.1537 -1.5979
 1032SOL    HW214730   3.292   2.070   3.871  0.9963 -0.4177 -2.8645
 1033SOL     OW14731   3.605   3.230   0.329  0.5940 -0.6383 -0.2158
 1033SOL    HW114732   3.531   3.249   0.271  0.3752 -0.3729  0.1466
 1033SOL    HW214733   3.602   3.304   0.390  0.5963 -1.3328  0.6261
 1034SOL     OW14734   0.874   3.083   3.578  0.2660 -0.0226  0.2457
 1034SOL    HW114735   0.921   3.164   3.597  0.2567  0.1744 -0.5826
 1034SOL    HW214736   0.948   3.027   3.600 -0.4659 -1.1469 -0.1387
 1035SOL     OW14737   2.770   0.389   7.703  0.1629  0.3670  0.1704
 1035SOL    HW114738   2.790   0.474   7.741 -1.9318 -0.2112  2.5785
 1035SOL    HW214739   2.776   0.415   7.611  1.3583  0.1197  0.1780
 1036SOL     OW14740   4.287   2.045   2.173 -0.1637  0.5483  0.2121
 1036SOL    HW114741   4.312   2.108   2.241 -1.8592 -0.0636  1.4176
 1036SOL    HW214742   4.349   1.972   2.168  0.2360  0.9730 -1.2019
 1037SOL     OW14743   1.637   3.129   8.002  0.6614 -0.1784 -0.0973
 1037SOL    HW114744   1.566   3.066   7.984 -0.3374  0.6491  0.9964
 1037SOL    HW214745   1.711   3.080   7.966  0.9316 -1.4241  2.1888
 1038SOL     OW14746   3.332   3.748   6.914 -0.2885  0.3371 -0.6573
 1038SOL    HW114747   3.344   3.732   7.008  0.3787  2.2079 -0.4370
 1038SOL    HW214748   3.327   3.844   6.912 -0.6599  0.3271 -0.1283
 1039SOL     OW14749   2.559   2.505   4.488  0.0886 -0.1941 -0.0430
 1039SOL    HW114750   2.471   2.491   4.453  0.2218  0.2131 -0.5469
 1039SOL    HW214751   2.591   2.574   4.429 -0.8198 -1.0209 -1.5073
 1040SOL     OW14752   3.159   1.975   2.364  0.2749 -0.3499 -0.5737
 1040SOL    HW114753   3.183   1.968   2.456 -1.5261 -1.8952 -0.2338
 1040SOL    HW214754   3.210   2.052   2.337  0.7185 -1.0316 -1.6571
 1041SOL     OW14755   0.073   4.404  11.715  0.0906 -0.5062 -0.1436
 1041SOL    HW114756   0.067   4.497  11.736 -0.8295 -1.3608  3.4485
 1041SOL    HW214757   0.126   4.363  11.784  1.7021  1.1359 -0.4024
 1042SOL     OW14758   3.764   1.450   3.638  0.2584 -0.0052 -0.4585
 1042SOL    HW114759   3.728   1.538   3.653  2.2333  0.4335  1.7097
 1042SOL    HW214760   3.717   1.437   3.555 -1.2267  0.6971  0.2722
 1043SOL     OW14761   2.884   2.236  17.671  0.2265 -0.8699 -0.3799
 1043SOL    HW114762   2.911   2.171  17.736  1.2428  2.0310  2.1125
 1043SOL    HW214763   2.924   2.206  17.589  0.6991  0.0321 -0.4836
 1044SOL     OW14764   2.739   1.410   8.858 -0.3956  0.4096  0.3554
 1044SOL    HW114765   2.717   1.457   8.778  0.1686  1.4999  0.8484
 1044SOL    HW214766   2.652   1.416   8.896 -1.5336 -5.1906 -1.3022
 1045SOL     OW14767   4.468   3.267   6.876 -0.4567 -0.3577 -0.2600
 1045SOL    HW114768   4.453   3.347   6.926  1.3072 -0.0418 -0.2455
 1045SOL    HW214769   4.463   3.212   6.954  1.7141  0.2925  0.3326
 1046SOL     OW14770   2.725   2.741  15.020 -0.3247  0.3867  0.2219
 1046SOL    HW114771   2.705   2.835  15.018  1.0021  0.6798  0.5979
 1046SOL    HW214772   2.820   2.747  15.028 -0.1206 -4.0203  1.1196
 1047SOL     OW14773   0.274   0.808   7.621  0.4536  0.3725 -0.2424
 1047SOL    HW114774   0.364   0.782   7.637  0.2415  0.4616  1.1253
 1047SOL    HW214775   0.243   0.792   7.711  3.0427  1.0782  0.7759
 1048SOL     OW14776   1.296   4.326   1.649  0.0986  0.1200  0.3404
 1048SOL    HW114777   1.203   4.310   1.666  0.1579  2.0226  2.4159
 1048SOL    HW214778   1.314   4.394   1.714 -1.0341  1.7535 -1.0411
 1049SOL     OW14779   0.995   1.581   5.627  0.0501  0.0679  0.3185
 1049SOL    HW114780   1.050   1.658   5.611 -0.6741  0.2496 -1.2803
 1049SOL    HW214781   1.005   1.559   5.720 -1.7841  0.3040  0.5749
 1050SOL     OW14782   2.972   3.271  12.463  0.2527 -0.5988  0.0556
 1050SOL    HW114783   2.887   3.246  12.499  0.5384 -0.2712  0.9602
 1050SOL    HW214784   3.023   3.298  12.540 -2.6523  0.3669  1.6387
 1051SOL     OW14785   2.120   2.557  16.873 -0.2015 -0.4029  0.2027
 1051SOL    HW114786   2.194   2.617  16.871 -0.1977 -0.3336  2.6106
 1051SOL    HW214787   2.122   2.530  16.781 -1.0341  2.3955 -0.6393
 1052SOL     OW14788   2.780   2.515   3.513  0.3554 -0.0178 -0.1325
 1052SOL    HW114789   2.867   2.541   3.483 -0.3026  1.7507 -0.5554
 1052SOL    HW214790   2.746   2.590   3.563  0.6467 -0.4027  0.6398
 1053SOL     OW14791   4.346   3.161   5.987 -0.0656  0.2238  0.1961
 1053SOL    HW114792   4.340   3.087   5.927  3.8087 -0.7880  1.0562
 1053SOL    HW214793   4.300   3.229   5.938 -0.8494 -0.9575 -0.6973
 1054SOL     OW14794   4.102   0.622  10.396  0.2905 -0.1972 -0.3509
 1054SOL    HW114795   4.055   0.574  10.327 -2.7797  0.1610  1.4926
 1054SOL    HW214796   4.062   0.599  10.480 -1.3755  1.4279 -0.6875
 1055SOL     OW14797   2.639   2.891   9.500 -0.1562 -0.1299 -0.1797
 1055SOL    HW114798   2.574   2.937   9.446 -1.7102  0.7847  2.5003
 1055SOL    HW214799   2.717   2.945   9.487 -1.0497  1.2582  0.2742
 1056SOL     OW14800   0.087   0.251  16.144 -0.4014 -0.3324  0.1390
 1056SOL    HW114801   0.144   0.316  16.103  0.9365 -1.7855 -0.2909
 1056SOL    HW214802   0.027   0.308  16.193 -1.8704 -1.5564 -0.2199
 1057SOL     OW14803   3.508   4.303   0.240  0.1832 -0.1563 -0.0777
 1057SOL    HW114804   3.559   4.359   0.299  0.7707 -0.4506 -0.3072
 1057SOL    HW214805   3.505   4.361   0.164 -0.3580 -0.2803 -0.1510
 1058SOL     OW14806   0.945   0.906   5.142 -0.0817  0.7620 -0.0192
 1058SOL    HW114807   0.936   0.998   5.119 -0.1343 -0.0154 -3.1895
 1058SOL    HW214808   0.873   0.891   5.203 -1.0332  1.0000 -1.0688
 1059SOL     OW14809   0.870   4.615   9.207  0.4779 -0.2046  0.2321
 1059SOL    HW114810   0.881   4.525   9.240  2.0844  1.1805  3.4969
 1059SOL    HW214811   0.782   4.638   9.236  0.7270 -0.8545  1.5072
 1060SOL     OW14812   0.921   3.371   4.992 -0.0032  0.1681  0.1472
 1060SOL    HW114813   0.925   3.275   4.989 -1.1331  0.0902  0.8214
 1060SOL    HW214814   1.010   3.406   4.995  1.4341 -3.1881 -3.0023
 1061SOL     OW14815   0.980   3.439  10.392 -0.5394 -0.6235  0.1641
 1061SOL    HW114816   0.899   3.475  10.428  0.0817  0.8317  0.1082
 1061SOL    HW214817   1.032   3.455  10.471  0.8738  0.0492 -0.9049
 1062SOL     OW14818   2.386   3.233   8.569  0.0221  0.5458  0.3425
 1062SOL    HW114819   2.343   3.230   8.483  0.6193  0.1728  0.0487
 1062SOL    HW214820   2.477   3.225   8.540  0.4950  2.3020  1.3574
 1063SOL     OW14821   4.549   4.287   3.086  1.0134 -0.3303 -0.4437
 1063SOL    HW114822   4.569   4.196   3.105 -2.9423 -0.6781  1.8317
 1063SOL    HW214823   4.627   4.327   3.046  0.1321  1.0850 -0.7708
 1064SOL     OW14824   4.231   2.811   7.810 -0.2125  0.7964  0.0544
 1064SOL    HW114825   4.308   2.763   7.842  0.3390  0.9713 -1.0274
 1064SOL    HW214826   4.233   2.805   7.715 -1.6479  1.0748 -0.0022
 1065SOL     OW14827   0.834   0.665   6.216 -0.3893 -0.1349  0.1747
 1065SOL    HW114828   0.787   0.747   6.229  1.2492  0.5988  1.4552
 1065SOL    HW214829   0.891   0.685   6.142  0.8898 -0.7287  1.0006
 1066SOL     OW14830   3.439   0.776   3.311 -0.4600  0.3363 -0.2623
 1066SOL    HW114831   3.485   0.791   3.228 -2.7321  1.0698 -1.3998
 1066SOL    HW214832   3.526   0.755   3.344  0.8918  2.2891 -2.5407
 1067SOL     OW14833   2.807   3.335  15.205 -0.1385  0.0061  0.5461
 1067SOL    HW114834   2.799   3.243  15.232 -0.2899 -0.3838 -0.8076
 1067SOL    HW214835   2.772   3.336  15.116 -0.3500  1.6470  0.6527
 1068SOL     OW14836   3.774   3.488  16.507 -0.0252  0.2647 -0.0566
 1068SOL    HW114837   3.711   3.560  16.505 -1.3326 -0.8530  0.9460
 1068SOL    HW214838   3.825   3.512  16.429 -0.0657  1.7673  0.3663
 1069SOL     OW14839   2.405   4.049   2.260  0.0270  0.3133 -0.2732
 1069SOL    HW114840   2.472   4.087   2.203  1.5709 -3.6603 -1.1073
 1069SOL    HW214841   2.339   4.118   2.262  0.3582  0.6307 -0.2712
 1070SOL     OW14842   2.959   3.965   7.241 -0.2400 -0.3247  0.3032
 1070SOL    HW114843   2.883   3.927   7.286 -1.3187  0.2471 -1.0061
 1070SOL    HW214844   3.021   3.985   7.310  0.1689  2.3137 -0.8260
 1071SOL     OW14845   1.845   2.699  11.198  0.0677  0.2954  0.3236
 1071SOL    HW114846   1.876   2.688  11.108  0.8627  1.4651  0.4635
 1071SOL    HW214847   1.767   2.752  11.185  0.0799  0.3843  0.6059
 1072SOL     OW14848   3.586   3.317   1.449 -0.3658 -0.0294  0.6172
 1072SOL    HW114849   3.621   3.244   1.500 -1.0202 -2.4950 -2.4488
 1072SOL    HW214850   3.511   3.333   1.506 -2.8234 -1.7398 -2.1031
 1073SOL     OW14851   3.196   1.233   7.152  0.1981 -0.0094  0.2994
 1073SOL    HW114852   3.267   1.293   7.130  0.1362 -0.2736 -0.6122
 1073SOL    HW214853   3.236   1.152   7.123 -2.2038 -0.6851 -1.1563
 1074SOL     OW14854   1.139   2.090   8.629 -0.0505 -0.4848 -0.0731
 1074SOL    HW114855   1.166   2.180   8.648  1.6085 -0.6724 -1.4686
 1074SOL    HW214856   1.123   2.049   8.714 -1.0925 -3.0410 -1.4960
 1075SOL     OW14857   2.287   3.259  14.889  0.4818  0.2273 -0.3131
 1075SOL    HW114858   2.374   3.238  14.856  0.5983  0.3260 -0.0757
 1075SOL    HW214859   2.316   3.275  14.979  0.7780 -2.7484  0.1062
 1076SOL     OW14860   2.693   1.472   8.431 -0.1887  0.5104  0.0956
 1076SOL    HW114861   2.764   1.410   8.444 -0.1877  0.6253  0.6244
 1076SOL    HW214862   2.626   1.447   8.494  2.1435  1.1395  2.7805
 1077SOL     OW14863   0.971   2.987   3.912  0.2795 -0.0542 -0.4969
 1077SOL    HW114864   0.982   2.931   3.835 -3.0921 -2.4422  0.8055
 1077SOL    HW214865   1.026   3.060   3.883 -1.2164  1.5694  0.7723
 1078SOL     OW14866   3.547   3.317   1.938  0.1728  0.0216 -0.0291
 1078SOL    HW114867   3.605   3.246   1.909 -1.1311  0.0764 -2.7587
 1078SOL    HW214868   3.461   3.305   1.898  0.2956 -0.5072 -0.1372
 1079SOL     OW14869   3.163   2.462   8.975  0.5219 -0.4253 -0.0800
 1079SOL    HW114870   3.136   2.543   9.018  0.1979 -0.8422  0.5142
 1079SOL    HW214871   3.255   2.456   9.001  0.0263 -0.8306  1.6015
 1080SOL     OW14872   1.208   2.484   2.378  0.5015 -0.6278  0.0310
 1080SOL    HW114873   1.263   2.406   2.381  3.8422  1.6433 -1.9648
 1080SOL    HW214874   1.122   2.451   2.351  0.0981 -0.5711  1.2449
 1081SOL     OW14875   3.952   2.200   0.902  0.1763 -0.0091  0.3906
 1081SOL    HW114876   3.993   2.164   0.823  0.4416 -0.5515  0.7789
 1081SOL    HW214877   4.013   2.192   0.975 -0.0132 -0.1910  0.5301
 1082SOL     OW14878   2.486   3.085   4.322 -0.0123  0.0643  0.2403
 1082SOL    HW114879   2.412   3.121   4.370 -1.5276 -1.8423 -0.6720
 1082SOL    HW214880   2.506   3.167   4.277  0.3685 -0.3026 -0.2651
 1083SOL     OW14881   4.344   3.550   1.549 -0.0659  0.2934 -0.1455
 1083SOL    HW114882   4.305   3.599   1.621 -4.3909 -0.5565 -1.8966
 1083SOL    HW214883   4.395   3.484   1.596 -0.7509 -1.7913 -2.3068
 1084SOL     OW14884   1.289   0.634   5.575  0.5035  0.0638 -0.4547
 1084SOL    HW114885   1.231   0.676   5.639  1.5836 -0.0932  0.6419
 1084SOL    HW214886   1.271   0.541   5.591 -0.2896  1.0238  4.4137
 1085SOL     OW14887   3.246   4.106  15.639  0.0407  0.2855 -0.3872
 1085SOL    HW114888   3.323   4.162  15.627 -1.0588  0.7972 -5.0314
 1085SOL    HW214889   3.200   4.129  15.558  0.4043  1.0870 -0.3678
 1086SOL     OW14890   4.009   0.760   7.860  0.4183  0.0228  0.4946
 1086SOL    HW114891   4.010   0.665   7.866 -2.5644 -0.1290 -1.1550
 1086SOL    HW214892   3.915   0.779   7.866  0.4858  0.4569  0.1886
 1087SOL     OW14893   0.884   1.167   3.335  0.3876  0.3683 -0.0273
 1087SOL    HW114894   0.796   1.160   3.373  0.1773  0.7094 -0.4509
 1087SOL    HW214895   0.928   1.223   3.399 -3.1835  2.5325  0.5217
 1088SOL     OW14896   2.120   1.874   3.326 -0.6802 -1.0528 -0.3616
 1088SOL    HW114897   2.083   1.813   3.262  0.5773 -1.7540 -0.4245
 1088SOL    HW214898   2.152   1.928   3.254  2.6244 -1.6646  0.6771
 1089SOL     OW14899   0.635   4.162  13.328 -0.5950 -0.0240  0.3098
 1089SOL    HW114900   0.725   4.137  13.351 -0.0697  1.0692 -0.5734
 1089SOL    HW214901   0.614   4.149  13.235 -1.9091  0.7151  0.5030
 1090SOL     OW14902   2.727   2.764   3.063 -0.0637  0.7037  0.3008
 1090SOL    HW114903   2.706   2.825   3.134  1.6073  1.9901 -0.3071
 1090SOL    HW214904   2.775   2.820   3.003  1.0673 -2.9015 -2.1564
 1091SOL     OW14905   0.077   2.790   9.340 -0.5450 -0.2439 -0.0739
 1091SOL    HW114906   0.072   2.739   9.259 -0.7598  1.3012 -1.0332
 1091SOL    HW214907   0.164   2.831   9.333 -1.3457  1.8062  2.0796
 1092SOL     OW14908   1.819   2.896  15.184 -0.4742  0.0130 -0.4662
 1092SOL    HW114909   1.858   2.809  15.184  0.5056  0.4474 -1.4123
 1092SOL    HW214910   1.787   2.887  15.094 -1.8200  2.1053 -0.1929
 1093SOL     OW14911   1.138   1.339   2.048 -0.2035  0.1223 -0.1325
 1093SOL    HW114912   1.067   1.404   2.053 -1.7820 -1.6384  0.3800
 1093SOL    HW214913   1.120   1.284   2.124 -2.0347  0.6748 -0.1746
 1094SOL     OW14914   3.397   0.837  13.405 -0.3687  0.3115 -0.1022
 1094SOL    HW114915   3.328   0.892  13.443  0.3701  1.4927 -0.4498
 1094SOL    HW214916   3.373   0.749  13.432 -0.9603  0.8600  1.1419
 1095SOL     OW14917   1.523   1.546   3.292  0.2708  0.2833 -0.0187
 1095SOL    HW114918   1.490   1.505   3.371 -0.3664  0.4522 -0.1952
 1095SOL    HW214919   1.592   1.486   3.267 -0.6007  0.3333 -2.6275
 1096SOL     OW14920   1.713   3.772   5.895  0.5606  0.1720 -0.1542
 1096SOL    HW114921   1.782   3.780   5.960  2.4985  2.2225 -2.4528
 1096SOL    HW214922   1.692   3.680   5.910  0.0950  0.9342  3.6918
 1097SOL     OW14923   3.795   1.719   8.723 -0.1298  0.5902 -0.4580
 1097SOL    HW114924   3.827   1.645   8.671 -0.3743 -0.9745  1.6271
 1097SOL    HW214925   3.710   1.737   8.684 -1.0566 -3.1538 -0.1900
 1098SOL     OW14926   0.949   0.414   9.483  0.5164 -0.4117 -0.0165
 1098SOL    HW114927   1.038   0.391   9.508  0.6711 -0.5596 -0.7074
 1098SOL    HW214928   0.949   0.388   9.391 -0.6673  0.7328 -0.3392
 1099SOL     OW14929   3.118   3.965   6.547  0.1739 -0.3023 -0.0547
 1099SOL    HW114930   3.170   4.038   6.514  0.7810 -0.4781  0.5251
 1099SOL    HW214931   3.107   3.911   6.468 -0.0068 -0.3117 -0.0232
 1100SOL     OW14932   4.315   3.556   7.534  0.4382  0.0680 -0.0799
 1100SOL    HW114933   4.247   3.547   7.600  1.1007 -3.3006  0.1317
 1100SOL    HW214934   4.309   3.467   7.500  3.8283 -0.9397  1.9655
 1101SOL     OW14935   3.185   1.033   8.892  0.2710 -0.1847  0.5973
 1101SOL    HW114936   3.200   0.951   8.939  1.6808 -1.5375 -2.2643
 1101SOL    HW214937   3.149   1.014   8.805  2.7770 -0.3837 -0.3910
 1102SOL     OW14938   3.451   0.354   5.644  0.1298  0.3879 -0.9947
 1102SOL    HW114939   3.504   0.358   5.724 -3.1168  0.2913  1.1746
 1102SOL    HW214940   3.367   0.376   5.684 -0.4749 -1.2789 -1.3481
 1103SOL     OW14941   1.452   2.117   8.005  0.7701 -0.8488  0.3341
 1103SOL    HW114942   1.380   2.116   8.068 -0.7948 -1.7271 -1.4481
 1103SOL    HW214943   1.453   2.203   7.965  0.0585 -0.4463  1.1704
 1104SOL     OW14944   2.220   1.832   3.569 -0.0556 -0.0147  0.3588
 1104SOL    HW114945   2.310   1.838   3.535 -0.6918 -0.8196 -1.4550
 1104SOL    HW214946   2.174   1.846   3.486 -1.0372 -0.6182  0.8114
 1105SOL     OW14947   3.414   2.461   9.036 -0.4207  0.1172 -0.1127
 1105SOL    HW114948   3.402   2.440   9.129  0.1595 -0.2566 -0.1229
 1105SOL    HW214949   3.490   2.519   9.038 -1.7430  1.8515  0.3539
 1106SOL     OW14950   0.220   3.357   3.991 -0.5321 -0.0149  0.0647
 1106SOL    HW114951   0.134   3.344   3.951 -1.6067  1.1856  1.9987
 1106SOL    HW214952   0.215   3.295   4.064 -0.9573  0.1746  0.1935
 1107SOL     OW14953   2.599   1.130   2.624 -0.0767 -0.0417  0.1195
 1107SOL    HW114954   2.573   1.174   2.706  1.5705 -0.2168  0.7258
 1107SOL    HW214955   2.514   1.116   2.582 -0.7164 -1.1019  1.7532
 1108SOL     OW14956   1.287   0.255   4.738  0.0974  0.1334  0.5099
 1108SOL    HW114957   1.239   0.308   4.801 -0.4625  0.6349 -0.3418
 1108SOL    HW214958   1.244   0.172   4.759 -1.2755  0.8667  0.5495
 1109SOL     OW14959   1.669   3.042   4.614  0.3133 -0.5936 -0.1039
 1109SOL    HW114960   1.676   2.990   4.534  0.7720 -0.4905 -0.1291
 1109SOL    HW214961   1.619   2.986   4.673 -0.4779  0.7478  0.5053
 1110SOL     OW14962   1.057   2.427   8.553  0.1841 -0.0460 -0.2899
 1110SOL    HW114963   1.059   2.368   8.628  1.0939  0.4562  0.0836
 1110SOL    HW214964   1.151   2.429   8.533 -0.1033  2.4496 -1.4813
 1111SOL     OW14965   1.551   2.131   5.507  0.1360  0.2986 -0.4736
 1111SOL    HW114966   1.605   2.181   5.569 -0.6791  0.4684  0.0903
 1111SOL    HW214967   1.587   2.042   5.513 -2.0091 -0.5550 -0.4421
 1112SOL     OW14968   0.571   0.152   7.962 -0.5498 -0.4034  0.1084
 1112SOL    HW114969   0.580   0.090   8.035  3.4521 -0.5383 -0.5207
 1112SOL    HW214970   0.477   0.138   7.950 -0.6941 -0.6163  1.4889
 1113SOL     OW14971   0.044   0.387  10.112  0.3650 -0.2775 -0.1255
 1113SOL    HW114972   4.733   0.467  10.091  2.1655  1.1282  1.0392
 1113SOL    HW214973   0.099   0.423  10.182 -0.2882 -0.6451  0.5867
 1114SOL     OW14974   2.199   0.460   5.447 -0.1226 -0.0920 -0.3805
 1114SOL    HW114975   2.120   0.407   5.451  1.1229 -1.8576  0.5717
 1114SOL    HW214976   2.261   0.409   5.498 -0.7296 -0.1312  0.3273
 1115SOL     OW14977   0.730   0.183   5.309  0.6623 -0.0871  0.1324
 1115SOL    HW114978   0.759   0.245   5.242 -1.8647 -0.3222 -1.1800
 1115SOL    HW214979   0.673   0.238   5.362  0.0137 -0.4075 -0.2325
 1116SOL     OW14980   1.572   2.280   8.677 -0.2653 -0.0305  0.5991
 1116SOL    HW114981   1.591   2.357   8.731 -1.8434  0.3091  0.6959
 1116SOL    HW214982   1.645   2.276   8.616 -0.2256  2.4253  0.4548
 1117SOL     OW14983   3.614   2.785   6.830  0.6690  0.1343 -0.4123
 1117SOL    HW114984   3.657   2.727   6.893 -3.4127 -1.5240  0.8446
 1117SOL    HW214985   3.648   2.870   6.857 -1.2203  1.8028 -3.3197
 1118SOL     OW14986   4.399   0.754   5.986  0.2705 -0.2783 -0.7039
 1118SOL    HW114987   4.387   0.664   5.956 -0.2464  0.4643 -2.7465
 1118SOL    HW214988   4.404   0.754   6.082  1.1218  2.3205 -0.7515
 1119SOL     OW14989   4.572   1.423   9.312  0.0018  0.0578 -0.0040
 1119SOL    HW114990   4.479   1.444   9.321  0.0146 -0.8953  2.4576
 1119SOL    HW214991   4.579   1.465   9.227  0.9775  0.4708  0.2772
 1120SOL     OW14992   3.474   2.878   6.593  0.4183 -0.2906  0.1956
 1120SOL    HW114993   3.455   2.840   6.679 -2.5308 -0.0605 -0.3581
 1120SOL    HW214994   3.547   2.928   6.628  0.5169 -0.9085  0.8951
 1121SOL     OW14995   3.687   1.264  14.351 -0.2087 -0.1903  0.0606
 1121SOL    HW114996   3.623   1.294  14.416 -0.1667 -0.6930  0.3348
 1121SOL    HW214997   3.766   1.313  14.374  0.3799 -0.8716 -0.4970
 1122SOL     OW14998   2.818   4.320   5.451 -0.6382 -0.6551 -0.4025
 1122SOL    HW114999   2.831   4.404   5.407 -0.0125  0.0247  1.0652
 1122SOL    HW215000   2.895   4.318   5.509 -1.1076  1.1582  0.2846
 1123SOL     OW15001   0.489   2.239   4.197  0.5933 -0.1609 -0.1484
 1123SOL    HW115002   0.467   2.324   4.158  0.0991 -0.7420 -1.1480
 1123SOL    HW215003   0.534   2.278   4.272  1.1450 -1.1955  0.0601
 1124SOL     OW15004   3.446   3.234   8.366 -0.2220  0.2760 -0.0732
 1124SOL    HW115005   3.448   3.175   8.441 -0.2567 -0.3160 -0.5396
 1124SOL    HW215006   3.465   3.176   8.292  1.7659 -0.8126  1.2951
 1125SOL     OW15007   3.832   3.492   3.097 -0.3169  0.4738  0.2169
 1125SOL    HW115008   3.836   3.541   3.014 -2.6101  0.1511 -0.0837
 1125SOL    HW215009   3.908   3.435   3.091 -0.6428  0.1113 -0.4109
 1126SOL     OW15010   1.148   4.060   3.987  0.4876  0.0408  0.2409
 1126SOL    HW115011   1.230   4.098   4.019  0.3800  0.0145  0.5548
 1126SOL    HW215012   1.147   4.080   3.894  1.1938 -1.6506 -0.1447
 1127SOL     OW15013   0.047   3.687  17.117  0.3418 -0.5569  0.4565
 1127SOL    HW115014   0.012   3.776  17.106  1.4025 -0.5498 -2.8020
 1127SOL    HW215015   4.710   3.652  17.167  0.1606 -1.3319 -0.3565
 1128SOL     OW15016   3.430   2.162   3.945 -0.1001  0.2634  0.4097
 1128SOL    HW115017   3.415   2.118   4.029  0.1568  0.1206  0.3822
 1128SOL    HW215018   3.434   2.254   3.969  0.3189  0.1519  0.7582
 1129SOL     OW15019   1.725   1.438   4.167 -0.1926  0.3769 -0.8235
 1129SOL    HW115020   1.770   1.505   4.115  2.0833 -0.8862 -0.4913
 1129SOL    HW215021   1.715   1.361   4.111  0.0923 -0.3988  0.1934
 1130SOL     OW15022   3.474   0.744  10.987  0.0601  0.2447  0.3122
 1130SOL    HW115023   3.547   0.684  11.000  0.0172  0.4108  1.3810
 1130SOL    HW215024   3.396   0.689  10.990  0.9176 -0.9026  1.7909
 1131SOL     OW15025   1.951   2.636   5.045  0.0040 -0.4354  0.2781
 1131SOL    HW115026   1.901   2.660   5.123  1.1363 -3.5666  1.9362
 1131SOL    HW215027   2.024   2.588   5.082 -0.4607 -0.3352  1.3242
 1132SOL     OW15028   3.017   3.026  12.368  0.7229 -0.3441 -0.1127
 1132SOL    HW115029   3.021   3.120  12.388  1.8231 -0.4700  0.2329
 1132SOL    HW215030   3.063   3.029  12.284  1.1986 -0.0741  0.1536
 1133SOL     OW15031   1.656   1.706   8.356 -0.2869  0.0988 -0.2124
 1133SOL    HW115032   1.614   1.736   8.275 -0.0247  0.2548 -0.2885
 1133SOL    HW215033   1.741   1.749   8.355  0.1954 -0.8556  0.1050
 1134SOL     OW15034   2.668   3.135   7.530 -0.6694  0.1431  0.0308
 1134SOL    HW115035   2.721   3.193   7.475  1.9716 -1.4254  0.9180
 1134SOL    HW215036   2.677   3.049   7.488 -0.4009  0.1845  0.0013
 1135SOL     OW15037   0.164   0.558   6.531 -0.2968 -0.0474 -0.1208
 1135SOL    HW115038   0.105   0.633   6.521 -1.5311 -0.9827  0.0525
 1135SOL    HW215039   0.115   0.491   6.579 -0.3820 -0.0895 -0.2650
 1136SOL     OW15040   1.555   1.079  13.142  0.1172  0.3267 -0.4695
 1136SOL    HW115041   1.521   1.166  13.159  1.9535  0.4408  2.7465
 1136SOL    HW215042   1.569   1.070  13.048  1.3542 -0.8675 -0.1757
 1137SOL     OW15043   0.411   3.428   3.061 -0.3161 -0.0809 -0.1598
 1137SOL    HW115044   0.411   3.523   3.064 -0.4857 -0.0175 -2.4715
 1137SOL    HW215045   0.501   3.423   3.028 -0.3020  1.5910 -0.3708
 1138SOL     OW15046   2.860   4.386   7.942 -0.0674  0.1538  0.1926
 1138SOL    HW115047   2.906   4.314   7.986  0.9249 -1.0126 -2.7968
 1138SOL    HW215048   2.780   4.338   7.921  0.1387 -0.2219  0.2674
 1139SOL     OW15049   2.135   1.835   3.851  0.2652  0.3220  0.6866
 1139SOL    HW115050   2.159   1.810   3.762  3.0636  0.2796  1.4509
 1139SOL    HW215051   2.042   1.853   3.842  0.5125  1.8694  1.1472
 1140SOL     OW15052   3.795   3.755   5.447  0.1585 -0.9224 -0.1167
 1140SOL    HW115053   3.832   3.738   5.533 -0.3745 -1.7026 -0.0482
 1140SOL    HW215054   3.832   3.842   5.427 -1.4546  0.1748  1.6903
 1141SOL     OW15055   3.110   4.650   6.614  0.5286 -0.0827  0.1115
 1141SOL    HW115056   3.153   4.736   6.618 -1.1732  0.7203  1.5460
 1141SOL    HW215057   3.017   4.670   6.629  1.1338  0.9016  2.6649
 1142SOL     OW15058   0.615   1.680   6.763  1.1984  0.4214 -0.5295
 1142SOL    HW115059   0.530   1.667   6.722  1.2882  0.5057 -0.7420
 1142SOL    HW215060   0.583   1.725   6.841 -1.3006 -1.8740 -0.2473
 1143SOL     OW15061   2.873   3.409   1.997  0.3786  0.0058 -0.1450
 1143SOL    HW115062   2.864   3.462   1.918 -1.3859 -1.8891 -1.2177
 1143SOL    HW215063   2.905   3.471   2.061 -0.4902 -2.0666  2.3076
 1144SOL     OW15064   0.101   4.278  11.067 -0.3956 -0.3388  0.3303
 1144SOL    HW115065   0.096   4.358  11.119 -0.4585 -1.6743  2.3536
 1144SOL    HW215066   0.055   4.313  10.990  1.3360 -1.4911 -1.2099
 1145SOL     OW15067   1.342   3.232   4.628  0.0093 -0.4364 -0.1000
 1145SOL    HW115068   1.356   3.168   4.698  1.6052 -0.8658 -0.8260
 1145SOL    HW215069   1.344   3.311   4.681 -0.0930 -0.0284 -0.7021
 1146SOL     OW15070   4.489   4.289   6.064  0.0780 -0.0954  0.2047
 1146SOL    HW115071   4.523   4.343   6.135 -1.2466 -0.1001  0.8387
 1146SOL    HW215072   4.558   4.300   5.998 -1.5777  4.8245 -0.7175
 1147SOL     OW15073   4.182   2.873  11.246 -0.5261  0.3017  0.3233
 1147SOL    HW115074   4.130   2.835  11.175  2.6270 -0.1827 -1.7280
 1147SOL    HW215075   4.139   2.956  11.267 -0.0231  1.1790 -2.0140
 1148SOL     OW15076   3.104   1.992   7.062 -0.3610  0.6657  0.2334
 1148SOL    HW115077   3.200   1.991   7.066 -0.3841  2.5760  1.2664
 1148SOL    HW215078   3.100   1.957   6.973 -0.6654 -1.5883  1.1203
 1149SOL     OW15079   1.562   1.688   6.823  0.1923 -0.4819  0.1227
 1149SOL    HW115080   1.644   1.722   6.788 -0.1093 -0.8841 -0.9688
 1149SOL    HW215081   1.498   1.719   6.759 -0.5562 -0.9297  0.6601
 1150SOL     OW15082   2.833   0.412  15.482 -0.1407 -1.0302 -0.4843
 1150SOL    HW115083   2.790   0.455  15.407  0.0500 -0.0710 -0.0426
 1150SOL    HW215084   2.916   0.459  15.474  0.2579 -1.8170 -1.0762
 1151SOL     OW15085   2.888   4.580   9.085 -0.5219  0.2552  0.0780
 1151SOL    HW115086   2.955   4.628   9.037 -0.7025  1.3487  0.9442
 1151SOL    HW215087   2.945   4.519   9.133 -2.4167 -0.8881  0.8751
 1152SOL     OW15088   2.734   3.149  13.776  0.2400 -0.0593  0.4283
 1152SOL    HW115089   2.762   3.058  13.785 -0.0722 -0.0849  1.2056
 1152SOL    HW215090   2.683   3.156  13.857 -0.6441 -1.5365  0.0188
 1153SOL     OW15091   3.052   2.832   5.868  0.1211  0.2449  0.2365
 1153SOL    HW115092   3.052   2.913   5.919  0.8965  0.0122  0.6061
 1153SOL    HW215093   3.098   2.863   5.790  0.7225  1.1678  0.9575
 1154SOL     OW15094   2.614   1.192   2.300 -0.5511  0.4661  0.2063
 1154SOL    HW115095   2.545   1.147   2.251 -1.3460 -0.0063  1.7675
 1154SOL    HW215096   2.592   1.155   2.385 -1.1650 -3.5658 -1.7130
 1155SOL     OW15097   0.262   0.796   7.188 -0.3579  0.1264  0.6603
 1155SOL    HW115098   0.191   0.855   7.214  0.0213 -0.0213  2.0278
 1155SOL    HW215099   0.338   0.853   7.179  0.7294 -1.0501  2.3033
 1156SOL     OW15100   0.309   1.227   4.601  0.5808 -0.2724 -0.2993
 1156SOL    HW115101   0.321   1.318   4.577 -1.1256  0.2362  0.7743
 1156SOL    HW215102   0.369   1.193   4.535  1.3145 -2.0967  1.3022
 1157SOL     OW15103   3.747   0.786   3.305  0.1309  0.1056 -0.0973
 1157SOL    HW115104   3.735   0.730   3.382 -0.6800  1.1164  0.5227
 1157SOL    HW215105   3.827   0.833   3.328  0.1864 -0.7130  1.3901
 1158SOL     OW15106   2.625   2.204   6.454  0.5609 -0.1021  0.2051
 1158SOL    HW115107   2.691   2.145   6.418  0.4534  0.5621 -1.0532
 1158SOL    HW215108   2.556   2.201   6.388  2.1112 -0.0088 -1.4023
 1159SOL     OW15109   3.967   1.340   0.600 -0.0304  0.2279  0.4376
 1159SOL    HW115110   4.012   1.256   0.611  0.1415 -0.4518 -5.5993
 1159SOL    HW215111   3.939   1.323   0.511  1.3513 -0.7062  0.1905
 1160SOL     OW15112   3.331   0.505   3.315  0.2410  0.4017 -0.3335
 1160SOL    HW115113   3.391   0.574   3.343  0.4357  0.4505 -0.8561
 1160SOL    HW215114   3.280   0.496   3.395 -0.0605 -0.7682 -0.6457
 1161SOL     OW15115   4.234   0.904   7.807 -0.0979 -0.0339  0.1446
 1161SOL    HW115116   4.184   0.967   7.757 -1.3063 -2.7245 -2.0211
 1161SOL    HW215117   4.164   0.842   7.828 -0.1147  0.0415  0.3144
 1162SOL     OW15118   2.955   3.633   8.319 -0.0037  0.2355 -0.1986
 1162SOL    HW115119   2.986   3.708   8.267  2.2499  0.5644  1.6500
 1162SOL    HW215120   2.996   3.554   8.284  0.6884  1.0182 -1.1807
 1163SOL     OW15121   2.945   3.579   4.146  0.1502 -0.6219  0.0408
 1163SOL    HW115122   2.854   3.573   4.174  0.4180  0.1552  1.0917
 1163SOL    HW215123   2.931   3.571   4.052 -0.4912  1.9342 -0.0629
 1164SOL     OW15124   1.891   2.310  16.853 -0.0033 -0.2134 -0.3257
 1164SOL    HW115125   1.917   2.402  16.845 -0.5734  0.0880  1.2672
 1164SOL    HW215126   1.871   2.285  16.763  1.0770  0.2489 -0.6910
 1165SOL     OW15127   1.572   3.062   9.260 -0.0085 -0.3176  0.2139
 1165SOL    HW115128   1.502   3.056   9.325 -1.5664  1.0607 -1.3408
 1165SOL    HW215129   1.628   2.992   9.295  0.1279 -0.3627 -0.0984
 1166SOL     OW15130   3.843   0.188  13.048 -0.1943 -0.4583 -0.8208
 1166SOL    HW115131   3.894   0.269  13.045 -0.6642 -0.1281  0.1861
 1166SOL    HW215132   3.819   0.175  13.139  1.7592  0.0051 -0.2383
 1167SOL     OW15133   1.878   4.634  11.054  0.0360  0.0115  0.0831
 1167SOL    HW115134   1.795   4.676  11.029  0.9282  0.1740 -2.6647
 1167SOL    HW215135   1.850   4.548  11.023  0.0294 -0.5571  1.7016
 1168SOL     OW15136   3.276   2.987   7.391 -0.1280  0.3784  0.2668
 1168SOL    HW115137   3.242   2.929   7.323  0.1463 -0.4000  0.7794
 1168SOL    HW215138   3.199   3.008   7.443 -1.1944  0.9010 -1.5547
 1169SOL     OW15139   1.262   1.223   1.356 -0.1320  0.0888 -0.4118
 1169SOL    HW115140   1.321   1.184   1.292  0.3802 -1.6557  1.0943
 1169SOL    HW215141   1.175   1.223   1.317 -1.1127 -2.1957  1.7608
 1170SOL     OW15142   2.404   0.701   7.770 -0.0676 -0.4687 -0.3291
 1170SOL    HW115143   2.458   0.703   7.691 -1.4384 -0.4581 -1.2616
 1170SOL    HW215144   2.415   0.610   7.798 -0.7540 -0.5709 -0.3842
 1171SOL     OW15145   0.203   2.236  16.902 -0.4299 -0.4939  0.1287
 1171SOL    HW115146   0.116   2.275  16.913  0.1135  1.0230 -0.8177
 1171SOL    HW215147   0.181   2.171  16.835  0.6270 -1.1086  0.3797
 1172SOL     OW15148   0.501   2.336   3.732 -0.1049  0.3433 -0.1693
 1172SOL    HW115149   0.423   2.348   3.787  0.6124  2.0686  0.4475
 1172SOL    HW215150   0.567   2.389   3.776 -0.2171  0.4089 -0.0787
 1173SOL     OW15151   3.044   4.522   4.832 -0.3545  0.0563  0.2294
 1173SOL    HW115152   3.052   4.438   4.877 -1.1301  0.1934  0.6358
 1173SOL    HW215153   2.956   4.515   4.795 -0.5227 -2.0769  0.9963
 1174SOL     OW15154   4.522   2.822  15.045 -0.3326 -0.2786 -0.5213
 1174SOL    HW115155   4.525   2.824  15.141  0.4795 -0.9222 -0.5357
 1174SOL    HW215156   4.601   2.872  15.022  0.0336 -0.8697 -0.5597
 1175SOL     OW15157   1.831   3.802   4.906  0.0470  0.0690  0.1105
 1175SOL    HW115158   1.834   3.762   4.819  0.2068  2.4758 -0.9734
 1175SOL    HW215159   1.738   3.787   4.924  0.6177 -3.8807 -0.0682
 1176SOL     OW15160   0.731   1.758   7.612  0.0345  0.2010  0.5805
 1176SOL    HW115161   0.691   1.671   7.613 -0.1676  0.2943  0.7213
 1176SOL    HW215162   0.824   1.737   7.608  0.0751  0.7300 -1.3945
 1177SOL     OW15163   4.360   3.885  16.777 -0.1618 -0.6466 -0.0468
 1177SOL    HW115164   4.306   3.808  16.760  0.5674 -1.1768  0.0424
 1177SOL    HW215165   4.403   3.884  16.692 -1.2161 -1.8708 -0.5622
 1178SOL     OW15166   1.163   4.568  15.935  0.4324  0.4606 -0.2383
 1178SOL    HW115167   1.118   4.511  15.872 -1.0357  1.7798 -0.3689
 1178SOL    HW215168   1.089   4.594  15.990  1.0565  2.0114 -0.1363
 1179SOL     OW15169   1.200   1.604  16.504  0.3275 -0.2545 -0.0254
 1179SOL    HW115170   1.111   1.633  16.483 -0.8594 -1.4492  3.2801
 1179SOL    HW215171   1.232   1.674  16.560  1.0175 -1.0177  0.5409
 1180SOL     OW15172   0.727   1.820   5.651  0.5010 -0.3225 -0.7422
 1180SOL    HW115173   0.707   1.729   5.628 -1.6247 -0.0125 -0.1317
 1180SOL    HW215174   0.794   1.842   5.586 -0.0338  1.0626 -0.8289
 1181SOL     OW15175   2.778   0.089  16.984  0.7403  0.3225  0.2426
 1181SOL    HW115176   2.712   0.078  16.915 -0.6171  0.4951  1.5235
 1181SOL    HW215177   2.731   0.123  17.060 -0.3402 -0.2653 -0.1733
 1182SOL     OW15178   0.385   0.917  12.615 -0.5663  0.8153 -0.3758
 1182SOL    HW115179   0.433   0.888  12.693 -0.8590  0.0250 -0.4822
 1182SOL    HW215180   0.330   0.840  12.600 -1.8786  1.6061  0.2878
 1183SOL     OW15181   2.316   0.251   9.308 -0.0347 -0.1790 -0.7479
 1183SOL    HW115182   2.308   0.169   9.357 -1.6987 -0.2640 -1.1501
 1183SOL    HW215183   2.309   0.317   9.377  2.5614 -1.1688  0.4559
 1184SOL     OW15184   2.862   1.191   3.680 -0.0551 -0.2909  0.2756
 1184SOL    HW115185   2.767   1.192   3.665 -0.1376 -3.1496  0.5240
 1184SOL    HW215186   2.895   1.118   3.628  1.7350  1.1648 -0.6259
 1185SOL     OW15187   3.879   3.249   3.532  0.8587  0.0779  0.4368
 1185SOL    HW115188   3.864   3.316   3.599 -3.0566  1.3532 -1.7320
 1185SOL    HW215189   3.950   3.290   3.482  0.5279  1.5053  1.1268
 1186SOL     OW15190   0.688   0.297   2.834 -0.4114 -0.2973  0.3391
 1186SOL    HW115191   0.623   0.328   2.770 -1.9048 -2.5465  0.7691
 1186SOL    HW215192   0.728   0.234   2.775 -1.0557 -1.0463  0.6986
 1187SOL     OW15193   2.181   1.193   6.669 -0.0534 -0.3156  0.1633
 1187SOL    HW115194   2.105   1.169   6.723 -0.3047 -1.5682 -0.7491
 1187SOL    HW215195   2.240   1.178   6.743 -1.6653  0.6231  1.6383
 1188SOL     OW15196   4.727   1.459   7.446 -0.0952  0.4705 -0.2575
 1188SOL    HW115197   0.006   1.495   7.359 -2.4152  1.9718 -0.0627
 1188SOL    HW215198   0.039   1.522   7.499  0.6567  0.0606 -0.4638
 1189SOL     OW15199   0.990   4.193  15.590  0.5370 -0.2834 -0.0380
 1189SOL    HW115200   0.958   4.107  15.563  0.2685 -0.9575  2.4552
 1189SOL    HW215201   1.085   4.191  15.580  0.7961  2.5306  2.2703
 1190SOL     OW15202   3.975   4.147   7.395  0.1265 -0.2567 -0.3169
 1190SOL    HW115203   4.060   4.169   7.434 -0.0008 -1.0403  0.3859
 1190SOL    HW215204   3.906   4.177   7.454  0.4306  1.8547 -1.0226
 1191SOL     OW15205   3.781   1.225   9.650  0.2516 -0.3173  0.5008
 1191SOL    HW115206   3.740   1.204   9.566  1.7911  2.3975 -0.8878
 1191SOL    HW215207   3.869   1.198   9.624 -0.0016 -0.9137  0.2540
 1192SOL     OW15208   0.728   3.804   1.420  0.2036 -0.0758  0.2205
 1192SOL    HW115209   0.724   3.899   1.422 -0.5997 -0.1465  2.1828
 1192SOL    HW215210   0.637   3.785   1.398  0.0561 -1.5338  2.0966
 1193SOL     OW15211   1.336   1.178   5.598 -0.4542  0.0565 -0.4642
 1193SOL    HW115212   1.354   1.111   5.664 -0.7665 -0.5298 -0.9772
 1193SOL    HW215213   1.241   1.179   5.606 -0.2286  0.6486  2.2213
 1194SOL     OW15214   2.406   0.107   3.434  0.7380 -0.5712  0.0640
 1194SOL    HW115215   2.446   0.064   3.508 -1.7371 -1.2777  0.9933
 1194SOL    HW215216   2.412   0.191   3.480  2.2744 -1.5720  1.6412
 1195SOL     OW15217   4.725   1.469   5.984 -0.5361 -0.2326  0.0875
 1195SOL    HW115218   4.697   1.560   5.997  0.8557  0.1074  0.7009
 1195SOL    HW215219   4.718   1.458   5.889  0.3772  1.1206 -0.1438
 1196SOL     OW15220   1.975   2.480   1.268 -0.1862 -0.4320  0.4289
 1196SOL    HW115221   2.006   2.558   1.221 -2.2625 -0.4450 -0.9366
 1196SOL    HW215222   1.964   2.416   1.198  0.9632 -0.9762  0.7458
 1197SOL     OW15223   1.661   2.165  10.513 -0.3860  0.0233 -0.4298
 1197SOL    HW115224   1.604   2.241  10.530  0.8918  0.9003 -0.0381
 1197SOL    HW215225   1.648   2.118  10.595  0.9433 -1.1951 -0.9244
 1198SOL     OW15226   4.209   1.860   7.592 -0.1154 -0.3547  0.0931
 1198SOL    HW115227   4.297   1.845   7.625 -0.2617  0.6322  0.9577
 1198SOL    HW215228   4.222   1.827   7.504  2.4089  0.8745  0.0135
 1199SOL     OW15229   0.830   3.764   7.346  0.0316 -0.5467 -0.3467
 1199SOL    HW115230   0.740   3.791   7.362  1.1866  2.1953  1.6461
 1199SOL    HW215231   0.875   3.800   7.423 -0.4208 -1.2112  0.2347
 1200SOL     OW15232   2.327   2.518  16.686 -0.0534  0.0299 -0.4605
 1200SOL    HW115233   2.406   2.468  16.708  1.3957  2.7541  0.4711
 1200SOL    HW215234   2.311   2.494  16.594  1.5595 -1.1373 -0.4355
 1201SOL     OW15235   2.355   3.651   0.389 -0.5073 -0.2213  0.4421
 1201SOL    HW115236   2.327   3.724   0.443 -3.4403 -0.3759 -0.8355
 1201SOL    HW215237   2.304   3.579   0.426 -2.1843  0.9867  0.5077
 1202SOL     OW15238   1.045   0.876  14.920  0.0491 -0.4939 -0.0233
 1202SOL    HW115239   1.092   0.813  14.865 -0.4233 -0.4405 -0.4944
 1202SOL    HW215240   0.964   0.828  14.933 -0.5916 -0.1465 -2.7379
 1203SOL     OW15241   1.840   2.590   4.678  0.1250  0.7738 -0.5716
 1203SOL    HW115242   1.863   2.518   4.737  1.7597  3.2800  1.8894
 1203SOL    HW215243   1.928   2.630   4.676 -0.2174  1.6039  0.4567
 1204SOL     OW15244   4.568   0.765   8.882  0.6281  0.0616  0.0105
 1204SOL    HW115245   4.622   0.762   8.803  0.0002  1.6667 -0.4683
 1204SOL    HW215246   4.619   0.828   8.933 -1.1322  0.2714  1.5181
 1205SOL     OW15247   4.450   2.932   0.003 -0.3262  0.2293  0.4136
 1205SOL    HW115248   4.358   2.951  17.734  0.1575  1.3361 -1.0217
 1205SOL    HW215249   4.488   2.985  17.681  0.2080  0.8069  1.1371
 1206SOL     OW15250   3.052   2.258   8.349  0.1721  0.9832 -0.2233
 1206SOL    HW115251   3.072   2.235   8.258 -0.9491 -1.3567  0.1259
 1206SOL    HW215252   3.130   2.305   8.379 -0.0374 -0.1123  2.0030
 1207SOL     OW15253   1.847   3.289   1.964 -0.0993  0.2170 -0.1924
 1207SOL    HW115254   1.785   3.297   1.891 -0.2212  0.3350 -0.0751
 1207SOL    HW215255   1.791   3.277   2.040  0.2060  0.2530  0.0364
 1208SOL     OW15256   1.642   3.494   5.912 -0.0463  0.2875 -0.5524
 1208SOL    HW115257   1.733   3.465   5.916  0.4654  2.1391  1.5022
 1208SOL    HW215258   1.603   3.415   5.949  0.4977 -0.0816 -0.7658
 1209SOL     OW15259   4.596   0.050   1.611  0.0026  0.3020  0.4566
 1209SOL    HW115260   4.507   0.044   1.577 -0.7210 -0.7637  2.5739
 1209SOL    HW215261   4.616   4.695   1.625 -1.2679 -0.2088 -1.0950
 1210SOL     OW15262   3.976   2.133   7.903  0.1409  0.0131  0.4128
 1210SOL    HW115263   4.034   2.192   7.952  1.4303 -0.8453 -0.0567
 1210SOL    HW215264   4.044   2.066   7.895  0.1056 -0.0389  0.5436
 1211SOL     OW15265   3.106   2.339  11.580 -0.8399 -0.0657 -0.3892
 1211SOL    HW115266   3.199   2.362  11.583 -0.6894 -0.6037 -0.8204
 1211SOL    HW215267   3.060   2.413  11.618  0.3296  1.1602 -1.3625
 1212SOL     OW15268   0.752   1.058   9.905  0.1533 -0.5087 -0.3412
 1212SOL    HW115269   0.824   1.081   9.964  0.0465  0.0657 -0.4355
 1212SOL    HW215270   0.798   0.996   9.849  2.8525 -0.5096  1.8603
 1213SOL     OW15271   0.044   2.437   6.997 -0.2773  0.1175 -0.0833
 1213SOL    HW115272   0.114   2.496   7.023  1.8121 -2.4998  0.2941
 1213SOL    HW215273   4.733   2.439   7.080  0.9286  3.7365  0.4873
 1214SOL     OW15274   4.641   0.248   5.820  0.4708  0.0933 -0.2291
 1214SOL    HW115275   4.648   0.239   5.915 -1.0283  1.4705  0.0119
 1214SOL    HW215276   4.662   0.341   5.809 -3.1061  0.8025 -0.9481
 1215SOL     OW15277   1.371   4.397   8.381 -0.1098 -0.4486 -0.2636
 1215SOL    HW115278   1.277   4.418   8.382 -0.4220 -1.8964  0.3374
 1215SOL    HW215279   1.406   4.473   8.428 -2.3674 -0.7513  1.9007
 1216SOL     OW15280   2.691   0.288   6.768 -0.3059  0.2993 -0.2462
 1216SOL    HW115281   2.767   0.284   6.709  2.5042  1.7663  3.2712
 1216SOL    HW215282   2.649   0.368   6.737 -0.1728  0.2969 -0.4340
 1217SOL     OW15283   4.461   1.377   9.876 -0.3410 -0.0019 -0.1708
 1217SOL    HW115284   4.424   1.313   9.936  0.7711 -1.0402 -0.5900
 1217SOL    HW215285   4.554   1.356   9.887 -0.8492 -2.3316 -0.2626
 1218SOL     OW15286   2.610   1.799   4.335  0.1465  0.3872 -0.1273
 1218SOL    HW115287   2.617   1.736   4.262 -1.5347  1.3619 -1.1269
 1218SOL    HW215288   2.520   1.830   4.329 -0.5042 -1.5600 -0.6168
 1219SOL     OW15289   1.875   1.561  14.359 -0.2680 -0.3479 -0.2923
 1219SOL    HW115290   1.818   1.489  14.334  0.2397 -0.2678 -1.6326
 1219SOL    HW215291   1.815   1.628  14.393 -1.6079 -1.7398  0.0553
 1220SOL     OW15292   0.246   3.153   7.670  0.3388  0.1665  0.2997
 1220SOL    HW115293   0.341   3.152   7.685  0.5032 -2.8756 -1.0350
 1220SOL    HW215294   0.232   3.104   7.588  2.6412  1.6791 -1.0204
 1221SOL     OW15295   0.274   0.420   5.163 -0.8192  0.6156 -0.6038
 1221SOL    HW115296   0.286   0.441   5.256  0.2290  0.2145 -0.6525
 1221SOL    HW215297   0.355   0.379   5.134 -0.0225  1.2840  0.6699
 1222SOL     OW15298   0.201   1.052   2.988  0.1639  0.1276  0.1537
 1222SOL    HW115299   0.222   1.069   3.080 -2.4802  1.3273  0.5313
 1222SOL    HW215300   0.228   1.134   2.947 -0.0397  0.9364  1.6523
 1223SOL     OW15301   4.686   4.086   7.831 -0.2135  0.0521  0.3704
 1223SOL    HW115302   4.702   3.996   7.861 -0.2631 -1.2644 -3.5868
 1223SOL    HW215303   4.596   4.077   7.801 -1.1536  2.8144  2.3362
 1224SOL     OW15304   2.450   2.713   0.853 -0.3861 -0.3049 -0.3921
 1224SOL    HW115305   2.522   2.751   0.904  1.7346 -0.5957 -3.2053
 1224SOL    HW215306   2.364   2.749   0.874  0.2883 -0.2097  2.2307
 1225SOL     OW15307   3.889   4.625   7.665 -0.2721 -0.6607 -0.0132
 1225SOL    HW115308   3.835   4.703   7.677 -1.1442 -1.4036  0.8760
 1225SOL    HW215309   3.913   4.608   7.757  0.1008 -1.0809 -0.1891
 1226SOL     OW15310   0.230   4.630   8.111 -0.2230 -0.1877  0.3150
 1226SOL    HW115311   0.244   4.704   8.051 -0.0721 -0.7590 -0.3576
 1226SOL    HW215312   0.178   4.674   8.177 -0.0820  1.7737 -0.8638
 1227SOL     OW15313   0.157   0.206  17.323 -0.3893 -0.6009 -0.0590
 1227SOL    HW115314   0.125   0.124  17.286 -3.3623  0.1563  0.8177
 1227SOL    HW215315   0.089   0.267  17.295 -0.3756 -0.6362 -0.1653
 1228SOL     OW15316   0.236   2.069  12.731 -0.2939 -0.3842  0.4850
 1228SOL    HW115317   0.201   2.155  12.754  0.6482  0.1443 -0.0705
 1228SOL    HW215318   0.300   2.058  12.801  1.7976  1.9725 -1.0645
 1229SOL     OW15319   0.644   2.618   6.957  0.8133  0.0688  0.2039
 1229SOL    HW115320   0.734   2.622   6.923  1.9084 -1.6204  2.8772
 1229SOL    HW215321   0.649   2.684   7.026  1.5246  0.8444 -0.5895
 1230SOL     OW15322   0.192   0.255   5.426 -0.1652  0.4209 -0.1440
 1230SOL    HW115323   0.101   0.285   5.427 -0.5504 -0.7157 -1.0973
 1230SOL    HW215324   0.244   0.322   5.470  2.7217 -0.1228 -2.6863
 1231SOL     OW15325   2.504   1.182  13.207 -0.0025  0.3464 -0.1245
 1231SOL    HW115326   2.443   1.218  13.272 -0.6731 -1.7261  0.3930
 1231SOL    HW215327   2.471   1.092  13.209  1.7384 -0.2745  0.4365
 1232SOL     OW15328   2.705   4.640  12.011  0.1782 -0.0030  0.5957
 1232SOL    HW115329   2.772   4.574  12.031 -1.4863 -2.1371 -0.9495
 1232SOL    HW215330   2.751   4.679  11.936  0.3477 -2.7659 -0.7176
 1233SOL     OW15331   2.660   0.777  12.693 -0.5055 -0.0746 -0.8016
 1233SOL    HW115332   2.719   0.750  12.623 -0.1744  0.6941 -0.8193
 1233SOL    HW215333   2.703   0.860  12.713 -1.2433 -0.3181  1.7174
 1234SOL     OW15334   3.307   3.459   9.307 -0.1640  1.1660 -0.3294
 1234SOL    HW115335   3.270   3.541   9.338 -2.3780 -0.5630  1.6084
 1234SOL    HW215336   3.327   3.417   9.390  0.8929 -1.9775 -2.1573
 1235SOL     OW15337   3.748   2.472   1.128  0.2274  0.0294 -0.2596
 1235SOL    HW115338   3.687   2.419   1.077 -1.0125  2.8583 -1.7049
 1235SOL    HW215339   3.809   2.402   1.153 -1.3468 -1.0905  0.4424
 1236SOL     OW15340   0.058   3.516  11.364 -0.0564 -0.0374  0.2410
 1236SOL    HW115341   0.004   3.460  11.309  2.0990 -1.1945 -0.7198
 1236SOL    HW215342   0.032   3.602  11.330  2.9409  0.9728  0.4632
 1237SOL     OW15343   2.040   1.277   5.778 -0.2943 -0.0537  0.0212
 1237SOL    HW115344   1.985   1.207   5.815 -0.2741  0.8803  1.7931
 1237SOL    HW215345   2.054   1.319   5.862  1.5739 -1.0767  0.2080
 1238SOL     OW15346   1.511   3.560  16.627  0.3525 -0.5595 -0.4594
 1238SOL    HW115347   1.488   3.565  16.534 -1.6725  0.3985  0.0953
 1238SOL    HW215348   1.603   3.539  16.613 -0.0118  0.7347 -4.7754
 1239SOL     OW15349   1.044   2.428   6.945 -0.0294 -0.0174  0.5724
 1239SOL    HW115350   1.065   2.513   6.908 -1.0767 -0.1718 -0.3623
 1239SOL    HW215351   1.084   2.364   6.886 -0.6643 -0.2084  0.3579
 1240SOL     OW15352   0.337   1.540   1.048 -0.0941 -0.1066 -0.4784
 1240SOL    HW115353   0.255   1.533   0.998 -0.0389 -0.6615 -0.4821
 1240SOL    HW215354   0.296   1.489   1.118  0.2238  0.3833  0.0572
 1241SOL     OW15355   0.330   2.276   3.162  0.0195 -0.3882 -0.3159
 1241SOL    HW115356   0.350   2.199   3.215  0.4491  0.1627  0.3243
 1241SOL    HW215357   0.251   2.302   3.208 -0.1159  1.3930 -1.5313
 1242SOL     OW15358   3.168   3.203  14.702 -0.2593  0.1621  0.6327
 1242SOL    HW115359   3.110   3.182  14.629 -0.9008  2.0745  0.5883
 1242SOL    HW215360   3.244   3.145  14.705 -1.0063 -0.8922 -0.9562
 1243SOL     OW15361   0.184   1.854   9.410 -0.1847  0.2583 -0.6464
 1243SOL    HW115362   0.169   1.787   9.343  1.7617  0.1449 -0.9690
 1243SOL    HW215363   0.235   1.803   9.473 -0.2909  0.5701 -0.3096
 1244SOL     OW15364   2.970   3.632   2.987  0.1023 -0.1700  0.8666
 1244SOL    HW115365   3.032   3.678   2.930  0.6766  1.5360  2.8868
 1244SOL    HW215366   3.028   3.596   3.053 -0.4984  1.5508  2.3235
 1245SOL     OW15367   2.794   0.651   7.778  0.0477  0.5509 -0.4884
 1245SOL    HW115368   2.868   0.699   7.741  0.4617 -0.0305 -0.4132
 1245SOL    HW215369   2.742   0.718   7.823 -0.2114 -0.1307  0.2405
 1246SOL     OW15370   0.827   1.963  11.538 -0.6154 -0.1194 -0.0045
 1246SOL    HW115371   0.813   1.940  11.446 -1.4925 -0.0512  0.1111
 1246SOL    HW215372   0.859   2.052  11.533 -2.0883  0.3394 -1.3885
 1247SOL     OW15373   0.846   3.913   3.977  0.8219  0.5948  0.2874
 1247SOL    HW115374   0.841   3.959   4.060 -3.2611 -0.9482  0.8909
 1247SOL    HW215375   0.907   3.972   3.932  0.7359 -0.3946 -1.1381
 1248SOL     OW15376   1.280   3.826   7.822  0.1011 -0.8377 -0.2636
 1248SOL    HW115377   1.321   3.886   7.760 -0.3450  1.6313  1.8010
 1248SOL    HW215378   1.341   3.818   7.896 -0.4778 -0.3829  0.2593
 1249SOL     OW15379   3.226   1.380   5.445 -0.3495 -0.0394  0.2214
 1249SOL    HW115380   3.280   1.442   5.493  0.3593 -0.9672  0.6190
 1249SOL    HW215381   3.268   1.381   5.359  0.4355  1.2631  0.6286
 1250SOL     OW15382   4.270   4.531   1.981 -0.3643 -0.4312  0.2293
 1250SOL    HW115383   4.194   4.574   2.021 -0.4333  0.4774 -0.9030
 1250SOL    HW215384   4.302   4.593   1.916 -2.5044  0.0465 -0.3885
 1251SOL     OW15385   3.146   4.074   7.413 -0.5641  0.0195 -0.2175
 1251SOL    HW115386   3.138   4.046   7.504 -1.5866 -0.9107 -0.5821
 1251SOL    HW215387   3.128   4.167   7.426 -2.5056 -0.1358 -1.7670
 1252SOL     OW15388   2.473   1.394   8.592 -0.2969 -0.0210  0.0123
 1252SOL    HW115389   2.476   1.350   8.676  0.3154 -1.8976 -0.9920
 1252SOL    HW215390   2.429   1.327   8.539 -0.0362  0.3424 -0.6722
 1253SOL     OW15391   2.541   1.845   3.050 -0.0265  0.3101 -0.2757
 1253SOL    HW115392   2.577   1.788   2.982  1.4535  0.1902  0.6153
 1253SOL    HW215393   2.585   1.928   3.031  0.3313  0.7798  2.6508
 1254SOL     OW15394   2.752   4.218   7.552 -0.0899  0.0356  0.0316
 1254SOL    HW115395   2.807   4.277   7.500 -1.0474  0.9131  0.0243
 1254SOL    HW215396   2.802   4.144   7.586  0.0379  0.9212  1.7978
 1255SOL     OW15397   4.214   3.592  12.341  0.1514 -0.9089  0.4592
 1255SOL    HW115398   4.303   3.579  12.373 -0.3652  0.0301  2.2593
 1255SOL    HW215399   4.172   3.652  12.402 -1.0035 -0.2889 -0.9168
 1256SOL     OW15400   3.161   1.965   8.326  0.0111  0.1197  0.5668
 1256SOL    HW115401   3.187   1.991   8.414  0.3324  1.1632  0.1685
 1256SOL    HW215402   3.228   2.014   8.278 -0.0465 -0.1315  0.2309
 1257SOL     OW15403   2.126   0.136   8.662  0.3397 -0.0313 -0.6364
 1257SOL    HW115404   2.057   0.089   8.615  1.4551 -2.5091  0.2188
 1257SOL    HW215405   2.181   0.070   8.704 -1.9629 -0.0909  2.3369
 1258SOL     OW15406   0.183   1.435  13.891  0.5262 -0.1896 -0.2255
 1258SOL    HW115407   0.247   1.371  13.923 -1.4496 -1.0377  2.0595
 1258SOL    HW215408   0.100   1.389  13.901  1.4809 -1.8117  0.3072
 1259SOL     OW15409   4.637   3.315  14.101  0.1475 -0.2845 -0.0438
 1259SOL    HW115410   4.646   3.331  14.195  0.4710  1.8450 -0.4322
 1259SOL    HW215411   4.590   3.231  14.099  0.2126 -0.3293  0.4688
 1260SOL     OW15412   4.314   1.346  11.489 -0.0142  0.0028  0.5091
 1260SOL    HW115413   4.302   1.440  11.501 -0.5829 -0.1049  0.7932
 1260SOL    HW215414   4.223   1.320  11.474 -0.1269  1.2635 -0.9497
 1261SOL     OW15415   3.257   4.450   8.900 -0.7400  0.1124  0.2456
 1261SOL    HW115416   3.287   4.360   8.918 -2.5679 -0.7071 -0.8364
 1261SOL    HW215417   3.189   4.436   8.835 -0.9147 -0.7940  0.6199
 1262SOL     OW15418   3.469   1.751   8.443 -0.8661 -0.9676 -0.5968
 1262SOL    HW115419   3.384   1.710   8.433 -1.3694  0.2473 -1.2588
 1262SOL    HW215420   3.480   1.746   8.538  1.7515 -2.5860 -0.9735
 1263SOL     OW15421   4.333   1.326   7.119 -0.9129 -0.2736 -0.5309
 1263SOL    HW115422   4.390   1.297   7.191 -0.1405  1.5227 -0.4106
 1263SOL    HW215423   4.355   1.280   7.038  0.7455 -0.6144  0.0983
 1264SOL     OW15424   2.462   3.561  14.267  0.2372  0.2041 -0.2741
 1264SOL    HW115425   2.458   3.504  14.189 -0.9963  0.9796 -0.7694
 1264SOL    HW215426   2.461   3.651  14.234  0.0145  0.3791  0.2229
 1265SOL     OW15427   1.816   1.983   7.469 -0.0690  0.3064 -0.1405
 1265SOL    HW115428   1.861   2.062   7.440  0.3772  0.2357  0.3433
 1265SOL    HW215429   1.838   1.930   7.393 -1.5151 -1.3881  0.6119
 1266SOL     OW15430   2.094   2.457  13.614 -0.2695  0.4640 -0.1592
 1266SOL    HW115431   2.168   2.397  13.620  0.0798  0.8831 -0.3103
 1266SOL    HW215432   2.114   2.476  13.522  0.6797  1.9694  0.3614
 1267SOL     OW15433   4.587   2.533   4.356 -0.3347  0.3466  0.1884
 1267SOL    HW115434   4.525   2.497   4.292 -0.0434 -4.5494  2.6348
 1267SOL    HW215435   4.663   2.477   4.338 -0.0678  0.7993 -0.1005
 1268SOL     OW15436   1.478   3.707  13.957  0.1324  0.4825  0.5236
 1268SOL    HW115437   1.492   3.695  14.051 -0.7605  0.9451  0.7085
 1268SOL    HW215438   1.385   3.684  13.955  0.0985  0.7682 -1.6148
 1269SOL     OW15439   0.396   2.518   7.295 -0.4463 -0.2256  0.4351
 1269SOL    HW115440   0.333   2.488   7.361  1.8746 -1.6658  2.0222
 1269SOL    HW215441   0.473   2.527   7.351  0.2486 -0.8639 -0.4173
 1270SOL     OW15442   1.742   2.333   2.067 -0.2943  0.2902  0.1102
 1270SOL    HW115443   1.718   2.388   2.142  0.9307 -0.9010  1.3695
 1270SOL    HW215444   1.732   2.243   2.098 -0.6397 -0.1167 -1.1775
 1271SOL     OW15445   2.231   4.506  14.786 -0.0171 -0.2976  0.4327
 1271SOL    HW115446   2.326   4.499  14.793  0.0353  0.0156  0.0394
 1271SOL    HW215447   2.202   4.450  14.715  2.7398  1.6042 -2.1780
 1272SOL     OW15448   2.000   3.192   8.910  0.1614  0.2230 -0.5129
 1272SOL    HW115449   1.997   3.270   8.965 -0.3665  0.8063 -1.3642
 1272SOL    HW215450   2.063   3.217   8.842  2.2396 -1.8558  0.6541
 1273SOL     OW15451   4.368   3.179   2.009 -0.0292 -0.1500 -0.3550
 1273SOL    HW115452   4.461   3.199   2.011  0.6269 -3.2425  0.1786
 1273SOL    HW215453   4.377   3.117   2.082 -0.3186 -1.6366 -1.5897
 1274SOL     OW15454   0.093   1.416   4.318 -0.3881  0.2782 -0.3990
 1274SOL    HW115455   0.099   1.327   4.285 -1.2321 -0.5101  1.5725
 1274SOL    HW215456   0.153   1.455   4.255  1.6005 -2.5299 -0.2099
 1275SOL     OW15457   3.076   4.253  17.155  0.7636  0.2453 -0.0543
 1275SOL    HW115458   2.997   4.296  17.186  0.2502 -0.8178  0.0900
 1275SOL    HW215459   3.114   4.315  17.093 -0.1328 -0.5922 -1.4311
 1276SOL     OW15460   0.827   4.394  16.184  0.3621  0.5098  0.4344
 1276SOL    HW115461   0.742   4.421  16.218  0.3634 -1.2039  1.8002
 1276SOL    HW215462   0.805   4.372  16.094 -1.6876  0.8186  0.8678
 1277SOL     OW15463   0.191   2.797  15.952  0.2512  0.2077  0.3882
 1277SOL    HW115464   0.182   2.737  15.878  0.9762 -0.3497  0.7514
 1277SOL    HW215465   0.286   2.802  15.955  0.4314 -0.8150 -3.2139
 1278SOL     OW15466   3.897   3.521   8.445  0.2884 -0.7152 -0.5265
 1278SOL    HW115467   3.904   3.597   8.387  1.4379 -1.2697 -1.1181
 1278SOL    HW215468   3.987   3.490   8.441  0.8905  1.0285 -0.9234
 1279SOL     OW15469   2.231   1.012   3.775  0.0184  0.0393 -0.0314
 1279SOL    HW115470   2.226   0.952   3.701 -0.2926  0.1926 -0.1368
 1279SOL    HW215471   2.176   0.968   3.840 -0.0090  1.6071  1.0217
 1280SOL     OW15472   1.493   4.333   5.204 -0.0483 -0.1884  0.7547
 1280SOL    HW115473   1.454   4.285   5.131 -1.0025 -0.6820  1.5904
 1280SOL    HW215474   1.581   4.343   5.168  1.1974 -0.9724  3.5739
 1281SOL     OW15475   1.374   3.072   8.768 -0.2151 -0.0327  0.6395
 1281SOL    HW115476   1.467   3.051   8.775 -0.3100 -0.3776  0.8638
 1281SOL    HW215477   1.355   3.108   8.854 -0.3896 -0.7952  0.9171
 1282SOL     OW15478   0.249   3.000   6.053 -0.2983 -0.8903  0.1101
 1282SOL    HW115479   0.164   2.978   6.090 -0.6408  0.0185 -0.1287
 1282SOL    HW215480   0.275   2.915   6.017  0.5575 -0.7422  0.3741
 1283SOL     OW15481   4.630   0.129   9.319  0.0938 -0.3126  0.2873
 1283SOL    HW115482   4.566   0.138   9.249 -0.4830  0.8988  0.9678
 1283SOL    HW215483   4.562   0.137   9.387  1.4758  2.2192  1.3538
 1284SOL     OW15484   3.719   2.048   2.219  0.0700 -0.0746  0.0673
 1284SOL    HW115485   3.725   2.143   2.227 -0.8940 -0.2280  2.5193
 1284SOL    HW215486   3.810   2.018   2.225  0.2874  1.0525  2.5358
 1285SOL     OW15487   3.824   1.089   6.524 -0.1079 -0.2414 -1.0156
 1285SOL    HW115488   3.764   1.117   6.454 -1.3991 -2.2410 -0.7105
 1285SOL    HW215489   3.901   1.058   6.476  0.5411 -0.7756  0.3740
 1286SOL     OW15490   1.023   3.533   3.098 -0.3926  0.1829 -0.0464
 1286SOL    HW115491   1.008   3.448   3.057  1.0467 -0.4966  0.8421
 1286SOL    HW215492   1.109   3.511   3.132 -0.7165 -1.4422 -0.2902
 1287SOL     OW15493   3.888   0.309  11.593 -0.1328  0.3616  0.0594
 1287SOL    HW115494   3.894   0.402  11.572  1.9148  0.5040  1.4063
 1287SOL    HW215495   3.864   0.268  11.509 -2.5457 -0.5800  1.2035
 1288SOL     OW15496   0.787   2.766   8.365 -0.5559 -0.2096 -0.4757
 1288SOL    HW115497   0.697   2.761   8.332 -0.3624 -1.9542 -0.7398
 1288SOL    HW215498   0.828   2.774   8.278  1.7745  0.5463  0.6921
 1289SOL     OW15499   4.016   2.303  13.006 -0.5924 -0.0850  0.0680
 1289SOL    HW115500   4.029   2.224  12.955 -0.7643 -1.0538  1.5320
 1289SOL    HW215501   4.099   2.307  13.054 -1.0390  0.8793  0.7641
 1290SOL     OW15502   4.039   4.568  14.429  0.4145  0.0920 -0.0285
 1290SOL    HW115503   4.103   4.497  14.421 -2.7763 -2.9564  1.2645
 1290SOL    HW215504   4.022   4.569  14.523 -1.9784 -0.3663 -0.4407
 1291SOL     OW15505   4.561   3.793   0.471 -0.0409  0.4863  0.1164
 1291SOL    HW115506   4.554   3.815   0.378  1.4887 -1.2926 -0.4290
 1291SOL    HW215507   4.611   3.713   0.456 -0.3066  0.4830 -0.7451
 1292SOL     OW15508   2.188   4.145   7.351 -0.2759  0.5329  0.0555
 1292SOL    HW115509   2.169   4.077   7.287  2.9891 -0.1364 -0.1794
 1292SOL    HW215510   2.097   4.155   7.380  0.0932  1.9174  0.7739
 1293SOL     OW15511   1.828   2.998   4.074 -0.0456  0.4077 -0.2473
 1293SOL    HW115512   1.845   3.043   4.157  0.6680  0.9181 -0.6677
 1293SOL    HW215513   1.811   2.909   4.106 -0.0728  0.6374  0.3854
 1294SOL     OW15514   2.334   4.574   7.325 -0.1746 -0.0014 -0.3054
 1294SOL    HW115515   2.334   4.493   7.274  0.5804 -0.9678  1.2373
 1294SOL    HW215516   2.408   4.554   7.383 -0.9211  0.7249  0.9128
 1295SOL     OW15517   0.753   0.146  14.862  0.0811 -0.4379 -0.0658
 1295SOL    HW115518   0.704   0.217  14.903 -1.1031 -1.3850  0.1409
 1295SOL    HW215519   0.835   0.156  14.911 -0.4395 -2.1480  1.1562
 1296SOL     OW15520   0.119   4.424   1.583  0.1528  0.6011 -0.2801
 1296SOL    HW115521   0.029   4.456   1.579 -0.3073 -0.8072 -1.2366
 1296SOL    HW215522   0.176   4.501   1.580 -0.0108  0.6640 -1.8632
 1297SOL     OW15523   1.242   0.279   5.041 -0.3066 -0.5572 -0.0992
 1297SOL    HW115524   1.190   0.225   5.100 -1.7813  0.7965 -0.1441
 1297SOL    HW215525   1.196   0.363   5.038  1.1984  0.1179 -3.8618
 1298SOL     OW15526   1.995   3.968   1.031 -0.0360  0.2027 -0.1630
 1298SOL    HW115527   1.935   3.893   1.031  1.7406 -1.1665  4.3984
 1298SOL    HW215528   2.067   3.939   1.086 -1.8029 -1.2561  1.3709
 1299SOL     OW15529   1.513   0.246   8.503  0.0245  0.1412  0.3076
 1299SOL    HW115530   1.567   0.285   8.435 -1.8911 -1.1854 -1.9664
 1299SOL    HW215531   1.488   0.320   8.559 -0.5287 -1.6125  2.3580
 1300SOL     OW15532   3.616   4.555   7.537  0.4460 -0.3837 -0.6327
 1300SOL    HW115533   3.703   4.566   7.575  0.4929 -0.5812 -0.6806
 1300SOL    HW215534   3.551   4.597   7.593  0.3533 -0.6743 -0.5232
 1301SOL     OW15535   3.484   2.218   8.870  0.3835  0.4696 -0.6447
 1301SOL    HW115536   3.465   2.148   8.932  3.0705  0.2956  0.0050
 1301SOL    HW215537   3.447   2.295   8.913  0.6569  0.1445  0.1725
 1302SOL     OW15538   0.869   1.534  15.170 -0.1526  0.6645  0.1423
 1302SOL    HW115539   0.946   1.531  15.226  0.1324 -0.9264 -0.3075
 1302SOL    HW215540   0.914   1.539  15.085 -1.0889  1.4170 -0.3104
 1303SOL     OW15541   1.162   1.825  14.017  0.0699  0.4233  0.4571
 1303SOL    HW115542   1.099   1.887  13.981  0.2056  0.0540 -0.3988
 1303SOL    HW215543   1.221   1.887  14.061 -0.3832  1.3955 -0.3144
 1304SOL     OW15544   3.822   1.528   7.192  0.5377  0.3913  0.0936
 1304SOL    HW115545   3.780   1.577   7.262  0.2437 -1.7788  1.4576
 1304SOL    HW215546   3.906   1.573   7.186 -0.9247  2.9449 -1.1431
 1305SOL     OW15547   2.123   1.915   8.442  0.6116 -0.1770 -0.0563
 1305SOL    HW115548   2.097   1.836   8.489  0.4085  0.9072  1.6408
 1305SOL    HW215549   2.150   1.973   8.513  2.0896  0.9524 -1.5540
 1306SOL     OW15550   3.491   1.991   8.251 -0.1606  0.5699 -0.0663
 1306SOL    HW115551   3.497   1.930   8.324  0.3345  2.2795  1.3080
 1306SOL    HW215552   3.538   1.943   8.183  0.8386 -1.5006  2.1189
 1307SOL     OW15553   0.997   3.445   0.460 -0.0543  0.5189 -0.4393
 1307SOL    HW115554   0.958   3.360   0.439  1.0071 -0.6850  2.3550
 1307SOL    HW215555   1.092   3.438   0.454 -0.0126 -0.4183  1.2213
 1308SOL     OW15556   1.039   2.490  10.516  0.6780  0.5642 -0.5138
 1308SOL    HW115557   1.031   2.552  10.444 -1.7302  0.7191 -0.0854
 1308SOL    HW215558   1.111   2.527  10.567  0.2126  1.0347 -0.2083
 1309SOL     OW15559   0.769   4.169   7.685 -0.4005  0.5407 -0.2584
 1309SOL    HW115560   0.818   4.115   7.748  1.3280  0.7634 -1.3915
 1309SOL    HW215561   0.817   4.252   7.681 -2.5519  1.8112  0.1868
 1310SOL     OW15562   1.125   3.205   9.334  0.0359 -0.5638  0.0735
 1310SOL    HW115563   1.065   3.277   9.316 -0.1221 -0.7369 -0.1014
 1310SOL    HW215564   1.198   3.250   9.375  0.6421  1.0359 -2.7315
 1311SOL     OW15565   3.680   3.150   2.596  0.0445  0.0217 -0.0717
 1311SOL    HW115566   3.768   3.154   2.561  0.4152 -0.0316  0.8430
 1311SOL    HW215567   3.630   3.121   2.520  2.3657 -2.2638 -0.7035
 1312SOL     OW15568   0.343   2.002   4.601 -0.2328  0.2100 -0.1013
 1312SOL    HW115569   0.432   1.988   4.569 -0.0338  2.0291 -0.3504
 1312SOL    HW215570   0.298   2.024   4.519  1.0970 -1.8896 -1.3893
 1313SOL     OW15571   1.715   2.815   9.307 -0.1799 -0.2887  0.6715
 1313SOL    HW115572   1.808   2.829   9.322 -0.0309 -1.2754  0.6449
 1313SOL    HW215573   1.692   2.799   9.399  0.3213 -0.4094  0.7754
 1314SOL     OW15574   1.106   4.233   5.054 -0.6835 -0.0227  0.1671
 1314SOL    HW115575   1.043   4.167   5.027 -1.1760  1.5534 -2.5497
 1314SOL    HW215576   1.054   4.312   5.066 -1.0222 -0.3026  0.5533
 1315SOL     OW15577   3.026   1.547  10.438 -0.2629  0.0934 -0.1318
 1315SOL    HW115578   3.096   1.604  10.471 -0.0630 -0.4321  0.3501
 1315SOL    HW215579   2.965   1.547  10.512 -0.8756  1.4498 -0.6293
 1316SOL     OW15580   4.016   3.909   1.876 -0.2504 -0.2423 -0.4398
 1316SOL    HW115581   3.945   3.852   1.905 -0.7062  0.8063  0.5501
 1316SOL    HW215582   3.978   3.997   1.880 -0.9752 -0.4681 -2.6548
 1317SOL     OW15583   2.588   2.034   8.884 -0.3998  0.2409  0.4754
 1317SOL    HW115584   2.607   1.943   8.906 -0.4989  0.2851  0.7508
 1317SOL    HW215585   2.627   2.043   8.797  0.1474 -0.5155  0.6465
 1318SOL     OW15586   0.555   4.038   2.163  0.4101 -0.1584  0.4527
 1318SOL    HW115587   0.597   4.003   2.242  0.6780  0.2364  0.4854
 1318SOL    HW215588   0.462   4.037   2.185  0.0784 -2.9544 -1.0306
 1319SOL     OW15589   0.745   4.603   3.278  0.0460 -0.2575  0.1338
 1319SOL    HW115590   0.729   4.575   3.368 -1.7114  1.3021  0.3008
 1319SOL    HW215591   0.814   4.542   3.250  0.5901  0.2373  0.4010
 1320SOL     OW15592   4.492   0.112   5.637  0.5140  0.2214  0.2578
 1320SOL    HW115593   4.501   0.163   5.557  1.1721  0.2645  0.3568
 1320SOL    HW215594   4.536   0.167   5.701  0.2662 -0.3790  0.9428
 1321SOL     OW15595   0.945   3.916   0.465  0.6972 -0.0682  0.1178
 1321SOL    HW115596   0.866   3.906   0.518  0.3004 -0.7288 -0.5981
 1321SOL    HW215597   0.906   3.919   0.377 -1.5388  1.8073  1.1661
 1322SOL     OW15598   3.353   3.659   1.277  0.6224 -0.4377 -0.4780
 1322SOL    HW115599   3.285   3.621   1.221  0.7956 -3.9723  1.7265
 1322SOL    HW215600   3.333   3.751   1.261  2.3151  0.4621  2.6134
 1323SOL     OW15601   2.682   4.527  14.252  0.3313  0.1073 -0.1646
 1323SOL    HW115602   2.607   4.470  14.238  0.5431 -0.3857  0.7241
 1323SOL    HW215603   2.733   4.457  14.292  0.4274  0.5686  0.5332
 1324SOL     OW15604   4.082   4.655   8.784  0.4528  0.3256 -0.1068
 1324SOL    HW115605   4.002   4.634   8.833  0.2372  0.7463 -0.2801
 1324SOL    HW215606   4.150   4.679   8.846 -0.9835  0.4952  1.3873
 1325SOL     OW15607   2.393   4.169   2.671  0.2506 -0.3028 -0.4205
 1325SOL    HW115608   2.376   4.124   2.753 -0.9065 -0.4770 -0.7543
 1325SOL    HW215609   2.487   4.186   2.681  0.6416 -2.5292 -0.2887
 1326SOL     OW15610   3.609   2.819   6.364 -0.4164 -0.0477 -0.3506
 1326SOL    HW115611   3.536   2.790   6.309 -0.5419  0.5080 -0.4749
 1326SOL    HW215612   3.569   2.813   6.450 -0.0729  1.1963 -0.1058
 1327SOL     OW15613   2.380   2.475  17.264 -0.2244  0.2921  1.0800
 1327SOL    HW115614   2.318   2.419  17.217 -0.5603  0.8446  0.8638
 1327SOL    HW215615   2.453   2.414  17.268  0.5317  1.0893 -0.6033
 1328SOL     OW15616   0.930   0.097   5.496  0.0455 -0.0324 -0.5682
 1328SOL    HW115617   0.859   0.072   5.437 -2.0453  2.0243  1.0822
 1328SOL    HW215618   0.876   0.124   5.570  2.4011  0.1579  1.0817
 1329SOL     OW15619   4.447   2.934   0.972 -0.1060 -0.4941  0.4861
 1329SOL    HW115620   4.381   2.946   1.040 -0.2730 -0.3659  0.3040
 1329SOL    HW215621   4.403   2.968   0.894  1.5074  0.7538  0.1255
 1330SOL     OW15622   0.331   0.049  13.246 -0.3986  0.3064 -0.2247
 1330SOL    HW115623   0.335   4.703  13.293  0.3110  0.5101  0.0752
 1330SOL    HW215624   0.392   0.036  13.173  0.6888 -1.9965  1.0849
 1331SOL     OW15625   4.532   1.954  11.793 -0.3153 -0.2226 -0.0180
 1331SOL    HW115626   4.500   1.987  11.878 -1.8206  1.9953 -1.4470
 1331SOL    HW215627   4.627   1.969  11.801 -0.3199  2.0229 -4.1525
 1332SOL     OW15628   4.340   2.516   9.202  0.0668  1.2195 -0.3648
 1332SOL    HW115629   4.341   2.425   9.173  0.3477  1.0127  0.2872
 1332SOL    HW215630   4.405   2.507   9.272 -0.3430 -1.1563 -0.2769
 1333SOL     OW15631   0.432   2.097   3.634  0.0234 -0.5404 -0.1648
 1333SOL    HW115632   0.466   2.184   3.656 -1.7172  0.3115 -0.8206
 1333SOL    HW215633   0.390   2.081   3.718 -0.3865  2.2995  0.1612
 1334SOL     OW15634   3.393   3.647   4.471 -0.6293  0.0784 -0.3067
 1334SOL    HW115635   3.458   3.630   4.403 -0.4666  0.7347 -0.3059
 1334SOL    HW215636   3.384   3.561   4.512 -1.3674 -0.0951 -0.8223
 1335SOL     OW15637   4.318   0.699  13.071 -0.1215  0.2843  0.2495
 1335SOL    HW115638   4.393   0.702  13.131  0.5864  0.5883 -0.6495
 1335SOL    HW215639   4.363   0.663  12.994 -1.2250 -1.5819  0.4788
 1336SOL     OW15640   0.260   0.048   5.736  0.0125  0.1035 -0.5074
 1336SOL    HW115641   0.172   0.035   5.701 -0.1430  1.7500 -0.7418
 1336SOL    HW215642   0.253   0.136   5.774  0.1667 -0.0154 -0.1989
 1337SOL     OW15643   2.341   2.452   4.337  0.6202  0.4760 -0.0570
 1337SOL    HW115644   2.276   2.510   4.296  0.4564  1.2086  1.2372
 1337SOL    HW215645   2.370   2.400   4.262  0.2852  1.9097 -1.1817
 1338SOL     OW15646   0.807   0.407   6.740 -0.0726  0.5623 -0.1822
 1338SOL    HW115647   0.865   0.438   6.809 -0.6866  2.5102 -0.5576
 1338SOL    HW215648   0.781   0.483   6.689  1.7236 -0.3200 -2.4172
 1339SOL     OW15649   2.800   3.640   7.770  0.3296 -0.3570 -0.1204
 1339SOL    HW115650   2.812   3.669   7.680 -0.1034  0.0486 -0.0453
 1339SOL    HW215651   2.706   3.621   7.771 -0.0930  1.8162  0.6886
 1340SOL     OW15652   1.046   4.702  16.976 -0.7319 -0.3799 -0.0976
 1340SOL    HW115653   0.974   4.639  16.978 -0.1395 -1.0453 -0.0106
 1340SOL    HW215654   1.025   4.737  17.063 -0.3101  0.8872 -0.4958
 1341SOL     OW15655   1.545   0.736   4.320 -0.5286  0.6508  0.3574
 1341SOL    HW115656   1.574   0.677   4.390  1.5120  0.5377 -0.5929
 1341SOL    HW215657   1.527   0.815   4.372  0.2423  0.0187  1.6099
 1342SOL     OW15658   1.234   2.237  10.606  0.0569  0.5397  0.1563
 1342SOL    HW115659   1.267   2.223  10.695  3.8663 -0.5201 -1.4383
 1342SOL    HW215660   1.215   2.331  10.609 -0.0347  0.4799  1.4105
 1343SOL     OW15661   0.901   2.233   3.738  0.0689 -0.7178 -0.5298
 1343SOL    HW115662   0.980   2.180   3.746  0.3502 -0.2055  0.1045
 1343SOL    HW215663   0.894   2.280   3.821 -0.7290 -2.1458  0.2174
 1344SOL     OW15664   4.708   1.167  17.666  0.2603 -0.3018  0.5332
 1344SOL    HW115665   0.015   1.250  17.680  2.6673 -1.3789 -0.7207
 1344SOL    HW215666   0.025   1.107  17.717  3.6506  1.8628 -0.5747
 1345SOL     OW15667   0.582   1.097  17.221 -0.0113 -0.5908  0.0896
 1345SOL    HW115668   0.637   1.172  17.198 -0.4089  0.0472  1.1903
 1345SOL    HW215669   0.500   1.123  17.181 -0.7571 -0.6503  1.5880
 1346SOL     OW15670   0.752   2.644   5.871  0.1699 -0.1835 -0.5423
 1346SOL    HW115671   0.681   2.708   5.883  0.4844  0.1898 -0.6703
 1346SOL    HW215672   0.781   2.642   5.963 -1.1091  0.8664 -0.1094
 1347SOL     OW15673   2.289   3.782   8.604 -0.2690  0.3649 -0.0695
 1347SOL    HW115674   2.317   3.700   8.645  0.0553  0.0127 -1.0067
 1347SOL    HW215675   2.223   3.758   8.539  0.6604  1.1391 -1.2877
 1348SOL     OW15676   1.576   1.315   4.624  0.1607  0.1346  0.1805
 1348SOL    HW115677   1.488   1.293   4.654 -0.6165  1.7727 -0.9147
 1348SOL    HW215678   1.563   1.337   4.532  2.6410 -1.6325 -0.6026
 1349SOL     OW15679   2.133   0.884  16.659  0.3528  0.0849  0.1196
 1349SOL    HW115680   2.142   0.813  16.595  0.6055  0.1061  0.1298
 1349SOL    HW215681   2.164   0.962  16.613 -0.0661 -1.1547 -2.2619
 1350SOL     OW15682   1.259   3.842   5.078  0.0908 -0.0576 -0.2133
 1350SOL    HW115683   1.279   3.913   5.138  1.8809  0.2301 -1.1544
 1350SOL    HW215684   1.332   3.783   5.096  0.8303  0.7141 -0.6565
 1351SOL     OW15685   2.329   1.710   4.519  0.4848 -0.5140  0.0679
 1351SOL    HW115686   2.335   1.685   4.612  2.5274 -0.4038 -0.0446
 1351SOL    HW215687   2.313   1.805   4.520  2.4803 -0.1732 -0.7261
 1352SOL     OW15688   0.766   4.310  15.659 -0.2510 -0.1899  0.0918
 1352SOL    HW115689   0.846   4.257  15.660  0.3979  0.7502 -1.5886
 1352SOL    HW215690   0.782   4.371  15.587 -0.7958 -0.6140 -0.3952
 1353SOL     OW15691   3.500   1.983  15.529  0.1461 -0.6740 -0.1084
 1353SOL    HW115692   3.450   1.918  15.481  0.1557 -0.5479 -0.2899
 1353SOL    HW215693   3.580   1.941  15.562 -0.7895 -2.8636 -0.6471
 1354SOL     OW15694   2.018   3.486   3.184 -0.3198 -0.8524 -0.4517
 1354SOL    HW115695   2.060   3.471   3.099 -0.5013  2.6540 -1.1410
 1354SOL    HW215696   1.934   3.444   3.168 -0.3206 -0.7138 -0.8070
 1355SOL     OW15697   4.575   3.671   4.049  0.5431  0.4698  0.5017
 1355SOL    HW115698   4.564   3.728   4.124  1.1728  0.8015  0.3380
 1355SOL    HW215699   4.624   3.734   3.996  1.3891  1.1090  2.0740
 1356SOL     OW15700   3.127   3.979   1.960 -0.0055  0.0484  0.4911
 1356SOL    HW115701   3.158   4.020   1.879  1.5226  4.6039  3.3902
 1356SOL    HW215702   3.061   4.038   1.997  1.9584  2.2414  0.5339
 1357SOL     OW15703   3.756   0.652   7.612 -0.7956  0.3813  0.1767
 1357SOL    HW115704   3.741   0.604   7.530 -1.0621  0.6498  0.0673
 1357SOL    HW215705   3.665   0.677   7.627 -1.1569 -1.4430  0.9161
 1358SOL     OW15706   3.973   0.010   6.127  0.2699  0.3846 -0.0975
 1358SOL    HW115707   4.007   0.007   6.038  0.7452  2.7559  0.0192
 1358SOL    HW215708   3.933   0.096   6.129  2.5240  1.4794 -2.4661
 1359SOL     OW15709   1.625   0.338   8.282 -0.2392 -0.0094 -0.2541
 1359SOL    HW115710   1.623   0.419   8.232  4.0525 -0.5390 -1.2993
 1359SOL    HW215711   1.650   0.273   8.215  1.6661  2.3093 -1.7624
 1360SOL     OW15712   2.920   1.753   3.275 -0.1158 -0.5028 -0.0204
 1360SOL    HW115713   2.839   1.728   3.320  0.5684 -1.4012  0.7337
 1360SOL    HW215714   2.954   1.665   3.260  0.8852  0.3353 -2.6089
 1361SOL     OW15715   1.857   0.362   7.021 -0.5614 -0.4704 -0.0890
 1361SOL    HW115716   1.788   0.306   6.984 -0.1583 -2.1348  1.6793
 1361SOL    HW215717   1.922   0.295   7.040 -0.4229  0.0460  1.2621
 1362SOL     OW15718   0.892   2.311   5.674  0.5329  0.3092 -0.6330
 1362SOL    HW115719   0.947   2.237   5.702 -0.2750  0.0211  0.1784
 1362SOL    HW215720   0.809   2.282   5.712  1.1491  1.6670  1.7198
 1363SOL     OW15721   1.360   0.935   4.899  0.3413  0.2187 -0.5822
 1363SOL    HW115722   1.413   1.006   4.863  1.8321 -1.0243 -0.8204
 1363SOL    HW215723   1.423   0.883   4.949 -2.4378 -0.9461  1.7407
 1364SOL     OW15724   2.257   4.089  10.214  0.4069 -0.0693  0.3965
 1364SOL    HW115725   2.221   4.019  10.159 -0.0713  1.7202 -1.5520
 1364SOL    HW215726   2.203   4.073  10.291 -0.2148 -0.4932 -0.1252
 1365SOL     OW15727   3.171   2.409   1.851  0.2337  0.2283 -0.1836
 1365SOL    HW115728   3.126   2.493   1.856  1.0636  0.7599 -1.7671
 1365SOL    HW215729   3.110   2.342   1.882 -0.9015  1.2009 -0.2975
 1366SOL     OW15730   1.886   1.866   3.110  0.0393  0.5517  0.2790
 1366SOL    HW115731   1.816   1.872   3.174 -1.3342 -2.1575 -0.9617
 1366SOL    HW215732   1.937   1.790   3.140  0.4233  1.7116  2.5562
 1367SOL     OW15733   2.232   2.797  14.432  0.5900 -0.2732  0.1512
 1367SOL    HW115734   2.143   2.799  14.467  0.5582  0.0649  0.0491
 1367SOL    HW215735   2.286   2.780  14.509 -2.9750 -0.4588  2.6217
 1368SOL     OW15736   2.106   2.173   7.851 -0.3748 -0.2644  0.4465
 1368SOL    HW115737   2.157   2.205   7.776  0.4860  1.2294  1.6628
 1368SOL    HW215738   2.179   2.156   7.911 -1.2707 -1.9594  1.0463
 1369SOL     OW15739   3.532   0.759   7.138  0.2644  0.3537 -0.2818
 1369SOL    HW115740   3.541   0.839   7.188 -0.4710 -0.2424  0.7897
 1369SOL    HW215741   3.558   0.788   7.050 -1.0891  2.1847 -0.0583
 1370SOL     OW15742   0.576   2.400   3.445 -0.3808 -0.3485  0.1294
 1370SOL    HW115743   0.561   2.490   3.418 -1.2307 -0.6318 -0.3346
 1370SOL    HW215744   0.483   2.381   3.457 -1.0064  1.6317 -1.5571
 1371SOL     OW15745   3.957   3.195   1.688 -0.4870 -0.0619  0.1539
 1371SOL    HW115746   4.025   3.251   1.725  0.2486 -1.0145  0.2641
 1371SOL    HW215747   3.897   3.263   1.659 -0.3575 -0.6667 -1.5720
 1372SOL     OW15748   1.772   2.394   7.149  0.3920 -0.3617  0.0253
 1372SOL    HW115749   1.798   2.483   7.129 -0.5300  0.4791  2.5636
 1372SOL    HW215750   1.772   2.356   7.061  1.3229  1.6953 -0.8622
 1373SOL     OW15751   0.427   1.332   2.215  0.0026 -0.1809  0.3548
 1373SOL    HW115752   0.344   1.344   2.170 -0.2578 -0.4195  0.7761
 1373SOL    HW215753   0.476   1.406   2.179 -0.0704 -0.2954  0.0177
 1374SOL     OW15754   0.471   2.023   8.298  0.1600  0.2354  0.1094
 1374SOL    HW115755   0.435   1.995   8.382 -1.3006 -0.1145 -0.6230
 1374SOL    HW215756   0.445   2.115   8.300 -2.9889 -0.6151 -0.4011
 1375SOL     OW15757   3.662   4.360   1.671  0.0459 -0.0209 -0.2601
 1375SOL    HW115758   3.648   4.454   1.663  1.8119  0.3087  0.4928
 1375SOL    HW215759   3.571   4.335   1.651 -0.2011  0.1033  0.7016
 1376SOL     OW15760   2.688   1.403  14.287  0.0864  0.2191  0.0984
 1376SOL    HW115761   2.752   1.456  14.240  0.1787 -0.6848 -0.7900
 1376SOL    HW215762   2.712   1.314  14.262  0.0677 -0.0735  1.1098
 1377SOL     OW15763   0.877   0.991   5.587  0.0765  0.5998  0.6356
 1377SOL    HW115764   0.942   0.985   5.517 -1.4173  0.8644 -0.7582
 1377SOL    HW215765   0.804   0.939   5.555 -0.6558  0.8786  1.8492
 1378SOL     OW15766   0.378   0.876   4.149  0.6052  0.1282 -0.5584
 1378SOL    HW115767   0.384   0.782   4.166  0.2651  0.1490 -0.3113
 1378SOL    HW215768   0.306   0.888   4.087 -1.4224  1.2981  2.0117
 1379SOL     OW15769   1.570   2.993  15.514  0.4517 -0.1517  0.6096
 1379SOL    HW115770   1.545   3.063  15.574 -0.2864 -1.3572  1.6864
 1379SOL    HW215771   1.629   2.942  15.570 -0.7853 -2.3010 -0.0607
 1380SOL     OW15772   3.282   0.991   7.071 -0.3057 -0.1467  0.3701
 1380SOL    HW115773   3.377   0.995   7.063 -0.2240 -1.4562  0.6482
 1380SOL    HW215774   3.249   0.971   6.983 -1.2509 -0.4815  0.7934
 1381SOL     OW15775   1.117   3.173   5.584 -0.1095  0.2128  0.2422
 1381SOL    HW115776   1.051   3.112   5.617  0.4559 -0.8112 -0.5095
 1381SOL    HW215777   1.066   3.249   5.556 -0.3526 -0.7725 -1.9956
 1382SOL     OW15778   2.475   3.724   0.918 -0.3349 -1.2935 -0.8040
 1382SOL    HW115779   2.459   3.633   0.892 -3.0401 -1.0188 -0.0375
 1382SOL    HW215780   2.445   3.717   1.008  2.3543  0.2490  0.2293
 1383SOL     OW15781   4.020   0.579   6.476  0.2435  0.5767 -0.1885
 1383SOL    HW115782   4.103   0.601   6.434 -0.8008 -0.3626 -2.7291
 1383SOL    HW215783   4.035   0.487   6.497  1.5718  1.5847  3.3923
 1384SOL     OW15784   3.422   2.546   6.848 -0.3117  0.6614 -0.1708
 1384SOL    HW115785   3.515   2.567   6.857  0.2454 -1.8193 -0.0649
 1384SOL    HW215786   3.380   2.627   6.874 -1.0075 -0.1226  1.1378
 1385SOL     OW15787   1.635   3.214   3.269  0.0246  0.3527 -0.2599
 1385SOL    HW115788   1.594   3.140   3.313  0.8783 -0.4823 -0.8719
 1385SOL    HW215789   1.594   3.293   3.307 -2.6087  0.0854 -2.5728
 1386SOL     OW15790   0.065   2.000  13.340  0.1570 -0.4263 -0.1443
 1386SOL    HW115791   0.039   1.910  13.362 -1.1055 -0.0418 -0.0908
 1386SOL    HW215792   0.020   2.055  13.403  3.5381  0.5812  1.4153
 1387SOL     OW15793   2.974   0.188   7.659  0.5625  0.3317 -0.1775
 1387SOL    HW115794   2.898   0.245   7.645  0.1874  0.0020  0.4990
 1387SOL    HW215795   3.042   0.247   7.627  1.4173 -0.4581  0.1807
 1388SOL     OW15796   2.869   2.258   5.428 -0.1730  0.0411  0.1384
 1388SOL    HW115797   2.867   2.263   5.524 -3.4712 -2.0461  0.1785
 1388SOL    HW215798   2.963   2.245   5.425 -0.0920  0.4084  0.8326
 1389SOL     OW15799   0.117   1.620   3.946 -0.5757  0.0866  0.4883
 1389SOL    HW115800   0.145   1.712   3.946  2.7541 -0.9341 -0.3839
 1389SOL    HW215801   0.203   1.581   3.961 -1.4339 -2.5388 -1.5270
 1390SOL     OW15802   2.532   1.549   7.098 -0.1938 -0.0595  0.3901
 1390SOL    HW115803   2.519   1.619   7.034  2.9514 -1.0123 -1.2357
 1390SOL    HW215804   2.470   1.568   7.169  0.0230 -1.2506  0.8985
 1391SOL     OW15805   2.886   1.519  14.148 -0.1221 -0.1597 -0.4358
 1391SOL    HW115806   2.896   1.426  14.128  2.6115 -0.0437  0.4206
 1391SOL    HW215807   2.937   1.562  14.079 -0.0588 -1.7431 -1.3613
 1392SOL     OW15808   0.079   4.183   4.416 -0.1908  0.1061 -0.2827
 1392SOL    HW115809   0.072   4.131   4.336 -1.3840 -0.6521  0.3213
 1392SOL    HW215810   0.120   4.120   4.474 -0.5664 -0.0861 -0.2249
 1393SOL     OW15811   1.616   1.797  16.252  0.0619 -0.3819  0.3232
 1393SOL    HW115812   1.670   1.864  16.211  1.0567 -0.5356  1.3825
 1393SOL    HW215813   1.530   1.815  16.213 -0.1486 -1.4722  0.2697
 1394SOL     OW15814   3.822   4.476   4.082  0.0245  0.6526 -0.3469
 1394SOL    HW115815   3.911   4.506   4.100 -0.3500  2.1239 -0.9470
 1394SOL    HW215816   3.833   4.384   4.107  4.6961  1.0544 -0.8847
 1395SOL     OW15817   3.977   0.771  16.705 -0.0226  0.5694  0.3404
 1395SOL    HW115818   4.054   0.747  16.652  1.0562  2.4618  1.0365
 1395SOL    HW215819   3.994   0.722  16.785  1.8507  1.5985  0.5807
 1396SOL     OW15820   3.336   1.079  11.171 -0.3403  0.1191  0.0985
 1396SOL    HW115821   3.278   1.020  11.123  1.1439 -0.0695 -1.4722
 1396SOL    HW215822   3.336   1.040  11.258  0.9015  0.9576  0.4670
 1397SOL     OW15823   2.516   3.772   8.077  0.2428  0.2480 -0.3940
 1397SOL    HW115824   2.515   3.689   8.124 -0.8026  1.8166  2.3646
 1397SOL    HW215825   2.461   3.821   8.139  1.1163  0.3559  0.2915
 1398SOL     OW15826   3.301   1.559  12.705  0.3098 -0.1168  0.1134
 1398SOL    HW115827   3.230   1.585  12.764  2.5930  2.4742  1.7210
 1398SOL    HW215828   3.350   1.520  12.777  0.9739 -1.0258 -0.8302
 1399SOL     OW15829   2.344   0.506  10.340  0.3126 -0.3660  0.0379
 1399SOL    HW115830   2.332   0.600  10.357  0.3647 -1.1128  4.3657
 1399SOL    HW215831   2.434   0.487  10.366  0.5419  1.6790  0.7937
 1400SOL     OW15832   2.931   2.619  13.687 -0.5867  0.0886  0.5604
 1400SOL    HW115833   2.957   2.625  13.779 -0.0800 -0.2574  0.4415
 1400SOL    HW215834   2.951   2.528  13.663  0.1188  0.0511  1.2740
 1401SOL     OW15835   2.709   0.586   2.769 -0.4879  0.6133 -0.0223
 1401SOL    HW115836   2.710   0.645   2.845 -0.8347  1.1149 -0.4091
 1401SOL    HW215837   2.682   0.502   2.806  0.3215 -0.3556 -1.6438
 1402SOL     OW15838   0.089   4.289  17.086 -0.2537 -0.0603 -0.4360
 1402SOL    HW115839   0.077   4.374  17.129  1.3699  0.2050 -0.4789
 1402SOL    HW215840   0.005   4.280  17.042 -0.7167 -2.3986  0.9685
 1403SOL     OW15841   0.471   0.202  13.761  0.2956 -0.4949 -0.7748
 1403SOL    HW115842   0.438   0.267  13.822  0.0921  0.3819 -1.8101
 1403SOL    HW215843   0.407   0.215  13.691 -2.5266  1.0615  2.0848
 1404SOL     OW15844   2.976   0.054   2.590 -0.4174  0.6221  0.0172
 1404SOL    HW115845   3.062   0.079   2.556 -0.1276 -2.0706 -1.2300
 1404SOL    HW215846   2.991   4.701   2.617 -0.0943  1.2537  1.9290
 1405SOL     OW15847   1.332   3.487   8.480 -0.2357  0.5766  0.3443
 1405SOL    HW115848   1.373   3.451   8.401  2.3425  1.8253  1.1038
 1405SOL    HW215849   1.254   3.432   8.486  0.4385 -0.4644 -0.2516
 1406SOL     OW15850   3.275   2.109   3.488 -0.2447  0.0599  0.2060
 1406SOL    HW115851   3.297   2.182   3.430  0.7622 -0.5529 -0.1867
 1406SOL    HW215852   3.305   2.045   3.424 -0.3429 -0.9299  1.1401
 1407SOL     OW15853   4.025   0.752   3.007  0.0732  0.0636  0.2631
 1407SOL    HW115854   3.964   0.826   3.015 -1.7908 -1.3622 -0.8905
 1407SOL    HW215855   4.077   0.781   2.931  0.5261  0.3141  0.6634
 1408SOL     OW15856   2.150   3.762   7.413 -0.2230  0.2122 -0.3365
 1408SOL    HW115857   2.056   3.780   7.421 -0.3917 -0.4187 -0.9286
 1408SOL    HW215858   2.165   3.805   7.328  0.7630  0.6762  0.0692
 1409SOL     OW15859   1.158   3.942   6.642  0.2865  0.0933 -0.5005
 1409SOL    HW115860   1.103   4.016   6.669  1.1859  1.2797 -1.8535
 1409SOL    HW215861   1.115   3.870   6.686  0.2020  1.0822  1.0298
 1410SOL     OW15862   0.576   3.460   9.234  0.4949  0.1119  0.2687
 1410SOL    HW115863   0.542   3.396   9.172  2.6539 -0.6527 -0.1306
 1410SOL    HW215864   0.616   3.398   9.295  0.9402 -0.4441 -0.5923
 1411SOL     OW15865   1.126   1.049  13.115 -0.3534  0.6404 -0.2337
 1411SOL    HW115866   1.072   1.055  13.194 -0.9240 -0.2058 -0.5612
 1411SOL    HW215867   1.189   0.984  13.146  0.6337  1.9508  0.5252
 1412SOL     OW15868   0.735   3.473  16.331 -0.4201  0.0150 -0.1425
 1412SOL    HW115869   0.657   3.472  16.275  1.7283 -0.7384 -3.1452
 1412SOL    HW215870   0.794   3.522  16.274 -0.7867 -0.0972 -0.6221
 1413SOL     OW15871   1.825   1.597   8.063  0.3348 -0.1150 -0.2708
 1413SOL    HW115872   1.898   1.660   8.067 -0.3588  0.7222 -0.8309
 1413SOL    HW215873   1.827   1.558   8.151  2.6632 -0.4421 -0.4778
 1414SOL     OW15874   3.769   3.676  15.902 -0.6090  0.2403 -0.4248
 1414SOL    HW115875   3.688   3.725  15.888  0.2014  1.3232 -1.2501
 1414SOL    HW215876   3.823   3.740  15.948 -0.3345 -0.0301 -0.3733
 1415SOL     OW15877   1.226   1.604   9.737  0.0877 -0.2577  0.3223
 1415SOL    HW115878   1.162   1.552   9.689  0.5150 -0.3861 -0.1158
 1415SOL    HW215879   1.309   1.569   9.704 -0.8878 -1.2206 -1.1299
 1416SOL     OW15880   0.378   1.058  10.354  0.0271  0.0466 -0.4554
 1416SOL    HW115881   0.301   1.077  10.299  0.7130  2.6096 -0.5311
 1416SOL    HW215882   0.417   1.145  10.360  0.0331  0.0652 -0.7321
 1417SOL     OW15883   0.215   4.385   5.787  0.4864 -0.2285  0.1866
 1417SOL    HW115884   0.240   4.373   5.695  2.2296  0.6499  0.5500
 1417SOL    HW215885   0.228   4.480   5.795 -2.5422  0.3012 -0.9737
 1418SOL     OW15886   3.677   2.227   8.387 -0.0639 -0.0967  0.3419
 1418SOL    HW115887   3.657   2.179   8.467 -0.4066 -1.6386 -0.6667
 1418SOL    HW215888   3.593   2.240   8.343  0.4940  1.8549 -0.1551
 1419SOL     OW15889   1.493   1.319  14.872 -0.2504 -0.1166  0.6645
 1419SOL    HW115890   1.517   1.232  14.840  0.6501 -0.2684  1.7482
 1419SOL    HW215891   1.413   1.320  14.820 -0.5909  0.1518  1.1880
 1420SOL     OW15892   0.829   4.466  15.464 -0.1605 -0.2784 -0.5006
 1420SOL    HW115893   0.899   4.439  15.405 -0.1179 -2.6405  0.6608
 1420SOL    HW215894   0.783   4.518  15.397 -0.3307 -2.6086 -2.2042
 1421SOL     OW15895   3.005   1.554   1.749 -0.3752  0.2135  0.4006
 1421SOL    HW115896   2.963   1.509   1.675  0.1814  4.1765 -2.3238
 1421SOL    HW215897   2.949   1.530   1.823 -0.2089 -3.1788 -0.5700
 1422SOL     OW15898   4.710   2.832   5.540 -0.3130  0.1808 -0.0349
 1422SOL    HW115899   4.717   2.740   5.564  0.4653  0.1557 -0.3808
 1422SOL    HW215900   4.659   2.874   5.610 -1.4568 -0.2278 -0.6283
 1423SOL     OW15901   2.114   4.425   4.374  0.0168  0.7433  0.3458
 1423SOL    HW115902   2.036   4.441   4.321  0.8670  0.7502 -0.9214
 1423SOL    HW215903   2.086   4.463   4.457  0.9358  0.0044  0.9953
 1424SOL     OW15904   2.984   0.783   3.973 -0.2802 -0.0531  0.7761
 1424SOL    HW115905   2.922   0.774   4.045 -2.6990  3.1749 -0.9361
 1424SOL    HW215906   2.937   0.820   3.899  2.1241 -0.5459 -1.0109
 1425SOL     OW15907   4.704   0.454   0.942  0.1158 -0.0616 -0.0935
 1425SOL    HW115908   4.679   0.414   0.858  0.0164 -1.0299  0.4039
 1425SOL    HW215909   4.691   0.546   0.917  1.2584  0.6407  1.9431
 1426SOL     OW15910   2.757   1.757   8.549  0.8906  0.3276  0.0486
 1426SOL    HW115911   2.691   1.727   8.610 -1.0583  1.2503 -1.5938
 1426SOL    HW215912   2.766   1.674   8.503  0.3025  1.0432 -1.3729
 1427SOL     OW15913   1.069   0.699   7.399 -0.0070  0.2727 -0.5129
 1427SOL    HW115914   0.986   0.693   7.447  0.3754 -1.1240 -0.0108
 1427SOL    HW215915   1.120   0.758   7.455 -0.4198  0.9360 -0.8291
 1428SOL     OW15916   1.575   3.094   5.655 -0.6940 -0.6292 -0.0874
 1428SOL    HW115917   1.518   3.168   5.673 -0.1274 -0.8379  2.5877
 1428SOL    HW215918   1.643   3.098   5.723  0.6471 -0.2421 -1.4290
 1429SOL     OW15919   1.094   3.624   7.354  0.3685 -0.5678 -0.0196
 1429SOL    HW115920   1.143   3.611   7.273  0.7471  1.0347 -0.0525
 1429SOL    HW215921   1.013   3.666   7.322 -0.1284 -1.4451  0.0906
 1430SOL     OW15922   1.880   2.323   5.310 -0.2863  0.3085  0.9070
 1430SOL    HW115923   1.900   2.270   5.387 -1.0827 -0.9992  0.2131
 1430SOL    HW215924   1.832   2.261   5.255 -0.9260 -0.1259  1.9416
 1431SOL     OW15925   3.226   1.096   4.608  0.1018 -0.1013 -0.0114
 1431SOL    HW115926   3.211   1.089   4.514 -1.9989  0.4290  0.2731
 1431SOL    HW215927   3.139   1.120   4.642 -0.4257  0.3785 -1.6815
 1432SOL     OW15928   1.463   2.228  10.239 -0.1863 -0.1855  0.2768
 1432SOL    HW115929   1.440   2.310  10.283  2.0908 -0.2386  1.5496
 1432SOL    HW215930   1.426   2.167  10.302  1.0932 -1.6949 -0.4580
 1433SOL     OW15931   0.290   4.529   2.088  0.1170 -0.2783  0.0565
 1433SOL    HW115932   0.377   4.499   2.113  0.1971  1.4823  1.8734
 1433SOL    HW215933   0.290   4.473   2.010 -0.3355 -0.8311  0.4563
 1434SOL     OW15934   1.947   3.377   4.498  0.1509 -0.3623  0.5815
 1434SOL    HW115935   1.950   3.391   4.593  1.1774  0.5830  0.4266
 1434SOL    HW215936   1.875   3.436   4.475  0.7993  0.0541 -0.3829
 1435SOL     OW15937   3.770   3.518  12.363 -0.2285 -0.0978  0.8794
 1435SOL    HW115938   3.826   3.474  12.299 -0.5087 -0.7104  1.0610
 1435SOL    HW215939   3.756   3.447  12.426 -2.9259 -1.0701 -0.8072
 1436SOL     OW15940   4.204   4.237   8.460  0.3486 -0.0698 -0.4604
 1436SOL    HW115941   4.158   4.298   8.517  0.2680  0.9214 -1.5991
 1436SOL    HW215942   4.297   4.250   8.474  0.4396 -2.4472  1.1892
 1437SOL     OW15943   0.211   0.157   8.942  0.1223 -0.4428 -0.2303
 1437SOL    HW115944   0.208   0.061   8.945  0.7805 -0.4943 -1.2431
 1437SOL    HW215945   0.301   0.175   8.915  0.4194 -0.3531  0.8097
 1438SOL     OW15946   1.282   0.699  10.704 -0.2666  0.2936 -0.0371
 1438SOL    HW115947   1.302   0.789  10.729  1.8052 -0.5616  1.4043
 1438SOL    HW215948   1.339   0.690  10.628 -1.1857 -1.6934 -0.4955
 1439SOL     OW15949   3.913   3.746   3.471  0.0726 -0.0768  0.1925
 1439SOL    HW115950   3.875   3.660   3.486 -0.9555  0.5701  1.2404
 1439SOL    HW215951   3.878   3.753   3.382 -1.5469 -0.7174  0.7882
 1440SOL     OW15952   1.596   4.199   8.558  0.2143 -0.4370  0.3122
 1440SOL    HW115953   1.501   4.194   8.552  0.3231 -0.0258 -1.6562
 1440SOL    HW215954   1.621   4.291   8.553  1.2774 -0.7372  0.1010
 1441SOL     OW15955   1.160   4.594   5.965 -0.4387 -1.1092 -0.5474
 1441SOL    HW115956   1.216   4.529   5.923  2.5559 -0.1444  1.9546
 1441SOL    HW215957   1.077   4.551   5.988  0.9352 -2.5805  1.6587
 1442SOL     OW15958   4.210   1.504   9.496  0.3266  0.1174 -0.2369
 1442SOL    HW115959   4.263   1.437   9.539 -0.3339 -1.2216 -1.5102
 1442SOL    HW215960   4.127   1.460   9.479  0.2543 -0.1821  0.9428
 1443SOL     OW15961   2.339   0.362   2.356  0.0387  0.1501 -0.2577
 1443SOL    HW115962   2.426   0.326   2.372  0.3349  0.9733 -0.0064
 1443SOL    HW215963   2.314   0.387   2.445 -2.0544  3.4965 -1.7902
 1444SOL     OW15964   4.089   3.866   6.088  1.0131 -0.0504  0.0088
 1444SOL    HW115965   4.058   3.866   6.179 -0.1670  0.5596 -0.3945
 1444SOL    HW215966   4.176   3.905   6.096  1.8685 -1.7807 -1.0369
 1445SOL     OW15967   1.937   3.424   0.425 -0.5083 -0.8556 -0.4139
 1445SOL    HW115968   1.892   3.370   0.361 -0.7621  0.7855 -1.6173
 1445SOL    HW215969   1.999   3.470   0.369 -0.9104 -0.7644 -0.7769
 1446SOL     OW15970   1.221   1.129   5.072 -0.0371 -0.4017  0.7160
 1446SOL    HW115971   1.242   1.039   5.047 -1.0543 -0.1290 -1.1422
 1446SOL    HW215972   1.262   1.143   5.157  0.2768 -0.4238  0.5694
 1447SOL     OW15973   2.257   3.174   0.044  0.0984  0.4033  0.7997
 1447SOL    HW115974   2.301   3.093   0.016 -0.7852  0.5690 -1.1039
 1447SOL    HW215975   2.266   3.150   0.136 -2.2043 -0.3369  0.8260
 1448SOL     OW15976   3.552   0.074   4.297  0.0726 -0.0752  0.0480
 1448SOL    HW115977   3.607   0.152   4.290  1.8004 -1.3757 -1.2019
 1448SOL    HW215978   3.468   0.118   4.292 -0.2766 -0.7512  0.0139
 1449SOL     OW15979   0.903   2.587   4.001  0.1918 -0.0815 -0.5529
 1449SOL    HW115980   0.869   2.667   4.040  1.2919 -0.1158  0.4738
 1449SOL    HW215981   0.882   2.524   4.071 -0.7862  0.3212 -0.4765
 1450SOL     OW15982   0.351   2.855   4.740  0.5184 -0.4198  0.5751
 1450SOL    HW115983   0.312   2.796   4.804 -1.3506 -0.6232 -0.7622
 1450SOL    HW215984   0.300   2.934   4.759  0.6918 -0.0447 -0.5610
 1451SOL     OW15985   1.348   2.469  14.388  0.1114 -0.4501  0.8444
 1451SOL    HW115986   1.338   2.412  14.464 -0.9020 -3.0232 -1.1894
 1451SOL    HW215987   1.306   2.416  14.319 -0.4905  0.5584  0.4420
 1452SOL     OW15988   3.000   2.635  13.970 -0.2377 -0.5107  0.6891
 1452SOL    HW115989   3.045   2.688  14.035 -0.7491 -0.5860  1.1053
 1452SOL    HW215990   2.919   2.616  14.018 -0.1220 -1.0836  0.6593
 1453SOL     OW15991   4.057   0.866  15.220 -0.3345 -0.5404 -0.0298
 1453SOL    HW115992   4.035   0.782  15.260 -0.5186  0.6339  2.3430
 1453SOL    HW215993   4.077   0.845  15.129 -1.6105  1.1176 -0.6941
 1454SOL     OW15994   3.759   0.125   5.066  0.4019  0.7466 -0.1719
 1454SOL    HW115995   3.714   0.083   5.139 -0.2272  0.8494 -0.4948
 1454SOL    HW215996   3.788   0.053   5.011  1.1127  0.9242 -0.0336
 1455SOL     OW15997   1.070   1.983   9.321 -0.3226  0.1441  0.3479
 1455SOL    HW115998   1.165   1.975   9.316 -0.2961  1.1904 -0.8048
 1455SOL    HW215999   1.036   1.913   9.377  0.3931 -0.3698  0.1443
 1456SOL     OW16000   1.217   1.747  15.486 -0.4119  0.4289 -0.1528
 1456SOL    HW116001   1.245   1.838  15.494 -1.0080  0.7546 -1.6476
 1456SOL    HW216002   1.278   1.710  15.549  0.0091 -0.7916 -1.2639
 1457SOL     OW16003   2.782   1.973   9.473 -0.4401 -0.5739 -0.1586
 1457SOL    HW116004   2.745   2.059   9.495  0.6750  0.1343 -1.0392
 1457SOL    HW216005   2.721   1.912   9.514 -0.2170  1.6320  3.4821
 1458SOL     OW16006   2.514   3.574  11.240  0.0001 -0.1942  0.5499
 1458SOL    HW116007   2.467   3.536  11.314  1.1168 -2.0369  0.3318
 1458SOL    HW216008   2.563   3.495  11.217  1.4442  0.2437  2.0763
 1459SOL     OW16009   1.116   0.834   4.865 -0.6331 -0.0133  0.5148
 1459SOL    HW116010   1.209   0.858   4.855 -0.9508  2.1126  2.4344
 1459SOL    HW216011   1.079   0.900   4.925  1.6431  0.7751  1.0810
 1460SOL     OW16012   2.152   3.788   0.843 -0.2364  0.0601  0.0385
 1460SOL    HW116013   2.176   3.697   0.825 -1.1229 -0.0509 -0.6193
 1460SOL    HW216014   2.057   3.793   0.829  0.1389 -0.5071 -2.7423
 1461SOL     OW16015   1.513   1.455  12.324  0.4035 -0.1509 -0.2172
 1461SOL    HW116016   1.559   1.472  12.242  1.0709 -0.8027  0.0154
 1461SOL    HW216017   1.551   1.371  12.349 -0.1702 -0.2912  0.1934
 1462SOL     OW16018   0.437   1.435   8.772 -0.1520 -0.0939  0.4400
 1462SOL    HW116019   0.515   1.490   8.766  1.3484 -2.3114 -0.4106
 1462SOL    HW216020   0.443   1.406   8.862  0.4674  0.7797  0.6805
 1463SOL     OW16021   2.728   2.127   8.028  0.7099  0.3171  0.4671
 1463SOL    HW116022   2.653   2.156   8.081  1.1482  0.3062  1.0886
 1463SOL    HW216023   2.738   2.195   7.961 -0.7532  0.7322  0.6553
 1464SOL     OW16024   3.762   3.827  15.104  0.0541 -0.8119  0.5531
 1464SOL    HW116025   3.696   3.782  15.157  0.4580 -1.3896  0.5615
 1464SOL    HW216026   3.838   3.811  15.160  0.7126  0.3936 -0.0006
 1465SOL     OW16027   0.641   0.569   5.375 -0.3754  0.1719  0.8174
 1465SOL    HW116028   0.710   0.512   5.340 -2.9520 -2.9059  0.7198
 1465SOL    HW216029   0.584   0.508   5.423  0.0372 -1.5645 -0.9134
 1466SOL     OW16030   1.859   3.731   0.771  0.3408  0.2472 -0.1772
 1466SOL    HW116031   1.828   3.731   0.861  1.2209 -1.3015  0.1370
 1466SOL    HW216032   1.813   3.655   0.736 -0.4628  1.0065 -0.7680
 1467SOL     OW16033   0.440   3.353   8.995  0.6936  0.2230  0.5156
 1467SOL    HW116034   0.379   3.388   9.060 -0.6011 -0.0984 -0.5123
 1467SOL    HW216035   0.367   3.321   8.941  2.7042  1.5258 -2.9885
 1468SOL     OW16036   3.602   2.777   5.719  0.1352 -0.2976  0.4147
 1468SOL    HW116037   3.530   2.834   5.746 -0.1766  0.9186 -2.9041
 1468SOL    HW216038   3.647   2.765   5.802 -0.0369 -3.1663  0.0936
 1469SOL     OW16039   1.685   0.279   3.006 -0.0149  0.0190  0.2013
 1469SOL    HW116040   1.681   0.213   2.937 -1.8052 -2.4270  2.6160
 1469SOL    HW216041   1.773   0.314   2.998  0.6177 -1.8733 -1.2423
 1470SOL     OW16042   4.166   2.401  11.446  0.4217  0.1561  0.1257
 1470SOL    HW116043   4.210   2.318  11.430 -0.7723 -0.2443 -1.1007
 1470SOL    HW216044   4.244   2.453  11.430  1.9575 -2.1463  0.1988
 1471SOL     OW16045   1.995   0.338   0.374  0.2139 -0.2203  0.0491
 1471SOL    HW116046   2.007   0.359   0.467  0.3580 -2.7369  0.5889
 1471SOL    HW216047   2.076   0.374   0.336  2.2414 -2.4691  2.2367
 1472SOL     OW16048   2.929   3.664   2.638  0.8337 -0.5284  0.2962
 1472SOL    HW116049   2.925   3.575   2.673  0.4107 -2.3193 -4.3827
 1472SOL    HW216050   2.912   3.720   2.714 -0.6988 -0.3757 -0.1510
 1473SOL     OW16051   0.404   4.562  13.403  0.3357 -0.6719  0.2904
 1473SOL    HW116052   0.456   4.624  13.454 -1.5162  1.2486 -0.1419
 1473SOL    HW216053   0.346   4.520  13.467  0.4346  1.0647  1.5056
 1474SOL     OW16054   3.576   3.554   8.826  1.0467 -0.3491 -0.5626
 1474SOL    HW116055   3.648   3.499   8.855  0.1253 -1.4411 -0.3591
 1474SOL    HW216056   3.600   3.593   8.741 -0.6493  0.8159 -0.5038
 1475SOL     OW16057   0.130   3.232   0.677  0.1111  0.5478  0.2014
 1475SOL    HW116058   0.138   3.168   0.748  0.0441  0.7977  0.4347
 1475SOL    HW216059   0.222   3.250   0.657  0.6806 -0.0620  2.3002
 1476SOL     OW16060   0.568   0.406  12.582 -1.2086  0.3189 -0.4724
 1476SOL    HW116061   0.616   0.359  12.650  1.9569 -0.9605 -3.5327
 1476SOL    HW216062   0.583   0.494  12.616 -0.2320 -0.8970  2.2521
 1477SOL     OW16063   3.176   0.505   4.181 -0.0324  0.4942  0.4086
 1477SOL    HW116064   3.140   0.540   4.262 -1.3497 -0.9740  0.4632
 1477SOL    HW216065   3.231   0.574   4.146  0.4114 -0.7011 -1.2471
 1478SOL     OW16066   3.970   2.283   1.200 -0.0864 -0.1356 -0.1261
 1478SOL    HW116067   3.897   2.281   1.261  0.9474  0.4421  1.1385
 1478SOL    HW216068   4.015   2.355   1.244 -1.1947  0.5089 -0.0668
 1479SOL     OW16069   0.556   1.579  16.228  0.0746  0.8336  0.1079
 1479SOL    HW116070   0.557   1.669  16.262 -2.2995  0.2260  1.7809
 1479SOL    HW216071   0.463   1.572  16.203  0.0955 -0.1034  0.3296
 1480SOL     OW16072   3.880   3.088  15.118  0.2361 -0.0475 -0.0715
 1480SOL    HW116073   3.800   3.035  15.124  0.0057  0.2044 -0.9057
 1480SOL    HW216074   3.910   3.054  15.033 -0.4140 -0.1471 -0.2674
 1481SOL     OW16075   2.474   3.989   3.814  0.6675  0.6497  0.1178
 1481SOL    HW116076   2.413   4.005   3.742 -0.5344 -1.7272  0.6132
 1481SOL    HW216077   2.461   4.067   3.868  3.6336  0.1665  1.5507
 1482SOL     OW16078   1.458   2.812   6.184 -0.2681  0.0365 -0.5649
 1482SOL    HW116079   1.450   2.854   6.270 -0.1555 -1.6955  0.2979
 1482SOL    HW216080   1.542   2.844   6.152  0.3627 -2.6249 -1.5827
 1483SOL     OW16081   0.704   4.488   4.516  0.1915  0.7148  0.2902
 1483SOL    HW116082   0.756   4.498   4.436  0.4446  1.1912  0.5085
 1483SOL    HW216083   0.619   4.519   4.486  1.0921  1.1794 -1.8283
 1484SOL     OW16084   4.097   3.218   9.260  0.4354 -0.2071  0.6220
 1484SOL    HW116085   4.142   3.135   9.245 -0.9185 -0.5940 -1.2900
 1484SOL    HW216086   4.045   3.207   9.340  2.6058  0.0126  2.0738
 1485SOL     OW16087   1.121   4.058   6.198  0.0508  0.3209  0.1857
 1485SOL    HW116088   1.163   4.052   6.113  1.5733 -1.8231  1.0919
 1485SOL    HW216089   1.161   3.979   6.233  1.9415 -0.5940 -4.0641
 1486SOL     OW16090   3.403   1.648   7.634  0.1909  0.3694 -0.1953
 1486SOL    HW116091   3.455   1.594   7.693  0.0401 -2.9776 -3.1394
 1486SOL    HW216092   3.470   1.712   7.611 -1.7547  2.5830  0.3274
 1487SOL     OW16093   2.407   0.895   4.704 -0.6754  0.4582 -0.1463
 1487SOL    HW116094   2.381   0.803   4.694  1.2205  0.0101 -0.9213
 1487SOL    HW216095   2.394   0.926   4.615  1.2308  0.4960 -0.4155
 1488SOL     OW16096   0.420   1.412   9.052 -0.7686  0.0961  0.4030
 1488SOL    HW116097   0.409   1.365   9.134 -2.8793  1.2970  0.8011
 1488SOL    HW216098   0.442   1.498   9.088  2.6706 -0.3680 -0.5846
 1489SOL     OW16099   0.259   3.519   1.887  0.5014  0.2895 -0.4087
 1489SOL    HW116100   0.205   3.520   1.808 -0.3413  0.0588  0.1631
 1489SOL    HW216101   0.342   3.501   1.844  2.6748  0.3115  3.7705
 1490SOL     OW16102   0.160   4.407   7.956  0.7585  0.0729  0.1837
 1490SOL    HW116103   0.099   4.461   7.905  1.2572  1.6595  1.2780
 1490SOL    HW216104   0.187   4.466   8.025 -0.4563 -0.6312  1.2704
 1491SOL     OW16105   0.563   3.186  16.746  0.5154 -0.6336  0.4307
 1491SOL    HW116106   0.540   3.107  16.696 -1.3794  0.5456 -0.5655
 1491SOL    HW216107   0.581   3.246  16.673  0.1946 -0.8269  0.1921
 1492SOL     OW16108   4.655   3.048  13.582 -0.2853 -0.1215  0.3503
 1492SOL    HW116109   4.659   2.992  13.504 -0.1286  2.1944 -1.2728
 1492SOL    HW216110   4.655   3.138  13.551  1.4114 -1.0845 -2.4623
 1493SOL     OW16111   2.683   1.979  13.989 -0.0056  0.5200 -0.8783
 1493SOL    HW116112   2.662   1.894  14.026 -0.0713  0.7669 -0.3457
 1493SOL    HW216113   2.637   2.035  14.052 -0.1496  1.3315 -1.7048
 1494SOL     OW16114   3.033   4.584   6.119 -0.0190  0.1388  0.0828
 1494SOL    HW116115   3.081   4.653   6.073 -0.1134  0.1535  0.0078
 1494SOL    HW216116   2.955   4.594   6.065 -0.6862  0.1129  1.0469
 1495SOL     OW16117   0.146   1.435   3.207  0.5910 -0.1307 -0.1595
 1495SOL    HW116118   0.116   1.345   3.218 -1.5567  0.6599  0.3610
 1495SOL    HW216119   0.076   1.481   3.161  0.0614  2.0329  2.7655
 1496SOL     OW16120   1.114   3.265   9.992  0.7219 -0.2897 -0.3753
 1496SOL    HW116121   1.047   3.220   9.942 -0.4350  1.2383 -0.1900
 1496SOL    HW216122   1.061   3.326  10.043  1.6804 -0.7411  1.1808
 1497SOL     OW16123   3.682   1.425   6.442  0.5790  0.4731 -0.1442
 1497SOL    HW116124   3.716   1.366   6.375  1.8507  1.1167 -0.0692
 1497SOL    HW216125   3.653   1.500   6.389  1.0322  0.2796 -0.6655
 1498SOL     OW16126   0.640   1.936   1.832  0.2441 -0.4524 -0.1823
 1498SOL    HW116127   0.734   1.933   1.850  0.8180 -0.8524 -3.1776
 1498SOL    HW216128   0.616   2.025   1.806  0.1020  0.0870  1.8246
 1499SOL     OW16129   0.443   0.447   1.971 -0.5093  0.4109  0.0711
 1499SOL    HW116130   0.487   0.484   2.047  0.1433  1.4842 -0.8140
 1499SOL    HW216131   0.363   0.414   2.012 -0.6772  1.8044  0.8599
 1500SOL     OW16132   3.574   1.048   7.579  0.6480  0.3319  0.0497
 1500SOL    HW116133   3.536   1.126   7.619 -2.5859 -1.3033  0.1716
 1500SOL    HW216134   3.558   0.983   7.647 -1.9865 -0.4333 -1.2601
 1501SOL     OW16135   0.208   1.807   3.688  0.3908 -0.2433 -0.0749
 1501SOL    HW116136   0.119   1.824   3.657 -0.2513  2.0487  2.8998
 1501SOL    HW216137   0.190   1.832   3.779  1.3288 -1.7771  0.5308
 1502SOL     OW16138   2.441   0.899   2.892  0.2564  0.8836 -0.5489
 1502SOL    HW116139   2.475   0.833   2.832  0.7389 -0.4009  1.1337
 1502SOL    HW216140   2.441   0.976   2.835  2.0236  0.0970 -1.5860
 1503SOL     OW16141   1.892   1.210  10.006 -0.1650  0.2037 -0.2383
 1503SOL    HW116142   1.827   1.276  10.030 -0.9217 -0.1839 -1.2141
 1503SOL    HW216143   1.970   1.252   9.970  0.2460  0.3491  0.8249
 1504SOL     OW16144   1.758   3.556   2.136  0.2014 -0.2557 -0.1353
 1504SOL    HW116145   1.668   3.588   2.139  0.5694  0.6278  1.6282
 1504SOL    HW216146   1.805   3.621   2.188 -1.8339  1.2014 -0.1450
 1505SOL     OW16147   3.396   2.265  10.597  0.0179  0.3820  0.2886
 1505SOL    HW116148   3.362   2.335  10.653 -0.4060 -0.6551  1.3298
 1505SOL    HW216149   3.348   2.190  10.631  0.8466  0.2052  1.0910
 1506SOL     OW16150   0.306   0.142   3.191  0.0699  0.1237  0.0452
 1506SOL    HW116151   0.221   0.176   3.162 -1.8806 -3.6605  1.3634
 1506SOL    HW216152   0.310   0.069   3.129  0.9003 -0.4120  0.7448
 1507SOL     OW16153   2.356   4.042  15.405 -0.0141 -0.3027  0.2088
 1507SOL    HW116154   2.307   4.057  15.486 -1.3479 -0.8137 -0.5057
 1507SOL    HW216155   2.440   4.012  15.440  0.8854  0.6368 -1.1337
 1508SOL     OW16156   4.066   3.803   5.207  0.7848  0.6581 -0.0018
 1508SOL    HW116157   3.989   3.853   5.232 -1.2157 -2.2495 -0.3425
 1508SOL    HW216158   4.071   3.802   5.111 -0.8431 -1.2994 -0.0852
 1509SOL     OW16159   1.109   2.533   8.957  0.4230 -0.3679  0.0702
 1509SOL    HW116160   1.103   2.601   9.024  0.7661  0.0294 -0.3100
 1509SOL    HW216161   1.193   2.549   8.915  0.7832  1.3337  1.4594
 1510SOL     OW16162   4.287   2.424   0.346  0.0181  0.3948  0.3278
 1510SOL    HW116163   4.227   2.367   0.396  1.6950 -0.3089  1.5312
 1510SOL    HW216164   4.358   2.360   0.342  0.3911  0.7429  1.3326
 1511SOL     OW16165   2.452   3.408   5.864  0.6252  0.4616  0.0024
 1511SOL    HW116166   2.465   3.448   5.778 -1.0309  1.5932  0.2767
 1511SOL    HW216167   2.408   3.478   5.913 -1.0599  0.2321 -1.1649
 1512SOL     OW16168   1.002   2.518  13.116  0.4352  0.3823 -0.0237
 1512SOL    HW116169   0.948   2.597  13.109  0.3020  0.3192  0.3100
 1512SOL    HW216170   1.023   2.507  13.023  1.0621 -0.6078  0.2319
 1513SOL     OW16171   3.417   2.692   2.647 -0.0061 -0.2307  0.6381
 1513SOL    HW116172   3.362   2.654   2.578  1.2840 -1.6080  0.3516
 1513SOL    HW216173   3.360   2.672   2.722 -0.4678 -1.0960  0.0542
 1514SOL     OW16174   1.255   1.246   5.942  0.3908  0.5987 -0.0926
 1514SOL    HW116175   1.321   1.285   5.999  0.7820 -0.8597  0.4574
 1514SOL    HW216176   1.179   1.269   5.996  1.2866  2.5835  0.3426
 1515SOL     OW16177   2.724   1.183   4.628 -0.1114  0.3143  0.0082
 1515SOL    HW116178   2.708   1.152   4.538  0.9695 -1.3728  0.4046
 1515SOL    HW216179   2.817   1.165   4.638  0.2217  2.4085  0.5137
 1516SOL     OW16180   0.215   1.710   8.713  0.1729 -0.1620  0.0683
 1516SOL    HW116181   0.148   1.643   8.726  0.9542 -1.2125 -1.1871
 1516SOL    HW216182   0.169   1.774   8.659 -1.5551  0.0306  1.7782
 1517SOL     OW16183   2.565   1.501  14.601  0.0796 -0.3749  0.1963
 1517SOL    HW116184   2.528   1.579  14.642  0.0954  1.5529 -3.4420
 1517SOL    HW216185   2.661   1.503  14.606  0.0925 -0.1109 -0.1323
 1518SOL     OW16186   0.197   3.988  10.772 -0.0205 -0.0993 -0.1512
 1518SOL    HW116187   0.222   3.984  10.864 -0.0366  1.6129 -0.0701
 1518SOL    HW216188   0.111   4.029  10.768  0.5109  1.2531  2.3340
 1519SOL     OW16189   1.092   4.474   5.605 -0.3248 -0.0604 -0.8124
 1519SOL    HW116190   1.156   4.419   5.560 -0.8842 -2.6670  1.5831
 1519SOL    HW216191   1.136   4.557   5.589 -4.2570  2.3043  0.5358
 1520SOL     OW16192   1.645   1.208  12.354  0.1493  0.1900  0.0810
 1520SOL    HW116193   1.737   1.185  12.347 -0.7262 -3.5452  0.9006
 1520SOL    HW216194   1.598   1.126  12.340 -1.5678  0.8082  2.0614
 1521SOL     OW16195   0.469   0.470  10.196 -0.3775 -0.7226  0.1433
 1521SOL    HW116196   0.511   0.417  10.264  2.3196  0.8084 -0.3561
 1521SOL    HW216197   0.535   0.538  10.180 -0.1987 -1.3104 -1.5599
 1522SOL     OW16198   2.414   4.689   9.634  0.3983 -0.1256  0.3653
 1522SOL    HW116199   2.456   0.014   9.574 -1.0678 -0.7426 -1.3081
 1522SOL    HW216200   2.336   4.668   9.583  0.0707 -3.2246  2.2120
 1523SOL     OW16201   0.379   4.727   8.496 -0.1204 -0.5065  0.5528
 1523SOL    HW116202   0.378   4.653   8.435 -0.7798  0.2471 -0.3567
 1523SOL    HW216203   0.285   4.737   8.508 -0.9153 -3.7665 -2.7785
 1524SOL     OW16204   3.115   0.223  11.692 -0.5336 -0.0395  0.2060
 1524SOL    HW116205   3.080   0.239  11.605 -0.6836  3.5111  0.8992
 1524SOL    HW216206   3.198   0.271  11.690 -0.8691  0.6570  2.1872
 1525SOL     OW16207   4.635   3.584   1.776 -0.3938 -1.0585  0.0291
 1525SOL    HW116208   4.671   3.534   1.849 -0.1441  0.0260  0.6577
 1525SOL    HW216209   4.711   3.591   1.718  1.5344 -2.0523  2.4881
 1526SOL     OW16210   4.318   3.745   6.829  0.3000  0.1805 -0.5408
 1526SOL    HW116211   4.358   3.821   6.871  1.5606 -0.5288 -0.4439
 1526SOL    HW216212   4.227   3.772   6.819 -0.0797 -0.5626  0.9534
 1527SOL     OW16213   3.310   4.079   2.750 -0.1127  0.0372 -0.4634
 1527SOL    HW116214   3.251   4.013   2.714 -1.7176  1.5674 -0.6657
 1527SOL    HW216215   3.386   4.058   2.696  0.6343 -0.6052  0.8411
 1528SOL     OW16216   2.754   2.392  12.262  0.3499  0.3527 -0.8268
 1528SOL    HW116217   2.714   2.319  12.215 -1.3622  1.4321 -1.0470
 1528SOL    HW216218   2.825   2.346  12.306 -0.4521 -0.1861 -0.0859
 1529SOL     OW16219   4.664   0.066  11.519  0.5343 -0.0409 -0.7573
 1529SOL    HW116220   0.012   0.050  11.558  0.4427  1.0502 -0.0992
 1529SOL    HW216221   4.613   4.733  11.560  0.0712  0.0396 -1.1854
 1530SOL     OW16222   4.508   0.154   5.194 -0.5533 -0.3388 -0.5163
 1530SOL    HW116223   4.569   0.191   5.131  0.1613 -0.2474  0.2332
 1530SOL    HW216224   4.536   0.193   5.277 -1.0858  2.5145 -1.6522
 1531SOL     OW16225   2.572   2.990   0.242  0.3169  0.0573  1.1837
 1531SOL    HW116226   2.634   2.928   0.282  0.4819  0.0460  0.9097
 1531SOL    HW216227   2.607   2.990   0.153  1.4674 -1.7054  1.6367
 1532SOL     OW16228   3.705   1.100   8.796  0.7990  0.2529  0.2019
 1532SOL    HW116229   3.688   1.176   8.741  3.3952 -0.8783 -2.1420
 1532SOL    HW216230   3.628   1.094   8.854 -0.9773 -1.6965 -2.3455
 1533SOL     OW16231   0.036   4.298  12.545  0.0205  0.0082  0.0298
 1533SOL    HW116232   0.043   4.323  12.637  0.3547  1.3038 -0.3463
 1533SOL    HW216233   0.099   4.358  12.506  0.0828 -0.3622 -0.4398
 1534SOL     OW16234   2.253   1.038   7.119 -0.2624  0.1166 -1.0965
 1534SOL    HW116235   2.305   1.016   7.197 -0.6450 -0.6805 -1.0654
 1534SOL    HW216236   2.173   0.986   7.133 -0.7228  1.6739  2.2009
 1535SOL     OW16237   2.229   2.729   6.115 -0.2100 -0.8406 -0.0273
 1535SOL    HW116238   2.305   2.670   6.120 -1.4571 -2.3819  0.5801
 1535SOL    HW216239   2.218   2.755   6.206  3.2467 -0.0798  0.1786
 1536SOL     OW16240   4.487   3.500   2.300 -0.1690 -0.2217  0.3392
 1536SOL    HW116241   4.430   3.439   2.347  0.5129  1.5758  3.4608
 1536SOL    HW216242   4.466   3.582   2.344  2.1353  0.0333  0.9686
 1537SOL     OW16243   3.693   3.032   8.865  0.3993 -0.4869  0.1445
 1537SOL    HW116244   3.747   3.072   8.934  0.4394 -1.2110  0.5273
 1537SOL    HW216245   3.624   2.995   8.920  1.8893 -0.0113  2.3439
 1538SOL     OW16246   0.857   3.662   0.646  0.5226  0.9950  0.0455
 1538SOL    HW116247   0.894   3.645   0.560 -1.5351  1.2644 -0.8958
 1538SOL    HW216248   0.916   3.605   0.695 -0.7262 -1.0975 -0.8555
 1539SOL     OW16249   3.162   2.941   9.943  0.7937 -0.1820 -0.6227
 1539SOL    HW116250   3.176   2.852   9.910  1.6902  0.4259 -1.8771
 1539SOL    HW216251   3.095   2.979   9.886  0.2219 -1.7520 -1.0072
 1540SOL     OW16252   3.560   2.383   0.957 -0.4756  0.1905  0.1576
 1540SOL    HW116253   3.523   2.433   0.885 -0.3052 -1.3670 -0.9984
 1540SOL    HW216254   3.492   2.343   1.010 -1.6351  0.9728 -0.7510
 1541SOL     OW16255   4.400   1.761   2.128  0.4066  0.2027  0.2436
 1541SOL    HW116256   4.419   1.679   2.083 -0.5805  1.0042 -1.6081
 1541SOL    HW216257   4.337   1.717   2.185  0.9048  0.9835  1.4110
 1542SOL     OW16258   4.292   0.190   4.736  0.3593 -0.4791  0.1204
 1542SOL    HW116259   4.245   0.254   4.789 -2.2419 -3.7995  1.8037
 1542SOL    HW216260   4.251   0.107   4.759  0.0646 -0.1562  0.7564
 1543SOL     OW16261   4.452   3.616   4.672 -0.4575  0.2542  0.0551
 1543SOL    HW116262   4.533   3.629   4.623  0.5506 -0.0614  1.6312
 1543SOL    HW216263   4.392   3.590   4.602  0.3659 -1.2353 -0.1021
 1544SOL     OW16264   0.282   1.487   4.512  0.6142 -0.5234  0.7493
 1544SOL    HW116265   0.277   1.578   4.544 -0.1218 -0.1392 -0.4800
 1544SOL    HW216266   0.200   1.479   4.463  0.6930  2.0011  0.1890
 1545SOL     OW16267   3.324   2.919   5.315  0.1832 -0.2565 -0.1736
 1545SOL    HW116268   3.416   2.913   5.288  0.6389  1.2010  1.0640
 1545SOL    HW216269   3.332   2.943   5.407  0.9894 -0.0993 -0.2812
 1546SOL     OW16270   3.890   0.855   9.987 -0.4919  0.4395 -0.0210
 1546SOL    HW116271   3.934   0.886  10.066  0.4566  1.0577 -0.7979
 1546SOL    HW216272   3.826   0.922   9.962  0.2818  0.8869 -0.7846
 1547SOL     OW16273   1.609   2.917   6.697 -0.1749 -0.2263 -1.1721
 1547SOL    HW116274   1.619   2.880   6.609 -0.1272 -0.3378 -1.1202
 1547SOL    HW216275   1.649   3.003   6.691  0.6807 -0.6535 -1.4926
 1548SOL     OW16276   3.208   0.035   5.954 -0.6128 -0.1737  0.0621
 1548SOL    HW116277   3.279   0.031   6.017  0.9601  0.3491 -1.7038
 1548SOL    HW216278   3.177   0.125   5.966  0.7169  0.4513 -1.2835
 1549SOL     OW16279   4.312   2.693  10.654 -0.0211 -0.1338  0.6276
 1549SOL    HW116280   4.345   2.625  10.712 -0.9246 -1.2070 -0.1261
 1549SOL    HW216281   4.245   2.740  10.705 -0.0562 -0.8343  1.2231
 1550SOL     OW16282   2.912   0.208  11.212  0.3844 -0.1806  0.1737
 1550SOL    HW116283   2.894   0.129  11.162 -0.7076 -0.1498  0.5218
 1550SOL    HW216284   2.825   0.238  11.238  0.8540  1.1679  0.2368
 1551SOL     OW16285   1.771   1.487  10.028  0.1317 -0.6318 -0.1338
 1551SOL    HW116286   1.736   1.422   9.966 -0.6747  1.0368 -1.4289
 1551SOL    HW216287   1.692   1.538  10.048 -1.1338 -2.4352 -0.5215
 1552SOL     OW16288   1.425   3.810   5.999 -0.6934  0.3757 -0.1214
 1552SOL    HW116289   1.486   3.820   5.925 -1.1666 -0.8420 -0.6691
 1552SOL    HW216290   1.468   3.887   6.037 -0.2474 -0.4253  0.9819
 1553SOL     OW16291   1.191   3.802   6.296  0.0273  0.9624  0.0614
 1553SOL    HW116292   1.193   3.714   6.258  1.8242  0.6770  0.7959
 1553SOL    HW216293   1.252   3.788   6.369  0.0461  1.3312  0.1193
 1554SOL     OW16294   0.534   3.373   6.229 -0.0266 -0.0884 -0.7403
 1554SOL    HW116295   0.568   3.313   6.162  3.4031  0.3336  0.6257
 1554SOL    HW216296   0.439   3.369   6.237 -0.0349  0.4668 -0.5770
 1555SOL     OW16297   3.640   0.023  15.442  0.4396 -0.0619  0.0340
 1555SOL    HW116298   3.565   0.058  15.395 -0.6167 -1.3770  0.7260
 1555SOL    HW216299   3.626   4.667  15.422  2.8737 -0.4947  0.2537
 1556SOL     OW16300   3.516   0.570   5.026 -0.5367 -0.6751  0.5182
 1556SOL    HW116301   3.526   0.475   5.016  1.4558 -0.2533 -1.3703
 1556SOL    HW216302   3.600   0.610   5.005 -1.1346 -0.2314 -0.9964
 1557SOL     OW16303   1.818   1.317   8.487  0.2220  0.4966  0.1164
 1557SOL    HW116304   1.880   1.323   8.559  0.3469 -0.6530  0.1084
 1557SOL    HW216305   1.789   1.228   8.508  2.0645 -0.0668  0.2270
 1558SOL     OW16306   2.077   0.289   4.316 -0.2338  0.0676  0.0154
 1558SOL    HW116307   2.030   0.371   4.303  0.9294  0.6990 -0.2131
 1558SOL    HW216308   2.084   0.257   4.226 -0.3127  0.3339 -0.0853
 1559SOL     OW16309   4.233   2.731  16.450  0.7894  0.2289  0.5752
 1559SOL    HW116310   4.306   2.685  16.490  2.4363  2.0997 -0.2615
 1559SOL    HW216311   4.234   2.686  16.366 -2.3226  0.7122  0.2652
 1560SOL     OW16312   1.348   3.761   4.346 -0.1549 -0.5129  0.7054
 1560SOL    HW116313   1.425   3.768   4.289  0.9062 -0.1821  2.1855
 1560SOL    HW216314   1.283   3.800   4.287  0.0533  1.4606  1.7990
 1561SOL     OW16315   1.598   4.323   3.140 -0.2151 -0.0268 -0.4270
 1561SOL    HW116316   1.681   4.371   3.141 -0.5428  0.5542 -2.3416
 1561SOL    HW216317   1.588   4.307   3.234 -0.8806  3.6856  0.1512
 1562SOL     OW16318   0.091   3.384   7.505  0.1458  0.0460  0.1538
 1562SOL    HW116319   0.128   3.469   7.527  3.2887 -1.4948  0.7275
 1562SOL    HW216320   0.132   3.328   7.571  1.2616 -1.1663 -1.5875
 1563SOL     OW16321   3.131   0.185  16.590  0.3552  0.3842 -0.2888
 1563SOL    HW116322   3.078   0.184  16.670 -0.3182  0.2499 -0.7446
 1563SOL    HW216323   3.206   0.243  16.607 -0.1314  2.0654 -3.9754
 1564SOL     OW16324   0.729   3.313   2.795 -0.9527  0.0225  0.5052
 1564SOL    HW116325   0.643   3.350   2.777 -0.8269 -0.2372 -0.6575
 1564SOL    HW216326   0.784   3.368   2.739 -3.1883  0.1028 -1.6473
 1565SOL     OW16327   4.591   3.957  10.331 -0.1832  0.1123 -0.9352
 1565SOL    HW116328   4.623   3.908  10.256  1.6894 -0.6219  0.3375
 1565SOL    HW216329   4.666   4.013  10.353 -1.0711  0.1227  2.0391
 1566SOL     OW16330   2.055   4.088   3.759  0.1941  0.4660 -0.2022
 1566SOL    HW116331   2.145   4.074   3.728  0.5620 -0.5001  1.3305
 1566SOL    HW216332   2.026   4.141   3.685  0.0488 -1.2417 -1.3729
 1567SOL     OW16333   1.849   1.666   4.266  0.3634 -0.3563  0.1418
 1567SOL    HW116334   1.944   1.672   4.280 -0.0081  0.5427  2.2977
 1567SOL    HW216335   1.823   1.579   4.297 -2.7159  1.2189  1.9360
 1568SOL     OW16336   0.384   1.123   8.137 -0.0870  0.3878  0.3379
 1568SOL    HW116337   0.332   1.203   8.137  0.3300  0.6577 -0.6846
 1568SOL    HW216338   0.369   1.082   8.222 -1.2620 -0.4030 -0.2401
 1569SOL     OW16339   4.533   2.151   4.207 -0.0042  0.1361  0.3477
 1569SOL    HW116340   4.541   2.197   4.123 -0.8794  0.2257  0.3094
 1569SOL    HW216341   4.439   2.134   4.199  0.1993 -0.2706 -1.2178
 1570SOL     OW16342   4.044   3.599   8.749  0.4928  0.0171 -0.5447
 1570SOL    HW116343   4.101   3.522   8.746 -1.9851 -1.8797  1.0960
 1570SOL    HW216344   3.990   3.584   8.671 -0.2634 -2.1294  0.3824
 1571SOL     OW16345   4.489   1.702   7.599  0.4403  0.0499 -0.1370
 1571SOL    HW116346   4.512   1.610   7.588  1.7801  0.2231  1.1660
 1571SOL    HW216347   4.518   1.728   7.512 -3.5866  1.2702 -1.0937
 1572SOL     OW16348   2.664   4.213   4.532  0.3054  0.4723  0.5235
 1572SOL    HW116349   2.650   4.278   4.462 -0.9519 -0.6058 -0.2302
 1572SOL    HW216350   2.579   4.169   4.523  0.6489 -0.0801 -0.0061
 1573SOL     OW16351   1.567   4.143  10.319  0.2385  0.4813  0.0552
 1573SOL    HW116352   1.540   4.058  10.353  0.9118  0.8675  1.5269
 1573SOL    HW216353   1.492   4.201  10.331  0.1410  0.4336 -0.3101
 1574SOL     OW16354   0.038   1.899   6.269 -0.1102 -0.6134  0.1215
 1574SOL    HW116355   4.691   1.895   6.315 -1.0780  2.3078 -1.3997
 1574SOL    HW216356   0.036   1.821   6.214  2.5494 -0.2109 -0.5492
 1575SOL     OW16357   1.361   1.847   3.074  0.5098  0.7236 -0.4165
 1575SOL    HW116358   1.419   1.800   3.015 -0.4371 -2.8198  1.4706
 1575SOL    HW216359   1.286   1.863   3.017 -0.7815  1.5588  1.5265
 1576SOL     OW16360   1.197   2.635   3.941 -0.9000  0.6947 -0.0306
 1576SOL    HW116361   1.132   2.621   3.873 -0.1537  0.4658 -0.6942
 1576SOL    HW216362   1.141   2.630   4.019  1.1588  0.6650  1.4600
 1577SOL     OW16363   2.024   3.363   5.208  0.4529 -0.9384 -0.5333
 1577SOL    HW116364   1.946   3.307   5.205 -0.9780  1.0470 -0.6775
 1577SOL    HW216365   2.100   3.306   5.215 -0.2431 -1.6887  1.1818
 1578SOL     OW16366   0.331   2.086  12.331  0.1010  0.0499 -0.1250
 1578SOL    HW116367   0.333   2.108  12.238  1.7402 -1.8627 -0.5494
 1578SOL    HW216368   0.236   2.078  12.342 -0.0888  0.2513 -1.6372
 1579SOL     OW16369   4.049   4.689   1.553 -0.3946  0.7419  0.1015
 1579SOL    HW116370   4.099   4.626   1.501 -0.4267  0.2718  0.6402
 1579SOL    HW216371   3.984   4.622   1.574 -1.1885  1.2717 -0.6558
 1580SOL     OW16372   3.383   2.528   7.521 -0.0889  0.2139 -0.1854
 1580SOL    HW116373   3.441   2.598   7.492  0.1067 -0.4282 -1.3591
 1580SOL    HW216374   3.433   2.505   7.599  2.0769  0.9997 -1.3360
 1581SOL     OW16375   2.737   1.164  16.634  0.0755 -0.5265  0.1567
 1581SOL    HW116376   2.758   1.114  16.713 -0.3778  0.1429  0.7097
 1581SOL    HW216377   2.827   1.172  16.602  0.2800 -0.4800  0.7398
 1582SOL     OW16378   3.232   2.997  15.079  0.2815 -0.1455  0.2969
 1582SOL    HW116379   3.290   3.030  15.010 -1.7540  1.0856 -0.8474
 1582SOL    HW216380   3.220   3.068  15.142  2.2474 -0.6377  1.2100
 1583SOL     OW16381   2.027   0.120   1.752 -0.1879  0.6585 -0.1167
 1583SOL    HW116382   2.000   0.100   1.663 -0.8424 -1.6082  0.6099
 1583SOL    HW216383   2.070   0.039   1.780 -0.7883 -0.0669 -1.3298
 1584SOL     OW16384   0.907   4.132   2.961 -0.4748  0.5227 -0.1018
 1584SOL    HW116385   0.955   4.048   2.963 -2.1050 -0.4239 -0.7609
 1584SOL    HW216386   0.977   4.194   2.941 -1.1431  1.1379 -0.5136
 1585SOL     OW16387   4.736   1.014   6.102  0.0650 -0.6951  0.9049
 1585SOL    HW116388   0.034   1.101   6.119  0.6011 -0.2692 -2.4098
 1585SOL    HW216389   4.643   1.033   6.088  0.9342  0.5940 -3.2907
 1586SOL     OW16390   1.886   2.226   8.312 -0.2194  0.1861 -0.4383
 1586SOL    HW116391   1.955   2.275   8.267 -0.3634  0.4717 -0.3481
 1586SOL    HW216392   1.830   2.291   8.353 -0.1882  1.5396 -2.5197
 1587SOL     OW16393   3.307   4.495   4.934  0.1227 -0.6345  0.1653
 1587SOL    HW116394   3.273   4.467   4.850 -0.4242  1.1524 -0.2148
 1587SOL    HW216395   3.396   4.462   4.921 -0.7713 -1.9425 -2.5324
 1588SOL     OW16396   1.043   4.570   7.400  0.0373  0.6622  0.0344
 1588SOL    HW116397   0.985   4.641   7.370 -0.3918  0.3601  0.1526
 1588SOL    HW216398   1.047   4.601   7.490  1.6323 -2.4020  0.9886
 1589SOL     OW16399   1.274   4.159   9.315 -0.0494 -0.2159 -0.7126
 1589SOL    HW116400   1.233   4.239   9.281 -0.7988  0.4179  1.6272
 1589SOL    HW216401   1.363   4.165   9.282  0.7714 -1.3344  1.2532
 1590SOL     OW16402   0.207   3.475  11.051  0.1420 -0.0599 -0.5403
 1590SOL    HW116403   0.142   3.406  11.060  1.2566 -1.2841 -1.9743
 1590SOL    HW216404   0.147   3.548  11.067 -1.0125 -1.0626 -0.3524
 1591SOL     OW16405   1.015   0.625  12.484  0.4716 -0.6525 -0.0597
 1591SOL    HW116406   1.026   0.630  12.579 -2.6578  1.9402  0.1703
 1591SOL    HW216407   1.089   0.675  12.451 -0.0042  1.5714  2.2474
 1592SOL     OW16408   1.778   0.525   8.627 -0.0148  0.6278  0.5240
 1592SOL    HW116409   1.813   0.501   8.714 -1.0416 -1.5734  0.3330
 1592SOL    HW216410   1.828   0.469   8.568 -2.3929  1.4303 -2.2617
 1593SOL     OW16411   2.793   2.045   2.694 -0.4554 -0.1436 -0.2710
 1593SOL    HW116412   2.868   2.104   2.687 -0.2424 -0.7492 -3.0736
 1593SOL    HW216413   2.835   1.963   2.669  0.4479  0.1004  0.4493
 1594SOL     OW16414   2.001   0.328   6.570 -0.2547 -0.4306 -0.6485
 1594SOL    HW116415   1.955   0.403   6.532  1.5404  1.9881  1.8902
 1594SOL    HW216416   1.988   0.265   6.500 -0.7906  1.0697 -1.9068
 1595SOL     OW16417   1.583   0.912   9.037  0.0986  0.4944  0.1341
 1595SOL    HW116418   1.495   0.890   9.068  0.2084 -1.0132 -0.5913
 1595SOL    HW216419   1.573   0.997   8.993  2.8131  1.0498  0.5965
 1596SOL     OW16420   0.030   2.401   7.322 -0.7858  0.0889 -0.2300
 1596SOL    HW116421   4.700   2.337   7.298 -1.9463  0.9869  0.6552
 1596SOL    HW216422   4.721   2.484   7.333 -4.0101 -1.6023 -1.2218
 1597SOL     OW16423   3.199   1.689   4.113 -0.0163  0.7283 -0.0995
 1597SOL    HW116424   3.213   1.737   4.032 -0.0176  0.1207 -0.4553
 1597SOL    HW216425   3.114   1.654   4.088 -0.9080  1.9514  1.1728
 1598SOL     OW16426   2.655   1.025   4.041 -0.1034 -0.4691  0.1742
 1598SOL    HW116427   2.572   1.010   3.998 -0.2772  1.4931 -0.1657
 1598SOL    HW216428   2.664   1.118   4.019 -0.6517 -0.4400  0.0716
 1599SOL     OW16429   4.656   0.180  17.561 -0.2405  0.1142 -0.0761
 1599SOL    HW116430   4.734   0.228  17.535 -1.4657  1.1310 -1.8842
 1599SOL    HW216431   4.684   0.092  17.587  1.9497  0.8712  0.0920
 1600SOL     OW16432   2.840   1.796   7.383  0.9005 -0.2778 -0.1219
 1600SOL    HW116433   2.885   1.727   7.334  0.1057  1.5054 -3.3373
 1600SOL    HW216434   2.912   1.818   7.442 -0.1933  1.3803  0.6024
 1601SOL     OW16435   3.631   0.689   2.431  0.2181 -0.4042 -0.0536
 1601SOL    HW116436   3.720   0.722   2.448  0.3169 -1.6613  1.8873
 1601SOL    HW216437   3.581   0.733   2.500 -1.3975  0.1500 -1.5790
 1602SOL     OW16438   1.611   2.462   4.347 -0.2416 -0.0176 -0.4276
 1602SOL    HW116439   1.642   2.409   4.420  1.4041  0.7046 -0.6078
 1602SOL    HW216440   1.518   2.465   4.369  0.5398  1.7258  2.6640
 1603SOL     OW16441   3.285   4.160   2.133  0.0569  0.3922 -0.4912
 1603SOL    HW116442   3.252   4.129   2.048  2.1595  0.6992 -1.4179
 1603SOL    HW216443   3.296   4.253   2.115  1.7614  0.5636  1.4517
 1604SOL     OW16444   4.321   0.159  11.440 -0.3690 -0.2336  0.1582
 1604SOL    HW116445   4.299   0.112  11.520  0.0746 -1.9455 -0.7272
 1604SOL    HW216446   4.243   0.147  11.386 -0.7998  0.5056  0.6157
 1605SOL     OW16447   3.511   3.835   3.321  0.2078  0.4416  0.3123
 1605SOL    HW116448   3.428   3.868   3.356 -0.2962 -1.1895  0.6278
 1605SOL    HW216449   3.550   3.917   3.290  0.6711 -0.0720 -0.4449
 1606SOL     OW16450   3.796   4.468  10.806 -0.3680  0.1801  0.3280
 1606SOL    HW116451   3.820   4.549  10.851 -0.2537  0.4598 -0.2368
 1606SOL    HW216452   3.762   4.420  10.881 -1.1230  0.7317  0.3359
 1607SOL     OW16453   4.058   3.456   0.424 -0.0820  0.0838 -0.0814
 1607SOL    HW116454   3.982   3.512   0.442 -0.3523 -1.0015  2.0683
 1607SOL    HW216455   4.131   3.503   0.464  0.7144 -0.2860 -1.1146
 1608SOL     OW16456   2.679   3.211  16.169  0.7335  0.0635  0.3188
 1608SOL    HW116457   2.692   3.118  16.151 -2.8358 -0.8770  2.6632
 1608SOL    HW216458   2.702   3.215  16.261 -1.6259  1.9210  0.8362
 1609SOL     OW16459   0.136   1.656   7.537  0.3038  0.1291 -0.3463
 1609SOL    HW116460   0.148   1.737   7.587 -0.7117  0.7560 -1.1105
 1609SOL    HW216461   0.206   1.672   7.475 -0.2599  1.7639 -0.5687
 1610SOL     OW16462   0.216   3.397   9.169 -0.0594 -0.6962 -0.1601
 1610SOL    HW116463   0.141   3.456   9.168 -1.0261 -1.9188  0.9076
 1610SOL    HW216464   0.181   3.308   9.168 -0.7650 -0.4354  1.7287
 1611SOL     OW16465   3.651   3.536  14.076 -0.0653  0.1226 -0.4791
 1611SOL    HW116466   3.679   3.595  14.146 -1.6623 -1.8625  1.8371
 1611SOL    HW216467   3.693   3.455  14.105 -1.9953 -0.4257  0.8441
 1612SOL     OW16468   1.115   2.379  11.563 -0.3724 -0.3996  0.0980
 1612SOL    HW116469   1.207   2.365  11.584 -0.6624 -1.7231  0.4764
 1612SOL    HW216470   1.101   2.466  11.601 -0.3995 -0.3470 -0.0316
 1613SOL     OW16471   1.320   4.124   0.430 -0.0969  0.2390 -0.6028
 1613SOL    HW116472   1.297   4.103   0.340 -1.7639 -0.3912 -0.0315
 1613SOL    HW216473   1.269   4.058   0.478 -0.6408  0.6460 -0.6278
 1614SOL     OW16474   2.733   1.248  15.982 -0.1826  0.1960  0.0156
 1614SOL    HW116475   2.661   1.237  15.919  1.4720 -1.0035 -1.6677
 1614SOL    HW216476   2.777   1.322  15.941  0.5138  2.1471  4.3955
 1615SOL     OW16477   2.364   2.708   9.430 -0.5031 -0.1811  0.2303
 1615SOL    HW116478   2.398   2.721   9.518 -1.2546 -1.5447  0.7253
 1615SOL    HW216479   2.323   2.793   9.418  1.4815  0.9051  1.2057
 1616SOL     OW16480   0.189   3.727   5.849  0.1546 -0.7795 -0.6451
 1616SOL    HW116481   0.145   3.642   5.856 -1.5412 -0.0395 -2.2898
 1616SOL    HW216482   0.210   3.728   5.756 -1.5663 -2.6170 -1.0693
 1617SOL     OW16483   1.393   2.420   8.016 -0.0749  0.1095  0.4032
 1617SOL    HW116484   1.326   2.447   7.953 -2.0857 -1.6509  1.7850
 1617SOL    HW216485   1.341   2.398   8.093 -0.4947  0.1558  0.1363
 1618SOL     OW16486   4.588   3.539   7.152 -0.1189  0.2995  0.0788
 1618SOL    HW116487   4.612   3.538   7.059 -2.0417  3.3024 -0.4686
 1618SOL    HW216488   4.661   3.594   7.183 -0.0742 -0.6190  1.5697
 1619SOL     OW16489   2.174   4.736   3.541 -0.3916 -0.1224  0.2112
 1619SOL    HW116490   2.220   0.073   3.501 -1.1920 -0.0741 -0.6284
 1619SOL    HW216491   2.125   0.053   3.603 -0.2024  0.3521 -0.0516
 1620SOL     OW16492   1.491   1.536   3.817 -0.0905  0.5195 -0.4420
 1620SOL    HW116493   1.404   1.559   3.785 -1.0766  1.7821  3.2087
 1620SOL    HW216494   1.517   1.615   3.864 -0.3149  1.0659 -1.2391
 1621SOL     OW16495   1.564   2.322   7.746  0.2703  0.7008  1.0492
 1621SOL    HW116496   1.488   2.330   7.688 -0.3123 -2.3429  1.3437
 1621SOL    HW216497   1.585   2.228   7.739 -0.8759  0.4166  1.3405
 1622SOL     OW16498   4.639   2.261   7.881 -0.1593  0.1352 -0.2772
 1622SOL    HW116499   4.600   2.277   7.967 -0.6416 -0.6416 -0.3570
 1622SOL    HW216500   4.631   2.166   7.876  2.4479 -0.0558 -0.8528
 1623SOL     OW16501   3.645   1.246  13.827 -0.4932 -0.6618 -0.5081
 1623SOL    HW116502   3.627   1.159  13.864 -0.4997 -0.9293 -1.1400
 1623SOL    HW216503   3.579   1.250  13.758 -0.5034  0.3005 -0.4344
 1624SOL     OW16504   2.968   1.602   3.989  0.6314  0.2660 -0.2280
 1624SOL    HW116505   2.957   1.519   3.942 -0.0536 -0.7342  1.7085
 1624SOL    HW216506   2.923   1.657   3.925 -1.3037 -2.0073 -0.7920
 1625SOL     OW16507   1.722   1.853   6.128 -0.0044 -0.6472  0.0032
 1625SOL    HW116508   1.702   1.942   6.100  1.6407 -0.0373  0.7994
 1625SOL    HW216509   1.817   1.854   6.140 -0.0945 -2.8580  0.9241
 1626SOL     OW16510   0.289   2.212   6.432  0.4504  0.1137  0.1012
 1626SOL    HW116511   0.210   2.207   6.484 -1.2310  1.0045 -2.3630
 1626SOL    HW216512   0.243   2.239   6.352 -0.6564 -1.1951  0.3025
 1627SOL     OW16513   0.806   0.459   9.832  0.0110 -0.1617 -0.4816
 1627SOL    HW116514   0.892   0.482   9.796  0.8566 -1.1471  0.9251
 1627SOL    HW216515   0.753   0.532   9.865  2.7006  2.1477 -1.2996
 1628SOL     OW16516   0.724   3.041  15.066 -0.5969  0.2899  0.3695
 1628SOL    HW116517   0.655   3.103  15.088  0.9082  1.8681  0.6615
 1628SOL    HW216518   0.803   3.093  15.083 -0.1877 -0.4194  0.6495
 1629SOL     OW16519   0.237   4.042   6.760 -0.3828 -0.3487 -0.0805
 1629SOL    HW116520   0.192   4.103   6.818  1.3276  2.8798 -2.1425
 1629SOL    HW216521   0.297   4.006   6.824 -0.2490  0.9875  0.5416
 1630SOL     OW16522   2.851   1.523   8.223 -0.3225 -0.3130  0.0345
 1630SOL    HW116523   2.772   1.525   8.278  0.9520  0.7810  1.8374
 1630SOL    HW216524   2.852   1.617   8.207  0.5338 -0.2345  0.5241
 1631SOL     OW16525   3.232   1.755   3.825  0.3619 -0.1219 -0.1758
 1631SOL    HW116526   3.170   1.729   3.757  0.1998 -2.6203  0.9080
 1631SOL    HW216527   3.215   1.849   3.834  2.4160  0.3419 -1.2637
 1632SOL     OW16528   2.463   3.912  16.577 -0.0978  0.1657  0.1929
 1632SOL    HW116529   2.483   3.825  16.611 -2.4568 -1.2122 -1.9392
 1632SOL    HW216530   2.553   3.922  16.544 -0.0929  3.0047  1.1122
 1633SOL     OW16531   2.700   1.121   8.862  0.6130 -0.1638  0.0786
 1633SOL    HW116532   2.743   1.185   8.919  0.5179 -0.6810  0.7384
 1633SOL    HW216533   2.670   1.059   8.929 -3.0366  0.1188 -1.3156
 1634SOL     OW16534   1.551   2.620   7.322 -0.5752  0.3060  0.1919
 1634SOL    HW116535   1.552   2.701   7.270 -1.0162  0.1299 -0.0867
 1634SOL    HW216536   1.643   2.593   7.322 -1.2409 -1.9682 -0.8229
 1635SOL     OW16537   2.045   1.841   7.266  0.3970 -0.2627 -0.1507
 1635SOL    HW116538   2.096   1.789   7.203  0.5400 -0.9002  0.4846
 1635SOL    HW216539   1.969   1.877   7.221 -0.3735 -1.7260 -0.0355
 1636SOL     OW16540   3.938   3.334   2.739  0.3239  0.1969  0.3699
 1636SOL    HW116541   3.961   3.419   2.701  1.4865 -0.6635 -0.8516
 1636SOL    HW216542   3.936   3.291   2.653 -2.4743  0.1639  0.4566
 1637SOL     OW16543   4.630   3.942   2.314  0.2106  0.5466 -0.0100
 1637SOL    HW116544   4.706   3.945   2.373 -0.4948  1.8722  0.8323
 1637SOL    HW216545   4.585   3.871   2.360 -0.5495  0.7546 -0.4291
 1638SOL     OW16546   2.314   3.904  14.450  0.3451  0.1222 -0.0105
 1638SOL    HW116547   2.281   3.814  14.441 -0.9458  0.5851  0.0404
 1638SOL    HW216548   2.405   3.892  14.424  0.7592 -0.7203  1.8645
 1639SOL     OW16549   1.360   3.413   3.015 -0.1362  0.4008  0.1039
 1639SOL    HW116550   1.364   3.327   3.057 -0.1430  1.1516  1.6365
 1639SOL    HW216551   1.331   3.386   2.928 -3.5773 -0.6969  1.6002
 1640SOL     OW16552   3.157   1.687   8.286 -0.0925  0.1713 -0.1559
 1640SOL    HW116553   3.135   1.779   8.304  0.7768  0.0626  1.5027
 1640SOL    HW216554   3.200   1.703   8.203 -0.4819  0.2204 -0.3496
 1641SOL     OW16555   3.741   0.106   7.728  0.0579  0.0308  0.5932
 1641SOL    HW116556   3.662   0.062   7.756 -0.6777  1.4376  0.7270
 1641SOL    HW216557   3.696   0.164   7.667 -1.5398  0.2577  2.0073
 1642SOL     OW16558   1.633   2.359   8.377  0.7847  0.3166 -0.7301
 1642SOL    HW116559   1.545   2.395   8.380  1.1784  1.3035 -0.8163
 1642SOL    HW216560   1.618   2.271   8.343 -0.0873 -0.1241  0.8266
 1643SOL     OW16561   4.693   0.069  15.216  0.6515  0.0645 -0.2898
 1643SOL    HW116562   0.014   0.001  15.183  1.1930 -0.3701  1.5393
 1643SOL    HW216563   4.731   0.097  15.299  1.1101 -2.3788  0.3255
 1644SOL     OW16564   2.397   4.624  13.414 -0.2520  0.2396 -0.6142
 1644SOL    HW116565   2.391   4.582  13.500  2.2912  1.2088  0.0161
 1644SOL    HW216566   2.469   4.570  13.382 -0.2320  0.0598 -0.2668
 1645SOL     OW16567   2.551   0.146   8.304  0.5917  0.2876  0.1292
 1645SOL    HW116568   2.508   0.141   8.389  0.8908  0.8600  0.3108
 1645SOL    HW216569   2.618   0.213   8.315 -0.2106  1.1280 -0.0835
 1646SOL     OW16570   0.166   1.412   5.327 -0.1886 -0.2723  0.0587
 1646SOL    HW116571   0.176   1.433   5.419  0.8779  0.5900 -0.2497
 1646SOL    HW216572   0.204   1.488   5.283  0.9057 -0.9511 -0.1738
 1647SOL     OW16573   2.266   1.176   5.008  0.3638  0.1841 -0.5495
 1647SOL    HW116574   2.171   1.170   4.996  0.2518 -0.1890  0.5696
 1647SOL    HW216575   2.281   1.128   5.090 -0.5873 -1.3627 -1.2685
 1648SOL     OW16576   0.408   3.698   3.058 -0.7848 -0.1695 -0.1071
 1648SOL    HW116577   0.484   3.747   3.027  0.9574 -0.2085  4.1054
 1648SOL    HW216578   0.330   3.752   3.069 -0.9085 -0.6206  1.2120
 1649SOL     OW16579   2.399   0.853  16.837 -0.4089 -0.4443  0.1100
 1649SOL    HW116580   2.460   0.782  16.814  0.0887  0.7545 -2.2544
 1649SOL    HW216581   2.344   0.865  16.760  3.0940 -0.4803 -2.4115
 1650SOL     OW16582   4.731   2.344   8.554  0.5203 -0.2138 -0.1229
 1650SOL    HW116583   0.006   2.344   8.649 -1.8965 -0.8016  0.1876
 1650SOL    HW216584   0.069   2.294   8.523  0.0834 -1.9330  1.5483
 1651SOL     OW16585   1.006   0.029   0.485  0.7820 -0.6578  0.2187
 1651SOL    HW116586   0.974   4.697   0.543 -2.6685  1.5682  0.9532
 1651SOL    HW216587   1.100   0.035   0.499  0.6465  0.7678  0.4371
 1652SOL     OW16588   3.660   0.244   8.130  0.0028  0.1485 -0.1984
 1652SOL    HW116589   3.685   0.167   8.080 -0.8134 -0.7962  0.8446
 1652SOL    HW216590   3.741   0.255   8.180 -0.9413  1.7307  1.0101
 1653SOL     OW16591   2.503   4.551   7.759  0.2563 -0.6728  0.2919
 1653SOL    HW116592   2.432   4.495   7.728  0.1060 -0.7396  0.7452
 1653SOL    HW216593   2.481   4.532   7.851 -2.7596 -1.4835 -0.6279
 1654SOL     OW16594   0.059   0.292  13.673 -0.2080  0.1045  0.0210
 1654SOL    HW116595   0.033   0.211  13.627 -0.4724 -0.0899  0.5105
 1654SOL    HW216596   0.150   0.304  13.647  0.4834 -0.5449  2.1280
 1655SOL     OW16597   1.144   4.224   2.829 -0.2031  0.1421  0.0763
 1655SOL    HW116598   1.238   4.207   2.815 -0.2755  0.6564 -1.0938
 1655SOL    HW216599   1.154   4.310   2.868 -0.4586  0.5794 -0.8217
 1656SOL     OW16600   2.843   2.902   4.293  0.2547 -0.4786  0.1874
 1656SOL    HW116601   2.844   2.923   4.199  1.5168  1.1717  0.5778
 1656SOL    HW216602   2.896   2.823   4.281 -1.3243 -1.3976 -0.8201
 1657SOL     OW16603   4.157   1.729  11.735  0.4690 -0.0648  0.0576
 1657SOL    HW116604   4.098   1.669  11.780 -0.8063  2.7255  2.1019
 1657SOL    HW216605   4.091   1.798  11.731 -1.8503 -2.4339 -2.2932
 1658SOL     OW16606   2.196   2.716  17.237  0.0370  0.5417  0.5365
 1658SOL    HW116607   2.235   2.628  17.245 -0.1762  0.5001  1.1419
 1658SOL    HW216608   2.248   2.761  17.170 -2.5574  3.0026  0.2171
 1659SOL     OW16609   4.109   3.381  14.601  0.4229  0.5016  0.5718
 1659SOL    HW116610   4.154   3.312  14.650  2.2460  0.7305 -0.8156
 1659SOL    HW216611   4.185   3.426  14.565  0.4510 -1.2066 -1.4437
 1660SOL     OW16612   4.528   1.220   8.940 -0.1210 -0.0076 -0.7405
 1660SOL    HW116613   4.545   1.207   9.033  1.8949 -0.4245 -1.1782
 1660SOL    HW216614   4.484   1.305   8.942  3.0863  1.6512 -0.2548
 1661SOL     OW16615   3.543   0.915  12.491  0.3564  0.8399 -0.1680
 1661SOL    HW116616   3.595   0.951  12.419  0.3433 -0.6323 -0.8934
 1661SOL    HW216617   3.600   0.853  12.536  0.3777  0.4006 -0.8057
 1662SOL     OW16618   2.663   1.485  12.895  0.0192 -0.4016 -0.1205
 1662SOL    HW116619   2.658   1.429  12.818  0.0250 -0.1356 -0.3133
 1662SOL    HW216620   2.687   1.566  12.851 -1.1785 -0.7303 -1.3623
 1663SOL     OW16621   2.288   3.368   3.894  0.1756 -0.1963  0.1929
 1663SOL    HW116622   2.220   3.317   3.849 -1.0588  2.5800 -1.0938
 1663SOL    HW216623   2.284   3.329   3.981  0.3388  1.7961  1.0941
 1664SOL     OW16624   1.774   4.589   4.105 -0.5091 -0.0338 -0.0737
 1664SOL    HW116625   1.681   4.577   4.123 -0.4942  0.5170  0.3798
 1664SOL    HW216626   1.805   4.644   4.177  1.1822 -1.5495  0.3643
 1665SOL     OW16627   4.134   2.288  12.711 -0.4823  0.1159 -0.1277
 1665SOL    HW116628   4.107   2.209  12.756  2.4850 -1.2622 -0.8076
 1665SOL    HW216629   4.152   2.258  12.622  0.1375  0.2333 -0.0389
 1666SOL     OW16630   4.433   3.587   9.185  0.2303 -0.2153 -0.0609
 1666SOL    HW116631   4.377   3.537   9.244 -2.3103 -0.2797 -2.5522
 1666SOL    HW216632   4.393   3.555   9.104  2.3339  1.5573 -1.8075
 1667SOL     OW16633   1.309   1.206   7.260  0.0766 -0.4210 -0.3759
 1667SOL    HW116634   1.394   1.227   7.299 -1.2687  0.5464  2.0122
 1667SOL    HW216635   1.325   1.115   7.238  0.7209 -0.3439 -0.2244
 1668SOL     OW16636   1.862   0.671   8.304  0.3613  0.1780  0.2100
 1668SOL    HW116637   1.903   0.584   8.302 -1.3411 -0.6370  0.3979
 1668SOL    HW216638   1.897   0.716   8.381  1.2224 -0.2827  0.0890
 1669SOL     OW16639   2.497   1.071  13.695 -0.0148  0.3436 -0.7857
 1669SOL    HW116640   2.478   0.986  13.656  0.3857  0.7208 -1.7909
 1669SOL    HW216641   2.506   1.044  13.787  0.9286 -1.5542 -1.4389
 1670SOL     OW16642   1.280   1.950  15.813 -0.1548 -0.5627  0.6445
 1670SOL    HW116643   1.264   1.856  15.825 -0.9222 -0.4991  0.0558
 1670SOL    HW216644   1.248   1.985  15.896  0.6778  0.1353  0.6661
 1671SOL     OW16645   2.829   0.002  16.578  0.3772  0.1222 -0.2541
 1671SOL    HW116646   2.753   4.700  16.622  1.0178 -1.0774 -0.2448
 1671SOL    HW216647   2.893   0.005  16.649 -1.0830  0.5463  1.0440
 1672SOL     OW16648   2.585   3.055  13.536 -0.4614 -0.1709  0.4372
 1672SOL    HW116649   2.617   2.965  13.533 -3.1057 -1.0816 -0.4613
 1672SOL    HW216650   2.614   3.075  13.626 -0.6033  1.0152  0.2170
 1673SOL     OW16651   3.601   1.349  12.630  0.6918 -0.3434  0.1917
 1673SOL    HW116652   3.668   1.304  12.682 -0.2367 -2.1056 -0.1351
 1673SOL    HW216653   3.615   1.307  12.545  0.4714  2.3529 -1.1910
 1674SOL     OW16654   2.451   1.191   8.768 -0.0856  0.5878  0.2819
 1674SOL    HW116655   2.426   1.113   8.719 -2.1968  1.3738  0.1198
 1674SOL    HW216656   2.538   1.163   8.799  0.1830  0.8628 -0.2132
 1675SOL     OW16657   1.183   3.720   1.358  0.2830 -0.2281  0.3643
 1675SOL    HW116658   1.153   3.793   1.413  1.9232  0.1395  0.7802
 1675SOL    HW216659   1.114   3.715   1.292 -0.3848  2.7485  0.8389
 1676SOL     OW16660   0.872   3.095   4.408  0.0778  0.3335 -0.0922
 1676SOL    HW116661   0.950   3.144   4.434  1.5417 -0.9714 -2.0633
 1676SOL    HW216662   0.820   3.159   4.360  0.4015  0.0395 -0.8381
 1677SOL     OW16663   4.285   1.114   8.464 -0.4913  0.0136 -0.1648
 1677SOL    HW116664   4.309   1.022   8.450 -2.7152 -0.5136 -0.4696
 1677SOL    HW216665   4.190   1.102   8.472 -0.4486  0.5111  1.1349
 1678SOL     OW16666   3.220   0.708  10.510  0.0040 -0.1299 -0.4876
 1678SOL    HW116667   3.255   0.715  10.599  2.3492 -2.3360 -1.2682
 1678SOL    HW216668   3.248   0.790  10.469  4.3959  0.4375  3.6559
 1679SOL     OW16669   2.679   3.278   5.936  0.1971 -0.7651  0.2952
 1679SOL    HW116670   2.740   3.311   5.870  0.9618  0.5366  1.6502
 1679SOL    HW216671   2.602   3.323   5.901  0.3144 -0.5397  0.3264
 1680SOL     OW16672   1.386   4.113   1.876 -0.2003  0.7402  0.1990
 1680SOL    HW116673   1.315   4.050   1.864 -0.9113  1.7450 -0.9041
 1680SOL    HW216674   1.348   4.172   1.941 -1.1688 -1.3147  1.4748
 1681SOL     OW16675   1.451   3.831   8.022  0.3866  0.4304  0.1765
 1681SOL    HW116676   1.521   3.839   7.957  0.0164  1.2341 -0.1171
 1681SOL    HW216677   1.503   3.833   8.103 -0.0557  2.0191  0.4172
 1682SOL     OW16678   3.028   2.953   9.363  0.0532 -0.1467  0.3998
 1682SOL    HW116679   3.110   2.904   9.371 -0.2033 -0.4273  1.2804
 1682SOL    HW216680   3.031   3.024   9.428 -1.3470 -1.0796  1.5052
 1683SOL     OW16681   4.633   2.927   7.784  0.3537 -0.5416 -0.0679
 1683SOL    HW116682   4.550   2.974   7.790  1.0394  0.7482 -0.8724
 1683SOL    HW216683   4.611   2.874   7.707 -2.4562 -1.1559  1.1772
 1684SOL     OW16684   2.463   0.870   1.564  0.4915 -0.7000  0.0358
 1684SOL    HW116685   2.459   0.965   1.576  1.0920 -0.2554 -3.2569
 1684SOL    HW216686   2.555   0.847   1.575  0.0954 -1.0459  2.6557
 1685SOL     OW16687   4.735   4.450   0.808  0.0634 -0.0707 -0.4260
 1685SOL    HW116688   4.652   4.424   0.849  0.7713  1.0406  1.6896
 1685SOL    HW216689   4.700   4.495   0.731  2.9730  0.7583 -1.2505
 1686SOL     OW16690   0.851   1.816  17.162  0.2292 -0.6366 -0.3591
 1686SOL    HW116691   0.862   1.737  17.214  1.9915 -0.4876 -0.5218
 1686SOL    HW216692   0.839   1.797  17.069 -0.6204  0.2036 -0.4328
 1687SOL     OW16693   1.096   3.186  13.263 -0.7885 -0.3692 -0.3410
 1687SOL    HW116694   1.148   3.205  13.184  1.0904  1.2975  1.3056
 1687SOL    HW216695   1.158   3.186  13.336 -0.0264 -0.1268 -0.9910
 1688SOL     OW16696   3.117   1.268   1.582 -0.4217 -0.4778  0.0306
 1688SOL    HW116697   3.166   1.305   1.509 -0.4878  1.4428  0.9734
 1688SOL    HW216698   3.187   1.262   1.648  0.5009  3.1789 -0.6674
 1689SOL     OW16699   0.790   3.304   8.157 -0.4811 -0.2012  0.1876
 1689SOL    HW116700   0.822   3.226   8.112 -0.6532 -1.1044  1.6182
 1689SOL    HW216701   0.865   3.310   8.216 -0.4766  1.3195  0.0197
 1690SOL     OW16702   1.375   4.219   4.667  0.0218  0.5979  0.8983
 1690SOL    HW116703   1.389   4.141   4.721 -0.9132 -1.5277 -1.9070
 1690SOL    HW216704   1.466   4.242   4.649  0.2386 -0.4818  0.5893
 1691SOL     OW16705   3.091   3.334  14.927  0.4317  0.4521  0.0152
 1691SOL    HW116706   3.001   3.302  14.929  0.8408 -0.7662 -1.6559
 1691SOL    HW216707   3.133   3.274  14.866  1.6558 -0.6483  1.9414
 1692SOL     OW16708   2.616   2.916   9.777  0.3717  0.2285 -0.5865
 1692SOL    HW116709   2.677   2.859   9.823 -0.1175 -1.2287 -1.7320
 1692SOL    HW216710   2.621   2.884   9.687 -0.8858 -0.9404 -0.2400
 1693SOL     OW16711   1.132   2.224   4.055  0.1411  0.1605 -0.6571
 1693SOL    HW116712   1.041   2.221   4.028  0.2500  1.4731 -1.1481
 1693SOL    HW216713   1.174   2.190   3.976 -1.3747  0.5937 -1.6298
 1694SOL     OW16714   0.531   2.697  15.941 -0.2311 -0.1613 -0.0503
 1694SOL    HW116715   0.561   2.787  15.926 -2.6624  1.1282  2.8519
 1694SOL    HW216716   0.472   2.691  15.866  1.0043 -1.1095 -0.9635
 1695SOL     OW16717   1.220   3.448   4.354 -0.4772 -0.1018  0.1549
 1695SOL    HW116718   1.273   3.469   4.431 -0.5039  1.0402 -0.1397
 1695SOL    HW216719   1.158   3.521   4.353 -1.0955 -0.6415 -0.8203
 1696SOL     OW16720   1.064   4.700   3.145  0.1111 -0.3008  0.5372
 1696SOL    HW116721   1.097   0.031   3.087  2.4601 -1.5702  0.3687
 1696SOL    HW216722   1.126   4.701   3.217 -0.3477  0.3901  0.9244
 1697SOL     OW16723   0.175   1.165   5.867 -0.4109 -0.2968  0.4642
 1697SOL    HW116724   0.163   1.223   5.942  1.9460 -1.1968  1.5312
 1697SOL    HW216725   0.258   1.121   5.884 -0.7255 -0.8445  0.5838
 1698SOL     OW16726   2.389   1.544   2.260 -0.1090  0.1214 -0.2332
 1698SOL    HW116727   2.358   1.556   2.170  0.2596 -3.1065 -0.7771
 1698SOL    HW216728   2.354   1.457   2.279  0.8204 -0.4156 -0.9800
 1699SOL     OW16729   2.233   0.416   3.695  0.4757  0.4543 -0.0856
 1699SOL    HW116730   2.220   0.359   3.772 -0.7088  1.1406  0.2230
 1699SOL    HW216731   2.175   0.360   3.644 -0.9380 -0.2716  2.2760
 1700SOL     OW16732   3.309   2.142  13.247  0.3667  0.1958 -0.0865
 1700SOL    HW116733   3.375   2.078  13.273  0.7394  0.6605  0.1030
 1700SOL    HW216734   3.238   2.118  13.307  0.9042 -0.5910  0.2268
 1701SOL     OW16735   3.995   2.513   4.401  0.1958  0.0516 -0.3207
 1701SOL    HW116736   4.057   2.499   4.330  0.4529 -0.7805  0.0741
 1701SOL    HW216737   3.926   2.449   4.382 -0.7860  1.1249 -0.3987
 1702SOL     OW16738   0.016   3.742   6.944 -0.1449  0.2289  0.4109
 1702SOL    HW116739   0.001   3.656   6.906  3.3292 -0.2977  0.1758
 1702SOL    HW216740   4.721   3.802   6.876  0.6493 -1.3778 -1.4012
 1703SOL     OW16741   2.821   1.165   2.044 -0.1224 -0.0893  0.0259
 1703SOL    HW116742   2.754   1.097   2.033 -0.2915 -0.0483  0.8154
 1703SOL    HW216743   2.894   1.113   2.075  1.7759  0.7103 -3.0735
 1704SOL     OW16744   4.576   3.540   3.382  0.3002  0.2027 -0.1655
 1704SOL    HW116745   4.645   3.499   3.435  0.9434 -2.1844 -2.8905
 1704SOL    HW216746   4.515   3.468   3.369  2.9406 -2.1558  0.4930
 1705SOL     OW16747   1.367   3.807   2.289 -0.0433  0.4771  0.2319
 1705SOL    HW116748   1.404   3.774   2.207  0.2924 -0.7907  0.8871
 1705SOL    HW216749   1.325   3.891   2.270  1.0684  0.6054 -1.6457
 1706SOL     OW16750   3.992   2.041  11.466 -0.3157  0.2264 -0.2638
 1706SOL    HW116751   4.005   2.016  11.374 -2.2830  2.0910 -1.0333
 1706SOL    HW216752   3.973   2.135  11.460  0.9753  0.5440  0.5494
 1707SOL     OW16753   2.247   2.589   4.885 -0.2786 -0.6258 -0.2499
 1707SOL    HW116754   2.295   2.559   4.808  0.1728  1.0358 -0.6108
 1707SOL    HW216755   2.156   2.600   4.859 -0.5948  0.6762  1.3512
 1708SOL     OW16756   0.729   2.908   8.632  0.1172 -0.1062 -0.3397
 1708SOL    HW116757   0.735   3.000   8.607 -0.3032 -0.3726 -1.4172
 1708SOL    HW216758   0.655   2.904   8.692 -1.6768  0.1177 -2.5403
 1709SOL     OW16759   3.998   1.166   6.130 -0.2388 -0.1069  0.3978
 1709SOL    HW116760   4.019   1.164   6.037  1.4032 -0.1229  0.7714
 1709SOL    HW216761   3.964   1.256   6.132 -0.5358 -0.2281  0.8938
 1710SOL     OW16762   2.637   2.849   6.926  0.1636 -0.4061 -0.0518
 1710SOL    HW116763   2.574   2.787   6.962  1.5274 -1.3582  0.6856
 1710SOL    HW216764   2.607   2.937   6.947  1.9860 -0.5507  3.0896
 1711SOL     OW16765   4.284   0.586   9.795 -0.0143  1.0012  0.6179
 1711SOL    HW116766   4.289   0.641   9.717 -0.0151  1.1819  0.7468
 1711SOL    HW216767   4.232   0.647   9.847  1.1438  0.7424  2.0631
 1712SOL     OW16768   4.315   1.046   8.893  0.4959 -0.1893  0.1965
 1712SOL    HW116769   4.399   1.092   8.897  0.9568 -1.2320  2.6179
 1712SOL    HW216770   4.265   1.107   8.840  1.5194  2.2808  2.0744
 1713SOL     OW16771   4.427   3.806   7.606 -0.6460  0.0764  0.4565
 1713SOL    HW116772   4.365   3.854   7.551  0.0609  1.7398  1.1209
 1713SOL    HW216773   4.407   3.715   7.582  0.9344 -0.3954  0.9229
 1714SOL     OW16774   0.612   3.496  15.037 -0.0849 -0.7143  0.0043
 1714SOL    HW116775   0.608   3.559  15.109  0.8941 -1.1020  0.3987
 1714SOL    HW216776   0.559   3.426  15.075  2.8453 -2.4865  0.8558
 1715SOL     OW16777   1.657   1.241  14.605  0.3554  0.0729 -0.4246
 1715SOL    HW116778   1.749   1.229  14.581 -0.0023 -0.8251 -1.3734
 1715SOL    HW216779   1.647   1.334  14.622  0.4424  0.4873 -2.6751
 1716SOL     OW16780   3.608   4.285   4.600  0.3651  0.0101  0.0410
 1716SOL    HW116781   3.546   4.226   4.558  0.0447 -0.5349  1.2822
 1716SOL    HW216782   3.690   4.244   4.571  1.1404  0.2135  1.9357
 1717SOL     OW16783   2.986   1.529  17.516  0.6669  0.2360 -0.1272
 1717SOL    HW116784   3.021   1.463  17.455  0.2597 -0.2103  0.1279
 1717SOL    HW216785   2.938   1.473  17.577  0.9308 -0.1134 -0.2351
 1718SOL     OW16786   0.590   0.604   8.356 -0.6807  0.0359  0.0632
 1718SOL    HW116787   0.587   0.511   8.379  1.5087 -0.1003 -0.1654
 1718SOL    HW216788   0.605   0.594   8.262 -0.5914  2.1325 -0.1374
 1719SOL     OW16789   2.463   1.576   4.067 -0.9639  0.0510  0.2274
 1719SOL    HW116790   2.556   1.593   4.076 -1.1024 -0.3809  2.5397
 1719SOL    HW216791   2.460   1.486   4.099  0.3530 -0.2821 -0.6227
 1720SOL     OW16792   3.320   0.716   2.798 -0.2066 -0.1823 -0.3909
 1720SOL    HW116793   3.347   0.763   2.877 -3.0421  0.7922 -0.0179
 1720SOL    HW216794   3.227   0.737   2.797  0.2786  1.8238 -2.6930
 1721SOL     OW16795   4.717   4.132  12.985 -0.4329  0.1799 -0.6480
 1721SOL    HW116796   4.658   4.159  12.915 -2.1392 -1.8229  0.0155
 1721SOL    HW216797   4.665   4.167  13.057  0.6799  1.3875 -0.4250
 1722SOL     OW16798   2.685   2.273   5.962 -0.5652  0.4786 -0.5903
 1722SOL    HW116799   2.712   2.242   5.875 -3.2800 -1.4275 -0.7993
 1722SOL    HW216800   2.655   2.189   5.997 -0.5533 -0.1540 -2.0823
 1723SOL     OW16801   1.708   0.830   2.691  0.4872  0.2871 -0.1037
 1723SOL    HW116802   1.757   0.905   2.727 -1.3675  1.2446  0.3876
 1723SOL    HW216803   1.702   0.852   2.598 -0.6056 -0.5824 -0.2233
 1724SOL     OW16804   0.991   0.439  14.577 -0.3430  0.2335 -0.1065
 1724SOL    HW116805   1.007   0.415  14.486  0.5806 -0.0699  0.1431
 1724SOL    HW216806   0.993   0.352  14.615  1.0229 -0.3140 -1.4166
 1725SOL     OW16807   1.219   3.927  12.799 -0.5249 -0.0060  0.2309
 1725SOL    HW116808   1.216   3.856  12.736 -1.7511  1.7142 -1.6644
 1725SOL    HW216809   1.194   3.885  12.881  0.1553 -0.7512  0.0516
 1726SOL     OW16810   0.921   3.830  11.349  0.3782 -0.0465 -0.8298
 1726SOL    HW116811   1.015   3.843  11.356  0.2631 -0.2475  0.9497
 1726SOL    HW216812   0.890   3.829  11.439  0.5612  0.7225 -0.7572
 1727SOL     OW16813   4.093   4.502  13.121 -0.0513  0.3351 -0.0585
 1727SOL    HW116814   4.058   4.558  13.190 -1.8812 -1.1033  0.2010
 1727SOL    HW216815   4.015   4.457  13.089 -1.3791  2.3154  0.4161
 1728SOL     OW16816   0.701   3.623   5.430 -0.0512 -0.6205 -0.1339
 1728SOL    HW116817   0.679   3.599   5.519 -1.5516  1.0210 -0.0650
 1728SOL    HW216818   0.722   3.715   5.448  0.8961 -0.4483 -2.0823
 1729SOL     OW16819   4.116   4.016   7.118 -0.5421  0.3459 -0.4222
 1729SOL    HW116820   4.132   4.062   7.200  0.7344  1.5260 -1.3320
 1729SOL    HW216821   4.199   4.033   7.072  1.8748 -2.5298  2.8142
 1730SOL     OW16822   4.225   4.259   5.512 -0.2094  0.2777  0.0391
 1730SOL    HW116823   4.195   4.177   5.551 -1.1813  0.6377  0.0640
 1730SOL    HW216824   4.299   4.272   5.571 -0.8930  0.3232  0.8996
 1731SOL     OW16825   1.876   4.169   5.657 -0.3688  0.1760  0.0179
 1731SOL    HW116826   1.823   4.217   5.593 -0.3708 -0.0268 -0.1327
 1731SOL    HW216827   1.854   4.078   5.636 -0.5101  0.8334 -2.7553
 1732SOL     OW16828   2.235   1.372   7.592  0.4479 -0.0885 -0.1256
 1732SOL    HW116829   2.218   1.415   7.675  0.7518  1.2602 -0.7665
 1732SOL    HW216830   2.197   1.436   7.532 -3.1450  0.2785  2.5501
 1733SOL     OW16831   2.663   3.344   1.680  0.2853  0.1388  0.1296
 1733SOL    HW116832   2.679   3.250   1.680 -0.0316  0.0768  2.1792
 1733SOL    HW216833   2.594   3.361   1.744  0.7124  0.9697  0.3708
 1734SOL     OW16834   1.896   0.168   7.943 -0.7610  0.2200 -0.2860
 1734SOL    HW116835   1.984   0.206   7.940 -1.9505  3.1965  2.1143
 1734SOL    HW216836   1.860   0.172   7.855 -3.1863 -2.5295  0.5738
 1735SOL     OW16837   0.195   1.845   6.527  0.3510 -0.5714  0.7137
 1735SOL    HW116838   0.158   1.929   6.555  1.2092 -0.0131  0.1665
 1735SOL    HW216839   0.143   1.831   6.448 -0.5360  1.3054  0.9588
 1736SOL     OW16840   3.819   0.929  16.584  1.0598 -0.7246  0.0085
 1736SOL    HW116841   3.869   0.871  16.641  1.9915 -0.9434 -1.0116
 1736SOL    HW216842   3.794   0.993  16.650 -0.4105 -0.1599 -1.0795
 1737SOL     OW16843   2.663   1.415   5.493  0.1109 -0.4548  0.7159
 1737SOL    HW116844   2.729   1.388   5.428 -0.6108 -0.6726  0.0649
 1737SOL    HW216845   2.607   1.469   5.438  0.0952 -2.5724 -1.3614
 1738SOL     OW16846   4.443   3.291  14.465  0.2015  0.0469 -0.1714
 1738SOL    HW116847   4.431   3.341  14.545  0.0528  0.8063 -0.6665
 1738SOL    HW216848   4.529   3.304  14.424  2.1283  0.7928  4.1189
 1739SOL     OW16849   3.557   4.087   3.217  0.0260  0.1651  0.0387
 1739SOL    HW116850   3.556   4.180   3.240  1.4112  1.0131 -3.4192
 1739SOL    HW216851   3.575   4.091   3.123 -0.4727  1.6406  0.0135
 1740SOL     OW16852   3.117   3.881  14.946  0.0699 -0.2302  0.0186
 1740SOL    HW116853   3.212   3.865  14.948  0.0042 -0.5694  0.5922
 1740SOL    HW216854   3.085   3.792  14.928 -1.1182  0.0054  1.0182
 1741SOL     OW16855   3.832   0.359  15.782  0.2690 -0.1147 -0.0897
 1741SOL    HW116856   3.765   0.418  15.817 -0.8719 -1.2184 -0.4247
 1741SOL    HW216857   3.841   0.309  15.863 -0.7943 -0.8726 -0.4495
 1742SOL     OW16858   2.300   2.169   6.952  0.3204  0.5416 -0.0691
 1742SOL    HW116859   2.328   2.099   6.893 -1.6173  0.4681 -0.9041
 1742SOL    HW216860   2.314   2.245   6.895 -0.1758  0.2981 -0.5172
 1743SOL     OW16861   4.099   1.597  12.121  0.0220  0.1082 -0.0902
 1743SOL    HW116862   4.091   1.548  12.203  2.2694  1.4722  0.9481
 1743SOL    HW216863   4.024   1.656  12.126  0.7323  0.9543  0.4518
 1744SOL     OW16864   2.402   3.540   7.376 -0.8385 -0.2312 -0.0547
 1744SOL    HW116865   2.330   3.597   7.350 -0.5184  0.2165  0.0478
 1744SOL    HW216866   2.389   3.532   7.470  1.5232  0.1788  0.2955
 1745SOL     OW16867   3.675   3.880   2.422 -0.5021  0.1960  0.5630
 1745SOL    HW116868   3.640   3.797   2.389  0.0129 -1.2585  3.6510
 1745SOL    HW216869   3.727   3.909   2.347  1.7996 -1.3130  1.5626
 1746SOL     OW16870   1.547   0.870   5.097 -0.4603  0.2915  0.1523
 1746SOL    HW116871   1.593   0.949   5.122  1.7057 -1.0783  0.5124
 1746SOL    HW216872   1.608   0.826   5.037  0.3390 -0.3630  1.4327
 1747SOL     OW16873   2.002   2.183   0.960 -0.4207  0.0316 -0.2675
 1747SOL    HW116874   2.001   2.186   0.865 -1.4290  2.5187 -0.1823
 1747SOL    HW216875   2.057   2.260   0.971 -0.6085  0.3130 -1.2924
 1748SOL     OW16876   4.158   1.850   3.433 -0.4468 -0.2801 -0.6564
 1748SOL    HW116877   4.118   1.792   3.497  1.6636  1.1586  1.9870
 1748SOL    HW216878   4.244   1.814   3.412 -1.4015 -2.7108 -0.4054
 1749SOL     OW16879   2.540   1.281  10.303 -0.8376 -0.1058  0.5014
 1749SOL    HW116880   2.590   1.218  10.354 -0.0975  0.6452  0.7181
 1749SOL    HW216881   2.461   1.289  10.356 -0.4014  1.3348  0.9461
 1750SOL     OW16882   3.080   3.932   7.651 -0.1513 -0.5954  0.0945
 1750SOL    HW116883   3.096   3.980   7.732  0.7751 -2.1460  0.8401
 1750SOL    HW216884   2.989   3.902   7.649 -0.3152 -0.3687  3.7680
 1751SOL     OW16885   4.259   3.800   7.229 -0.4494  0.3348 -0.3595
 1751SOL    HW116886   4.286   3.708   7.218 -0.0481  0.5661 -1.2655
 1751SOL    HW216887   4.222   3.838   7.150 -2.3469  0.9137  0.8077
 1752SOL     OW16888   4.645   1.001   9.538  0.0866 -0.7872 -0.0264
 1752SOL    HW116889   4.702   0.969   9.467  0.5659  0.5957 -0.2710
 1752SOL    HW216890   4.555   0.980   9.513 -1.2274  1.7221  2.7178
 1753SOL     OW16891   0.316   3.290  15.346  0.7263  0.0130  0.0465
 1753SOL    HW116892   0.393   3.259  15.393  2.2629  0.1208 -2.4040
 1753SOL    HW216893   0.292   3.204  15.310  0.6892 -0.4751  1.2445
 1754SOL     OW16894   2.281   2.478   0.814 -0.1528 -0.1306  0.3973
 1754SOL    HW116895   2.263   2.527   0.733 -0.8580 -0.2263  0.4964
 1754SOL    HW216896   2.359   2.515   0.854  1.6936 -1.7863 -1.6503
 1755SOL     OW16897   0.389   0.714   6.535  0.1911 -0.2265  0.8682
 1755SOL    HW116898   0.451   0.669   6.592  2.2833  1.5882  0.0179
 1755SOL    HW216899   0.310   0.660   6.539 -0.6352  0.8527 -0.6396
 1756SOL     OW16900   1.830   3.241   0.259  0.5444  0.3377  0.1106
 1756SOL    HW116901   1.895   3.241   0.189  0.3809 -2.5672 -0.0512
 1756SOL    HW216902   1.822   3.147   0.272  0.4193  0.4196  0.6377
 1757SOL     OW16903   0.437   1.842  10.597 -0.4781 -0.5346  0.0451
 1757SOL    HW116904   0.377   1.916  10.599 -0.5330 -0.5706 -0.2706
 1757SOL    HW216905   0.446   1.816  10.689 -0.6564  0.3029  0.2963
 1758SOL     OW16906   0.104   3.912  13.080 -0.0078 -0.0248  0.4034
 1758SOL    HW116907   0.098   3.981  13.146 -2.8547  1.0448 -0.9707
 1758SOL    HW216908   0.066   3.961  13.008  0.7023  0.6300  0.4759
 1759SOL     OW16909   2.574   2.720   1.156 -0.4752 -0.0931 -0.0755
 1759SOL    HW116910   2.576   2.629   1.127 -0.0239  0.8050 -2.8373
 1759SOL    HW216911   2.557   2.703   1.249  0.4597  1.3079  0.3500
 1760SOL     OW16912   2.464   4.101  17.249  0.1498 -0.2513 -0.2598
 1760SOL    HW116913   2.533   4.074  17.310  0.7656 -1.2246 -1.3805
 1760SOL    HW216914   2.405   4.151  17.306  1.5880  1.8794 -0.6495
 1761SOL     OW16915   0.003   3.784   9.271  0.4175  0.2874 -0.1081
 1761SOL    HW116916   4.705   3.713   9.323  1.2133  0.9782  1.3800
 1761SOL    HW216917   0.082   3.819   9.313  0.7697  1.4985 -1.7526
 1762SOL     OW16918   4.371   0.929  16.004  0.0462  0.7143  1.0112
 1762SOL    HW116919   4.446   0.980  15.973 -0.4602  0.4830 -0.5943
 1762SOL    HW216920   4.385   0.915  16.098  3.1569  0.7005  0.5538
 1763SOL     OW16921   0.219   0.445  13.411  0.6699  0.4325 -0.1986
 1763SOL    HW116922   0.158   0.382  13.373  0.3792  0.6285 -0.0604
 1763SOL    HW216923   0.162   0.515  13.444 -0.9858 -0.4116 -1.2711
 1764SOL     OW16924   0.173   0.300   4.298  0.2127 -0.1963 -0.5226
 1764SOL    HW116925   0.267   0.299   4.284  0.3050  1.7024 -0.0878
 1764SOL    HW216926   0.170   0.368   4.366  0.8700 -0.4607 -0.2318
 1765SOL     OW16927   1.136   3.689   2.631 -0.1454 -0.1238 -0.4164
 1765SOL    HW116928   1.215   3.738   2.608 -0.0594 -0.8217 -1.6189
 1765SOL    HW216929   1.144   3.703   2.726 -0.7132 -1.9487 -0.0992
 1766SOL     OW16930   1.598   1.845   3.682 -0.0094  0.4776 -0.8798
 1766SOL    HW116931   1.587   1.828   3.776 -0.5975 -1.0784 -1.2255
 1766SOL    HW216932   1.516   1.893   3.670 -0.3899 -0.2824 -1.2609
 1767SOL     OW16933   2.295   2.350   6.756  0.7155 -0.3553  0.0523
 1767SOL    HW116934   2.374   2.375   6.708  0.3331  1.3194  0.3326
 1767SOL    HW216935   2.219   2.363   6.700  0.3862 -0.2038  0.5399
 1768SOL     OW16936   4.369   3.821   4.883  0.0279 -0.1922  0.9649
 1768SOL    HW116937   4.412   3.906   4.892 -1.6346  0.9097 -1.3203
 1768SOL    HW216938   4.427   3.791   4.813 -2.6721 -0.6826 -1.0608
 1769SOL     OW16939   2.502   3.152  14.802 -0.2966  0.4319 -0.2277
 1769SOL    HW116940   2.585   3.199  14.793  0.0140 -0.2005 -0.6334
 1769SOL    HW216941   2.471   3.139  14.712 -0.4875  1.9765 -0.3922
 1770SOL     OW16942   3.443   1.249   4.391 -0.1521 -0.4312  0.1850
 1770SOL    HW116943   3.377   1.315   4.411  1.9909  1.3287  1.5410
 1770SOL    HW216944   3.492   1.292   4.321  1.0956 -1.0279  0.6928
 1771SOL     OW16945   2.875   3.188   2.289  0.3879 -0.0271  0.0525
 1771SOL    HW116946   2.888   3.097   2.315 -0.1570  0.8931  3.5724
 1771SOL    HW216947   2.830   3.178   2.206  1.9988 -1.5649 -0.6355
 1772SOL     OW16948   0.538   0.020   0.649 -0.0144  0.1190 -0.0396
 1772SOL    HW116949   0.471   4.725   0.709 -2.1484  0.2293 -2.3497
 1772SOL    HW216950   0.625   0.008   0.687 -0.6868  0.1856  1.5360
 1773SOL     OW16951   4.313   4.191   4.552 -0.4542  0.1546 -0.2515
 1773SOL    HW116952   4.407   4.180   4.564 -0.2562  4.1137  1.7949
 1773SOL    HW216953   4.293   4.272   4.599  1.0630  0.7395 -0.6060
 1774SOL     OW16954   2.535   0.785   5.274 -0.4919  0.3993  0.1744
 1774SOL    HW116955   2.462   0.800   5.334  0.4338  0.0553  1.3879
 1774SOL    HW216956   2.619   0.803   5.317 -0.1942 -0.8634  0.1282
 1775SOL     OW16957   4.237   0.191   5.120  0.0531 -0.4712  0.2229
 1775SOL    HW116958   4.321   0.163   5.157  0.7300 -1.4051 -2.0037
 1775SOL    HW216959   4.195   0.224   5.199  0.5288 -1.3019  0.8154
 1776SOL     OW16960   3.253   4.216   1.852  0.1504  0.1242 -0.2051
 1776SOL    HW116961   3.261   4.311   1.856  3.3225 -0.1745  0.5757
 1776SOL    HW216962   3.310   4.208   1.775 -1.2326  0.3245 -1.2590
 1777SOL     OW16963   0.618   2.635   2.454 -0.3972 -0.3525  0.1576
 1777SOL    HW116964   0.703   2.594   2.472 -0.1290 -0.4661 -1.3572
 1777SOL    HW216965   0.610   2.672   2.542 -0.5587 -1.6979  0.7068
 1778SOL     OW16966   3.100   3.820   3.734  0.6906  0.1968 -0.3691
 1778SOL    HW116967   3.055   3.773   3.663 -0.6279  2.7572 -1.2302
 1778SOL    HW216968   3.019   3.864   3.759  2.1227  2.1429  0.8598
 1779SOL     OW16969   4.635   2.146   9.322 -0.0723  0.0567 -1.0066
 1779SOL    HW116970   4.704   2.119   9.382 -0.5066  2.4757  0.6174
 1779SOL    HW216971   4.593   2.061   9.311 -2.3197  1.1588 -1.0259
 1780SOL     OW16972   0.614   1.502   4.851  0.1641 -0.2377 -0.0948
 1780SOL    HW116973   0.546   1.459   4.902 -0.3363 -1.0040 -1.4240
 1780SOL    HW216974   0.646   1.553   4.926 -1.1388 -0.0972  0.3780
 1781SOL     OW16975   3.252   4.723   8.680 -0.1945  0.5569  0.1388
 1781SOL    HW116976   3.200   4.643   8.686  0.2575  0.3877  1.8414
 1781SOL    HW216977   3.338   4.689   8.705  0.3089  0.8846 -1.1591
 1782SOL     OW16978   3.987   3.837   8.278 -0.2348 -0.1673  0.3711
 1782SOL    HW116979   3.989   3.803   8.189  0.5686  1.0075 -0.0489
 1782SOL    HW216980   4.076   3.871   8.280  0.3744 -1.7990  0.7616
 1783SOL     OW16981   1.533   1.104   2.298 -0.5243  0.2199  0.7198
 1783SOL    HW116982   1.549   1.110   2.204 -0.4254 -0.6383  0.6802
 1783SOL    HW216983   1.521   1.010   2.307  0.0266  0.3439  2.9120
 1784SOL     OW16984   3.611   2.453   4.567 -0.0825 -0.1264  0.1281
 1784SOL    HW116985   3.686   2.513   4.572 -0.0941  0.0444 -2.0989
 1784SOL    HW216986   3.604   2.422   4.658  1.1261 -1.6234 -0.3053
 1785SOL     OW16987   1.175   0.681   5.988  0.5308  0.0523 -0.4304
 1785SOL    HW116988   1.180   0.737   5.911  0.7999  1.1410  0.3777
 1785SOL    HW216989   1.211   0.742   6.053 -2.4869  1.6110 -0.2240
 1786SOL     OW16990   3.823   2.800   6.531  0.4277  0.0912 -0.1043
 1786SOL    HW116991   3.777   2.884   6.534 -0.6110 -0.5203  0.6309
 1786SOL    HW216992   3.756   2.741   6.565  0.0595  1.4317  1.4954
 1787SOL     OW16993   4.305   1.208   9.465 -0.6317 -0.4765  0.4700
 1787SOL    HW116994   4.349   1.128   9.434 -1.1408 -0.8101  0.6024
 1787SOL    HW216995   4.348   1.230   9.548  0.8554 -1.1557 -0.1086
 1788SOL     OW16996   4.707   4.697  11.861  0.4933  0.0677 -0.2805
 1788SOL    HW116997   4.685   4.667  11.949  0.8581  1.7303  0.3814
 1788SOL    HW216998   0.055   0.002  11.870 -0.0896  1.0060  0.9206
 1789SOL     OW16999   4.461   4.001  15.044 -0.3616  0.3011 -0.0908
 1789SOL    HW117000   4.546   4.009  15.087 -0.1238  1.5612 -0.8159
 1789SOL    HW217001   4.482   3.937  14.976 -1.2455 -3.9823  3.6528
 1790SOL     OW17002   3.444   1.152   8.903  0.1134 -0.2908 -0.2904
 1790SOL    HW117003   3.364   1.099   8.897  0.2396 -0.5724  0.4804
 1790SOL    HW217004   3.427   1.222   8.840  0.2437  0.8285  0.9015
 1791SOL     OW17005   4.083   1.075   3.929 -0.0935  0.2844 -0.0800
 1791SOL    HW117006   4.168   1.067   3.971 -0.2841 -0.0900  0.2353
 1791SOL    HW217007   4.081   1.163   3.891 -2.2470 -0.8777 -2.6825
 1792SOL     OW17008   0.804   0.722   4.614  0.0485  0.1147 -0.6477
 1792SOL    HW117009   0.791   0.730   4.709  1.5444 -1.5421 -0.3044
 1792SOL    HW217010   0.854   0.642   4.595 -2.2518 -1.7985  1.3863
 1793SOL     OW17011   1.774   3.302   1.198  0.0387  0.3326  0.1687
 1793SOL    HW117012   1.800   3.394   1.196  1.8888 -0.2143 -1.1193
 1793SOL    HW217013   1.683   3.307   1.225  1.2875  3.8868  3.7665
 1794SOL     OW17014   1.144   1.532  11.608 -0.0292 -0.4299 -0.3613
 1794SOL    HW117015   1.166   1.622  11.631 -1.1453 -0.5561  1.2591
 1794SOL    HW217016   1.114   1.491  11.690 -0.1431  0.8880  0.2553
 1795SOL     OW17017   3.449   0.030   2.529  0.0150 -0.1314  0.9560
 1795SOL    HW117018   3.459   4.700   2.596  0.4253 -0.0771  0.9501
 1795SOL    HW217019   3.509   0.001   2.461 -0.8487 -0.7100  0.4458
 1796SOL     OW17020   2.067   4.138   3.017 -1.0278 -0.4946 -0.4143
 1796SOL    HW117021   1.977   4.138   2.985 -1.0314  1.4497 -0.4333
 1796SOL    HW217022   2.080   4.229   3.045 -0.2976 -1.1034  1.2893
 1797SOL     OW17023   3.923   2.436  14.297  0.6252  0.0968  0.9124
 1797SOL    HW117024   3.972   2.495  14.240 -0.8414 -0.8872 -1.3661
 1797SOL    HW217025   3.914   2.498  14.369 -1.8493 -1.1634  1.6973
 1798SOL     OW17026   0.831   1.208   0.337  0.7827 -0.1351 -0.0274
 1798SOL    HW117027   0.862   1.254   0.415 -1.7743  2.3327 -0.4655
 1798SOL    HW217028   0.912   1.220   0.287  1.4662 -1.0924  0.8683
 1799SOL     OW17029   0.857   0.452   0.124  0.2939  0.1046  0.3322
 1799SOL    HW117030   0.918   0.393   0.167 -0.5607 -1.6693 -0.8725
 1799SOL    HW217031   0.904   0.533   0.103 -0.7253  0.1582 -1.7764
 1800SOL     OW17032   1.025   0.321  12.684 -0.0629 -0.1183 -0.2243
 1800SOL    HW117033   1.087   0.322  12.611 -0.8793 -4.4715 -1.0075
 1800SOL    HW217034   1.021   0.412  12.713  1.1887  0.3961 -1.6265
 1801SOL     OW17035   2.467   0.203  13.247  0.2187  0.3473  0.7273
 1801SOL    HW117036   2.408   0.178  13.318  0.2283  2.1136  1.3588
 1801SOL    HW217037   2.544   0.150  13.266 -0.6215 -2.3885 -3.4240
 1802SOL     OW17038   0.249   1.738   4.596 -0.0402  0.4723 -0.1099
 1802SOL    HW117039   0.156   1.745   4.573 -0.0332  2.8376  0.5546
 1802SOL    HW217040   0.282   1.828   4.598  0.6114  0.2425 -0.6062
 1803SOL     OW17041   1.108   0.503   5.193  0.3390 -0.0234  0.0608
 1803SOL    HW117042   1.071   0.441   5.255 -1.6500  0.3716 -0.7276
 1803SOL    HW217043   1.201   0.502   5.217 -0.2855  1.9954  2.6162
 1804SOL     OW17044   0.500   3.579   6.711 -0.8292  0.3453 -0.1049
 1804SOL    HW117045   0.486   3.571   6.617 -1.4366 -1.6611  0.1596
 1804SOL    HW217046   0.590   3.611   6.719 -0.0349 -1.0346 -3.6151
 1805SOL     OW17047   2.631   1.261   3.908  0.2325  0.1200 -0.2174
 1805SOL    HW117048   2.536   1.257   3.921  0.2976  1.7917  0.7526
 1805SOL    HW217049   2.632   1.251   3.813  0.6290  0.1487 -0.2177
 1806SOL     OW17050   3.899   4.053   6.048 -0.3910 -0.2875 -0.1899
 1806SOL    HW117051   3.946   4.133   6.024 -0.6107  0.4615  1.8969
 1806SOL    HW217052   3.974   3.993   6.055 -0.2769 -0.1181  0.0387
 1807SOL     OW17053   4.258   3.820   4.103  0.4922 -0.0093  0.1841
 1807SOL    HW117054   4.280   3.734   4.067 -0.0035 -0.7063  1.5173
 1807SOL    HW217055   4.245   3.875   4.026 -0.2992 -0.1818  0.1878
 1808SOL     OW17056   4.616   0.697   9.156  0.2736  0.1531  0.1431
 1808SOL    HW117057   4.654   0.616   9.121  0.4013  0.3419 -0.1616
 1808SOL    HW217058   4.675   0.757   9.110 -0.1280  0.2884 -0.1971
 1809SOL     OW17059   3.889   1.225   5.857 -0.2458 -0.0158  0.0471
 1809SOL    HW117060   3.891   1.133   5.832 -1.0510 -0.0782  0.2163
 1809SOL    HW217061   3.800   1.226   5.893 -0.3022  0.6410 -0.1079
 1810SOL     OW17062   3.041   1.826   6.771 -0.2582  0.2825 -0.0520
 1810SOL    HW117063   3.064   1.771   6.696 -0.1653  1.0668 -0.5975
 1810SOL    HW217064   2.980   1.775   6.824 -1.2850  0.2941 -1.2150
 1811SOL     OW17065   4.171   4.035  17.324 -0.0991  0.4709 -0.3912
 1811SOL    HW117066   4.156   4.004  17.235  0.2968 -0.7366 -0.0351
 1811SOL    HW217067   4.266   4.040  17.323 -0.0675 -0.1500 -0.4545
 1812SOL     OW17068   4.430   4.152   7.638 -0.1679 -0.1992  0.2426
 1812SOL    HW117069   4.425   4.248   7.642  0.3753 -0.1351 -0.6105
 1812SOL    HW217070   4.437   4.147   7.543  0.9900  1.4519  0.2405
 1813SOL     OW17071   0.809   0.884   6.560  0.4788 -0.2179  0.0606
 1813SOL    HW117072   0.800   0.926   6.645  1.7078  1.2227 -0.5193
 1813SOL    HW217073   0.902   0.883   6.539  0.5154 -2.6780  0.4083
 1814SOL     OW17074   3.013   0.861   7.341 -0.0919  0.4961 -0.4077
 1814SOL    HW117075   3.053   0.806   7.273  1.7809  1.9689 -0.4744
 1814SOL    HW217076   2.934   0.898   7.299  0.0704  0.3562 -0.8425
 1815SOL     OW17077   1.784   2.643  15.651  0.3072 -0.3158  0.1106
 1815SOL    HW117078   1.755   2.730  15.677 -1.0216 -0.6289 -0.3339
 1815SOL    HW217079   1.711   2.636  15.590 -0.2063  1.5522  0.5041
 1816SOL     OW17080   2.210   2.679   9.703  0.0313  0.1334 -0.1948
 1816SOL    HW117081   2.292   2.680   9.654  1.2830 -1.1980  1.8672
 1816SOL    HW217082   2.234   2.737   9.775 -3.7072  1.2093  0.1570
 1817SOL     OW17083   2.986   4.387   5.691 -0.4707  0.0194  0.0133
 1817SOL    HW117084   3.048   4.318   5.715 -0.1474  0.6657  1.0196
 1817SOL    HW217085   3.034   4.466   5.717 -1.3251  0.2982  0.7685
 1818SOL     OW17086   1.278   4.626   7.253 -0.2260 -0.3918  0.7176
 1818SOL    HW117087   1.294   4.707   7.204  0.9720 -1.2806 -0.3811
 1818SOL    HW217088   1.191   4.629   7.293  0.0652  1.1810  1.2395
 1819SOL     OW17089   3.107   3.762   6.031 -0.0928 -0.1505 -0.2309
 1819SOL    HW117090   3.076   3.848   6.057  1.0305  0.3189 -0.4349
 1819SOL    HW217091   3.141   3.776   5.942 -0.2690  0.1396 -0.2515
 1820SOL     OW17092   1.874   3.418  16.376 -0.2534 -0.5919 -0.1274
 1820SOL    HW117093   1.843   3.444  16.289  1.5781  1.3898 -0.1935
 1820SOL    HW217094   1.798   3.367  16.405 -1.3219  0.8337 -0.3928
 1821SOL     OW17095   3.691   1.727   3.636  0.0015  0.3364 -0.3812
 1821SOL    HW117096   3.596   1.738   3.627 -0.2896 -0.7147  1.3320
 1821SOL    HW217097   3.721   1.768   3.556  0.2083 -0.2985 -0.6262
 1822SOL     OW17098   2.355   1.870   5.635 -0.1786  0.4498 -0.4127
 1822SOL    HW117099   2.367   1.905   5.724 -1.6653  3.0182 -1.2288
 1822SOL    HW217100   2.262   1.861   5.654 -0.1104 -3.6015 -1.8788
 1823SOL     OW17101   3.643   4.580  15.898  0.0111  0.4796 -0.2832
 1823SOL    HW117102   3.575   4.528  15.854 -0.9573  0.3385  1.3952
 1823SOL    HW217103   3.684   4.631  15.828  1.5081 -0.2273  0.0706
 1824SOL     OW17104   0.895   0.755   5.743 -0.3532  0.2733  0.2240
 1824SOL    HW117105   0.847   0.758   5.661 -0.4066 -2.2959  0.1589
 1824SOL    HW217106   0.951   0.832   5.731  0.1191  0.2829  2.3933
 1825SOL     OW17107   2.442   4.139  10.014  0.0939 -0.2455  0.4027
 1825SOL    HW117108   2.370   4.126  10.076  0.7383  1.3968  1.4890
 1825SOL    HW217109   2.499   4.063  10.024 -1.5981 -1.6817 -0.7365
 1826SOL     OW17110   1.039   2.305   0.248  0.0238  0.5852  1.0712
 1826SOL    HW117111   0.950   2.296   0.281 -0.5303  1.5939 -0.1871
 1826SOL    HW217112   1.034   2.260   0.164 -0.3057 -0.8287  1.8499
 1827SOL     OW17113   0.097   4.227  16.034  0.2741 -0.4090 -0.2377
 1827SOL    HW117114   0.178   4.246  16.081  0.6363 -2.6042  0.0120
 1827SOL    HW217115   0.093   4.301  15.973  0.5956 -0.5156 -0.3916
 1828SOL     OW17116   2.096   2.637   8.574  0.0274  0.4083 -0.2697
 1828SOL    HW117117   2.172   2.658   8.628 -1.8260 -0.1516  2.5220
 1828SOL    HW217118   2.045   2.592   8.641 -2.7638  2.7662 -0.8113
 1829SOL     OW17119   1.322   3.289   6.607 -0.4812  0.0492 -0.0953
 1829SOL    HW117120   1.350   3.362   6.552 -1.1668  0.7167  0.4295
 1829SOL    HW217121   1.382   3.311   6.679 -0.0186 -3.7619  0.7156
 1830SOL     OW17122   2.606   2.691   5.170  0.1210 -0.2965 -0.2448
 1830SOL    HW117123   2.677   2.639   5.206  2.1758  0.9067 -2.5035
 1830SOL    HW217124   2.545   2.623   5.141  0.8257 -0.9014 -0.2929
 1831SOL     OW17125   2.279   0.336  16.564  0.3666  0.2680  0.9439
 1831SOL    HW117126   2.289   0.253  16.610  0.9674 -1.0410 -1.5843
 1831SOL    HW217127   2.268   0.306  16.474  0.7585  0.6854  0.7600
 1832SOL     OW17128   0.076   2.959   0.461  0.0880  0.1132  0.0097
 1832SOL    HW117129   0.094   2.942   0.368 -2.5867  0.1615 -0.5105
 1832SOL    HW217130   0.166   2.967   0.494  0.7778 -1.2004 -1.5307
 1833SOL     OW17131   1.873   2.161   1.410  0.0260  0.6441 -0.2835
 1833SOL    HW117132   1.853   2.167   1.317 -1.0533 -1.6725 -0.2176
 1833SOL    HW217133   1.861   2.067   1.426 -0.6330  1.0754  1.7212
 1834SOL     OW17134   0.602   0.870   4.465 -0.0217 -0.0815 -0.7197
 1834SOL    HW117135   0.588   0.792   4.411 -1.0240 -0.5388  0.1915
 1834SOL    HW217136   0.666   0.839   4.530  1.0005  2.3684 -0.5541
 1835SOL     OW17137   3.867   4.626  13.281  0.1781 -0.0235  0.1452
 1835SOL    HW117138   3.789   4.680  13.269 -0.6573 -1.2991 -0.2743
 1835SOL    HW217139   3.827   4.567  13.345  2.6302 -2.4580 -0.5449
 1836SOL     OW17140   2.269   4.191   4.276  0.3758  0.0241  0.6786
 1836SOL    HW117141   2.335   4.152   4.334  1.8941  1.9766  0.2683
 1836SOL    HW217142   2.229   4.248   4.342  0.8483 -0.0157  1.0010
 1837SOL     OW17143   0.856   2.318   3.261  0.6609 -0.5982 -0.0774
 1837SOL    HW117144   0.850   2.356   3.348  1.3174  0.2611 -0.4142
 1837SOL    HW217145   0.935   2.360   3.228  0.7217 -0.3209  0.4263
 1838SOL     OW17146   0.051   0.928   0.951  0.1472  0.0616 -0.2924
 1838SOL    HW117147   0.132   0.934   1.002  0.3262  1.6213 -0.7677
 1838SOL    HW217148   0.068   0.984   0.876  0.2526  1.6552  0.9186
 1839SOL     OW17149   3.921   2.854   9.351 -0.0944  0.1405  0.2624
 1839SOL    HW117150   3.913   2.809   9.434 -1.4720  1.3790  0.7923
 1839SOL    HW217151   4.011   2.833   9.324 -0.4543 -1.1854  0.1292
 1840SOL     OW17152   3.570   4.374   4.881  0.3253 -0.0356  0.3071
 1840SOL    HW117153   3.535   4.297   4.925 -0.9708 -0.4612 -1.4488
 1840SOL    HW217154   3.571   4.348   4.789  2.2802  3.0296 -0.5301
 1841SOL     OW17155   1.058   1.883   3.522 -0.0199 -0.2950  0.2187
 1841SOL    HW117156   1.147   1.910   3.544  0.3133  0.9619 -2.7056
 1841SOL    HW217157   1.040   1.918   3.435  0.1247  0.6941  0.5816
 1842SOL     OW17158   2.334   3.752   7.643  0.1384  0.4829 -0.1867
 1842SOL    HW117159   2.285   3.747   7.561 -0.5749 -0.9705  0.3146
 1842SOL    HW217160   2.286   3.702   7.709  0.4575  0.0665 -0.2714
 1843SOL     OW17161   3.555   4.066   5.661  0.0927 -0.0555 -0.0978
 1843SOL    HW117162   3.635   4.098   5.619  0.1669 -1.2521 -0.8752
 1843SOL    HW217163   3.548   3.976   5.628  0.8625 -0.2247  0.1991
 1844SOL     OW17164   0.491   0.653  17.284 -0.4177 -1.1214 -0.1072
 1844SOL    HW117165   0.574   0.694  17.262 -1.2655  0.5995 -0.1463
 1844SOL    HW217166   0.454   0.733  17.322  0.3638 -1.0666  0.5169
 1845SOL     OW17167   1.286   2.170   5.533 -0.2552 -0.4778 -0.4143
 1845SOL    HW117168   1.308   2.259   5.508  0.8355 -0.1126  1.8675
 1845SOL    HW217169   1.378   2.142   5.537  0.0431  0.3708 -1.3999
 1846SOL     OW17170   4.142   2.633   6.947  0.1574  0.1592 -0.9835
 1846SOL    HW117171   4.170   2.716   6.908 -0.7619  0.7990 -0.3029
 1846SOL    HW217172   4.071   2.612   6.886  1.5488 -1.4328 -2.0364
 1847SOL     OW17173   0.324   0.666   0.251 -0.1572  0.3459 -0.0601
 1847SOL    HW117174   0.374   0.611   0.311  0.5279  0.5740 -0.4138
 1847SOL    HW217175   0.393   0.683   0.187 -1.1067 -0.0311 -1.1833
 1848SOL     OW17176   4.221   3.815   1.199 -0.0304  0.2183 -0.4834
 1848SOL    HW117177   4.264   3.731   1.185  4.0987  2.4900 -1.4357
 1848SOL    HW217178   4.270   3.844   1.276  0.0139 -0.7628 -0.1484
 1849SOL     OW17179   2.592   1.127   6.258  0.6469  0.0600  0.0559
 1849SOL    HW117180   2.593   1.037   6.225 -1.0915  0.5450 -1.3488
 1849SOL    HW217181   2.546   1.175   6.189  0.9534  0.7322  0.3283
 1850SOL     OW17182   2.322   0.965  13.455  0.6115 -0.0926 -0.1004
 1850SOL    HW117183   2.235   0.952  13.494  2.2656 -0.5288  3.3967
 1850SOL    HW217184   2.316   1.056  13.425  1.2953  0.1232  0.4439
 1851SOL     OW17185   0.281   4.561   4.865  0.1923 -0.4764 -0.0449
 1851SOL    HW117186   0.337   4.638   4.867  3.4126 -2.8378 -0.1946
 1851SOL    HW217187   0.275   4.532   4.773 -0.0881 -1.0299  0.1466
 1852SOL     OW17188   1.978   2.974   3.703 -0.1866  0.0327  1.0054
 1852SOL    HW117189   1.886   2.962   3.729 -1.4874  2.1098 -2.7803
 1852SOL    HW217190   1.972   2.993   3.610 -0.1520  0.2201  1.0425
 1853SOL     OW17191   1.991   3.665   4.150  0.4086  0.1234  0.3954
 1853SOL    HW117192   1.902   3.693   4.173  0.3231 -1.0970  1.5826
 1853SOL    HW217193   1.969   3.580   4.110  0.4544  0.1484  0.3160
 1854SOL     OW17194   1.373   3.557  12.350  0.3322  0.1421 -0.2498
 1854SOL    HW117195   1.412   3.476  12.318 -0.6561 -0.4541  0.0621
 1854SOL    HW217196   1.440   3.605  12.400 -1.5575  1.3354  1.1254
 1855SOL     OW17197   0.911   0.698  13.765  0.0802 -0.2032  0.4048
 1855SOL    HW117198   0.988   0.686  13.821  1.0160 -0.7881 -1.0027
 1855SOL    HW217199   0.890   0.605  13.749  2.7339 -0.2490 -2.7939
 1856SOL     OW17200   1.685   4.103   4.043 -0.0166  0.1216 -0.1153
 1856SOL    HW117201   1.717   4.030   3.990  0.4657 -0.1720  0.5782
 1856SOL    HW217202   1.751   4.106   4.112  0.9074  1.2281 -1.0446
 1857SOL     OW17203   2.612   2.433   6.944  0.5158  0.2327  0.4748
 1857SOL    HW117204   2.585   2.394   6.861  2.6588  2.9138 -1.4752
 1857SOL    HW217205   2.561   2.513   6.942 -1.0374 -0.7632  0.5278
 1858SOL     OW17206   3.132   3.187  11.248  0.5181  0.4222 -0.2405
 1858SOL    HW117207   3.147   3.129  11.173 -1.7058  0.3755 -0.6227
 1858SOL    HW217208   3.221   3.200  11.281  1.1135  0.5718 -1.8820
 1859SOL     OW17209   3.371   0.727  10.728  0.1087  0.1288 -0.1238
 1859SOL    HW117210   3.406   0.813  10.747 -0.9323  0.2901  1.0811
 1859SOL    HW217211   3.452   0.678  10.738 -0.6999 -0.7119  2.2871
 1860SOL     OW17212   0.959   0.757   3.582 -0.2057 -0.3028 -0.4007
 1860SOL    HW117213   0.929   0.842   3.615 -0.7635  0.4150 -2.7491
 1860SOL    HW217214   1.003   0.802   3.510  0.1604  3.3256  2.0445
 1861SOL     OW17215   4.463   3.812   8.556  0.1404 -0.3917 -0.4942
 1861SOL    HW117216   4.528   3.782   8.619  0.4447  3.2865  0.9566
 1861SOL    HW217217   4.506   3.890   8.521 -0.2543 -0.0188 -0.1431
 1862SOL     OW17218   0.066   1.747   9.908 -0.5279  0.2532  0.2456
 1862SOL    HW117219   0.153   1.782   9.928 -0.0930  0.4441 -1.9647
 1862SOL    HW217220   0.024   1.829   9.881 -3.2734 -0.4969  2.3459
 1863SOL     OW17221   0.978   4.394   2.536  0.5490 -0.1788 -0.1421
 1863SOL    HW117222   1.018   4.418   2.452 -0.6208  0.3421 -0.5495
 1863SOL    HW217223   1.016   4.306   2.538 -2.2195 -1.2927  3.0025
 1864SOL     OW17224   1.470   4.218   2.204 -0.9761  0.9115 -0.2235
 1864SOL    HW117225   1.542   4.159   2.180  1.2112  2.9557  1.2904
 1864SOL    HW217226   1.403   4.153   2.225 -0.5868  0.3406 -0.7494
 1865SOL     OW17227   2.384   3.431  14.500 -0.4049  0.2659  0.1089
 1865SOL    HW117228   2.306   3.382  14.472 -1.9530  2.6162  0.2763
 1865SOL    HW217229   2.381   3.475  14.415 -1.3939  1.0137  0.5345
 1866SOL     OW17230   0.889   1.574   6.861 -0.5299 -0.0643  0.6375
 1866SOL    HW117231   0.811   1.627   6.877  0.4449  0.8334  2.4304
 1866SOL    HW217232   0.924   1.578   6.950  0.6514  4.1439 -0.0587
 1867SOL     OW17233   1.147   0.628   9.280 -0.1394 -0.1512  0.3617
 1867SOL    HW117234   1.075   0.579   9.240  0.8602 -1.1372 -0.2245
 1867SOL    HW217235   1.220   0.568   9.263 -1.1210 -1.5038  0.9232
 1868SOL     OW17236   2.838   1.730  14.847  0.0551  0.4539 -0.1864
 1868SOL    HW117237   2.811   1.741  14.756 -1.3103 -0.7878  0.0826
 1868SOL    HW217238   2.801   1.646  14.873  0.6066  0.0498 -0.6813
 1869SOL     OW17239   2.333   0.392   5.820  0.2670  0.3509 -0.3452
 1869SOL    HW117240   2.321   0.297   5.817  2.4396 -0.0159  2.5912
 1869SOL    HW217241   2.427   0.405   5.831  0.2014  0.0023  0.5827
 1870SOL     OW17242   2.462   4.312   3.521 -0.1330  0.0812  0.7508
 1870SOL    HW117243   2.485   4.222   3.542  0.2587  0.1367  0.5588
 1870SOL    HW217244   2.543   4.361   3.541 -1.0962  1.6654  0.7457
 1871SOL     OW17245   2.979   4.505   2.621 -0.3169 -0.9798  0.2340
 1871SOL    HW117246   2.981   4.454   2.541  0.7798  1.0084 -1.0104
 1871SOL    HW217247   3.071   4.499   2.649 -1.4322 -0.9243  3.9834
 1872SOL     OW17248   1.097   0.116   8.728  0.0520 -0.5707 -0.3813
 1872SOL    HW117249   1.081   0.081   8.640 -2.0739  0.0180 -0.2478
 1872SOL    HW217250   1.122   0.041   8.781  1.8076 -1.0028 -1.8283
 1873SOL     OW17251   1.549   1.228  11.185 -0.0601  0.0782 -0.0877
 1873SOL    HW117252   1.505   1.266  11.110 -0.4477  0.0614  0.1295
 1873SOL    HW217253   1.476   1.188  11.232 -0.4823 -1.1780 -1.8299
 1874SOL     OW17254   3.083   2.902  10.508 -0.4253  0.8512 -0.1815
 1874SOL    HW117255   3.006   2.846  10.519  0.9412 -1.0505 -0.3744
 1874SOL    HW217256   3.087   2.906  10.412  1.5959 -1.1133 -0.1573
 1875SOL     OW17257   2.869   2.899   6.305  0.1411  0.4477  0.0258
 1875SOL    HW117258   2.800   2.899   6.239 -1.0883 -1.5150  1.2980
 1875SOL    HW217259   2.881   2.805   6.316  0.5485  0.6978  1.8600
 1876SOL     OW17260   4.080   3.971  17.072 -0.1020  0.2329  0.4234
 1876SOL    HW117261   4.018   3.917  17.024  1.2208  0.3586 -1.4157
 1876SOL    HW217262   4.035   4.055  17.078  2.3061  1.7198 -2.0805
 1877SOL     OW17263   4.533   1.295   8.169 -0.0287  0.1918 -0.2654
 1877SOL    HW117264   4.534   1.199   8.178  2.1087  0.2787  0.6279
 1877SOL    HW217265   4.597   1.311   8.239 -0.8385 -0.5649  0.6574
 1878SOL     OW17266   1.418   0.237   7.859 -0.0322 -0.2328 -0.0811
 1878SOL    HW117267   1.339   0.203   7.901 -0.4220  0.9539  0.1338
 1878SOL    HW217268   1.478   0.166   7.882  1.1226  0.5909 -0.5719
 1879SOL     OW17269   2.890   2.587  10.897  0.4068  0.3408 -0.1196
 1879SOL    HW117270   2.808   2.543  10.874  1.2063 -1.7746  0.9962
 1879SOL    HW217271   2.929   2.607  10.812  1.1730  0.0950  0.1636
 1880SOL     OW17272   0.258   3.056   8.826  0.3419  0.0998  0.1488
 1880SOL    HW117273   0.278   3.149   8.812 -0.6129  0.2118 -0.4321
 1880SOL    HW217274   0.229   3.032   8.739  1.2736  1.0310 -0.4243
 1881SOL     OW17275   2.231   1.879   5.076  0.1994 -0.0403 -0.0994
 1881SOL    HW117276   2.249   1.938   5.004 -1.9720 -0.6660 -1.1609
 1881SOL    HW217277   2.233   1.795   5.030  0.5806  0.2642 -0.6381
 1882SOL     OW17278   4.409   0.303  13.627 -0.1266 -0.4657  0.2779
 1882SOL    HW117279   4.427   0.393  13.601 -2.5293 -0.3824 -1.0528
 1882SOL    HW217280   4.356   0.310  13.706 -2.3006 -2.8352 -0.9856
 1883SOL     OW17281   0.446   4.035   7.629 -0.4588 -0.2603 -0.3325
 1883SOL    HW117282   0.448   4.002   7.719  2.6620 -0.6572 -0.5493
 1883SOL    HW217283   0.414   4.124   7.647  0.0422 -0.0310 -0.5574
 1884SOL     OW17284   1.202   1.068   0.326 -0.1742 -0.1006  0.0591
 1884SOL    HW117285   1.167   1.017   0.400 -2.1843  2.9145  1.1521
 1884SOL    HW217286   1.276   1.112   0.368 -0.9795 -0.7737  2.1856
 1885SOL     OW17287   2.670   0.446   5.005  0.0047  1.2125 -0.6618
 1885SOL    HW117288   2.600   0.383   5.020  0.2801  0.4177 -2.7054
 1885SOL    HW217289   2.678   0.477   5.095 -0.7724  2.5785 -1.0644
 1886SOL     OW17290   3.903   0.998  16.989  0.1456  0.7170  0.2688
 1886SOL    HW117291   3.858   1.016  16.907  0.1230 -0.5476  0.0043
 1886SOL    HW217292   3.861   1.062  17.047 -0.6351  1.4801 -1.1260
 1887SOL     OW17293   1.624   2.137   2.774  0.5810 -0.0496 -0.3847
 1887SOL    HW117294   1.603   2.111   2.864  0.7552  2.7896  0.4849
 1887SOL    HW217295   1.690   2.072   2.749 -1.3155 -0.5260 -4.1678
 1888SOL     OW17296   3.128   1.175   7.426 -0.2521 -0.0955  0.1155
 1888SOL    HW117297   3.077   1.254   7.406 -1.2938 -0.5897  0.8302
 1888SOL    HW217298   3.177   1.159   7.346  0.1494 -0.4883  0.4406
 1889SOL     OW17299   1.062   4.637  11.629 -0.1619  0.0662  0.0316
 1889SOL    HW117300   1.126   4.631  11.700 -0.4220 -0.9585  0.1704
 1889SOL    HW217301   0.997   4.571  11.649 -1.0550  1.3402  1.3000
 1890SOL     OW17302   1.322   2.623   6.049  0.5633  0.1947 -0.1589
 1890SOL    HW117303   1.346   2.695   6.107  3.5075 -2.1638  1.5574
 1890SOL    HW217304   1.235   2.660   6.033  1.6518  1.6953 -2.5097
 1891SOL     OW17305   0.276   1.910   5.160  0.0699 -0.3152 -0.1437
 1891SOL    HW117306   0.305   1.947   5.076  0.1273 -1.7970 -0.7784
 1891SOL    HW217307   0.352   1.927   5.216  0.1162 -1.0209  0.0106
 1892SOL     OW17308   1.709   4.268  11.199 -0.3807 -0.3368  0.2056
 1892SOL    HW117309   1.752   4.218  11.269 -0.6358 -1.3720 -0.3678
 1892SOL    HW217310   1.618   4.249  11.221 -0.2389 -0.4166  0.7081
 1893SOL     OW17311   3.487   4.276   4.234 -0.2012 -0.0380  0.2669
 1893SOL    HW117312   3.501   4.370   4.227 -2.9616  0.2807 -0.8282
 1893SOL    HW217313   3.505   4.240   4.148 -1.2146  2.6533 -1.0540
 1894SOL     OW17314   1.104   0.032   8.481 -0.5044  0.2050 -0.0716
 1894SOL    HW117315   1.044   4.719   8.426 -0.2329  0.1431 -0.3091
 1894SOL    HW217316   1.176   0.058   8.424 -1.0960 -1.9802 -1.8088
 1895SOL     OW17317   1.569   1.262   7.315  0.3643 -0.4046  0.7516
 1895SOL    HW117318   1.635   1.194   7.298  0.8467 -0.0127  1.0503
 1895SOL    HW217319   1.596   1.282   7.405 -0.5382 -2.9836  1.5753
 1896SOL     OW17320   1.205   2.866   8.055 -0.0845 -0.1705 -0.2822
 1896SOL    HW117321   1.193   2.859   7.960 -1.3345  1.0805 -0.2283
 1896SOL    HW217322   1.180   2.784   8.098  1.4166 -0.4408  0.0897
 1897SOL     OW17323   4.114   2.488  10.011 -0.2427 -0.2924  0.0760
 1897SOL    HW117324   4.200   2.502   9.972  0.6822 -0.2353  2.1048
 1897SOL    HW217325   4.137   2.412  10.065  2.0580  0.1578 -0.2994
 1898SOL     OW17326   4.586   3.446   5.954 -0.5670  0.0113  0.1293
 1898SOL    HW117327   4.559   3.356   5.971  0.9193 -0.5752 -0.6880
 1898SOL    HW217328   4.681   3.442   5.953 -0.4961  1.6702  0.4786
 1899SOL     OW17329   3.241   0.567  17.695 -0.6490  0.1186  0.3324
 1899SOL    HW117330   3.150   0.594  17.683 -0.2404  1.1626 -0.3672
 1899SOL    HW217331   3.270   0.537  17.609  1.9740 -1.2284  1.7047
 1900SOL     OW17332   1.744   1.800   4.983  0.3440  0.1981 -0.1652
 1900SOL    HW117333   1.726   1.707   4.970  1.5601  0.1342 -1.3811
 1900SOL    HW217334   1.660   1.835   4.951  0.1787  0.2821  0.3584
 1901SOL     OW17335   0.659   2.308  16.768  0.1289 -0.3920 -0.4515
 1901SOL    HW117336   0.623   2.243  16.828  1.3105  1.9984  2.8540
 1901SOL    HW217337   0.622   2.390  16.799 -2.4292 -1.8713  0.4053
 1902SOL     OW17338   3.099   3.408   7.636 -0.5787  0.1636  0.2069
 1902SOL    HW117339   3.084   3.459   7.716  1.0209  0.0733  0.5637
 1902SOL    HW217340   3.024   3.349   7.638 -1.5522  1.4449  2.0807
 1903SOL     OW17341   3.939   2.930   3.594  0.3198  0.1713  0.4727
 1903SOL    HW117342   3.996   2.915   3.670 -0.7430 -0.8227  1.0768
 1903SOL    HW217343   3.885   3.000   3.629  2.1820  2.2774 -0.8307
 1904SOL     OW17344   2.708   1.653   4.107  0.0694 -0.2756  0.0618
 1904SOL    HW117345   2.772   1.674   4.038 -0.3030  2.3112  0.4907
 1904SOL    HW217346   2.771   1.635   4.176  0.4091 -1.2803 -0.5125
 1905SOL     OW17347   3.899   1.379   7.837 -0.2196  0.2385 -0.1841
 1905SOL    HW117348   3.840   1.389   7.912  0.1304  1.9119 -0.1279
 1905SOL    HW217349   3.975   1.343   7.883 -1.2854  0.7005  1.9496
 1906SOL     OW17350   3.604   0.321   5.880  0.5328  0.6975  0.3984
 1906SOL    HW117351   3.640   0.251   5.935  1.1486  0.8985  0.2499
 1906SOL    HW217352   3.688   0.369   5.877  0.1252  1.3557 -0.6362
 1907SOL     OW17353   4.531   3.794   5.591 -0.0010  0.3069  0.5287
 1907SOL    HW117354   4.471   3.743   5.536 -1.8333  1.3187  1.5962
 1907SOL    HW217355   4.501   3.773   5.679  1.2459 -0.5784  0.7326
 1908SOL     OW17356   1.857   0.305   9.274 -0.3615  0.9323  0.2596
 1908SOL    HW117357   1.936   0.273   9.230  0.7931  2.6356  1.1157
 1908SOL    HW217358   1.884   0.395   9.291  1.5679  0.6772 -1.5162
 1909SOL     OW17359   2.644   1.670   3.391 -0.3732 -0.4108 -0.2023
 1909SOL    HW117360   2.694   1.629   3.461  0.1153 -0.6767 -0.7059
 1909SOL    HW217361   2.624   1.600   3.329  1.4091 -0.0838 -1.1635
 1910SOL     OW17362   1.552   2.390   5.354  0.0295  0.2103 -0.3600
 1910SOL    HW117363   1.520   2.341   5.278  0.4831 -1.3560  0.4524
 1910SOL    HW217364   1.611   2.327   5.395  0.3608  0.7634  0.0139
 1911SOL     OW17365   2.237   0.687   6.409 -0.6822  0.3915  0.6260
 1911SOL    HW117366   2.305   0.725   6.465 -1.7764  2.9278  0.2350
 1911SOL    HW217367   2.202   0.766   6.368  1.4240  0.6720 -0.6259
 1912SOL     OW17368   2.456   1.348   4.199  0.1219  0.6339 -0.3860
 1912SOL    HW117369   2.519   1.358   4.270  1.1012 -0.4565 -1.1061
 1912SOL    HW217370   2.378   1.381   4.243 -0.9126 -1.6623 -0.5172
 1913SOL     OW17371   3.128   2.294  16.229 -0.3505 -0.2480 -0.3145
 1913SOL    HW117372   3.197   2.228  16.220 -1.0197 -0.9098 -0.6591
 1913SOL    HW217373   3.051   2.236  16.224  0.4272 -1.3440  0.4951
 1914SOL     OW17374   2.089   4.337   4.898  0.0810 -0.4793  0.3188
 1914SOL    HW117375   2.093   4.313   4.991  2.2777  1.1942  0.6496
 1914SOL    HW217376   1.995   4.320   4.891  0.2424 -1.2416 -0.0500
 1915SOL     OW17377   2.990   2.032   1.009 -0.1251 -0.3654 -0.2607
 1915SOL    HW117378   3.026   1.949   0.978 -2.2531 -0.6396 -2.0255
 1915SOL    HW217379   3.014   2.017   1.100 -1.0545 -4.1611 -0.6292
 1916SOL     OW17380   0.107   0.026   4.286  0.2542 -0.3656  0.7310
 1916SOL    HW117381   0.152   0.028   4.202 -2.3378  0.2494 -0.6190
 1916SOL    HW217382   0.119   0.118   4.309 -1.5400 -0.0834  0.4803
 1917SOL     OW17383   1.186   3.154   8.350 -0.0135  0.0786 -0.3523
 1917SOL    HW117384   1.124   3.084   8.370 -0.3140  0.1212 -1.1576
 1917SOL    HW217385   1.142   3.233   8.382  0.0331  0.3999 -1.0999
 1918SOL     OW17386   3.845   1.237   7.598  0.0074 -0.3711 -0.0697
 1918SOL    HW117387   3.868   1.144   7.600  1.1879 -0.0253  3.0635
 1918SOL    HW217388   3.830   1.260   7.690  0.5098  1.9486 -0.5834
 1919SOL     OW17389   0.716   4.203   2.778 -0.4474 -0.2094  0.4784
 1919SOL    HW117390   0.738   4.296   2.783 -1.5812 -0.0178  1.9579
 1919SOL    HW217391   0.780   4.168   2.840 -0.0353 -0.8567 -0.3093
 1920SOL     OW17392   3.993   0.144   3.437 -0.3968  0.4611  0.1307
 1920SOL    HW117393   4.013   0.238   3.438  0.5974  0.2497  0.4564
 1920SOL    HW217394   3.997   0.118   3.345  1.3800  1.3419 -0.0426
 1921SOL     OW17395   2.238   2.878   0.992  0.1505 -0.0817  0.1585
 1921SOL    HW117396   2.293   2.919   1.058  1.1587 -3.1152  1.1863
 1921SOL    HW217397   2.237   2.938   0.917 -0.0078 -0.7105 -0.3455
 1922SOL     OW17398   4.565   3.687  15.723  0.4510  0.4753  0.3045
 1922SOL    HW117399   4.566   3.679  15.628 -0.2109  2.4080  0.1273
 1922SOL    HW217400   4.539   3.601  15.756 -0.0038  0.5066  0.0293
 1923SOL     OW17401   2.577   4.373   0.768 -0.3250 -0.7129 -0.1160
 1923SOL    HW117402   2.506   4.435   0.785 -0.1765 -0.8356  0.9310
 1923SOL    HW217403   2.573   4.357   0.674  1.0395  1.8772 -0.6306
 1924SOL     OW17404   2.633   3.158  14.013 -0.2962 -0.0651 -0.1043
 1924SOL    HW117405   2.565   3.225  14.019 -0.4553 -0.2803  0.5917
 1924SOL    HW217406   2.612   3.099  14.086  0.1511  0.2893  0.3101
 1925SOL     OW17407   1.098   3.422   2.551  0.1919 -0.1548 -0.0512
 1925SOL    HW117408   1.009   3.391   2.566  0.2614  0.5449  1.7919
 1925SOL    HW217409   1.091   3.510   2.588  1.2080  0.3755 -1.1292
 1926SOL     OW17410   2.032   4.711   8.129 -0.0023  0.5910 -0.3997
 1926SOL    HW117411   2.105   0.015   8.175  0.3893  1.7407 -2.0434
 1926SOL    HW217412   2.030   0.024   8.047  3.2672  1.2757 -0.0746
 1927SOL     OW17413   0.652   4.648  14.700 -0.1862 -0.6591  0.3896
 1927SOL    HW117414   0.701   4.648  14.618 -1.8271  0.8430 -0.5972
 1927SOL    HW217415   0.707   4.714  14.743  0.7043 -1.7704  0.9601
 1928SOL     OW17416   0.395   4.119   1.728  0.0391 -0.0173  0.1865
 1928SOL    HW117417   0.373   4.027   1.746 -0.0590  0.2753  1.5503
 1928SOL    HW217418   0.465   4.133   1.790 -0.1180 -0.3136  0.4344
 1929SOL     OW17419   3.290   3.927   5.512  0.4236 -0.2868 -0.2315
 1929SOL    HW117420   3.281   3.832   5.521  2.2285 -0.6220 -1.9267
 1929SOL    HW217421   3.356   3.928   5.443  0.5645  0.6034 -0.0856
 1930SOL     OW17422   4.236   0.972   2.892  0.0238 -0.2492 -0.0012
 1930SOL    HW117423   4.274   1.015   2.816 -1.5059  1.3199  0.1225
 1930SOL    HW217424   4.215   1.046   2.949 -0.4100 -0.6332  0.3431
 1931SOL     OW17425   3.564   2.002   6.734  0.0877 -0.8536  0.2619
 1931SOL    HW117426   3.659   2.006   6.722  0.3422 -3.3988  1.5729
 1931SOL    HW217427   3.541   2.087   6.773  1.9952 -0.6472  0.9209
 1932SOL     OW17428   1.044   3.515   5.747 -0.3565 -0.6100 -0.1598
 1932SOL    HW117429   1.005   3.479   5.827 -0.2878 -0.0721  0.1114
 1932SOL    HW217430   1.136   3.529   5.770 -0.0725 -0.4344 -1.4188
 1933SOL     OW17431   4.207   1.010   9.142  0.2599  0.5671  0.1246
 1933SOL    HW117432   4.208   1.105   9.151 -1.3059  0.4846  1.2137
 1933SOL    HW217433   4.246   0.998   9.056 -0.0630 -0.9062  0.1776
 1934SOL     OW17434   1.527   0.443   5.738  0.4050  0.2684  0.1097
 1934SOL    HW117435   1.466   0.468   5.669  0.4243 -1.1120 -0.4063
 1934SOL    HW217436   1.610   0.487   5.716  0.3979 -0.4504 -1.3742
 1935SOL     OW17437   2.645   3.063   2.706 -0.6360 -0.9837 -0.2223
 1935SOL    HW117438   2.664   3.098   2.793  1.6302 -0.3493 -0.9507
 1935SOL    HW217439   2.615   3.143   2.664 -2.0791 -2.4415 -1.9857
 1936SOL     OW17440   3.371   1.390   2.050 -0.4165  0.4002 -1.0060
 1936SOL    HW117441   3.454   1.435   2.066  0.0205 -1.6816  2.5814
 1936SOL    HW217442   3.316   1.460   2.017 -0.3218  0.3332 -1.3081
 1937SOL     OW17443   4.339   4.435  17.302  0.4897  0.0304  0.0558
 1937SOL    HW117444   4.365   4.435  17.394 -0.5349 -1.0573  0.3501
 1937SOL    HW217445   4.249   4.401  17.302 -0.7175  3.1820 -0.4282
 1938SOL     OW17446   3.842   4.341  17.139 -0.4038 -0.0901  0.1175
 1938SOL    HW117447   3.861   4.384  17.056 -0.0031  2.3667  1.4604
 1938SOL    HW217448   3.799   4.265  17.101 -0.2721 -0.2514  0.2932
 1939SOL     OW17449   0.044   4.550   6.784 -0.1928  0.0708 -0.7341
 1939SOL    HW117450   4.693   4.524   6.811  0.5133 -1.4666  0.0901
 1939SOL    HW217451   0.070   4.483   6.721  0.3728 -0.2990 -0.1146
 1940SOL     OW17452   0.272   3.323   8.770  0.2744  0.2090  0.2647
 1940SOL    HW117453   0.217   3.399   8.787 -1.4572 -0.7419 -1.0371
 1940SOL    HW217454   0.312   3.333   8.684  1.5011 -0.8748  0.7103
 1941SOL     OW17455   0.504   1.427  11.164  0.5266 -0.8108  0.4822
 1941SOL    HW117456   0.458   1.352  11.201 -0.8988 -0.1961 -0.0735
 1941SOL    HW217457   0.463   1.447  11.081  2.8595  1.1164 -0.2167
 1942SOL     OW17458   0.476   0.539   6.885  0.1691  0.6042  0.1378
 1942SOL    HW117459   0.571   0.548   6.893  0.2252  0.8995 -0.9039
 1942SOL    HW217460   0.461   0.542   6.980  0.9559 -0.1048  0.2864
 1943SOL     OW17461   4.407   2.587  15.862  0.1512 -0.3793  0.0214
 1943SOL    HW117462   4.459   2.601  15.783  1.5342  0.9467  1.1535
 1943SOL    HW217463   4.408   2.679  15.888 -2.5982 -0.5881  0.8647
 1944SOL     OW17464   2.389   0.427   7.292  0.1281  1.2914  0.4694
 1944SOL    HW117465   2.338   0.395   7.367 -1.1825  1.2144 -0.4474
 1944SOL    HW217466   2.434   0.348   7.264 -0.7774  0.6397  0.8515
 1945SOL     OW17467   1.662   3.668   8.964  0.1333  0.2962  0.0857
 1945SOL    HW117468   1.690   3.622   9.043 -2.6442 -0.4403  0.6650
 1945SOL    HW217469   1.747   3.707   8.944  0.2914  0.3413  0.8616
 1946SOL     OW17470   4.407   0.358   4.530  0.3229 -0.2714  0.2931
 1946SOL    HW117471   4.391   0.288   4.594 -0.8731 -1.7139 -1.5707
 1946SOL    HW217472   4.431   0.424   4.595  2.3500 -1.4680  0.7530
 1947SOL     OW17473   2.119   1.867   7.763  0.0782  0.5539 -0.3353
 1947SOL    HW117474   2.142   1.859   7.670 -1.4956  1.7990 -0.8313
 1947SOL    HW217475   2.197   1.899   7.809 -0.4517 -1.6009  2.0268
 1948SOL     OW17476   3.198   2.671   6.325 -0.1681  0.7252  0.3046
 1948SOL    HW117477   3.177   2.615   6.251  2.3203  1.0007 -0.6069
 1948SOL    HW217478   3.172   2.753   6.283 -2.3585  0.0922  0.4531
 1949SOL     OW17479   2.621   2.419   1.666 -0.1042  0.1637  0.1882
 1949SOL    HW117480   2.545   2.374   1.630  0.2455  0.3638 -0.8049
 1949SOL    HW217481   2.572   2.486   1.714  0.4542  0.8528 -0.1921
 1950SOL     OW17482   4.369   3.985   6.952 -0.2123 -0.5336 -0.2803
 1950SOL    HW117483   4.450   3.970   7.001 -1.3111 -1.1923  1.3418
 1950SOL    HW217484   4.375   4.080   6.942 -2.2963 -0.2858  0.6428
 1951SOL     OW17485   1.726   1.223   3.468  0.1944 -0.1352 -0.3353
 1951SOL    HW117486   1.739   1.128   3.479 -0.3199 -0.4271 -2.3346
 1951SOL    HW217487   1.649   1.234   3.523 -0.9648 -0.8055 -1.8385
 1952SOL     OW17488   3.636   1.204   5.999 -0.0754 -0.1862 -0.6269
 1952SOL    HW117489   3.575   1.278   5.999 -0.8043 -0.7861  0.5319
 1952SOL    HW217490   3.580   1.133   5.967  0.7311 -1.1182  0.0080
 1953SOL     OW17491   2.238   2.503   3.417  0.3534  0.1609 -0.0685
 1953SOL    HW117492   2.328   2.527   3.439  0.8258 -1.0800 -0.6855
 1953SOL    HW217493   2.249   2.495   3.322  1.0589  1.3186 -0.0946
 1954SOL     OW17494   2.548   3.668   2.261 -0.5260  0.6979  0.0908
 1954SOL    HW117495   2.636   3.633   2.244 -0.8032 -0.7820  1.7428
 1954SOL    HW217496   2.561   3.701   2.350 -0.3355  0.2905  0.2145
 1955SOL     OW17497   0.757   3.126   7.727 -0.1893  0.0682  0.0619
 1955SOL    HW117498   0.849   3.104   7.741 -0.2271 -0.5988 -0.7385
 1955SOL    HW217499   0.758   3.090   7.638  3.6734  2.3573 -0.8132
 1956SOL     OW17500   3.951   4.136   8.703  0.4223  0.3536 -0.3872
 1956SOL    HW117501   3.956   4.045   8.674  0.5303 -0.0377  0.8490
 1956SOL    HW217502   4.014   4.142   8.775 -1.9758 -1.0381  1.8275
 1957SOL     OW17503   4.370   2.420   7.510  0.0272  0.2174  0.7450
 1957SOL    HW117504   4.354   2.328   7.531 -0.4264 -0.5267 -2.8444
 1957SOL    HW217505   4.378   2.423   7.414  1.1108 -1.7634  0.7666
 1958SOL     OW17506   3.577   0.404   5.413  0.3261 -0.0584 -0.2020
 1958SOL    HW117507   3.546   0.378   5.500 -1.2495 -2.0874 -1.3733
 1958SOL    HW217508   3.510   0.356   5.365  0.3086  0.3618 -0.5974
 1959SOL     OW17509   4.038   0.339   7.515 -0.0689 -0.5978 -0.6084
 1959SOL    HW117510   4.023   0.377   7.428  0.3458 -0.2895 -0.5447
 1959SOL    HW217511   4.063   0.249   7.493  2.7367  0.1750 -0.6125
 1960SOL     OW17512   1.621   4.229   6.547  0.2009  0.0648 -0.4758
 1960SOL    HW117513   1.612   4.319   6.515 -1.3253  0.2016  0.3057
 1960SOL    HW217514   1.629   4.189   6.460  0.2955  0.1867 -0.5230
 1961SOL     OW17515   3.963   2.785  12.750  0.3244 -0.2872 -0.0276
 1961SOL    HW117516   4.012   2.705  12.769  1.0323  0.0659 -0.3564
 1961SOL    HW217517   3.878   2.775  12.791  0.2356 -1.3071 -0.4791
 1962SOL     OW17518   2.423   2.773   2.931  0.0613  0.0621  0.2278
 1962SOL    HW117519   2.474   2.702   2.892  0.3829 -0.2004  1.1294
 1962SOL    HW217520   2.401   2.819   2.850 -1.1022 -2.5294 -0.9214
 1963SOL     OW17521   3.038   0.552   3.001 -0.0902 -0.1499 -0.4707
 1963SOL    HW117522   3.010   0.474   2.953  1.2591  0.2484 -1.8868
 1963SOL    HW217523   3.132   0.544   2.984 -0.3332 -0.1738 -1.7419
 1964SOL     OW17524   3.464   1.442   7.183 -0.2993 -0.4774  0.2551
 1964SOL    HW117525   3.506   1.384   7.120 -0.2079  0.0398 -0.1640
 1964SOL    HW217526   3.539   1.494   7.212 -2.2935  2.0959  0.9160
 1965SOL     OW17527   3.173   3.554  16.598 -0.7384 -0.0538  0.6577
 1965SOL    HW117528   3.263   3.554  16.567 -0.8973 -0.2874  0.2109
 1965SOL    HW217529   3.130   3.575  16.515 -3.3316  0.3337  2.0665
 1966SOL     OW17530   2.955   4.087   1.748 -0.4323 -0.2306 -0.5607
 1966SOL    HW117531   2.995   4.174   1.752  0.5304 -0.7295  0.9200
 1966SOL    HW217532   2.862   4.101   1.732 -0.4936 -1.1659 -1.0215
 1967SOL     OW17533   2.883   0.860   9.025 -0.2068 -0.4454  0.3772
 1967SOL    HW117534   2.955   0.893   8.971 -2.3763  2.2492 -0.8470
 1967SOL    HW217535   2.850   0.780   8.985 -2.1248  0.7116 -0.3304
 1968SOL     OW17536   2.924   4.146   1.118 -0.3337  0.2431 -0.1281
 1968SOL    HW117537   2.974   4.117   1.042  1.1999  1.1466  0.5444
 1968SOL    HW217538   2.858   4.200   1.075 -0.0349  1.4511  0.9289
 1969SOL     OW17539   4.531   3.831   9.097  0.2099 -0.1930 -0.5383
 1969SOL    HW117540   4.610   3.822   9.151  0.4837  0.4782 -0.8195
 1969SOL    HW217541   4.478   3.763   9.139  4.1388 -1.5487  2.2636
 1970SOL     OW17542   0.279   0.796   6.883 -0.7383 -0.4265  0.6068
 1970SOL    HW117543   0.355   0.854   6.887 -1.0992 -0.0907  2.4238
 1970SOL    HW217544   0.319   0.712   6.908 -1.9175 -1.8054 -2.1571
 1971SOL     OW17545   3.832   1.426   1.399  0.6030  0.4263 -0.3078
 1971SOL    HW117546   3.833   1.455   1.491 -0.3176 -0.1027 -0.1259
 1971SOL    HW217547   3.855   1.509   1.359  0.6112  1.0471  0.9860
 1972SOL     OW17548   0.403   3.866   4.730  0.3803 -0.3756 -0.3237
 1972SOL    HW117549   0.484   3.852   4.680 -1.0237  0.7143 -2.9079
 1972SOL    HW217550   0.367   3.780   4.749  0.6507 -0.6081 -0.8670
 1973SOL     OW17551   2.134   2.770   3.586 -0.4715 -0.7989  0.2484
 1973SOL    HW117552   2.100   2.826   3.655 -2.8762 -1.1877 -0.6046
 1973SOL    HW217553   2.223   2.752   3.616 -0.5609 -0.7177  0.5644
 1974SOL     OW17554   0.371   2.323  17.735  0.2219 -0.3090 -0.1609
 1974SOL    HW117555   0.358   2.352   0.077 -0.3874 -2.8576  0.5872
 1974SOL    HW217556   0.438   2.261   0.016  0.3040 -0.7139 -1.2084
 1975SOL     OW17557   2.638   0.303   6.061 -0.5170 -0.4596  0.4047
 1975SOL    HW117558   2.660   0.210   6.064  0.8149 -0.2345 -1.8913
 1975SOL    HW217559   2.696   0.346   6.124  0.5673 -2.4431  0.7566
 1976SOL     OW17560   2.675   2.011   5.581 -0.1798 -0.6292 -0.3201
 1976SOL    HW117561   2.627   2.041   5.504  2.6824  1.8035 -1.1995
 1976SOL    HW217562   2.749   1.967   5.540 -1.6824 -2.9143 -0.5662
 1977SOL     OW17563   2.482   0.778   2.651  0.4957  0.1329  0.2394
 1977SOL    HW117564   2.515   0.704   2.601  0.3895 -0.2915  0.7917
 1977SOL    HW217565   2.482   0.847   2.586 -1.6173 -1.4878 -1.4822
 1978SOL     OW17566   1.996   0.906   7.098  0.4093 -0.4267  0.1620
 1978SOL    HW117567   1.907   0.940   7.106  0.5436 -0.0071 -0.1139
 1978SOL    HW217568   1.987   0.864   7.013 -0.5392  1.2654 -0.5591
 1979SOL     OW17569   4.111   4.532   6.218 -0.2013 -0.2697 -0.4481
 1979SOL    HW117570   4.038   4.593   6.213  0.6544  0.7894 -0.1175
 1979SOL    HW217571   4.130   4.514   6.126 -2.6724  0.8778 -1.1995
 1980SOL     OW17572   0.331   1.347   8.521 -0.0573 -0.1094  0.2517
 1980SOL    HW117573   0.345   1.390   8.605 -0.4693  1.8994 -0.7159
 1980SOL    HW217574   0.373   1.401   8.454 -1.5358 -1.6645 -1.9686
 1981SOL     OW17575   2.001   4.737   6.443  0.1321  0.1953  0.3605
 1981SOL    HW117576   2.040   4.650   6.446 -2.1889 -0.8788 -1.1974
 1981SOL    HW217577   2.067   0.049   6.394 -1.4723  0.4999 -1.4811
 1982SOL     OW17578   4.500   0.428   9.476  0.3923 -0.6629  0.4405
 1982SOL    HW117579   4.491   0.339   9.510 -0.5707 -0.3848  0.9413
 1982SOL    HW217580   4.593   0.441   9.457  0.6354 -2.0735  0.6352
 1983SOL     OW17581   2.310   2.278   1.150  0.2842  0.1941 -0.1473
 1983SOL    HW117582   2.257   2.283   1.070 -0.8867  2.0127  0.7518
 1983SOL    HW217583   2.314   2.184   1.166 -0.8365  0.4187  1.3933
 1984SOL     OW17584   1.760   1.980  11.507  0.1749 -1.1619  0.3747
 1984SOL    HW117585   1.850   1.967  11.478 -0.2687 -3.2339 -0.0575
 1984SOL    HW217586   1.743   1.897  11.551 -1.1541  0.0940  2.2561
 1985SOL     OW17587   0.083   1.073   5.517 -0.1356 -0.4157  0.1652
 1985SOL    HW117588   0.010   1.108   5.569  1.0305 -0.4926  1.8624
 1985SOL    HW217589   0.047   1.005   5.460  0.5624  0.5134 -1.3859
 1986SOL     OW17590   2.589   3.998   8.432  0.6256  0.1168 -0.6146
 1986SOL    HW117591   2.583   3.903   8.426  2.6459  0.0491 -1.4221
 1986SOL    HW217592   2.676   4.002   8.473  0.3095  0.7656 -0.0075
 1987SOL     OW17593   0.126   2.850  13.448 -0.0145  0.1089  0.4311
 1987SOL    HW117594   0.214   2.862  13.414 -0.6646 -1.4251 -1.7854
 1987SOL    HW217595   0.125   2.885  13.537 -0.8178  0.3289  0.3367
 1988SOL     OW17596   4.083   3.212  14.923  0.4975  0.0897 -0.4329
 1988SOL    HW117597   4.070   3.118  14.932 -3.6678  0.9096  2.5779
 1988SOL    HW217598   4.169   3.210  14.882  0.3456 -2.2423 -0.6320
 1989SOL     OW17599   4.328   4.649   3.708 -0.8566  0.0143 -0.1147
 1989SOL    HW117600   4.385   4.693   3.771  0.4805 -0.2997 -1.1106
 1989SOL    HW217601   4.329   4.718   3.641  1.8258 -1.7247 -1.8684
 1990SOL     OW17602   3.671   2.434   6.315 -0.2687 -0.0920  0.0072
 1990SOL    HW117603   3.746   2.402   6.266  0.3420 -0.4268  1.1553
 1990SOL    HW217604   3.649   2.513   6.266 -2.2390 -0.5799  0.0914
 1991SOL     OW17605   4.306   1.149   6.699 -0.1004 -0.0537 -0.5297
 1991SOL    HW117606   4.225   1.100   6.685 -0.5735  0.8357 -0.8812
 1991SOL    HW217607   4.263   1.234   6.704  0.7789  0.3043  0.8715
 1992SOL     OW17608   2.905   1.131  13.499 -0.3324  0.0754  0.0280
 1992SOL    HW117609   2.834   1.171  13.449 -0.9286 -0.6201  0.3259
 1992SOL    HW217610   2.975   1.135  13.434  0.0934 -2.2852  0.3356
 1993SOL     OW17611   1.360   4.542   2.599  0.3925 -0.1244 -0.2620
 1993SOL    HW117612   1.353   4.549   2.694  2.6312  1.9427 -0.2606
 1993SOL    HW217613   1.270   4.524   2.571 -0.1589  1.1646  0.7194
 1994SOL     OW17614   4.521   1.743   2.538  0.1633 -0.0721  0.4327
 1994SOL    HW117615   4.542   1.791   2.618  2.4357 -0.1720 -0.0992
 1994SOL    HW217616   4.426   1.742   2.545  0.1838  0.1775  0.7495
 1995SOL     OW17617   1.372   0.292  11.361  0.1254 -0.6014  0.0918
 1995SOL    HW117618   1.311   0.346  11.410 -0.9958 -0.7257 -1.1826
 1995SOL    HW217619   1.414   0.243  11.432  0.2372 -1.5132 -0.6024
 1996SOL     OW17620   3.152   3.981   0.138 -0.1266  0.4089  0.1690
 1996SOL    HW117621   3.177   3.894   0.170  1.0038  0.5217 -0.4064
 1996SOL    HW217622   3.191   4.026   0.213  0.6863 -2.7218  1.5972
 1997SOL     OW17623   0.308   0.341   2.189 -0.5015  0.1718 -0.5012
 1997SOL    HW117624   0.319   0.254   2.150 -0.7054  0.5135 -1.2955
 1997SOL    HW217625   0.227   0.332   2.239 -0.6025 -0.4637 -0.7766
 1998SOL     OW17626   2.348   4.483   2.014 -0.2017  0.4249 -0.6606
 1998SOL    HW117627   2.336   4.471   2.109 -1.1104  1.1190 -0.6939
 1998SOL    HW217628   2.433   4.523   1.998  0.1412 -1.3350 -3.2185
 1999SOL     OW17629   0.058   3.867   4.787  0.0123 -0.0480  0.6761
 1999SOL    HW117630   0.068   3.950   4.832  0.7798  0.3017 -0.1321
 1999SOL    HW217631   0.091   3.822   4.865 -2.6119 -2.9443  0.0968
 2000SOL     OW17632   2.049   1.268   3.586  0.3365  0.2562 -0.7017
 2000SOL    HW117633   2.018   1.359   3.579  4.0630  1.5124 -1.1055
 2000SOL    HW217634   2.087   1.271   3.673 -0.3814 -0.6741 -0.3631
 2001SOL     OW17635   0.629   1.672   9.762 -0.2365 -0.0773 -0.4030
 2001SOL    HW117636   0.571   1.748   9.771 -0.0512 -0.2126  2.0020
 2001SOL    HW217637   0.685   1.706   9.693  0.9386  1.1308  1.1545
 2002SOL     OW17638   1.834   2.707   1.735 -0.5553 -0.1049  0.1414
 2002SOL    HW117639   1.834   2.756   1.653  2.2364 -0.8174 -0.2769
 2002SOL    HW217640   1.870   2.768   1.799  3.3995  0.6483 -2.8405
 2003SOL     OW17641   1.694   1.013  17.098 -0.2160  0.1378 -0.1098
 2003SOL    HW117642   1.783   1.041  17.119 -0.3418 -0.4338  1.2302
 2003SOL    HW217643   1.690   1.042  17.007 -0.1372  1.4272  0.2992
 2004SOL     OW17644   0.164   1.840   3.121  0.0922  0.7738  0.6052
 2004SOL    HW117645   0.238   1.824   3.062 -1.0249  2.5150 -1.2346
 2004SOL    HW217646   0.104   1.766   3.117 -0.7131  1.4756 -0.0963
 2005SOL     OW17647   2.199   3.349   2.459 -0.1747  0.0168  0.0835
 2005SOL    HW117648   2.105   3.329   2.454 -0.2586  0.2631  0.6209
 2005SOL    HW217649   2.216   3.392   2.375 -0.5828 -2.5940 -1.3545
 2006SOL     OW17650   4.593   3.194   2.191  0.4304 -0.0462  0.0732
 2006SOL    HW117651   4.637   3.277   2.208 -1.2232  0.3951  2.1671
 2006SOL    HW217652   4.668   3.135   2.199  0.6226  0.2831  0.6765
 2007SOL     OW17653   3.080   4.638   2.258  0.4678 -0.3780  0.0712
 2007SOL    HW117654   3.149   4.689   2.302  0.0804 -0.5303  0.8568
 2007SOL    HW217655   3.048   4.709   2.202  0.9265 -0.1925  0.0405
 2008SOL     OW17656   1.329   4.454  13.648  0.1506 -0.1599 -0.3798
 2008SOL    HW117657   1.242   4.420  13.666  0.3050 -0.5918 -0.4453
 2008SOL    HW217658   1.333   4.452  13.552  0.0393 -1.8287 -0.3352
 2009SOL     OW17659   3.566   2.930   3.602  0.0658 -0.3170 -0.2195
 2009SOL    HW117660   3.646   2.962   3.644 -1.6167  1.8891  1.2643
 2009SOL    HW217661   3.564   2.838   3.629 -2.0224  0.2137  1.4149
 2010SOL     OW17662   0.638   2.722   0.500 -0.3093 -0.7242 -0.9745
 2010SOL    HW117663   0.671   2.812   0.500  0.2480 -0.9257 -3.9939
 2010SOL    HW217664   0.689   2.681   0.570 -1.0899  1.3785  0.7975
 2011SOL     OW17665   3.707   1.018  13.107  0.4538  0.6134  0.1386
 2011SOL    HW117666   3.681   0.974  13.026  0.5833  0.9809 -0.1024
 2011SOL    HW217667   3.800   1.019  13.086 -0.1989 -1.6280 -2.9070
 2012SOL     OW17668   1.937   4.397   8.913 -0.2085 -0.1521 -0.1854
 2012SOL    HW117669   1.979   4.462   8.969 -0.8838  1.7498 -1.9136
 2012SOL    HW217670   2.009   4.384   8.851 -0.2945 -0.2830 -0.2588
 2013SOL     OW17671   4.711   1.150  11.994 -0.3732 -0.3032 -0.2265
 2013SOL    HW117672   4.696   1.117  11.906 -0.1040  1.9021 -1.0939
 2013SOL    HW217673   0.059   1.193  11.989 -0.2733 -0.4236  0.4088
 2014SOL     OW17674   0.794   2.054  13.544 -0.1343 -0.9710  0.5314
 2014SOL    HW117675   0.799   2.133  13.491  0.9285 -1.3579  0.0562
 2014SOL    HW217676   0.789   2.091  13.632 -2.0766  0.5178 -0.2060
 2015SOL     OW17677   0.240   0.283   2.691  0.5986  0.2703 -0.2131
 2015SOL    HW117678   0.174   0.347   2.716 -0.6909 -2.0089  2.1786
 2015SOL    HW217679   0.218   0.279   2.598  0.9508 -1.4186 -0.2267
 2016SOL     OW17680   3.172   3.397   8.686 -0.3019  0.3009 -0.4896
 2016SOL    HW117681   3.200   3.471   8.632 -0.6821 -0.1187 -1.2508
 2016SOL    HW217682   3.136   3.444   8.762 -0.3458  0.3865 -0.5636
 2017SOL     OW17683   0.504   4.381   8.562  0.0198  0.3554 -0.0939
 2017SOL    HW117684   0.596   4.376   8.538 -0.0487 -2.3023  0.1882
 2017SOL    HW217685   0.476   4.453   8.505  2.2612  1.6188  0.4512
 2018SOL     OW17686   1.140   0.028   4.775 -0.3076  0.1725 -0.6441
 2018SOL    HW117687   1.053   0.034   4.814 -0.3309  3.1243 -1.1550
 2018SOL    HW217688   1.182   4.715   4.844 -1.0132  0.4598 -0.0048
 2019SOL     OW17689   3.967   0.085   8.579  0.4920  0.3521  0.2039
 2019SOL    HW117690   3.974   0.179   8.563 -2.1833  0.4338 -0.5984
 2019SOL    HW217691   3.988   0.069   8.671  2.4579 -0.2657 -0.3595
 2020SOL     OW17692   0.196   2.621   7.122  0.0059 -0.2827  0.2860
 2020SOL    HW117693   0.288   2.594   7.112 -0.1422 -0.9490  0.6849
 2020SOL    HW217694   0.181   2.611   7.216  0.1794  0.3793  0.3858
 2021SOL     OW17695   0.619   2.031   8.954 -0.4233 -0.2395  0.0773
 2021SOL    HW117696   0.565   1.953   8.941 -1.0929  0.2266 -0.0011
 2021SOL    HW217697   0.580   2.093   8.892 -0.9797 -1.8819 -1.1995
 2022SOL     OW17698   4.653   3.855   5.126  0.0044 -1.0902 -0.0077
 2022SOL    HW117699   4.633   3.762   5.140 -1.8297 -0.7758 -0.4327
 2022SOL    HW217700   4.718   3.842   5.057 -1.4052 -0.6976 -1.4267
 2023SOL     OW17701   2.100   2.085  12.599 -0.2457 -0.1100  0.5715
 2023SOL    HW117702   2.135   2.019  12.539  0.2227  1.5976 -1.0414
 2023SOL    HW217703   2.014   2.046  12.613  0.2654 -2.1627 -2.1620
 2024SOL     OW17704   0.031   0.185   6.114 -0.4082 -0.0220  0.2422
 2024SOL    HW117705   0.056   0.198   6.206  2.5665  1.5407 -0.7890
 2024SOL    HW217706   0.090   0.116   6.086  0.4709  1.5254 -1.7560
 2025SOL     OW17707   4.060   0.573   3.219 -0.6731  0.0242  0.2627
 2025SOL    HW117708   4.041   0.651   3.271  2.0965  0.6898  0.2658
 2025SOL    HW217709   4.046   0.612   3.133  1.6938  1.4791  0.5347
 2026SOL     OW17710   3.373   1.703   5.840  0.8804 -0.4459  0.3215
 2026SOL    HW117711   3.432   1.740   5.905 -0.6057  0.9492  0.8629
 2026SOL    HW217712   3.295   1.758   5.840  2.1510  1.3834 -2.1102
 2027SOL     OW17713   4.320   0.497  10.517  0.8749 -0.0210  0.2600
 2027SOL    HW117714   4.399   0.534  10.476 -1.1670  1.4377 -2.3672
 2027SOL    HW217715   4.249   0.546  10.476 -1.0649 -2.8230  0.2921
 2028SOL     OW17716   1.567   3.827   5.087 -0.2113 -0.3329  0.4764
 2028SOL    HW117717   1.534   3.790   5.169  1.7099 -0.3660  1.2469
 2028SOL    HW217718   1.565   3.755   5.024  2.2593  1.4361 -1.6548
 2029SOL     OW17719   3.467   3.699   6.688 -0.5743  0.2269 -0.1174
 2029SOL    HW117720   3.417   3.726   6.765  0.4463 -2.9068  1.6644
 2029SOL    HW217721   3.450   3.771   6.628 -1.5496 -0.8913 -1.1602
 2030SOL     OW17722   4.083   3.112  13.700  0.3273  0.1753  0.2316
 2030SOL    HW117723   4.075   3.202  13.666 -1.2950 -0.3063 -0.6637
 2030SOL    HW217724   4.050   3.061  13.626  3.5057  0.1620 -1.1704
 2031SOL     OW17725   2.264   2.437   1.428 -0.2489  0.2805 -0.0257
 2031SOL    HW117726   2.280   2.390   1.346 -1.7273  2.7234 -1.6906
 2031SOL    HW217727   2.219   2.514   1.395  1.5351  0.5447 -1.8939
 2032SOL     OW17728   3.976   3.458  14.957  0.8734  0.4626 -0.5454
 2032SOL    HW117729   3.902   3.445  15.016  0.8019 -0.2479 -0.7909
 2032SOL    HW217730   4.004   3.368  14.939  1.3320  0.2423  1.2150
 2033SOL     OW17731   0.867   2.616   4.915 -0.1809  0.4556 -0.0439
 2033SOL    HW117732   0.821   2.692   4.952  0.6464  0.5442  0.8256
 2033SOL    HW217733   0.946   2.658   4.881  0.6803 -1.0347  0.1457
 2034SOL     OW17734   2.787   0.872  13.042  0.0873 -0.0821  0.4022
 2034SOL    HW117735   2.765   0.844  13.131  1.4591  1.8413  1.3415
 2034SOL    HW217736   2.844   0.799  13.017 -1.0343 -0.5902 -0.6874
 2035SOL     OW17737   0.023   4.388   2.642 -0.1463  0.2895 -0.3899
 2035SOL    HW117738   4.693   4.363   2.579  1.2981 -1.0094 -1.4172
 2035SOL    HW217739   0.094   4.401   2.580  1.5612 -0.0382  1.4766
 2036SOL     OW17740   0.520   1.123   4.476 -0.0101 -0.1447 -0.1866
 2036SOL    HW117741   0.519   1.137   4.381  0.6089  2.8518  0.2530
 2036SOL    HW217742   0.557   1.035   4.484  1.4719  0.4863 -0.0615
 2037SOL     OW17743   3.275   3.326   7.329 -0.4285  0.1064  0.3700
 2037SOL    HW117744   3.324   3.348   7.408  0.3956 -3.6615  0.9055
 2037SOL    HW217745   3.201   3.274   7.362 -0.1081 -0.2097  0.5785
 2038SOL     OW17746   4.734   0.881  10.101  0.1304 -0.2704 -0.1548
 2038SOL    HW117747   4.685   0.932  10.166 -0.9104 -0.9757 -0.3847
 2038SOL    HW217748   4.699   0.912  10.018  1.3672  3.1317  0.5766
 2039SOL     OW17749   1.321   1.703   7.558 -0.0630  0.2380 -0.2163
 2039SOL    HW117750   1.413   1.729   7.557  0.0126  0.1226  2.3584
 2039SOL    HW217751   1.293   1.785   7.598  2.0022  0.1511  1.4098
 2040SOL     OW17752   1.545   0.510  12.343 -0.0294 -0.4494 -0.1472
 2040SOL    HW117753   1.631   0.529  12.305 -0.2459  0.2709 -0.2660
 2040SOL    HW217754   1.510   0.592  12.376  2.3778  0.0171  1.2082
 2041SOL     OW17755   3.822   3.078   3.295 -0.2895 -0.3750 -0.3119
 2041SOL    HW117756   3.735   3.087   3.256  0.4246 -2.0639 -2.2641
 2041SOL    HW217757   3.832   3.168   3.329  0.3883 -0.0498 -1.3731
 2042SOL     OW17758   3.078   0.944   8.668  0.8719 -0.2349 -0.2370
 2042SOL    HW117759   3.000   0.972   8.620 -0.2696 -1.7367  0.7371
 2042SOL    HW217760   3.116   0.876   8.612 -1.1055 -1.0808 -0.5620
 2043SOL     OW17761   1.082   0.292   8.938  0.0075  0.7842 -0.0921
 2043SOL    HW117762   1.080   0.387   8.927 -1.4959  0.7659  0.1426
 2043SOL    HW217763   1.071   0.245   8.855  1.3037 -0.5560  0.4900
 2044SOL     OW17764   3.588   1.814   2.142 -0.2934  0.2503  0.3010
 2044SOL    HW117765   3.607   1.900   2.181 -2.0844  1.0306 -0.5694
 2044SOL    HW217766   3.513   1.834   2.086 -0.1877 -1.2133 -0.3504
 2045SOL     OW17767   2.617   1.495   1.867 -0.1451 -0.1530 -0.3441
 2045SOL    HW117768   2.700   1.484   1.914 -0.0800  1.7214 -0.0144
 2045SOL    HW217769   2.580   1.407   1.876 -1.8249  0.8927  2.6479
 2046SOL     OW17770   3.635   3.838   2.034 -0.2270 -0.7460 -0.1147
 2046SOL    HW117771   3.550   3.827   1.991  0.7381  0.3080 -2.3228
 2046SOL    HW217772   3.640   3.933   2.043 -3.3523 -0.4886 -0.8406
 2047SOL     OW17773   1.478   1.790  12.809  0.3451 -0.0191 -0.3316
 2047SOL    HW117774   1.415   1.852  12.845 -0.5314 -0.7663 -0.5665
 2047SOL    HW217775   1.513   1.747  12.887 -0.2615 -1.6117 -0.9270
 2048SOL     OW17776   3.506   4.612   6.963  0.1005 -0.4791  0.7298
 2048SOL    HW117777   3.467   4.525   6.970 -0.3267 -0.2488  1.2664
 2048SOL    HW217778   3.598   4.587   6.966  0.7582  1.9700  0.4269
 2049SOL     OW17779   1.498   2.249   6.636  0.0037  0.0710  0.4545
 2049SOL    HW117780   1.508   2.222   6.545  0.8264 -0.5488  0.7278
 2049SOL    HW217781   1.472   2.164   6.673  2.2826 -0.5488  0.6355
 2050SOL     OW17782   1.750   2.043   4.672  0.7346  0.5991 -0.4111
 2050SOL    HW117783   1.780   2.017   4.759  0.1004  0.2401 -0.2992
 2050SOL    HW217784   1.817   2.000   4.619  1.6426  2.0292 -0.4181
 2051SOL     OW17785   0.831   0.012   6.639 -0.4824 -0.1088 -0.5232
 2051SOL    HW117786   0.877   4.711   6.714 -1.2969 -1.0690 -0.5187
 2051SOL    HW217787   0.882   4.710   6.569 -0.6652  1.3133 -1.4461
 2052SOL     OW17788   4.311   1.590   3.305  0.2410  0.3972 -0.4673
 2052SOL    HW117789   4.232   1.560   3.349 -0.7485  0.7748 -1.9698
 2052SOL    HW217790   4.356   1.643   3.371  0.1332 -0.8211  0.5770
 2053SOL     OW17791   1.504   2.533  16.947 -0.3058  0.3214  0.9035
 2053SOL    HW117792   1.512   2.454  16.999  1.3703 -0.0996  0.0047
 2053SOL    HW217793   1.445   2.584  17.002 -1.4943  0.0437 -0.1328
 2054SOL     OW17794   4.368   4.546  11.478 -0.0569  0.3606 -0.2118
 2054SOL    HW117795   4.307   4.599  11.529 -0.4703 -1.4189  1.1256
 2054SOL    HW217796   4.440   4.552  11.541 -0.4222 -0.1234  0.2500
 2055SOL     OW17797   2.709   0.194   7.031 -0.4158 -0.6073  0.0179
 2055SOL    HW117798   2.783   0.153   6.987  0.9190  0.9635  0.8049
 2055SOL    HW217799   2.668   0.238   6.956  2.0047  0.0964 -0.9005
 2056SOL     OW17800   4.645   1.310  16.153  0.4170  0.1593  0.3309
 2056SOL    HW117801   4.587   1.281  16.223 -1.2962  1.8254 -0.4231
 2056SOL    HW217802   4.649   1.406  16.157  0.7093  0.1926 -0.6962
 2057SOL     OW17803   1.124   3.240   3.346  0.5721  0.3469 -0.2707
 2057SOL    HW117804   1.087   3.232   3.434 -1.2299  0.1530 -1.0634
 2057SOL    HW217805   1.203   3.291   3.370  0.6061 -0.6742  1.8079
 2058SOL     OW17806   1.989   1.599  11.575  0.3310  0.0802 -0.1049
 2058SOL    HW117807   1.992   1.504  11.585 -0.3760 -0.0282 -0.9075
 2058SOL    HW217808   2.076   1.623  11.605  0.5327 -0.4927 -0.2361
 2059SOL     OW17809   2.195   4.299   5.169  0.0539  0.2137  0.1062
 2059SOL    HW117810   2.273   4.243   5.175 -0.9443 -1.2735 -0.6920
 2059SOL    HW217811   2.137   4.266   5.238 -1.1781  0.6454 -0.7244
 2060SOL     OW17812   1.084   3.981   2.728  0.3834  0.1760 -0.1582
 2060SOL    HW117813   1.119   3.918   2.790 -0.8237 -0.0206  0.3001
 2060SOL    HW217814   1.089   4.059   2.782 -2.9921 -0.0635  0.4555
 2061SOL     OW17815   3.994   2.504  13.927 -0.1337 -0.0482  0.2945
 2061SOL    HW117816   4.034   2.579  13.882  0.3979  0.2229  1.2047
 2061SOL    HW217817   3.989   2.544  14.014 -0.8412  1.4247 -0.4216
 2062SOL     OW17818   3.886   2.870   9.039  0.0087 -0.5043 -0.3524
 2062SOL    HW117819   3.931   2.945   9.077 -1.9753  0.9906 -0.9216
 2062SOL    HW217820   3.949   2.798   9.036 -0.0452 -0.5622 -0.0137
 2063SOL     OW17821   0.445   0.382  16.920 -0.2422  0.1990 -0.9248
 2063SOL    HW117822   0.505   0.427  16.861  1.3564  1.8515  2.0054
 2063SOL    HW217823   0.379   0.450  16.932 -0.4184 -0.3189  0.9902
 2064SOL     OW17824   3.242   3.157  13.635  0.4238  0.0991  0.1344
 2064SOL    HW117825   3.269   3.073  13.674  0.1692  0.6817  1.5633
 2064SOL    HW217826   3.256   3.215  13.710 -1.4951 -0.2374  0.7536
 2065SOL     OW17827   2.451   3.255   2.657  0.2963  0.5666  0.3288
 2065SOL    HW117828   2.415   3.273   2.744  1.2053  1.4310  0.5239
 2065SOL    HW217829   2.373   3.273   2.605  1.5188  1.6144 -1.1392
 2066SOL     OW17830   3.511   0.060  13.839 -0.2572 -0.3328  0.0681
 2066SOL    HW117831   3.427   0.104  13.826  0.2328  1.5122  3.1526
 2066SOL    HW217832   3.570   0.118  13.791 -3.2452  1.3464 -1.5823
 2067SOL     OW17833   0.723   4.273   3.489  0.6448  0.1627 -0.0991
 2067SOL    HW117834   0.800   4.318   3.522  1.0892  1.4681 -2.9233
 2067SOL    HW217835   0.662   4.347   3.495 -0.8024 -1.1649  1.6937
 2068SOL     OW17836   2.501   4.633  15.297  0.7616 -0.2601 -0.1322
 2068SOL    HW117837   2.582   4.676  15.269 -1.0138  2.8252 -0.5382
 2068SOL    HW217838   2.540   4.549  15.321 -0.5169 -0.8669 -0.1962
 2069SOL     OW17839   3.523   4.583  13.433  0.1679  0.3048 -0.4166
 2069SOL    HW117840   3.520   4.546  13.345  2.3330 -2.6298  0.7159
 2069SOL    HW217841   3.617   4.585  13.451 -0.3663  0.4404  2.3408
 2070SOL     OW17842   1.811   2.740   8.102 -0.5975 -0.1442  0.0282
 2070SOL    HW117843   1.782   2.826   8.132  2.2343  1.0770 -0.6885
 2070SOL    HW217844   1.751   2.717   8.030  1.5280  0.4911 -1.9548
 2071SOL     OW17845   0.249   3.065  12.089 -0.1361  0.1489  0.3613
 2071SOL    HW117846   0.284   3.131  12.148  0.6492 -0.3409  0.4394
 2071SOL    HW217847   0.230   3.109  12.006 -1.3902 -0.8590  0.1105
 2072SOL     OW17848   4.439   4.424   3.685  0.0335 -0.2018 -0.1774
 2072SOL    HW117849   4.384   4.502   3.686  1.1780  0.5765  1.0400
 2072SOL    HW217850   4.381   4.374   3.627 -1.6762  2.4356 -0.7173
 2073SOL     OW17851   1.946   4.060   7.696  0.2897 -0.5914  0.4324
 2073SOL    HW117852   1.880   4.116   7.736 -0.8200 -0.7244 -1.1975
 2073SOL    HW217853   1.991   4.028   7.774  2.2342 -1.5476 -1.0931
 2074SOL     OW17854   0.079   3.095  16.120 -0.3492 -0.2870  0.0900
 2074SOL    HW117855   0.052   3.137  16.202 -2.1342  0.5594 -0.9542
 2074SOL    HW217856   0.171   3.071  16.132 -0.3585  0.1474  1.0035
 2075SOL     OW17857   0.240   0.794   2.711 -0.3768  0.1473 -0.0366
 2075SOL    HW117858   0.320   0.783   2.659  0.3665  1.0934  0.9090
 2075SOL    HW217859   0.276   0.847   2.782 -0.6030 -0.4008  0.4846
 2076SOL     OW17860   3.193   4.214   6.875 -0.1201 -0.2868 -0.0194
 2076SOL    HW117861   3.197   4.308   6.856 -0.4824  0.0381  1.5521
 2076SOL    HW217862   3.116   4.213   6.932 -0.0825  0.4939  0.0440
 2077SOL     OW17863   0.767   4.557   2.466  0.0242 -0.3885 -0.2344
 2077SOL    HW117864   0.722   4.592   2.543 -0.6452 -2.0329  0.1266
 2077SOL    HW217865   0.824   4.494   2.510 -0.7312 -1.1147 -0.2946
 2078SOL     OW17866   1.576   2.194   7.057  0.3365 -0.1370 -0.5530
 2078SOL    HW117867   1.551   2.281   7.087  1.5223  0.3019 -0.8379
 2078SOL    HW217868   1.661   2.214   7.017  0.6455 -2.6731 -1.1548
 2079SOL     OW17869   1.747   0.266   5.149 -0.3162 -0.3138 -0.3987
 2079SOL    HW117870   1.663   0.291   5.112 -1.4705 -0.5442  2.0787
 2079SOL    HW217871   1.758   0.333   5.217 -0.1355 -0.0231 -0.7172
 2080SOL     OW17872   1.888   2.064   6.247 -0.3239  0.6675 -0.0208
 2080SOL    HW117873   1.897   2.109   6.163 -0.4564 -0.1366 -0.4646
 2080SOL    HW217874   1.796   2.061   6.273  0.2800 -1.0274  2.0128
 2081SOL     OW17875   4.559   4.034   5.728 -0.3287  0.0683 -0.0992
 2081SOL    HW117876   4.500   4.027   5.803 -2.0816 -0.0824 -1.5110
 2081SOL    HW217877   4.558   3.949   5.685  1.8093 -0.3837  0.7419
 2082SOL     OW17878   4.574   2.236   5.379  0.2736  0.1656 -0.3068
 2082SOL    HW117879   4.571   2.249   5.284  0.4568  2.8465  0.0459
 2082SOL    HW217880   4.621   2.153   5.390 -0.2046  0.1215  1.3585
 2083SOL     OW17881   3.031   2.906   3.500 -0.0454 -0.1857 -0.0341
 2083SOL    HW117882   3.113   2.899   3.549 -0.7669 -0.5372  1.1176
 2083SOL    HW217883   3.054   2.965   3.428  0.9371 -0.1394  0.3132
 2084SOL     OW17884   3.852   4.599   6.715  0.1458 -0.0844  0.6287
 2084SOL    HW117885   3.946   4.603   6.729  0.0208 -0.5239  1.6175
 2084SOL    HW217886   3.813   4.592   6.802 -0.5206 -0.4262  0.3086
 2085SOL     OW17887   0.508   0.002   3.358 -0.5976  0.1121  0.3547
 2085SOL    HW117888   0.451   0.063   3.312 -1.1787 -2.0692 -1.8294
 2085SOL    HW217889   0.565   4.706   3.288 -1.6123 -0.9644  0.0434
 2086SOL     OW17890   3.082   3.281   3.001  0.4850  0.3267 -0.4331
 2086SOL    HW117891   3.168   3.240   3.007  0.6923  0.8347  0.1892
 2086SOL    HW217892   3.024   3.211   2.973  0.3667 -0.2672  1.2507
 2087SOL     OW17893   2.889   1.856   5.515 -0.0799 -0.2279  0.7448
 2087SOL    HW117894   2.909   1.812   5.432 -2.4460 -0.3091  0.2231
 2087SOL    HW217895   2.974   1.888   5.545  0.3504 -0.6125 -0.0737
 2088SOL     OW17896   0.325   0.897   1.187 -1.0021 -0.3483  0.2116
 2088SOL    HW117897   0.274   0.839   1.244  0.3706 -2.4555 -0.6895
 2088SOL    HW217898   0.347   0.836   1.117 -0.2553 -0.1963  0.3117
 2089SOL     OW17899   1.596   4.483   2.488  0.5202 -0.1856  0.0230
 2089SOL    HW117900   1.629   4.552   2.431 -0.3930  0.5154  0.3438
 2089SOL    HW217901   1.501   4.491   2.479  0.2125 -1.6459  1.9752
 2090SOL     OW17902   1.353   3.650  11.600  0.4873 -0.4707  0.0110
 2090SOL    HW117903   1.428   3.593  11.585 -0.9247 -2.0759 -0.9079
 2090SOL    HW217904   1.389   3.737  11.584 -1.4790  0.1234 -1.1858
 2091SOL     OW17905   4.706   4.449   2.945 -0.1107  0.3102 -0.3801
 2091SOL    HW117906   0.038   4.514   2.941  0.1569  0.1014  0.7729
 2091SOL    HW217907   4.658   4.464   2.864 -2.2243 -0.7780  0.6697
 2092SOL     OW17908   4.192   3.009  17.677  0.2548 -0.5281 -0.1398
 2092SOL    HW117909   4.097   3.005  17.671  0.2029 -0.1806  0.4445
 2092SOL    HW217910   4.208   3.086  17.731 -0.3259  0.6012 -1.5805
 2093SOL     OW17911   1.513   3.459   6.820 -0.4917 -0.1391 -0.8166
 2093SOL    HW117912   1.600   3.484   6.850  0.1882 -0.7176 -2.3467
 2093SOL    HW217913   1.480   3.529   6.763 -0.3775  0.8538  0.3371
 2094SOL     OW17914   1.089   2.457   4.309  0.3393  0.3960 -0.2657
 2094SOL    HW117915   1.083   2.465   4.213  2.0959  2.0293 -0.2205
 2094SOL    HW217916   1.089   2.361   4.316  0.4593  0.3352 -1.1254
 2095SOL     OW17917   0.417   4.355   6.642  0.2345 -0.4703  0.1556
 2095SOL    HW117918   0.437   4.276   6.694  0.6151 -1.5195 -1.5902
 2095SOL    HW217919   0.501   4.400   6.636  0.2120 -0.4170  0.2358
 2096SOL     OW17920   1.983   2.122   6.651  0.0591 -0.2339 -0.1100
 2096SOL    HW117921   2.001   2.043   6.702 -1.6764  0.7247  2.0192
 2096SOL    HW217922   2.050   2.184   6.678  0.1625  0.1808 -1.3239
 2097SOL     OW17923   4.269   3.904   3.375 -0.1466 -0.5001  0.1861
 2097SOL    HW117924   4.221   3.860   3.305 -1.0113  0.8823 -0.0811
 2097SOL    HW217925   4.222   3.988   3.373  1.5134  0.4037 -1.4868
 2098SOL     OW17926   3.120   0.145   4.154 -0.1629 -0.3042  0.1085
 2098SOL    HW117927   3.165   0.142   4.238  0.9102  2.7977 -0.3684
 2098SOL    HW217928   3.179   0.089   4.104 -2.0023 -2.7114  0.6276
 2099SOL     OW17929   1.176   2.647   6.451  0.5234  0.6872  0.3588
 2099SOL    HW117930   1.157   2.732   6.413 -2.9150 -0.6194 -0.8754
 2099SOL    HW217931   1.270   2.631   6.442  0.4489  0.3636  0.1429
 2100SOL     OW17932   3.305   1.188   2.220 -0.2547 -0.2135 -0.5446
 2100SOL    HW117933   3.372   1.119   2.212  0.6947  1.0272 -3.4609
 2100SOL    HW217934   3.326   1.245   2.146  0.6373  1.0067  0.6425
 2101SOL     OW17935   3.672   1.375  14.107  0.0751  0.0191 -0.6823
 2101SOL    HW117936   3.633   1.322  14.037 -0.2487 -1.8446  0.9241
 2101SOL    HW217937   3.667   1.315  14.182  2.9705 -0.1722 -0.6423
 2102SOL     OW17938   4.037   1.677   2.991  0.0266 -0.3014 -0.2528
 2102SOL    HW117939   4.076   1.594   2.966 -2.0103 -1.2136 -0.3538
 2102SOL    HW217940   4.049   1.721   2.906  2.8595 -0.4009  0.0770
 2103SOL     OW17941   3.801   4.112   8.975 -0.4063 -0.7013 -0.4073
 2103SOL    HW117942   3.820   4.045   9.041  1.4991 -0.4571 -0.6952
 2103SOL    HW217943   3.746   4.057   8.918 -4.2501  3.2574 -0.5052
 2104SOL     OW17944   3.492   0.884   5.721 -0.2707 -0.5227  0.3834
 2104SOL    HW117945   3.451   0.806   5.683  1.4119 -2.3106  2.2347
 2104SOL    HW217946   3.430   0.949   5.688 -0.2060 -1.5249 -1.7222
 2105SOL     OW17947   1.692   0.898   5.717 -0.0908  0.2437 -0.4450
 2105SOL    HW117948   1.678   0.890   5.811  0.6463 -1.2297 -0.4537
 2105SOL    HW217949   1.735   0.813   5.706  1.5183  0.9162  0.6147
 2106SOL     OW17950   2.880   4.428   7.418  0.3724  0.0018 -0.2382
 2106SOL    HW117951   2.913   4.479   7.492 -0.9877  0.5116  0.0223
 2106SOL    HW217952   2.826   4.492   7.371  1.1507  0.4510 -0.5195
 2107SOL     OW17953   2.229   1.930  15.922  0.1530  0.3449  0.3096
 2107SOL    HW117954   2.161   1.880  15.967  3.3194 -2.3359  2.0711
 2107SOL    HW217955   2.173   1.982  15.865  0.8530  0.3560 -0.3643
 2108SOL     OW17956   4.077   3.559   5.383  0.7782  0.2173 -0.2771
 2108SOL    HW117957   4.096   3.512   5.302  0.6565  0.4164 -0.4227
 2108SOL    HW217958   4.020   3.629   5.350 -1.2164 -1.0277  0.6043
 2109SOL     OW17959   0.498   3.676   9.571 -0.8238  0.0688 -0.1654
 2109SOL    HW117960   0.513   3.735   9.497 -1.7888  1.0176  0.4008
 2109SOL    HW217961   0.412   3.645   9.544 -0.0826 -2.3111  0.1824
 2110SOL     OW17962   2.249   2.098   4.937 -0.3736 -0.6840  0.3952
 2110SOL    HW117963   2.276   2.123   4.849  0.1832  0.7913  0.9885
 2110SOL    HW217964   2.162   2.138   4.941  0.5323  1.3390  0.1775
 2111SOL     OW17965   3.093   3.462   8.997 -0.1001  0.0078 -0.6257
 2111SOL    HW117966   3.059   3.382   9.035  0.5772 -0.7353 -1.5891
 2111SOL    HW217967   3.185   3.451   9.021  0.3575  2.4126 -1.2493
 2112SOL     OW17968   0.205   2.634   1.489  0.0617  0.4631  0.0487
 2112SOL    HW117969   0.112   2.614   1.475  0.2741 -0.7109  0.2929
 2112SOL    HW217970   0.201   2.615   1.583  0.5733  0.8085  0.1372
 2113SOL     OW17971   2.987   2.667   4.294 -0.3558  0.0008  0.8186
 2113SOL    HW117972   2.997   2.652   4.388  2.3016  0.4358  0.5877
 2113SOL    HW217973   2.958   2.580   4.265  2.3912 -0.6389 -0.0050
 2114SOL     OW17974   0.121   3.004  17.661 -0.2955 -0.5925 -0.0266
 2114SOL    HW117975   0.077   3.020  17.577  1.3494 -2.4420 -1.2510
 2114SOL    HW217976   0.080   3.079  17.703  0.8979  0.6867 -1.1600
 2115SOL     OW17977   3.012   2.404   0.156  0.4358  0.6317 -0.0657
 2115SOL    HW117978   2.973   2.407   0.069 -1.6590 -0.4813  0.8506
 2115SOL    HW217979   3.046   2.315   0.146  0.4594  0.5564  0.6479
 2116SOL     OW17980   0.122   1.390  17.684  0.3059 -0.2987  0.4852
 2116SOL    HW117981   0.203   1.399  17.733 -0.4387  5.4946  0.6466
 2116SOL    HW217982   0.083   1.472  17.715 -1.1648 -1.6232  2.1424
 2117SOL     OW17983   0.592   0.823   7.909 -0.6117  0.2805 -0.3312
 2117SOL    HW117984   0.516   0.773   7.939 -0.1028 -0.3512 -0.1243
 2117SOL    HW217985   0.646   0.830   7.987  1.0001 -1.9708 -1.2588
 2118SOL     OW17986   2.741   4.423  13.129 -0.7677  0.3481 -0.3063
 2118SOL    HW117987   2.820   4.457  13.172  0.0017 -0.3076 -1.1925
 2118SOL    HW217988   2.786   4.361  13.071 -0.9397  1.7738 -1.9903
 2119SOL     OW17989   0.128   1.189   3.881 -0.7907  0.5475  0.3235
 2119SOL    HW117990   0.038   1.164   3.860 -0.3307 -1.0921  0.3200
 2119SOL    HW217991   0.150   1.256   3.816  0.3612  0.6920  0.8763
 2120SOL     OW17992   3.268   1.375   1.382 -0.0292  0.0446 -1.1006
 2120SOL    HW117993   3.225   1.434   1.320 -0.0471  1.4894  0.2909
 2120SOL    HW217994   3.349   1.344   1.339  3.1253  2.1415  3.3442
 2121SOL     OW17995   3.339   0.483   8.526 -0.0296 -0.4452 -0.0621
 2121SOL    HW117996   3.349   0.470   8.432 -0.4587 -0.6220 -0.0833
 2121SOL    HW217997   3.417   0.435   8.556  0.3016 -1.2953 -2.3101
 2122SOL     OW17998   4.444   1.814   8.634 -0.1642  0.3276  0.2594
 2122SOL    HW117999   4.487   1.737   8.671 -0.9604  0.1694  0.8557
 2122SOL    HW218000   4.388   1.826   8.710  1.0957  2.0327  0.9006
 2123SOL     OW18001   2.782   2.200  13.635  1.2802 -0.0948  0.3987
 2123SOL    HW118002   2.743   2.113  13.646 -1.1983  0.9121 -0.3991
 2123SOL    HW218003   2.814   2.187  13.546  1.7295 -0.8259  0.6587
 2124SOL     OW18004   1.392   4.489  17.115  0.2567 -0.0655 -0.1402
 2124SOL    HW118005   1.318   4.429  17.115  2.0173 -2.2197 -1.6696
 2124SOL    HW218006   1.359   4.537  17.191  1.4663 -1.1303  1.0598
 2125SOL     OW18007   0.277   0.386   3.042 -0.0427  0.3192  0.2840
 2125SOL    HW118008   0.291   0.427   2.956  3.2691  0.9182  1.0954
 2125SOL    HW218009   0.357   0.416   3.086 -0.0100 -0.0356  0.4647
 2126SOL     OW18010   3.011   2.648   1.840 -0.1873 -0.7567 -0.7176
 2126SOL    HW118011   3.026   2.728   1.891  1.7643 -0.5429 -1.6347
 2126SOL    HW218012   2.996   2.693   1.757 -3.8735  0.1311  0.4087
 2127SOL     OW18013   1.172   1.888  17.191 -0.4283 -0.4705 -0.4609
 2127SOL    HW118014   1.169   1.981  17.213 -0.9927 -0.3504 -1.0494
 2127SOL    HW218015   1.079   1.868  17.203 -0.0113 -1.0746  1.7799
 2128SOL     OW18016   3.612   4.121   8.454 -0.6847  0.0141  0.1850
 2128SOL    HW118017   3.691   4.172   8.440  1.3322 -3.4600 -1.0247
 2128SOL    HW218018   3.612   4.081   8.367  0.0423 -0.2589  0.3167
 2129SOL     OW18019   1.255   1.844   9.854  0.3652  0.3446 -0.4718
 2129SOL    HW118020   1.240   1.874   9.765  0.5713  1.2316 -0.2028
 2129SOL    HW218021   1.244   1.749   9.843  0.3417  0.4206 -1.0712
 2130SOL     OW18022   0.134   2.435   4.299  0.8507  0.2157  0.2104
 2130SOL    HW118023   0.111   2.495   4.370  1.9106  0.1681  0.5904
 2130SOL    HW218024   0.228   2.448   4.301  1.1859 -1.5280 -3.2700
 2131SOL     OW18025   4.431   3.287   5.518 -0.6395 -0.2614  0.4272
 2131SOL    HW118026   4.508   3.314   5.567 -0.5019  1.8768 -0.9883
 2131SOL    HW218027   4.468   3.277   5.431  1.7827  1.6783  1.2520
 2132SOL     OW18028   0.450   1.816   5.585  0.5424  0.1796  0.4059
 2132SOL    HW118029   0.532   1.811   5.635  1.1865  2.1432 -0.4489
 2132SOL    HW218030   0.446   1.911   5.593  3.1268  0.3438 -0.1210
 2133SOL     OW18031   4.238   0.023   8.251 -0.3015 -0.0262 -0.1443
 2133SOL    HW118032   4.154   4.734   8.288  0.5195 -1.8363  0.4534
 2133SOL    HW218033   4.225   0.045   8.159 -0.5642 -0.0565 -0.1132
 2134SOL     OW18034   2.348   2.978   4.786 -0.2845 -0.0351 -0.0728
 2134SOL    HW118035   2.361   2.936   4.701  0.1232 -0.3870  0.1644
 2134SOL    HW218036   2.428   2.944   4.825  0.3762  1.3804 -0.1821
 2135SOL     OW18037   4.430   0.642  12.816 -0.3736  0.9222  0.2958
 2135SOL    HW118038   4.448   0.549  12.829 -2.6617  0.6287  1.3648
 2135SOL    HW218039   4.441   0.657  12.722 -1.7473  0.2874  0.0280
 2136SOL     OW18040   3.177   2.804  14.692 -0.4841 -0.1108  1.1156
 2136SOL    HW118041   3.147   2.894  14.701  0.0512  0.1555  0.3011
 2136SOL    HW218042   3.092   2.761  14.692 -1.1723  1.2579  1.8904
 2137SOL     OW18043   3.979   1.173   2.595 -0.1438 -0.3435  0.2528
 2137SOL    HW118044   3.907   1.114   2.619  0.5778 -2.1140 -1.9606
 2137SOL    HW218045   3.964   1.243   2.658  2.2033  0.3096  0.0817
 2138SOL     OW18046   3.394   0.974   6.712  0.0640  0.7365  0.3501
 2138SOL    HW118047   3.445   0.956   6.633  1.2032  1.2427  0.9794
 2138SOL    HW218048   3.443   1.048   6.747 -0.6203  0.8287  1.0952
 2139SOL     OW18049   2.895   0.507   1.327 -0.0024  0.8597 -0.5182
 2139SOL    HW118050   2.878   0.573   1.260 -0.6779 -0.3409 -1.5076
 2139SOL    HW218051   2.907   0.555   1.409  0.9337  0.5198 -0.4590
 2140SOL     OW18052   4.222   0.214   6.188  0.1530  0.4777 -0.3693
 2140SOL    HW118053   4.203   0.123   6.166  2.2564 -0.4018  1.4148
 2140SOL    HW218054   4.139   0.252   6.160 -1.4563 -0.9451  2.5839
 2141SOL     OW18055   3.150   0.800   8.426 -0.1882  0.3736  0.0132
 2141SOL    HW118056   3.076   0.788   8.367  0.2960 -1.1633 -0.2762
 2141SOL    HW218057   3.228   0.767   8.382 -0.3458  1.4831 -1.0777
 2142SOL     OW18058   2.228   3.086   6.244 -0.5624 -0.0562 -0.1903
 2142SOL    HW118059   2.288   3.160   6.242 -1.0141  0.3255  0.3786
 2142SOL    HW218060   2.293   3.016   6.248 -0.1095  0.2412 -2.5014
 2143SOL     OW18061   4.406   0.248   9.059  0.0234 -0.1286  0.0061
 2143SOL    HW118062   4.425   0.301   8.982 -2.0894  1.1840  0.3821
 2143SOL    HW218063   4.381   0.319   9.119 -0.2264 -0.0488 -0.1921
 2144SOL     OW18064   1.687   4.137  13.696 -0.4850 -0.1793  0.4097
 2144SOL    HW118065   1.644   4.111  13.614  1.2949  0.0403 -0.5751
 2144SOL    HW218066   1.630   4.210  13.721  0.8734  0.6186  1.1821
 2145SOL     OW18067   0.992   2.408   7.223  0.0266 -0.9232 -0.0214
 2145SOL    HW118068   0.988   2.353   7.302  0.4233 -1.9939 -0.7504
 2145SOL    HW218069   1.040   2.350   7.165  1.5781  0.0451  0.2803
 2146SOL     OW18070   3.237   4.163   9.335  0.4539  0.1320 -0.6035
 2146SOL    HW118071   3.151   4.203   9.347  0.2247 -0.5481  0.0727
 2146SOL    HW218072   3.292   4.241   9.329 -2.7559  2.2859 -2.3504
 2147SOL     OW18073   1.115   0.299   5.385 -0.0206  0.2001 -0.2116
 2147SOL    HW118074   1.052   0.256   5.443 -0.7045  0.8967 -0.4243
 2147SOL    HW218075   1.109   0.230   5.319 -1.1531 -0.8577  0.9981
 2148SOL     OW18076   0.710   3.431   4.783 -0.4612 -0.0282  0.5842
 2148SOL    HW118077   0.673   3.438   4.695 -0.5232 -0.8497  0.5408
 2148SOL    HW218078   0.699   3.339   4.807 -1.3869 -0.6207 -2.1194
 2149SOL     OW18079   1.555   1.758   5.827  0.2242 -0.1625 -0.2276
 2149SOL    HW118080   1.498   1.689   5.859  0.1985  0.1043  0.3182
 2149SOL    HW218081   1.522   1.838   5.870 -1.4322 -1.5982  1.1615
 2150SOL     OW18082   0.113   3.678   2.230 -0.6549 -0.1796 -0.5801
 2150SOL    HW118083   0.079   3.602   2.278  1.5130 -0.3672  0.6692
 2150SOL    HW218084   0.037   3.713   2.184 -0.0273  1.6706 -0.1923
 2151SOL     OW18085   0.109   0.041   7.767  0.0515  0.1728  0.1467
 2151SOL    HW118086   0.043   0.002   7.824 -1.2504 -1.4619 -2.4885
 2151SOL    HW218087   0.064   0.121   7.737  1.1698  0.7932  0.1425
 2152SOL     OW18088   0.709   2.319   5.087 -0.5863  0.2196  0.7472
 2152SOL    HW118089   0.799   2.300   5.116  0.1288  0.7579 -1.1024
 2152SOL    HW218090   0.671   2.370   5.158  0.4720  1.1803  0.6380
 2153SOL     OW18091   1.364   2.413   3.019 -0.4058 -0.3444 -0.5333
 2153SOL    HW118092   1.450   2.379   3.043 -0.4464  0.1419  0.3112
 2153SOL    HW218093   1.376   2.499   3.061  0.0562 -0.7159  0.0901
 2154SOL     OW18094   1.901   2.557   5.449 -0.2642  0.0501  0.5722
 2154SOL    HW118095   1.997   2.559   5.444 -0.1488 -0.9602  2.3400
 2154SOL    HW218096   1.877   2.480   5.398  0.9492 -0.8700  1.4081
 2155SOL     OW18097   4.713   4.363  17.455  0.1833 -0.4317  0.1210
 2155SOL    HW118098   4.694   4.423  17.527 -1.3675  0.8040 -1.3177
 2155SOL    HW218099   0.004   4.428  17.391 -1.2415  0.4419  0.3806
 2156SOL     OW18100   0.545   2.579  16.319  0.1151 -0.3474 -0.1946
 2156SOL    HW118101   0.602   2.570  16.242 -0.1480  1.2800 -0.5835
 2156SOL    HW218102   0.463   2.542  16.287  0.0898 -1.1369  0.7823
 2157SOL     OW18103   2.107   2.219   9.574  0.0310  0.2951 -0.6571
 2157SOL    HW118104   2.034   2.188   9.520  0.2694  0.3369 -1.0018
 2157SOL    HW218105   2.105   2.159   9.648  0.4486  0.7985 -0.2367
 2158SOL     OW18106   4.302   0.632  17.114 -0.1791 -0.3060  0.1380
 2158SOL    HW118107   4.320   0.656  17.024  0.8127  0.6948  0.5983
 2158SOL    HW218108   4.353   0.695  17.166 -2.9437  1.7537  0.4236
 2159SOL     OW18109   4.195   4.093   5.274  0.6640  0.4690 -0.7042
 2159SOL    HW118110   4.285   4.061   5.265  0.7251  0.5325 -0.3318
 2159SOL    HW218111   4.210   4.148   5.351  0.4465 -0.7242  0.1755
 2160SOL     OW18112   0.355   0.515  17.494 -0.0343 -0.4139 -0.0041
 2160SOL    HW118113   0.388   0.514  17.404  1.2277  1.8785  0.4316
 2160SOL    HW218114   0.423   0.567  17.538  0.1505 -0.9078  0.3066
 2161SOL     OW18115   2.589   3.255   6.681 -0.4629 -0.1567 -0.4761
 2161SOL    HW118116   2.678   3.251   6.717  0.2918  0.0124 -2.3041
 2161SOL    HW218117   2.600   3.273   6.587  0.6646  0.3998 -0.2459
 2162SOL     OW18118   2.422   3.949   2.872 -0.1916  0.7051  0.0567
 2162SOL    HW118119   2.473   3.871   2.849 -0.4375  0.4689  0.3125
 2162SOL    HW218120   2.461   3.982   2.953 -1.0053 -1.1027  1.2037
 2163SOL     OW18121   2.644   4.015   1.502  0.1885 -0.3825 -0.5762
 2163SOL    HW118122   2.652   3.924   1.529  0.6054 -0.7817 -2.0035
 2163SOL    HW218123   2.681   4.019   1.413  2.1611  0.5925  0.2831
 2164SOL     OW18124   3.689   2.853  11.710 -0.0994 -0.3741 -0.7995
 2164SOL    HW118125   3.757   2.807  11.661  0.8305  0.0913  0.0591
 2164SOL    HW218126   3.678   2.931  11.656  0.2860  0.2613  0.0489
 2165SOL     OW18127   4.481   2.327  16.627  0.3899  0.2962 -0.0381
 2165SOL    HW118128   4.415   2.371  16.680 -1.7709 -0.6698 -1.9308
 2165SOL    HW218129   4.487   2.397  16.563 -0.5511 -0.2841 -0.7659
 2166SOL     OW18130   3.220   0.085   2.439 -0.3403 -0.2665 -0.0054
 2166SOL    HW118131   3.296   0.043   2.480  0.5178  1.9368  0.6469
 2166SOL    HW218132   3.233   0.178   2.458  1.1267 -0.5880  0.5362
 2167SOL     OW18133   0.626   3.874   3.300  0.2301  0.1638  0.1741
 2167SOL    HW118134   0.667   3.804   3.250 -2.9458 -1.0951 -0.6731
 2167SOL    HW218135   0.561   3.814   3.336 -1.2468  2.7295  1.8607
 2168SOL     OW18136   4.517   4.254   8.392  0.0251 -0.0406  0.1988
 2168SOL    HW118137   4.585   4.202   8.435  0.6532  0.3579 -0.3073
 2168SOL    HW218138   4.546   4.339   8.425  0.1246 -0.0272  0.0781
 2169SOL     OW18139   2.863   0.157   8.583  0.0765 -0.1221  0.3607
 2169SOL    HW118140   2.950   0.180   8.550 -0.0188  2.2138  1.7490
 2169SOL    HW218141   2.814   0.235   8.559 -1.1638 -1.2388 -0.7459
 2170SOL     OW18142   4.092   1.001   7.362 -0.0463 -0.4657 -0.7014
 2170SOL    HW118143   4.059   1.052   7.289  0.8759  1.0305 -0.0803
 2170SOL    HW218144   4.183   0.980   7.338  0.6009 -0.2551  1.5849
 2171SOL     OW18145   0.281   3.376  14.625 -0.3062 -0.0998  0.4223
 2171SOL    HW118146   0.287   3.313  14.697 -2.0277  0.3473  0.9602
 2171SOL    HW218147   0.317   3.454  14.668  0.3828  0.3287 -0.9574
 2172SOL     OW18148   1.533   4.481   6.474  0.2823 -0.3256 -0.5103
 2172SOL    HW118149   1.564   4.568   6.452  0.7673  0.0383  1.5464
 2172SOL    HW218150   1.469   4.503   6.542  2.4660  1.3036  1.0298
 2173SOL     OW18151   4.615   0.719   7.856  0.3611 -0.2258 -0.0635
 2173SOL    HW118152   4.601   0.812   7.872 -1.2579 -0.2432 -1.3577
 2173SOL    HW218153   4.545   0.705   7.792 -1.2957  2.5122  1.1565
 2174SOL     OW18154   4.699   0.128   7.333  0.2996 -0.3086  0.3194
 2174SOL    HW118155   0.043   0.153   7.289  0.1891  0.6281  0.6501
 2174SOL    HW218156   4.638   0.185   7.286  1.4232  0.2986 -0.3992
 2175SOL     OW18157   4.444   2.262  13.698  0.1572 -0.4390  0.0986
 2175SOL    HW118158   4.361   2.215  13.709 -1.2300  1.6973 -1.3017
 2175SOL    HW218159   4.472   2.258  13.789 -2.3042  1.1190  0.9297
 2176SOL     OW18160   3.436   1.374   3.112  0.1735 -0.5132 -0.0600
 2176SOL    HW118161   3.483   1.456   3.127 -1.1572  0.6698 -2.5060
 2176SOL    HW218162   3.406   1.383   3.022  0.4996 -0.2675 -0.1443
 2177SOL     OW18163   0.137   2.625   4.550  0.2884 -0.1124 -0.3357
 2177SOL    HW118164   0.211   2.576   4.587 -1.2517 -2.1238  0.0970
 2177SOL    HW218165   0.129   2.685   4.624  0.3454  0.5257 -0.8495
 2178SOL     OW18166   2.210   4.687  15.261 -0.4116  0.3409 -0.6540
 2178SOL    HW118167   2.171   4.609  15.223 -0.4079 -0.4336  0.9060
 2178SOL    HW218168   2.304   4.671  15.272 -0.3649 -0.4860 -2.3206
 2179SOL     OW18169   2.259   4.676   8.830 -0.0434 -0.3618 -0.1554
 2179SOL    HW118170   2.346   4.690   8.792 -0.1651  2.7987  0.7788
 2179SOL    HW218171   2.234   4.591   8.794  1.3749 -0.5776 -0.6302
 2180SOL     OW18172   3.175   2.900   5.591 -0.1360 -0.6946 -0.2857
 2180SOL    HW118173   3.121   2.973   5.559  0.8168  0.7834  1.4499
 2180SOL    HW218174   3.262   2.940   5.600 -0.3210 -0.1051 -1.0810
 2181SOL     OW18175   4.387   3.511   6.166  0.0069 -0.0630  0.2746
 2181SOL    HW118176   4.454   3.500   6.099 -0.1728  1.3151 -0.1210
 2181SOL    HW218177   4.310   3.536   6.115 -1.7951 -0.5897  2.7172
 2182SOL     OW18178   1.555   0.047  17.104  0.3633  0.8567 -0.5932
 2182SOL    HW118179   1.578   4.709  17.159  1.1390 -1.0342 -3.5388
 2182SOL    HW218180   1.461   0.035  17.095  0.7101 -2.7148  0.3366
 2183SOL     OW18181   2.593   2.514   3.830 -0.7533 -0.2605  0.1517
 2183SOL    HW118182   2.514   2.467   3.857 -1.6831  0.5857 -1.1084
 2183SOL    HW218183   2.643   2.439   3.797 -1.1068 -0.7835  0.8027
 2184SOL     OW18184   0.342   4.144   9.412 -0.8642  0.0790 -0.4043
 2184SOL    HW118185   0.324   4.232   9.378 -1.3619 -0.5861 -1.8275
 2184SOL    HW218186   0.253   4.111   9.404 -0.5889 -0.6510 -0.3958
 2185SOL     OW18187   3.678   2.143  16.684 -0.0399 -0.3486  0.4333
 2185SOL    HW118188   3.693   2.087  16.608  2.6196 -1.0112  1.4567
 2185SOL    HW218189   3.658   2.231  16.651  0.7611 -0.6810 -0.9172
 2186SOL     OW18190   0.971   0.073  17.228  0.4559 -0.2482 -0.2283
 2186SOL    HW118191   0.927   0.158  17.221 -0.0065 -0.3902  0.9893
 2186SOL    HW218192   0.984   0.075  17.322  1.3755  1.8262 -0.3881
 2187SOL     OW18193   2.848   3.092   5.288  0.0935  1.0243 -0.2898
 2187SOL    HW118194   2.914   3.161   5.278  1.5767 -0.2157  1.0514
 2187SOL    HW218195   2.822   3.066   5.200 -0.6709  1.6265 -0.2459
 2188SOL     OW18196   1.567   3.534  11.507 -0.4357 -0.3942  0.2017
 2188SOL    HW118197   1.611   3.481  11.573  1.2683  0.0964 -0.5459
 2188SOL    HW218198   1.640   3.554  11.448  1.6741  0.5177  3.1642
 2189SOL     OW18199   3.564   2.043   7.611  0.8511  0.5741  0.0597
 2189SOL    HW118200   3.630   2.109   7.632  0.1898  0.6218  2.0561
 2189SOL    HW218201   3.558   2.058   7.517  1.6766 -0.6064 -0.1764
 2190SOL     OW18202   2.144   3.930   7.867  0.4515 -0.0178  0.0512
 2190SOL    HW118203   2.120   3.847   7.825  0.7099  0.5889 -1.3003
 2190SOL    HW218204   2.119   3.914   7.958  1.2404 -1.0886  0.0824
 2191SOL     OW18205   1.090   1.691   6.396 -0.6963  0.1845  0.0898
 2191SOL    HW118206   1.046   1.607   6.404  0.7238 -0.6023 -0.4079
 2191SOL    HW218207   1.082   1.721   6.486  2.6715  1.5336 -0.0340
 2192SOL     OW18208   3.055   3.613  14.851 -0.2892 -0.3459  0.1341
 2192SOL    HW118209   3.067   3.518  14.847  1.8605 -0.0072 -0.9999
 2192SOL    HW218210   3.048   3.628  14.756 -1.6449 -1.8746 -0.0217
 2193SOL     OW18211   1.045   4.705   7.628 -0.4457 -0.1526  0.2275
 2193SOL    HW118212   1.076   4.671   7.713 -0.1297 -1.0655 -0.2551
 2193SOL    HW218213   1.042   0.060   7.651 -1.4146 -0.3851  1.0759
 2194SOL     OW18214   3.979   2.973   5.835  0.3578 -0.0016  0.6694
 2194SOL    HW118215   3.957   2.984   5.928 -1.0173  1.1083  0.2042
 2194SOL    HW218216   4.022   3.056   5.814  0.3207 -0.3616 -0.7656
 2195SOL     OW18217   2.540   0.179   8.603  0.3643  0.5941  0.8598
 2195SOL    HW118218   2.468   0.197   8.663 -0.3636  0.2147  0.0943
 2195SOL    HW218219   2.601   0.251   8.617  0.8217 -0.2031  3.1092
 2196SOL     OW18220   4.324   3.608   5.066  0.2461 -0.1160 -0.8118
 2196SOL    HW118221   4.300   3.682   5.010  0.4507  1.4677  1.1623
 2196SOL    HW218222   4.407   3.634   5.106  0.5584 -0.1054 -1.4718
 2197SOL     OW18223   4.227   0.257   5.763 -0.0601  0.3081  0.0918
 2197SOL    HW118224   4.138   0.222   5.761 -0.2650  0.9088 -1.0795
 2197SOL    HW218225   4.276   0.192   5.714 -0.3943  0.3907 -0.3477
 2198SOL     OW18226   1.776   1.056  10.496 -0.5162  0.3432 -0.5268
 2198SOL    HW118227   1.769   1.063  10.401  3.2610 -0.7406 -0.8857
 2198SOL    HW218228   1.747   0.965  10.493 -0.1606  0.1739  0.9896
 2199SOL     OW18229   2.722   4.266   4.153 -0.1445  0.2757 -0.1739
 2199SOL    HW118230   2.647   4.212   4.127 -0.6741  0.3253  1.2873
 2199SOL    HW218231   2.691   4.291   4.240  2.1147  3.3223 -0.2649
 2200SOL     OW18232   0.403   1.417   3.166  0.5867  0.5428  0.4442
 2200SOL    HW118233   0.314   1.442   3.190  0.6547  0.0439  1.2359
 2200SOL    HW218234   0.387   1.342   3.108 -1.3197 -0.2288  1.9409
 2201SOL     OW18235   0.175   4.205  17.611  0.0129  0.0985 -0.7577
 2201SOL    HW118236   0.094   4.229  17.566 -1.3204 -1.1308  0.9905
 2201SOL    HW218237   0.229   4.156  17.549 -0.0302 -2.2953  1.0519
 2202SOL     OW18238   4.003   0.445   2.641 -0.1728 -0.2954  0.1943
 2202SOL    HW118239   4.096   0.439   2.664 -0.3435 -2.7758  0.2817
 2202SOL    HW218240   3.971   0.493   2.718  0.5784 -0.2531  0.4793
 2203SOL     OW18241   3.766   1.685   0.734  0.2124 -0.2576  0.0925
 2203SOL    HW118242   3.728   1.655   0.651  1.0257  1.8057 -1.0184
 2203SOL    HW218243   3.682   1.671   0.778 -0.2023  0.9005 -0.3311
 2204SOL     OW18244   1.723   1.618  16.398 -0.0931  0.4603 -0.2457
 2204SOL    HW118245   1.710   1.701  16.352  2.6031  0.7088 -0.6151
 2204SOL    HW218246   1.702   1.641  16.488  0.3471 -0.2637  0.0435
 2205SOL     OW18247   4.730   0.586   3.910 -0.0174 -0.9928  0.5027
 2205SOL    HW118248   4.731   0.663   3.966  0.5115 -0.8125  0.2422
 2205SOL    HW218249   4.726   0.617   3.819  2.7496  0.1813  0.7795
 2206SOL     OW18250   2.584   0.783   3.636 -0.1929 -0.0622 -0.4411
 2206SOL    HW118251   2.600   0.702   3.683 -1.1312  1.3065  2.2040
 2206SOL    HW218252   2.555   0.840   3.707 -0.5225  0.7971 -1.2694
 2207SOL     OW18253   1.219   1.235   3.887  0.1370 -0.0552 -0.5954
 2207SOL    HW118254   1.176   1.320   3.901  2.2866  1.1068 -0.9822
 2207SOL    HW218255   1.301   1.262   3.929  0.4765 -1.4609 -0.3686
 2208SOL     OW18256   4.706   0.612   4.984  0.7001  0.5621  0.1853
 2208SOL    HW118257   4.634   0.626   4.922  0.8780 -2.1158 -0.6044
 2208SOL    HW218258   0.033   0.671   4.945 -0.2923  0.9618 -0.8676
 2209SOL     OW18259   2.453   0.955   2.400  0.3203 -0.6117  0.0745
 2209SOL    HW118260   2.495   0.877   2.365 -1.0808 -1.1255 -0.4452
 2209SOL    HW218261   2.367   0.942   2.361  0.5575  1.2590 -1.0419
 2210SOL     OW18262   2.934   2.979   3.036  0.7667 -0.1628  0.4382
 2210SOL    HW118263   3.015   2.983   3.086 -0.6533 -0.9660  2.8173
 2210SOL    HW218264   2.963   2.968   2.946 -0.3486  0.4566  0.0013
 2211SOL     OW18265   1.499   3.431  10.843  0.2485  0.4055 -0.0700
 2211SOL    HW118266   1.431   3.388  10.791  0.4130 -1.1019  0.9515
 2211SOL    HW218267   1.564   3.460  10.778 -0.3568  0.6913 -0.5479
 2212SOL     OW18268   2.675   3.754   1.506 -0.6647 -0.6876 -0.8496
 2212SOL    HW118269   2.620   3.689   1.462 -2.7115  0.1975  0.3555
 2212SOL    HW218270   2.634   3.743   1.592  0.1695 -1.6038 -0.5770
 2213SOL     OW18271   3.016   1.374   2.855 -0.0738 -0.2353  0.1725
 2213SOL    HW118272   2.946   1.366   2.920  1.3178 -1.6245  1.5059
 2213SOL    HW218273   2.979   1.333   2.777  0.7176 -0.8624  0.1280
 2214SOL     OW18274   1.466   3.617   5.724 -0.5786  0.4301  0.1355
 2214SOL    HW118275   1.541   3.585   5.774 -1.5692  2.5230  2.9182
 2214SOL    HW218276   1.498   3.597   5.636  1.2463 -0.6958  1.0429
 2215SOL     OW18277   2.303   2.475   6.338 -0.3422 -0.0673  0.1892
 2215SOL    HW118278   2.207   2.473   6.328 -0.3635  2.1082  0.0604
 2215SOL    HW218279   2.313   2.384   6.365  2.6093  0.2683  0.1687
 2216SOL     OW18280   1.583   3.315   5.397  0.0042  0.1437 -0.2856
 2216SOL    HW118281   1.657   3.263   5.427 -0.9692 -0.3712  1.2328
 2216SOL    HW218282   1.505   3.271   5.431  0.9074 -0.6179  0.8236
 2217SOL     OW18283   2.318   1.997  14.041 -0.0074  0.0694 -0.2758
 2217SOL    HW118284   2.291   2.016  13.951 -2.3518 -1.9315  0.0017
 2217SOL    HW218285   2.288   1.907  14.054  0.3076  0.1185  0.8386
 2218SOL     OW18286   0.186   2.175   7.015 -0.5207  0.0277  0.1089
 2218SOL    HW118287   0.204   2.164   7.109  0.1213 -2.9477 -0.3648
 2218SOL    HW218288   0.108   2.231   7.018 -0.7333 -0.1321 -2.6417
 2219SOL     OW18289   1.200   0.687   0.668 -0.2354  0.0326 -0.9331
 2219SOL    HW118290   1.274   0.693   0.607  0.2759 -1.0642 -0.4323
 2219SOL    HW218291   1.237   0.694   0.756 -1.2507 -2.0415 -0.3317
 2220SOL     OW18292   0.049   0.900   9.017  0.7125  0.3557 -0.2729
 2220SOL    HW118293   0.019   0.991   9.012  0.4387  0.1051 -3.1233
 2220SOL    HW218294   0.132   0.904   8.968 -0.5278  0.7892 -2.3461
 2221SOL     OW18295   3.706   1.190  12.430 -0.5753  0.2910 -0.1767
 2221SOL    HW118296   3.717   1.099  12.403 -0.5576  0.0784  0.5368
 2221SOL    HW218297   3.732   1.235  12.350  1.0127  2.4490  1.5496
 2222SOL     OW18298   0.850   0.612   7.567 -0.6445  0.2219  0.2221
 2222SOL    HW118299   0.819   0.702   7.551  1.1907  0.8674  0.1995
 2222SOL    HW218300   0.885   0.627   7.655 -0.6122  0.1088  0.2276
 2223SOL     OW18301   1.482   1.989   6.753 -0.1180 -0.1192  0.2938
 2223SOL    HW118302   1.459   1.922   6.688  1.1406 -0.1925 -0.0780
 2223SOL    HW218303   1.431   1.962   6.829 -0.5863  1.4476  0.5411
 2224SOL     OW18304   1.578   2.620  15.443  0.0729 -0.6059 -0.4727
 2224SOL    HW118305   1.492   2.643  15.479  0.5952  0.2012  0.2661
 2224SOL    HW218306   1.564   2.651  15.354  0.8949  0.3393 -0.2788
 2225SOL     OW18307   3.404   2.572   6.477  0.0784 -0.0063 -0.6195
 2225SOL    HW118308   3.463   2.507   6.438  1.7058 -0.7491  3.1101
 2225SOL    HW218309   3.365   2.611   6.398 -2.3662 -0.8540  0.1917
 2226SOL     OW18310   3.331   4.661   9.851  0.2897  0.3225 -0.0726
 2226SOL    HW118311   3.412   4.711   9.844  0.2966  0.4423  0.8071
 2226SOL    HW218312   3.275   4.734   9.826 -0.0699  0.6272  1.6144
 2227SOL     OW18313   4.480   2.727   7.906  0.7021 -0.0607 -0.3417
 2227SOL    HW118314   4.472   2.691   7.995  1.2144 -1.2135 -0.7584
 2227SOL    HW218315   4.562   2.775   7.914  1.4016 -1.2102 -0.5782
 2228SOL     OW18316   0.280   3.294  17.230  0.1968  0.3061 -0.1976
 2228SOL    HW118317   0.284   3.294  17.135 -1.4617 -2.1690 -0.2662
 2228SOL    HW218318   0.311   3.384  17.239  0.5132 -0.0698  2.6642
 2229SOL     OW18319   0.234   2.683   5.972 -0.6531 -0.5702  0.2202
 2229SOL    HW118320   0.220   2.649   5.883  0.9999  1.1658 -0.6936
 2229SOL    HW218321   0.147   2.710   6.000 -0.1237 -1.3510  2.6625
 2230SOL     OW18322   2.916   2.138  16.219 -0.0949 -0.2121 -0.4176
 2230SOL    HW118323   2.867   2.148  16.300  0.2650  0.4555 -0.2848
 2230SOL    HW218324   2.922   2.042  16.218  1.6352 -0.0907 -1.8412
 2231SOL     OW18325   4.401   1.174   0.798 -0.5286  0.3239 -0.5201
 2231SOL    HW118326   4.371   1.234   0.729 -1.4456  1.6414  1.0220
 2231SOL    HW218327   4.463   1.231   0.843 -1.8462  1.2015  0.1689
 2232SOL     OW18328   3.233   0.982  12.635  0.5481  0.5018  0.2394
 2232SOL    HW118329   3.140   0.991  12.611  0.9074  0.2244 -1.2328
 2232SOL    HW218330   3.230   0.889  12.660 -0.0819  0.4925  0.1342
 2233SOL     OW18331   3.482   4.364   5.746  0.0424  0.0917  0.2839
 2233SOL    HW118332   3.443   4.447   5.775  1.8554  0.8791  0.4500
 2233SOL    HW218333   3.406   4.308   5.733 -0.4793  0.6897  0.7228
 2234SOL     OW18334   1.835   4.566   0.281 -0.4945  0.3960  0.0899
 2234SOL    HW118335   1.806   4.653   0.309  0.9236  0.7251  0.5360
 2234SOL    HW218336   1.754   4.514   0.277  0.0626 -0.3630 -1.3172
 2235SOL     OW18337   0.107   4.034  10.373  0.1441 -0.0382 -0.8476
 2235SOL    HW118338   0.180   4.067  10.322  1.6266 -0.8504  0.7532
 2235SOL    HW218339   0.150   3.986  10.443  1.5148  2.4499 -0.0053
 2236SOL     OW18340   0.942   1.873   5.455  0.1641  0.4657  0.0548
 2236SOL    HW118341   0.996   1.870   5.533 -0.2977 -1.3188  0.3097
 2236SOL    HW218342   1.016   1.884   5.394 -0.7251 -1.9146 -1.4534
 2237SOL     OW18343   4.495   0.314   3.511  0.6374 -0.7344  0.1600
 2237SOL    HW118344   4.585   0.284   3.509  0.1367 -2.1048 -1.1666
 2237SOL    HW218345   4.486   0.297   3.605 -0.2172  0.1415  0.2428
 2238SOL     OW18346   3.443   2.073   3.034  0.1632  0.7387 -0.2146
 2238SOL    HW118347   3.373   2.120   2.990 -1.6109  0.7324  2.6179
 2238SOL    HW218348   3.445   2.110   3.122  1.3953 -0.8994  0.4667
 2239SOL     OW18349   4.230   4.474   6.003  0.3116  0.0820 -0.0554
 2239SOL    HW118350   4.301   4.413   6.023  2.4032  2.4049 -0.4375
 2239SOL    HW218351   4.256   4.512   5.919  0.7003  0.9467  0.4579
 2240SOL     OW18352   0.038   3.408   3.508  0.1514  0.2306  0.2966
 2240SOL    HW118353   0.116   3.397   3.453  0.0698 -0.8358  0.3904
 2240SOL    HW218354   0.018   3.320   3.538  0.4930  0.4498  1.1493
 2241SOL     OW18355   1.032   3.799   3.347  0.2180 -0.5094  0.3938
 2241SOL    HW118356   0.957   3.743   3.327  0.3725  0.0288 -1.7401
 2241SOL    HW218357   1.074   3.731   3.399 -0.0812  0.1425  1.4982
 2242SOL     OW18358   1.400   2.683   7.005  0.1491  0.2271  0.6966
 2242SOL    HW118359   1.434   2.771   7.015  2.6251 -0.6471  0.0136
 2242SOL    HW218360   1.448   2.655   6.927  0.9213  0.2137  1.1797
 2243SOL     OW18361   0.160   3.994   5.017  0.3622 -0.3054 -0.0525
 2243SOL    HW118362   0.126   4.079   5.045  0.6209  0.5340 -2.3198
 2243SOL    HW218363   0.193   3.959   5.100  0.4301 -4.5418 -1.8824
 2244SOL     OW18364   2.508   4.011   0.488  0.0385  0.0013  0.1526
 2244SOL    HW118365   2.416   3.984   0.482 -0.1022  0.4179  0.4203
 2244SOL    HW218366   2.538   3.938   0.542  0.4752  0.4729  0.5561
 2245SOL     OW18367   1.087   1.327   3.015 -0.0286 -0.1735 -0.7267
 2245SOL    HW118368   1.173   1.357   3.045  0.9068 -1.9533 -1.6348
 2245SOL    HW218369   1.111   1.338   2.923  1.7029 -1.0014 -0.3653
 2246SOL     OW18370   4.701   2.826  14.344  0.2457 -0.3213  0.2235
 2246SOL    HW118371   4.698   2.896  14.279  1.2894 -0.9196 -0.4763
 2246SOL    HW218372   4.646   2.756  14.309  0.1580 -1.2900  2.3105
 2247SOL     OW18373   1.433   2.057   1.626 -0.5231 -0.3163 -0.6985
 2247SOL    HW118374   1.488   1.978   1.626 -0.0332  0.0240  1.4516
 2247SOL    HW218375   1.505   2.119   1.630 -0.8133  0.0775 -1.7032
 2248SOL     OW18376   2.828   4.029   4.052  0.6918  0.3374  0.1637
 2248SOL    HW118377   2.863   4.111   4.086  0.4853  0.7816 -0.7266
 2248SOL    HW218378   2.823   3.982   4.136 -1.2099 -0.7626 -0.5590
 2249SOL     OW18379   2.081   3.920   7.208  0.2743 -0.3995 -0.4201
 2249SOL    HW118380   2.034   3.984   7.155 -0.2060 -1.2543 -1.0373
 2249SOL    HW218381   2.126   3.872   7.139 -0.1211 -1.8422  0.3220
 2250SOL     OW18382   4.082   4.665   6.978 -0.6964  0.1414 -0.2303
 2250SOL    HW118383   4.164   4.649   6.931 -0.6104  1.7241 -0.6543
 2250SOL    HW218384   4.063   4.582   7.020  0.8425 -0.5696 -0.9200
 2251SOL     OW18385   3.575   0.531   0.005  0.5678 -0.2846 -0.1649
 2251SOL    HW118386   3.643   0.472   0.037  1.6957  0.3471 -1.4178
 2251SOL    HW218387   3.606   0.526  17.662 -1.7535 -0.8618 -0.9275
 2252SOL     OW18388   4.506   4.487   3.293 -0.0904 -0.3663  0.9048
 2252SOL    HW118389   4.540   4.408   3.250  1.1654  2.0430 -2.5343
 2252SOL    HW218390   4.553   4.489   3.376  0.4560  1.0642  0.5589
 2253SOL     OW18391   1.029   3.285   3.617 -0.3232 -0.2744  0.7448
 2253SOL    HW118392   1.012   3.379   3.626  1.3466  0.2707 -1.9417
 2253SOL    HW218393   1.100   3.280   3.680 -0.4180 -1.7215  0.7330
 2254SOL     OW18394   3.571   4.563   4.166 -0.1378  0.7636 -0.3049
 2254SOL    HW118395   3.592   4.634   4.226 -2.1081  2.3659 -1.4904
 2254SOL    HW218396   3.660   4.542   4.138 -0.1473 -0.1334  0.3843
 2255SOL     OW18397   3.569   3.123   4.187  0.2301 -0.5141  0.4307
 2255SOL    HW118398   3.518   3.049   4.155  0.1434 -0.2493 -0.0443
 2255SOL    HW218399   3.512   3.169   4.249  1.5061  0.2964  1.0118
 2256SOL     OW18400   4.252   3.735   8.836 -0.0206  0.2515 -0.2394
 2256SOL    HW118401   4.168   3.697   8.811 -0.2571  1.4207 -1.2310
 2256SOL    HW218402   4.303   3.672   8.887  1.5248  1.8367  0.1861
 2257SOL     OW18403   4.689   4.650   0.144  0.1506 -0.9161 -0.1231
 2257SOL    HW118404   4.598   4.629   0.165 -0.3147  1.7698  0.5060
 2257SOL    HW218405   4.735   4.568   0.164 -1.2417 -1.8870 -0.8374
 2258SOL     OW18406   3.599   1.611   6.263  0.2747 -0.3353 -0.0359
 2258SOL    HW118407   3.632   1.688   6.309 -2.0855  0.9228 -0.4232
 2258SOL    HW218408   3.508   1.615   6.291  0.6067 -0.3899  1.0386
 2259SOL     OW18409   2.608   4.732  16.340 -0.0288  0.6241 -0.3760
 2259SOL    HW118410   2.525   0.010  16.294  1.4418  0.7059 -3.0526
 2259SOL    HW218411   2.571   4.701  16.423 -0.2904  3.4105  0.5543
 2260SOL     OW18412   4.296   0.542  14.666 -0.0120 -0.4664  0.0067
 2260SOL    HW118413   4.380   0.498  14.670  0.0357 -0.3159  0.7942
 2260SOL    HW218414   4.258   0.481  14.603 -1.0354 -1.2744  1.3956
 2261SOL     OW18415   0.240   3.774   7.077 -0.3392 -0.2887  0.2417
 2261SOL    HW118416   0.268   3.862   7.055 -0.4659 -0.0621  1.0004
 2261SOL    HW218417   0.166   3.766   7.017  0.1918  0.4551 -0.5002
 2262SOL     OW18418   4.115   2.866   2.659 -0.2816 -0.5501 -0.1000
 2262SOL    HW118419   4.156   2.897   2.740  0.7968  1.7476 -1.5187
 2262SOL    HW218420   4.032   2.914   2.658 -0.4074 -0.7767 -1.4154
 2263SOL     OW18421   1.989   0.691   3.645  0.2885 -0.1518 -0.1499
 2263SOL    HW118422   2.041   0.680   3.565 -0.8335  1.0824 -1.0387
 2263SOL    HW218423   1.911   0.736   3.612 -0.6397 -1.6194  0.0350
 2264SOL     OW18424   2.392   2.905   8.769  0.0535 -0.1066 -0.5036
 2264SOL    HW118425   2.333   2.860   8.829 -0.1881  2.9579  1.5401
 2264SOL    HW218426   2.347   2.989   8.762  0.7662  0.5186  2.1370
 2265SOL     OW18427   2.299   0.081   5.777 -0.1126 -0.2865  0.2361
 2265SOL    HW118428   2.271   0.061   5.866 -1.6117  1.1757  0.0840
 2265SOL    HW218429   2.355   0.003   5.767 -1.5631 -1.4561  1.2094
 2266SOL     OW18430   3.666   4.660  16.528  0.0905  0.3359 -0.4498
 2266SOL    HW118431   3.715   0.004  16.535 -3.0950  2.2352 -0.4720
 2266SOL    HW218432   3.577   4.688  16.551  0.3996  0.3327  0.7558
 2267SOL     OW18433   0.068   2.522   0.630  0.7847 -0.0268  0.4897
 2267SOL    HW118434   0.064   2.552   0.721  0.0213 -0.0454  0.4606
 2267SOL    HW218435   4.714   2.531   0.605  0.7635  1.9904  1.2798
 2268SOL     OW18436   0.309   4.637   3.030 -0.3200 -0.2949  0.1682
 2268SOL    HW118437   0.392   4.604   2.997  0.5455  0.3020  1.7118
 2268SOL    HW218438   0.279   4.685   2.953 -0.6771  1.9956  1.7407
 2269SOL     OW18439   2.727   2.859   5.005 -0.1128  0.4858 -0.1619
 2269SOL    HW118440   2.768   2.816   4.929  0.5201 -0.2865  0.6133
 2269SOL    HW218441   2.692   2.788   5.058  1.6141 -0.0268  0.3159
 2270SOL     OW18442   3.554   1.615   7.981  0.2000 -0.8918  0.1858
 2270SOL    HW118443   3.470   1.651   8.010 -1.6346 -2.9091 -2.5469
 2270SOL    HW218444   3.606   1.676   8.034 -0.2142 -1.6871  1.5170
 2271SOL     OW18445   3.876   3.189   0.366 -0.9138 -0.3588 -0.6385
 2271SOL    HW118446   3.910   3.217   0.451 -1.4691 -1.9241  0.1094
 2271SOL    HW218447   3.781   3.199   0.374 -0.8435 -1.6969  1.8961
 2272SOL     OW18448   2.175   3.594   7.772 -0.3894  0.2137 -0.0578
 2272SOL    HW118449   2.109   3.583   7.841  0.7004 -2.9585  0.4568
 2272SOL    HW218450   2.137   3.543   7.701 -1.6975  1.0297  0.0608
 2273SOL     OW18451   4.655   3.304   5.209  0.4586  0.2646  0.1951
 2273SOL    HW118452   4.718   3.232   5.212  1.0227  0.7546  0.2314
 2273SOL    HW218453   4.627   3.294   5.299 -0.0681  0.4335  0.0508
 2274SOL     OW18454   2.723   3.806   3.765 -0.4065  0.2884  0.3163
 2274SOL    HW118455   2.778   3.883   3.774  1.4601 -0.9582 -0.3196
 2274SOL    HW218456   2.632   3.837   3.770 -0.0629  1.4322 -0.4870
 2275SOL     OW18457   2.975   2.287   6.054  0.0189 -0.2567  0.2692
 2275SOL    HW118458   2.882   2.266   6.051  0.3635 -1.7247  0.1019
 2275SOL    HW218459   2.979   2.317   6.145 -1.1616  0.7848 -0.0213
 2276SOL     OW18460   3.972   2.275   8.513  0.0860  0.8439 -0.0268
 2276SOL    HW118461   4.016   2.313   8.437  0.1948 -1.2556 -1.0267
 2276SOL    HW218462   3.914   2.348   8.535  1.2724  1.5551  0.6849
 2277SOL     OW18463   3.128   0.712   3.253  0.2882 -0.2603  0.3996
 2277SOL    HW118464   3.198   0.652   3.277 -1.1770 -2.2997 -0.4152
 2277SOL    HW218465   3.049   0.659   3.245  1.0847 -1.1248 -1.7614
 2278SOL     OW18466   1.160   0.311   3.796  0.2187 -0.1795 -0.5386
 2278SOL    HW118467   1.211   0.349   3.867  2.1699 -3.6265 -0.1288
 2278SOL    HW218468   1.098   0.382   3.778  3.4682  2.3616 -1.7194
 2279SOL     OW18469   1.414   4.532   3.110 -0.2175 -0.4873  0.6632
 2279SOL    HW118470   1.481   4.467   3.089 -0.9807 -0.0221 -3.1497
 2279SOL    HW218471   1.465   4.611   3.097 -1.9594  0.7675  1.4017
 2280SOL     OW18472   4.676   4.145   3.421  0.5539  0.1013  0.3203
 2280SOL    HW118473   4.646   4.061   3.454 -0.8031  0.2252 -0.6011
 2280SOL    HW218474   4.619   4.150   3.344  2.0366 -1.4315 -0.8826
 2281SOL     OW18475   3.072   1.055   8.042  0.5263 -0.1513 -0.4854
 2281SOL    HW118476   3.082   0.966   8.075 -0.7850  0.4830  1.5998
 2281SOL    HW218477   3.054   1.111   8.117 -0.2254  2.4771 -2.6228
 2282SOL     OW18478   3.255   3.536   2.851 -0.8801  0.1222  0.1309
 2282SOL    HW118479   3.227   3.518   2.761  1.8188 -3.6659  0.0420
 2282SOL    HW218480   3.252   3.447   2.884  0.4958  0.8417  2.1982
 2283SOL     OW18481   1.074   3.085   2.557  0.1150  0.3928 -0.0818
 2283SOL    HW118482   1.051   3.022   2.488 -1.2998 -1.2405  1.8569
 2283SOL    HW218483   0.989   3.089   2.602 -0.6595 -0.4735 -1.4442
 2284SOL     OW18484   0.761   3.757   3.556  0.1387 -0.3151 -0.0833
 2284SOL    HW118485   0.711   3.688   3.599 -0.7695 -0.2774 -1.0722
 2284SOL    HW218486   0.721   3.761   3.469 -0.5135 -2.4908  0.1311
 2285SOL     OW18487   2.003   1.286   4.966 -0.1577  0.0638  0.0438
 2285SOL    HW118488   2.012   1.371   5.009  0.3161  0.5771 -1.0802
 2285SOL    HW218489   2.031   1.312   4.879 -0.6080  1.5976  0.3562
 2286SOL     OW18490   3.914   1.226   6.897 -0.1975  0.6215  0.4206
 2286SOL    HW118491   3.841   1.164   6.893 -0.0978  0.3476  2.5121
 2286SOL    HW218492   3.886   1.287   6.829  0.1285  0.8627  0.5011
 2287SOL     OW18493   2.167   1.732   7.041 -0.6256 -0.5207  0.5425
 2287SOL    HW118494   2.224   1.760   6.969  0.5039 -3.5379  0.2276
 2287SOL    HW218495   2.169   1.638   7.023 -0.8135 -0.9155  2.5995
 2288SOL     OW18496   1.928   1.566  12.315 -0.1463 -0.2720  0.0805
 2288SOL    HW118497   1.905   1.659  12.310 -0.0150 -0.3399 -1.8129
 2288SOL    HW218498   1.861   1.541  12.379  0.2210 -1.8047 -0.1291
 2289SOL     OW18499   2.080   4.420   7.910 -0.2947  0.0495  0.4460
 2289SOL    HW118500   2.174   4.424   7.892 -0.0932  0.2788  1.5692
 2289SOL    HW218501   2.053   4.414   7.818 -1.3514  0.9497  0.6811
 2290SOL     OW18502   0.930   3.009   5.664 -0.4003  0.2570 -0.7374
 2290SOL    HW118503   0.941   2.981   5.754 -1.9003 -0.7501 -0.8639
 2290SOL    HW218504   0.838   2.982   5.659  0.3764 -2.2696 -1.1813
 2291SOL     OW18505   1.537   3.840   4.184  0.5896  0.7809  0.6640
 2291SOL    HW118506   1.531   3.918   4.240  0.6100  2.7073 -2.0193
 2291SOL    HW218507   1.595   3.873   4.116  1.2649  0.0348  0.8848
 2292SOL     OW18508   1.510   0.029   9.872  0.2966 -0.3010  0.7761
 2292SOL    HW118509   1.578   0.077   9.824  0.0585  0.8753  1.6138
 2292SOL    HW218510   1.450   0.018   9.798  0.7379 -0.8112  0.4911
 2293SOL     OW18511   1.300   0.737   9.040 -0.2620 -0.1555 -0.7445
 2293SOL    HW118512   1.241   0.741   8.965 -0.3958  1.5591 -0.5427
 2293SOL    HW218513   1.268   0.661   9.089  1.5385  0.3437  1.2070
 2294SOL     OW18514   3.482   0.489   6.095  0.3463 -0.1326  0.4584
 2294SOL    HW118515   3.481   0.489   5.999  0.4212 -2.4687  0.4704
 2294SOL    HW218516   3.445   0.404   6.117 -0.2307  0.3373  1.3127
 2295SOL     OW18517   2.414   1.614   8.417 -0.1506  1.3864  0.0823
 2295SOL    HW118518   2.485   1.618   8.352  1.6329  0.6476  2.0016
 2295SOL    HW218519   2.428   1.535   8.468 -1.6339  0.5056 -0.8882
 2296SOL     OW18520   4.032   2.376   7.279 -0.2500 -0.0736  0.1084
 2296SOL    HW118521   4.019   2.409   7.368  0.6586 -0.9621  0.5674
 2296SOL    HW218522   4.011   2.459   7.236  2.8501  0.7462  0.1449
 2297SOL     OW18523   4.166   0.055  17.466  0.1250  0.3046 -0.0992
 2297SOL    HW118524   4.201   0.054  17.377  1.0073 -1.0613  0.2590
 2297SOL    HW218525   4.244   0.017  17.507 -0.4589 -1.5397 -0.6824
 2298SOL     OW18526   0.389   0.920   2.288 -0.0070  0.4569 -0.6783
 2298SOL    HW118527   0.464   0.979   2.300  0.6818 -0.1430 -1.9418
 2298SOL    HW218528   0.310   0.974   2.284 -0.7320 -0.5191  0.8281
 2299SOL     OW18529   2.506   0.244  17.666  0.0947  0.3537  0.0109
 2299SOL    HW118530   2.414   0.218  17.660  0.3783 -0.9174  0.9452
 2299SOL    HW218531   2.541   0.166  17.709  1.4812  0.4890 -0.8661
 2300SOL     OW18532   2.814   0.873   2.385  0.0802 -0.2138 -0.0414
 2300SOL    HW118533   2.727   0.837   2.369  0.4908 -0.5327 -1.5530
 2300SOL    HW218534   2.811   0.873   2.481  2.3835  1.6665  0.0237
 2301SOL     OW18535   4.568   0.834   4.463  0.9415  0.7862  0.0624
 2301SOL    HW118536   4.603   0.761   4.412  1.5126  1.6503 -0.7707
 2301SOL    HW218537   4.506   0.875   4.403  2.4007  0.4779 -1.6613
 2302SOL     OW18538   1.674   4.003   4.409  0.5586  0.2859  0.1857
 2302SOL    HW118539   1.644   4.084   4.451  0.3828  0.6744 -0.6997
 2302SOL    HW218540   1.769   4.015   4.407  0.2932  2.2696 -0.2365
 2303SOL     OW18541   4.050   4.297   5.889  0.2531  0.5662 -0.2181
 2303SOL    HW118542   3.972   4.352   5.901 -0.3856 -0.8118  2.0090
 2303SOL    HW218543   4.112   4.370   5.897  2.5561 -1.3283 -0.9876
 2304SOL     OW18544   1.905   3.918   8.011  0.1339 -0.1179 -0.1765
 2304SOL    HW118545   1.943   3.945   8.094  0.7969 -1.7222  0.0492
 2304SOL    HW218546   1.858   3.842   8.045 -2.2922  1.3067 -0.3462
 2305SOL     OW18547   0.587   3.660   8.317  0.7407 -0.1391  0.3272
 2305SOL    HW118548   0.658   3.708   8.273  0.7171  0.8039  1.3303
 2305SOL    HW218549   0.635   3.625   8.392  1.4577 -0.4712 -0.2788
 2306SOL     OW18550   4.385   2.706   9.818 -0.0427  0.0954  0.4626
 2306SOL    HW118551   4.311   2.752   9.857  0.2466  0.0224  1.0872
 2306SOL    HW218552   4.391   2.755   9.736  0.2712 -0.7222 -0.0057
 2307SOL     OW18553   3.980   1.917   4.643 -0.1471  0.0465 -0.2772
 2307SOL    HW118554   3.887   1.939   4.639 -0.6686 -2.0179  0.3072
 2307SOL    HW218555   3.973   1.835   4.693  1.2974  1.0850  1.6283
 2308SOL     OW18556   0.994   0.528   3.748  0.2170 -0.2596 -0.0674
 2308SOL    HW118557   0.909   0.538   3.792  0.7069 -1.3739  1.1292
 2308SOL    HW218558   0.980   0.596   3.682 -1.2074 -1.6896 -1.2373
 2309SOL     OW18559   0.230   2.837  11.880  0.4107  0.3748 -0.2383
 2309SOL    HW118560   0.230   2.885  11.797  0.1560  4.1852  1.9565
 2309SOL    HW218561   0.226   2.907  11.945  1.3940 -2.1283  2.5334
 2310SOL     OW18562   3.796   0.915  12.357  0.8559  0.0504  0.2395
 2310SOL    HW118563   3.829   0.825  12.360  1.4123  0.2776  0.9087
 2310SOL    HW218564   3.803   0.923  12.262  1.6177 -1.1435  0.1993
 2311SOL     OW18565   1.182   2.396   3.585 -0.5532  0.1726 -0.2160
 2311SOL    HW118566   1.189   2.325   3.521 -0.8712  0.0052 -0.0675
 2311SOL    HW218567   1.276   2.398   3.603 -0.4539 -0.0116 -0.6976
 2312SOL     OW18568   4.386   0.637   6.445 -0.8060 -0.0034 -0.1554
 2312SOL    HW118569   4.348   0.601   6.365 -0.5329  0.8319 -0.6669
 2312SOL    HW218570   4.437   0.558   6.466  0.4942  0.9697  0.3691
 2313SOL     OW18571   4.525   0.595  10.375  0.0458 -0.0918 -0.3377
 2313SOL    HW118572   4.560   0.586  10.286 -1.4211  1.8314 -1.0936
 2313SOL    HW218573   4.549   0.682  10.406 -1.5697  0.6356 -1.1278
 2314SOL     OW18574   2.296   4.291   2.222  0.1088  0.1147  0.0043
 2314SOL    HW118575   2.206   4.323   2.226  0.9917  2.2695  2.7127
 2314SOL    HW218576   2.331   4.321   2.306  0.3736 -0.4929  0.1128
 2315SOL     OW18577   0.778   4.362   6.180  0.8916  0.1929 -0.4567
 2315SOL    HW118578   0.701   4.370   6.123 -0.8937 -0.2129  1.8823
 2315SOL    HW218579   0.739   4.391   6.262 -2.3950 -3.1458 -0.7949
 2316SOL     OW18580   1.779   0.528   5.258 -0.2241 -0.0448  0.1341
 2316SOL    HW118581   1.753   0.529   5.166  2.0838  2.2599 -0.4703
 2316SOL    HW218582   1.716   0.597   5.278 -0.9698 -0.6526 -0.1040
 2317SOL     OW18583   4.427   0.744   1.956 -0.5126 -0.2020  0.6318
 2317SOL    HW118584   4.453   0.652   1.969 -0.6694 -0.5765 -1.7766
 2317SOL    HW218585   4.479   0.793   2.020  0.4055  1.1406 -1.1477
 2318SOL     OW18586   4.309   0.108   3.532 -0.3061  0.3191  0.6819
 2318SOL    HW118587   4.279   0.070   3.450  1.2870  0.4570  0.0432
 2318SOL    HW218588   4.365   0.180   3.505  0.6589 -0.2068  1.2483
 2319SOL     OW18589   1.297   1.535   4.912  0.8898 -0.3181  0.2994
 2319SOL    HW118590   1.311   1.614   4.859 -0.2097 -1.3094 -1.4950
 2319SOL    HW218591   1.205   1.520   4.892  1.1237 -1.6126  0.2033
 2320SOL     OW18592   1.322   3.581  16.814  0.5881 -0.4355  0.4351
 2320SOL    HW118593   1.385   3.602  16.745  0.6287 -1.8632  0.0393
 2320SOL    HW218594   1.267   3.658  16.825  0.7932 -0.2380  0.0829
 2321SOL     OW18595   0.310   3.509   0.329 -0.3296 -0.1734 -0.4275
 2321SOL    HW118596   0.343   3.461   0.405  0.7496 -0.0331 -0.8062
 2321SOL    HW218597   0.242   3.446   0.306  0.9798 -2.1548  1.1685
 2322SOL     OW18598   1.454   4.173  14.474 -0.1506 -0.0921  0.0047
 2322SOL    HW118599   1.463   4.268  14.469 -0.1061 -0.0856  0.2312
 2322SOL    HW218600   1.458   4.157  14.568  0.9576 -1.8879 -0.3585
 2323SOL     OW18601   3.127   3.067   5.097 -0.1268  0.1130 -0.1795
 2323SOL    HW118602   3.167   3.084   5.182 -0.7308  0.4586  0.0360
 2323SOL    HW218603   3.034   3.061   5.120  0.7581 -3.8203  2.4648
 2324SOL     OW18604   3.910   0.711  15.827  0.4570  0.5352  0.6621
 2324SOL    HW118605   3.894   0.751  15.912  0.5744  0.9569  0.4837
 2324SOL    HW218606   3.833   0.736  15.776  0.4524 -1.3725 -0.2826
 2325SOL     OW18607   3.019   3.540   4.846  0.4509  0.2732 -0.2863
 2325SOL    HW118608   3.063   3.584   4.919  1.2536 -0.2596 -0.4521
 2325SOL    HW218609   3.084   3.537   4.776  0.9086  0.4023  0.1266
 2326SOL     OW18610   2.454   1.797   6.161 -0.3409 -0.4875 -0.2729
 2326SOL    HW118611   2.365   1.828   6.178  0.1678  1.6010 -1.3988
 2326SOL    HW218612   2.435   1.707   6.139  1.4251 -0.8968 -0.1644
 2327SOL     OW18613   0.009   3.320  11.100 -0.1397 -0.4946 -0.5374
 2327SOL    HW118614   4.669   3.313  11.045  0.7499  0.9435 -1.9728
 2327SOL    HW218615   0.009   3.238  11.149 -0.8978 -1.1203 -1.5924
 2328SOL     OW18616   3.199   2.232   9.394 -0.4127  0.4156  0.0432
 2328SOL    HW118617   3.160   2.153   9.430 -0.0747 -0.8607 -2.3980
 2328SOL    HW218618   3.192   2.217   9.300 -0.9098 -1.2359  0.3410
 2329SOL     OW18619   3.620   1.518   5.122  0.3680 -0.0099 -0.3243
 2329SOL    HW118620   3.567   1.529   5.043 -2.4050 -3.6030  1.0461
 2329SOL    HW218621   3.558   1.532   5.195  1.4693  0.7194  0.4745
 2330SOL     OW18622   4.094   4.220  12.522 -0.5892 -0.3895  0.1986
 2330SOL    HW118623   4.170   4.217  12.464  0.6396  0.0567  1.7819
 2330SOL    HW218624   4.036   4.160  12.476 -0.3334  0.4680 -1.2419
 2331SOL     OW18625   0.630   3.596  11.659  0.2670 -0.7538 -0.1070
 2331SOL    HW118626   0.583   3.595  11.575  0.2564 -2.7586 -0.0910
 2331SOL    HW218627   0.568   3.637  11.719 -0.1385 -1.4171 -0.0666
 2332SOL     OW18628   1.051   2.744   9.144 -0.1477 -0.3165  0.2510
 2332SOL    HW118629   1.088   2.820   9.099  1.2617 -2.0481 -1.5061
 2332SOL    HW218630   0.975   2.787   9.185 -1.2241 -1.7061 -0.3122
 2333SOL     OW18631   4.211   4.431   6.456 -0.4005  0.4503  0.5830
 2333SOL    HW118632   4.161   4.354   6.485  1.1877  0.1045  2.4222
 2333SOL    HW218633   4.182   4.443   6.366  3.1705 -1.9977 -0.8537
 2334SOL     OW18634   3.984   1.068  10.130 -0.1556 -0.3293 -0.8565
 2334SOL    HW118635   3.963   1.102  10.217 -0.4238 -0.2770 -0.9443
 2334SOL    HW218636   3.964   1.138  10.068 -1.1844  1.9106  1.9954
 2335SOL     OW18637   1.153   3.834   5.961  0.1833 -0.4047  0.0982
 2335SOL    HW118638   1.117   3.751   5.992 -1.3447 -0.9695 -3.1924
 2335SOL    HW218639   1.236   3.831   6.008  0.7895 -1.0136 -1.0242
 2336SOL     OW18640   2.272   0.706   5.506 -0.7064 -0.4096  0.1618
 2336SOL    HW118641   2.205   0.721   5.572  1.6008  0.4628  2.3240
 2336SOL    HW218642   2.233   0.636   5.454  0.3809 -0.1460 -1.0142
 2337SOL     OW18643   3.882   1.202   2.343 -0.2620  0.3054  0.3028
 2337SOL    HW118644   3.925   1.117   2.341  0.4116  0.6685 -0.9539
 2337SOL    HW218645   3.899   1.234   2.431  3.0812  0.1054 -0.2703
 2338SOL     OW18646   3.429   2.846   9.218 -0.2159 -0.0997 -0.0697
 2338SOL    HW118647   3.432   2.816   9.127  0.9983  2.2635 -0.8067
 2338SOL    HW218648   3.517   2.812   9.232  0.5551  1.5557 -0.9439
 2339SOL     OW18649   3.315   4.615   6.309  0.2364 -0.4167 -0.0147
 2339SOL    HW118650   3.232   4.568   6.298  1.2269 -1.8570 -1.2801
 2339SOL    HW218651   3.283   4.703   6.330 -0.0188 -0.2289 -1.1757
 2340SOL     OW18652   3.493   4.037   2.547 -0.3940 -0.2782  0.1339
 2340SOL    HW118653   3.558   4.107   2.542 -1.3483  0.6687  0.6719
 2340SOL    HW218654   3.553   3.966   2.526  0.6251  0.0132  2.0156
 2341SOL     OW18655   3.509   3.921   1.461 -0.3338 -0.1841 -0.1702
 2341SOL    HW118656   3.570   3.989   1.431  0.2448 -0.7324 -0.2276
 2341SOL    HW218657   3.435   3.973   1.492 -0.0662  0.5169 -0.7066
 2342SOL     OW18658   0.180   1.410  10.052 -0.0385 -0.1623 -0.4098
 2342SOL    HW118659   0.125   1.431   9.976 -0.9714 -0.5372  0.1622
 2342SOL    HW218660   0.162   1.318  10.068  2.1568 -0.6322 -0.7162
 2343SOL     OW18661   3.826   0.943   7.643  0.3728  0.7048  0.1236
 2343SOL    HW118662   3.822   0.847   7.642  1.8867  0.6580 -0.6683
 2343SOL    HW218663   3.744   0.966   7.599  0.8443  1.2594 -0.4531
 2344SOL     OW18664   0.808   2.138   7.488  0.6586  0.5197 -0.2123
 2344SOL    HW118665   0.787   2.075   7.419 -1.9350  2.1914 -0.9265
 2344SOL    HW218666   0.900   2.155   7.467  0.2015 -0.2491 -2.7785
 2345SOL     OW18667   1.102   0.669   1.779 -0.1586 -0.0283  0.1751
 2345SOL    HW118668   1.014   0.646   1.809 -0.6261  2.6385  0.9109
 2345SOL    HW218669   1.129   0.578   1.771 -0.9219 -0.1891 -0.5741
 2346SOL     OW18670   0.057   2.772   3.176 -0.4885 -0.0738 -0.4189
 2346SOL    HW118671   0.100   2.766   3.090 -2.6924 -1.0392 -1.4364
 2346SOL    HW218672   0.103   2.701   3.222 -0.2839  1.2209  1.3796
 2347SOL     OW18673   1.505   4.651   8.529 -0.7621 -0.0128 -0.3352
 2347SOL    HW118674   1.582   4.694   8.492 -0.9505  1.2520  0.7404
 2347SOL    HW218675   1.488   4.717   8.596 -0.7935  0.1135 -0.4679
 2348SOL     OW18676   2.341   4.133   7.051  0.1976  0.3137 -0.0252
 2348SOL    HW118677   2.376   4.045   7.061  0.8699  0.9442  3.0874
 2348SOL    HW218678   2.336   4.147   6.956  0.0978 -0.5768 -0.1464
 2349SOL     OW18679   3.910   0.268   5.548  0.1397 -0.0781  0.1596
 2349SOL    HW118680   3.902   0.194   5.486  2.2492  2.1381 -2.7818
 2349SOL    HW218681   3.887   0.344   5.494  0.7782  0.5006  0.7080
 2350SOL     OW18682   0.965   1.910  13.707  0.1090 -0.0991 -0.2120
 2350SOL    HW118683   0.907   1.928  13.633 -0.0388 -0.8446 -0.2774
 2350SOL    HW218684   0.904   1.879  13.774  1.8078 -1.7807  0.5442
 2351SOL     OW18685   0.143   4.068   8.837  0.0422  0.1212 -0.6499
 2351SOL    HW118686   0.097   4.108   8.763  1.9238  0.4587 -1.6571
 2351SOL    HW218687   0.068   4.032   8.883  2.1715 -2.8420  0.4426
 2352SOL     OW18688   2.823   2.764  10.516  0.1375 -0.0050 -0.6196
 2352SOL    HW118689   2.772   2.714  10.453 -0.0524 -3.1533  2.0533
 2352SOL    HW218690   2.761   2.833  10.540  0.0806  0.0987 -1.0793
 2353SOL     OW18691   2.021   0.374   8.516  0.1088 -0.6020 -0.0679
 2353SOL    HW118692   2.089   0.309   8.536 -0.5835 -0.6888  1.9408
 2353SOL    HW218693   2.063   0.399   8.433 -0.5964 -0.6314 -0.4346
 2354SOL     OW18694   0.761   0.955   2.952  0.0394 -0.5004 -0.0509
 2354SOL    HW118695   0.853   0.978   2.941 -0.3235 -0.3809 -2.8124
 2354SOL    HW218696   0.743   0.928   3.042 -1.4371  0.0357 -0.1773
 2355SOL     OW18697   3.648   1.907  14.885 -0.5393 -0.1444  0.0981
 2355SOL    HW118698   3.562   1.867  14.880  0.6369 -2.5969 -0.1773
 2355SOL    HW218699   3.705   1.838  14.851  0.2950  2.0460 -2.9298
 2356SOL     OW18700   2.331   2.226   9.010  0.3357 -0.2135 -0.0818
 2356SOL    HW118701   2.391   2.213   8.936 -1.6176 -0.5494 -1.5902
 2356SOL    HW218702   2.393   2.247   9.081  0.6135 -0.3205 -0.2923
 2357SOL     OW18703   4.180   4.124   9.372 -0.3589 -0.2932  0.6187
 2357SOL    HW118704   4.247   4.114   9.304 -0.0919  2.8191  0.4236
 2357SOL    HW218705   4.165   4.033   9.399  0.4458 -0.7460 -0.4624
 2358SOL     OW18706   0.522   2.179  10.253 -0.7995 -0.2394  0.2619
 2358SOL    HW118707   0.528   2.193  10.348 -0.6728 -1.8352  0.4809
 2358SOL    HW218708   0.616   2.167  10.240 -0.7187 -1.5050  1.9226
 2359SOL     OW18709   4.480   0.487   3.299 -0.0112 -0.2237 -0.1640
 2359SOL    HW118710   4.465   0.428   3.372  0.6898 -0.3459 -0.1245
 2359SOL    HW218711   4.498   0.421   3.231  0.1074 -0.2597 -0.0971
 2360SOL     OW18712   2.634   0.886   6.115 -0.3732 -0.0542 -0.1428
 2360SOL    HW118713   2.730   0.888   6.114 -0.3176 -2.5386  0.2579
 2360SOL    HW218714   2.617   0.887   6.021 -1.7178 -1.7842  0.0647
 2361SOL     OW18715   4.379   1.061   9.928 -0.3335 -1.0492  0.2740
 2361SOL    HW118716   4.346   1.019  10.007 -0.3591 -0.6336  0.4820
 2361SOL    HW218717   4.304   1.101   9.884 -1.1990 -2.4023  0.5405
 2362SOL     OW18718   2.474   1.614   7.812 -0.0129  0.2256 -0.1336
 2362SOL    HW118719   2.453   1.677   7.744  0.5161  1.9723  1.3102
 2362SOL    HW218720   2.417   1.545   7.779 -1.4195  0.7497  1.1755
 2363SOL     OW18721   1.561   3.403   7.190  0.6511 -0.2257  0.5141
 2363SOL    HW118722   1.537   3.480   7.139  0.2358 -0.1116  0.8868
 2363SOL    HW218723   1.581   3.345   7.116  0.0205 -0.6042  0.6423
 2364SOL     OW18724   2.022   1.892  11.837 -0.6331 -0.9664 -0.3659
 2364SOL    HW118725   2.032   1.951  11.762  0.2070  0.1488  0.6189
 2364SOL    HW218726   2.074   1.940  11.901 -2.3620  0.5499 -0.0933
 2365SOL     OW18727   3.011   4.186   8.325  0.0617  0.2088  0.7763
 2365SOL    HW118728   2.967   4.159   8.405  0.4452  2.1939  1.6423
 2365SOL    HW218729   3.071   4.245   8.370 -1.9191  3.0310 -0.3495
 2366SOL     OW18730   3.315   2.304   6.719 -0.3366 -0.7873 -0.5376
 2366SOL    HW118731   3.325   2.239   6.789  2.2224  0.5751  0.3488
 2366SOL    HW218732   3.362   2.379   6.754 -0.9689 -0.4170 -0.4870
 2367SOL     OW18733   2.482   2.096   3.804  1.1233 -0.2082  0.0161
 2367SOL    HW118734   2.546   2.155   3.844  0.4267  1.2651 -1.0293
 2367SOL    HW218735   2.521   2.085   3.717 -2.6265  0.1871 -1.7308
 2368SOL     OW18736   0.010   2.811   4.758 -0.6202 -0.8991 -0.2173
 2368SOL    HW118737   0.058   2.891   4.781 -1.4522 -0.2807 -0.6197
 2368SOL    HW218738   4.656   2.839   4.748 -0.4952 -0.4334 -0.0455
 2369SOL     OW18739   2.343   2.437   9.344 -0.1459 -0.5378  0.0662
 2369SOL    HW118740   2.439   2.430   9.341 -0.2631 -1.8586 -0.5728
 2369SOL    HW218741   2.343   2.526   9.379  0.8692  0.1409 -1.6932
 2370SOL     OW18742   1.311   4.700   6.560 -0.2904 -0.2039 -0.4067
 2370SOL    HW118743   1.266   4.632   6.510 -1.2440 -0.3069  0.5898
 2370SOL    HW218744   1.286   4.692   6.652 -0.1883  1.2104 -0.2483
 2371SOL     OW18745   0.169   3.234   6.488 -0.0803 -0.4105  0.3684
 2371SOL    HW118746   0.130   3.147   6.490  3.2199 -1.8447  2.2522
 2371SOL    HW218747   0.164   3.270   6.576  2.2211  1.1502 -0.1364
 2372SOL     OW18748   1.764   2.336  17.362 -0.5462  0.0359  0.1916
 2372SOL    HW118749   1.854   2.352  17.334 -0.2603  2.7240  2.6980
 2372SOL    HW218750   1.734   2.300  17.278  1.6051  0.2022 -0.6296
 2373SOL     OW18751   4.015   1.635  14.172  0.1181 -0.2156  0.2094
 2373SOL    HW118752   3.986   1.634  14.263  0.1852 -1.6538  0.2192
 2373SOL    HW218753   4.044   1.545  14.154  1.3339  0.6932 -2.2672
 2374SOL     OW18754   3.304   0.163   6.372 -0.1797  0.0195 -0.2626
 2374SOL    HW118755   3.236   0.227   6.351  0.2927  0.4970 -0.3328
 2374SOL    HW218756   3.332   0.196   6.457  1.3696  1.2511 -1.2761
 2375SOL     OW18757   1.779   1.679   8.762  0.0527 -0.0117 -0.4011
 2375SOL    HW118758   1.746   1.590   8.778  0.3459 -0.3091 -1.4747
 2375SOL    HW218759   1.722   1.724   8.699  2.0400  1.2381 -1.2780
 2376SOL     OW18760   4.668   0.532   5.869 -0.3953  0.0949  0.0007
 2376SOL    HW118761   4.625   0.593   5.928  0.2568 -1.1523  1.7872
 2376SOL    HW218762   4.729   0.597   5.835 -0.4925  0.2257  0.0812
 2377SOL     OW18763   0.883   3.681   3.864 -0.1343 -0.0368  0.5593
 2377SOL    HW118764   0.855   3.633   3.942 -0.9790  0.6869  0.7032
 2377SOL    HW218765   0.909   3.764   3.904  0.9191 -0.7403  1.3473
 2378SOL     OW18766   2.894   4.360  16.027  0.2868  0.0398  0.0834
 2378SOL    HW118767   2.828   4.293  16.010 -0.8437  0.7985  1.5108
 2378SOL    HW218768   2.928   4.380  15.940  3.2657 -1.2295  0.9476
 2379SOL     OW18769   3.616   4.316   9.046  0.2395 -1.2626  0.1467
 2379SOL    HW118770   3.585   4.250   9.108  0.9957 -1.0556  0.7350
 2379SOL    HW218771   3.698   4.274   9.019  0.4988 -0.4835 -0.2621
 2380SOL     OW18772   3.760   3.482  15.139 -0.8804 -0.5179 -0.0654
 2380SOL    HW118773   3.758   3.422  15.213 -1.3916  0.7549  0.9398
 2380SOL    HW218774   3.702   3.548  15.177 -0.4130  0.4019 -0.9261
 2381SOL     OW18775   4.046   0.408   3.455 -0.6273 -0.2549  0.1908
 2381SOL    HW118776   4.052   0.471   3.382 -1.4553 -0.4062 -0.0064
 2381SOL    HW218777   4.078   0.457   3.531 -2.0317  0.2118  0.4671
 2382SOL     OW18778   3.164   0.921   6.814 -0.6056 -0.3632  0.3322
 2382SOL    HW118779   3.125   0.909   6.727  2.8007  0.3919 -1.3065
 2382SOL    HW218780   3.251   0.953   6.790 -0.2398 -0.4983  1.4814
 2383SOL     OW18781   2.732   1.966   1.016  0.3390  0.4808 -0.5900
 2383SOL    HW118782   2.826   1.982   1.006  0.5823 -2.2310 -2.4132
 2383SOL    HW218783   2.727   1.938   1.107  0.8079  0.2452 -0.6410
 2384SOL     OW18784   1.077   0.369  11.617 -0.3806 -0.4054  0.4353
 2384SOL    HW118785   1.142   0.305  11.646  0.8715  0.2906 -0.8414
 2384SOL    HW218786   0.999   0.329  11.655 -0.7995 -0.4003 -0.4179
 2385SOL     OW18787   1.168   4.321   3.746 -0.1157  0.3387  0.1486
 2385SOL    HW118788   1.081   4.333   3.708  0.9672  0.7024 -2.2320
 2385SOL    HW218789   1.196   4.234   3.718  1.0990  0.9788 -0.6177
 2386SOL     OW18790   1.518   4.548  10.678 -0.4209 -0.6512  0.3016
 2386SOL    HW118791   1.475   4.582  10.756  0.2871  0.3963  0.2458
 2386SOL    HW218792   1.569   4.623  10.647 -0.0063 -1.4826 -1.0188
 2387SOL     OW18793   3.026   3.523   7.871 -0.1258 -0.0187  0.4738
 2387SOL    HW118794   3.010   3.474   7.952  1.8896 -2.5761 -0.6628
 2387SOL    HW218795   2.938   3.558   7.858  0.4925  0.4547 -2.4680
 2388SOL     OW18796   2.395   0.441   7.661  0.2736 -0.5000 -0.6375
 2388SOL    HW118797   2.446   0.384   7.718  0.5940 -0.0616 -0.4791
 2388SOL    HW218798   2.369   0.388   7.586 -1.4631 -1.8237  0.9156
 2389SOL     OW18799   0.986   1.267  17.242  0.4015 -0.1882 -0.2374
 2389SOL    HW118800   0.899   1.302  17.227  0.1264  1.0771  4.1949
 2389SOL    HW218801   0.961   1.179  17.273  0.8739  0.5085  2.1582
 2390SOL     OW18802   1.746   3.622  11.321 -0.1415 -0.3239 -0.0278
 2390SOL    HW118803   1.816   3.685  11.306  0.3354 -0.9962 -0.5645
 2390SOL    HW218804   1.781   3.533  11.317  0.9786  0.2005 -1.6501
 2391SOL     OW18805   4.627   1.378   2.729 -0.4325 -0.0724  0.0691
 2391SOL    HW118806   4.690   1.387   2.800 -0.3646 -3.3665  0.4176
 2391SOL    HW218807   4.665   1.308   2.677 -0.7298  0.2145 -0.5376
 2392SOL     OW18808   0.278   2.043   9.882  0.5005 -0.0731 -0.1532
 2392SOL    HW118809   0.364   2.057   9.842 -0.4437  2.4516 -1.3013
 2392SOL    HW218810   0.246   2.132   9.867 -0.5070 -0.7073 -1.7791
 2393SOL     OW18811   1.476   3.710   8.503  0.1867 -0.1395  0.3952
 2393SOL    HW118812   1.559   3.701   8.458  0.3759  1.1120  0.4867
 2393SOL    HW218813   1.444   3.620   8.510  0.1867 -0.1733 -0.0317
 2394SOL     OW18814   0.409   4.236  16.072  0.0850 -0.1522  1.1789
 2394SOL    HW118815   0.454   4.309  16.032 -1.4975 -1.1275 -2.4472
 2394SOL    HW218816   0.428   4.239  16.166 -0.7452 -0.0403  1.3427
 2395SOL     OW18817   1.928   3.733   5.172 -0.0213  0.4198 -0.1335
 2395SOL    HW118818   2.019   3.719   5.200  0.2749 -0.0499 -1.3319
 2395SOL    HW218819   1.925   3.718   5.077 -1.2336  1.4411 -0.2608
 2396SOL     OW18820   3.515   0.256  10.182 -0.1922 -0.1696  0.7845
 2396SOL    HW118821   3.438   0.255  10.126  1.0217 -3.5683 -0.7922
 2396SOL    HW218822   3.528   0.350  10.169 -0.9458  0.4085  4.0408
 2397SOL     OW18823   2.832   3.530   8.774 -0.5011 -0.1657  0.4470
 2397SOL    HW118824   2.817   3.551   8.866 -0.7354 -0.5054  0.4880
 2397SOL    HW218825   2.893   3.602   8.758 -2.2474  1.2475  0.2560
 2398SOL     OW18826   0.739   2.557   7.299  0.3499  0.0253 -0.0406
 2398SOL    HW118827   0.768   2.483   7.244  0.2687 -0.6831  0.8746
 2398SOL    HW218828   0.763   2.636   7.251 -0.9232 -0.0312 -0.7495
 2399SOL     OW18829   2.736   1.186   8.235 -0.6872 -0.9222  0.0570
 2399SOL    HW118830   2.757   1.159   8.146  2.6411  2.3975 -0.1715
 2399SOL    HW218831   2.644   1.159   8.226 -2.0838  3.1313  1.7530
 2400SOL     OW18832   4.526   2.338  13.224 -0.1530 -0.1178  0.0275
 2400SOL    HW118833   4.513   2.418  13.174 -1.6168  0.5340  1.4161
 2400SOL    HW218834   4.443   2.290  13.224  0.3775 -1.0310 -1.6614
 2401SOL     OW18835   2.845   4.570  10.532  0.7637 -0.1322 -0.3074
 2401SOL    HW118836   2.843   4.474  10.527  0.8510 -0.1782  0.6983
 2401SOL    HW218837   2.937   4.588  10.550  0.7175  1.7494 -1.9128
 2402SOL     OW18838   0.616   3.321  10.243  0.0685  0.5012  0.9838
 2402SOL    HW118839   0.604   3.416  10.240 -0.5224  0.4670  2.5755
 2402SOL    HW218840   0.551   3.309  10.311  0.5382  0.6191  1.4533
 2403SOL     OW18841   3.555   0.653  12.743  0.0301  0.1178  0.1862
 2403SOL    HW118842   3.632   0.641  12.687  1.9825  1.3603  2.5884
 2403SOL    HW218843   3.557   0.569  12.789 -1.8897  0.2337  0.4643
 2404SOL     OW18844   2.403   0.449   6.428 -0.3628  0.0486  0.3625
 2404SOL    HW118845   2.417   0.436   6.334  1.2540  0.6151  0.5252
 2404SOL    HW218846   2.327   0.506   6.422  0.4822  1.1906  0.6078
 2405SOL     OW18847   1.255   3.965  10.220  0.4104 -0.1875  0.2120
 2405SOL    HW118848   1.322   3.960  10.152  0.4821  2.2288  0.1096
 2405SOL    HW218849   1.314   3.953  10.294  0.0137 -1.1266  0.3754
 2406SOL     OW18850   1.034   2.485   1.067 -0.6915 -0.1239 -0.9217
 2406SOL    HW118851   0.988   2.557   1.111 -2.1040 -1.5383 -0.0787
 2406SOL    HW218852   1.083   2.442   1.138 -1.5001 -1.7670 -1.3650
 2407SOL     OW18853   2.785   0.277   8.269 -0.3301  0.0915 -0.6437
 2407SOL    HW118854   2.824   0.190   8.265 -1.7005 -0.5770  0.4416
 2407SOL    HW218855   2.766   0.293   8.177 -0.7059 -3.7122 -1.2160
 2408SOL     OW18856   2.918   0.981   3.200  0.1203 -0.2218 -0.3555
 2408SOL    HW118857   2.965   0.944   3.126 -2.2891  1.0446 -2.5048
 2408SOL    HW218858   2.887   0.898   3.236  0.4525 -0.7619 -1.3069
 2409SOL     OW18859   2.688   3.488   6.561 -0.0564 -0.0678  0.4965
 2409SOL    HW118860   2.713   3.579   6.543  1.3358 -0.4539  0.4951
 2409SOL    HW218861   2.777   3.453   6.557  0.4205  1.2055 -0.1351
 2410SOL     OW18862   3.452   3.902  16.306  0.2390 -0.2031 -0.2378
 2410SOL    HW118863   3.368   3.931  16.269 -0.2207 -0.6595  0.4570
 2410SOL    HW218864   3.465   3.978  16.363  0.0574  1.4676 -2.3987
 2411SOL     OW18865   4.246   0.874   5.503  0.1435  0.4353  0.0833
 2411SOL    HW118866   4.161   0.836   5.481 -1.2109  2.3453  1.9781
 2411SOL    HW218867   4.205   0.937   5.562  0.6419 -0.1657  1.0652
 2412SOL     OW18868   1.229   0.880   8.032  0.5131  0.3080 -0.2848
 2412SOL    HW118869   1.164   0.937   8.072  2.2629  2.3879 -0.3946
 2412SOL    HW218870   1.293   0.855   8.099 -1.6670 -2.5314  0.7444
 2413SOL     OW18871   2.780   3.609   4.754  0.4022 -0.3179 -0.4670
 2413SOL    HW118872   2.847   3.595   4.821 -2.0031 -0.8803  1.8223
 2413SOL    HW218873   2.831   3.662   4.693 -0.7300  0.4740 -0.7196
 2414SOL     OW18874   3.448   1.990   9.046 -0.4167  0.4424 -0.1457
 2414SOL    HW118875   3.452   1.907   9.094 -1.2142 -0.2664 -1.3193
 2414SOL    HW218876   3.542   2.008   9.051 -0.4863  0.4102  1.4158
 2415SOL     OW18877   2.642   0.156   4.442  0.3556  0.2676 -0.6312
 2415SOL    HW118878   2.577   0.127   4.505  0.3150  2.2402  0.2543
 2415SOL    HW218879   2.701   0.198   4.505 -0.9129  0.8649  0.1566
 2416SOL     OW18880   2.582   2.096   3.557 -0.0663  0.4336 -0.4364
 2416SOL    HW118881   2.554   2.083   3.467 -0.7324 -0.3401 -0.1169
 2416SOL    HW218882   2.637   2.174   3.551  1.0823 -0.4914 -1.8710
 2417SOL     OW18883   2.939   0.194   3.573  0.2097 -0.4911 -0.4558
 2417SOL    HW118884   2.972   0.280   3.550  1.9808 -0.9811  0.2214
 2417SOL    HW218885   2.937   0.197   3.669 -1.0527  1.3701 -0.5402
 2418SOL     OW18886   4.062   3.096   5.375  0.8780 -0.1930 -0.1190
 2418SOL    HW118887   4.141   3.059   5.334  0.4385  0.1324 -1.2529
 2418SOL    HW218888   4.093   3.090   5.465  1.7884  0.7412 -0.3597
 2419SOL     OW18889   4.312   1.845   5.293  0.1602  0.0176  0.8365
 2419SOL    HW118890   4.341   1.764   5.250  0.8677  1.1673 -0.8207
 2419SOL    HW218891   4.396   1.888   5.303 -0.7846  2.2168 -0.9959
 2420SOL     OW18892   1.133   2.225   7.750  0.1907  0.3731 -0.0499
 2420SOL    HW118893   1.171   2.305   7.786 -0.2667  0.4134  0.3393
 2420SOL    HW218894   1.095   2.185   7.828  1.4845 -1.1222 -0.1952
 2421SOL     OW18895   2.459   1.114   1.664 -0.0051  0.5882 -0.0717
 2421SOL    HW118896   2.494   1.117   1.753  1.9803 -0.1590 -0.8127
 2421SOL    HW218897   2.518   1.174   1.618  1.6772  0.7473  2.2659
 2422SOL     OW18898   2.831   0.068   4.078  0.5799  0.6371 -0.3436
 2422SOL    HW118899   2.896   0.120   4.031 -1.4894  0.2367 -3.6419
 2422SOL    HW218900   2.805   0.123   4.151 -0.5411  0.7923 -0.8688
 2423SOL     OW18901   3.135   2.214   5.352 -0.1499  0.4151 -0.1507
 2423SOL    HW118902   3.138   2.135   5.299  0.8913  0.0231  0.5023
 2423SOL    HW218903   3.153   2.287   5.292  1.0121  0.7133  0.5638
 2424SOL     OW18904   1.214   4.515   4.453  0.3752 -0.2936  0.1666
 2424SOL    HW118905   1.134   4.511   4.505 -0.6335  1.1598 -1.3038
 2424SOL    HW218906   1.223   4.608   4.434  2.8387 -0.2824  1.3909
 2425SOL     OW18907   0.783   3.867  10.434  0.0142  0.2896 -0.1396
 2425SOL    HW118908   0.741   3.935  10.383  1.4330  0.4033 -1.1651
 2425SOL    HW218909   0.877   3.883  10.435  0.0711 -0.0824  0.8288
 2426SOL     OW18910   0.099   1.589   3.456  0.0046  0.0987  0.5256
 2426SOL    HW118911   0.189   1.619   3.475  0.6572  0.0288 -2.5630
 2426SOL    HW218912   0.124   1.505   3.416  0.1708  0.1871  0.4430
 2427SOL     OW18913   4.625   3.392  12.949 -0.0762 -0.9501  0.3953
 2427SOL    HW118914   4.689   3.383  12.878  1.1218  0.4705  1.2918
 2427SOL    HW218915   4.676   3.386  13.030 -1.5697  0.8368  1.4695
 2428SOL     OW18916   3.952   1.481   3.921  0.0920  0.1641  0.0141
 2428SOL    HW118917   3.943   1.478   3.826 -0.2782  1.2479  0.0073
 2428SOL    HW218918   3.939   1.394   3.959 -0.4846 -0.8623 -2.5508
 2429SOL     OW18919   3.847   3.091   4.851 -0.2010 -0.2294  0.6130
 2429SOL    HW118920   3.861   3.138   4.934 -0.9156  0.5451  0.2901
 2429SOL    HW218921   3.934   3.065   4.822 -0.2189 -1.0595  1.3015
 2430SOL     OW18922   2.862   4.047   8.544 -0.0933  0.2286 -0.1352
 2430SOL    HW118923   2.860   4.008   8.631 -0.8491  0.3588 -0.0945
 2430SOL    HW218924   2.901   3.989   8.479 -1.4575 -0.8062 -0.0194
 2431SOL     OW18925   3.571   0.921   8.448 -0.2781 -0.1521 -0.0467
 2431SOL    HW118926   3.506   0.973   8.496  0.8730  2.0728 -0.8626
 2431SOL    HW218927   3.536   0.836   8.474 -1.4604  0.4661  0.4038
 2432SOL     OW18928   4.450   1.216   6.136  0.2351  0.1429 -0.6042
 2432SOL    HW118929   4.410   1.246   6.055  0.0257  1.4624 -0.0069
 2432SOL    HW218930   4.462   1.304   6.170  0.8115 -1.1572  2.5790
 2433SOL     OW18931   2.256   2.141   3.923 -0.3643  0.0407 -0.2850
 2433SOL    HW118932   2.337   2.115   3.879 -0.5851 -1.0871 -0.0329
 2433SOL    HW218933   2.197   2.071   3.895  0.3708 -0.9417  0.6193
 2434SOL     OW18934   2.890   2.036   8.409 -0.4154 -0.3196  0.1922
 2434SOL    HW118935   2.905   2.125   8.442  1.0928 -0.7207  0.5917
 2434SOL    HW218936   2.975   2.030   8.366 -1.2361 -1.1139 -1.3357
 2435SOL     OW18937   4.254   4.209   4.099  0.4187 -0.1566 -0.1765
 2435SOL    HW118938   4.339   4.229   4.059  0.8538  1.0920  1.3890
 2435SOL    HW218939   4.232   4.132   4.046 -0.3806 -0.1010  0.0678
 2436SOL     OW18940   1.842   4.367  10.994 -0.2177  0.5508 -0.7877
 2436SOL    HW118941   1.802   4.342  11.078  1.1044 -1.0864 -0.6481
 2436SOL    HW218942   1.826   4.293  10.934 -0.1160  0.2660 -0.4656
 2437SOL     OW18943   0.488   3.408   6.923 -0.0635  0.3331  0.1463
 2437SOL    HW118944   0.516   3.455   6.844 -0.4571  0.3170 -0.0063
 2437SOL    HW218945   0.549   3.435   6.991  1.5744  0.3749 -1.3322
 2438SOL     OW18946   2.690   0.014   5.496 -0.0345 -0.1645  0.2183
 2438SOL    HW118947   2.729   4.670   5.464 -0.0770 -1.2226  2.8759
 2438SOL    HW218948   2.735   0.080   5.443  1.1392 -2.9717 -2.3316
 2439SOL     OW18949   1.194   0.308   9.497 -0.2565 -0.0570  0.3686
 2439SOL    HW118950   1.232   0.224   9.470 -0.8482 -0.6822  1.4933
 2439SOL    HW218951   1.269   0.351   9.539  0.5474  0.3557 -1.4976
 2440SOL     OW18952   2.259   3.575   6.613 -0.5548  0.3174 -0.6988
 2440SOL    HW118953   2.202   3.535   6.679  1.8806  0.3001  1.4230
 2440SOL    HW218954   2.284   3.658   6.653 -1.7414  1.4530 -2.3411
 2441SOL     OW18955   0.800   3.067   2.673  0.1267  0.1481 -0.0097
 2441SOL    HW118956   0.818   3.005   2.743  0.8446 -2.2582 -2.3603
 2441SOL    HW218957   0.769   3.142   2.724 -1.8622 -1.7112  1.4812
 2442SOL     OW18958   3.349   2.937   2.504  0.2522 -0.6585  0.2743
 2442SOL    HW118959   3.440   2.956   2.483  0.6208 -0.1744  2.2638
 2442SOL    HW218960   3.370   2.865   2.563 -0.0512 -1.2075 -0.2875
 2443SOL     OW18961   2.683   0.050   6.056  0.6570 -1.1185  0.1536
 2443SOL    HW118962   2.769   0.022   6.024 -1.1240 -4.7102 -1.4834
 2443SOL    HW218963   2.635   4.726   6.001  0.0657 -1.9655  1.6271
 2444SOL     OW18964   0.653   2.446   0.226  0.6871  0.0476  0.0608
 2444SOL    HW118965   0.610   2.528   0.249  0.2131 -0.8434  2.2989
 2444SOL    HW218966   0.638   2.439   0.131 -0.3394 -1.2720  0.3162
 2445SOL     OW18967   0.299   0.329  11.037  0.3676 -0.3793 -0.0721
 2445SOL    HW118968   0.326   0.376  10.958 -1.3555 -2.8529 -2.1395
 2445SOL    HW218969   0.206   0.317  11.017  0.5553 -0.5121 -0.8940
 2446SOL     OW18970   2.271   3.528  12.643  0.0954  1.0179 -0.2016
 2446SOL    HW118971   2.238   3.455  12.591  1.2615 -0.2467  0.8400
 2446SOL    HW218972   2.301   3.475  12.717  1.1965  0.6742 -0.9110
 2447SOL     OW18973   2.385   3.382   6.875 -0.5832 -0.0153  0.1680
 2447SOL    HW118974   2.418   3.339   6.954  1.4077  2.1065  0.4968
 2447SOL    HW218975   2.414   3.324   6.805  0.6526 -1.0726  1.5623
 2448SOL     OW18976   4.677   1.586  10.082 -0.5291 -0.0358  0.4348
 2448SOL    HW118977   4.710   1.497  10.063  0.9781  0.5978  0.0307
 2448SOL    HW218978   4.721   1.647  10.023  0.8347 -0.6439  0.8153
 2449SOL     OW18979   3.866   1.957   9.810 -0.0599  0.3070  0.1270
 2449SOL    HW118980   3.939   1.896   9.803  0.1488  0.7283 -1.3325
 2449SOL    HW218981   3.835   1.959   9.720 -2.0156 -1.7672  0.7495
 2450SOL     OW18982   4.611   3.550   6.338  0.4923  0.8159  0.2129
 2450SOL    HW118983   4.522   3.537   6.305 -0.0277  1.9105  1.1679
 2450SOL    HW218984   4.602   3.598   6.420  0.1842  2.3760 -0.7223
 2451SOL     OW18985   2.916   3.463  12.257 -0.1918 -0.4882 -0.1308
 2451SOL    HW118986   2.940   3.415  12.337  1.8966 -0.1614 -0.5562
 2451SOL    HW218987   2.945   3.551  12.283 -0.0543  0.0114 -2.0066
 2452SOL     OW18988   3.391   3.851   5.262 -0.1399 -0.0394 -0.1557
 2452SOL    HW118989   3.305   3.831   5.226  0.3046 -2.3475  0.0449
 2452SOL    HW218990   3.439   3.785   5.212  0.8599  2.0505 -1.9338
 2453SOL     OW18991   0.738   0.649   2.632 -0.1078  0.2329  0.1789
 2453SOL    HW118992   0.719   0.718   2.696 -0.9486 -0.1661  0.3661
 2453SOL    HW218993   0.660   0.598   2.655 -0.9449  2.2904  1.9127
 2454SOL     OW18994   0.549   0.693  10.520 -0.3995 -0.1203 -0.5067
 2454SOL    HW118995   0.543   0.612  10.572 -0.6926  0.1065 -0.1898
 2454SOL    HW218996   0.462   0.729  10.530  0.3553  1.0959  1.5386
 2455SOL     OW18997   0.475   1.803  10.855  0.1658  0.2843  0.3512
 2455SOL    HW118998   0.547   1.864  10.870  0.6817 -0.2816  0.1616
 2455SOL    HW218999   0.427   1.817  10.936 -3.9550  2.3181 -2.4156
 2456SOL     OW19000   3.587   1.327   4.172  0.1273  0.0028  0.2704
 2456SOL    HW119001   3.668   1.362   4.211 -0.1670  0.2354  0.6721
 2456SOL    HW219002   3.599   1.333   4.077 -0.0131 -2.8001  0.0846
 2457SOL     OW19003   1.897   2.198   9.394  0.7199  0.0492 -0.2059
 2457SOL    HW119004   1.844   2.125   9.360 -1.1456  0.3850  1.9872
 2457SOL    HW219005   1.830   2.264   9.375 -1.5249 -1.5620  2.0596
 2458SOL     OW19006   0.651   4.133   1.886  0.1323  0.1198 -0.6896
 2458SOL    HW119007   0.603   4.106   1.964 -2.1555  0.7365 -1.8808
 2458SOL    HW219008   0.712   4.201   1.916 -0.0222  0.2676 -0.7084
 2459SOL     OW19009   2.237   3.050   0.783 -0.4419  0.1326  0.7215
 2459SOL    HW119010   2.198   3.055   0.696 -0.2642 -0.0171  0.6309
 2459SOL    HW219011   2.330   3.039   0.760 -1.2508  2.4623 -3.5185
 2460SOL     OW19012   1.503   4.083   5.737 -0.3268 -0.5209 -0.2613
 2460SOL    HW119013   1.424   4.062   5.687  0.1786 -2.7115 -0.1287
 2460SOL    HW219014   1.486   4.177   5.743  3.1290  0.2625 -2.5999
 2461SOL     OW19015   2.421   3.400   0.582  0.2375  0.1406 -0.0712
 2461SOL    HW119016   2.496   3.424   0.528  0.3695 -0.1099  0.0057
 2461SOL    HW219017   2.421   3.470   0.648  0.3651 -1.1052  1.2404
 2462SOL     OW19018   4.463   4.340   0.872  0.5337 -0.0263 -0.6278
 2462SOL    HW119019   4.437   4.343   0.780  0.3504 -0.0505 -0.5763
 2462SOL    HW219020   4.478   4.245   0.877 -1.2266 -0.2668  0.1038
 2463SOL     OW19021   1.459   3.815   1.640  0.1099  0.2867 -0.3154
 2463SOL    HW119022   1.551   3.790   1.630 -0.0146 -0.1963 -0.2815
 2463SOL    HW219023   1.445   3.815   1.735  0.0955 -2.5109 -0.3058
 2464SOL     OW19024   3.897   0.465  12.956  0.3205 -0.1579 -0.0121
 2464SOL    HW119025   3.901   0.528  12.884  2.4032  0.2875  0.5250
 2464SOL    HW219026   3.947   0.503  13.027  0.9217 -1.0224  0.0192
 2465SOL     OW19027   2.721   1.663  12.365  0.3478  0.6411 -0.8653
 2465SOL    HW119028   2.731   1.625  12.277  2.1852  0.6670 -0.6687
 2465SOL    HW219029   2.733   1.578  12.407  0.9537  0.3525 -1.6157
 2466SOL     OW19030   3.005   0.014   4.453  0.2260 -0.2949 -0.1879
 2466SOL    HW119031   3.075   0.058   4.405  0.9332 -0.1443  0.9595
 2466SOL    HW219032   3.012   4.666   4.409 -1.3646  0.6929 -2.3522
 2467SOL     OW19033   1.682   1.206   6.838 -0.6827  0.1792  0.2323
 2467SOL    HW119034   1.702   1.229   6.928  1.7313 -1.6650  0.1654
 2467SOL    HW219035   1.681   1.291   6.793  1.5944  1.4973  2.6761
 2468SOL     OW19036   2.524   4.721   1.872  0.6160  0.2178  0.2038
 2468SOL    HW119037   2.546   0.006   1.963  2.9910 -0.1218 -0.3039
 2468SOL    HW219038   2.559   0.067   1.840  2.4606 -0.0417  1.5589
 2469SOL     OW19039   1.665   1.300   9.856 -0.1135 -0.7575  0.2468
 2469SOL    HW119040   1.753   1.272   9.829  0.0720  0.3281 -0.2748
 2469SOL    HW219041   1.628   1.325   9.772  1.3710 -0.1115 -0.2184
 2470SOL     OW19042   3.469   3.527   2.096  0.3959 -0.2351 -0.1258
 2470SOL    HW119043   3.514   3.455   2.052  0.4924  0.0881 -0.5619
 2470SOL    HW219044   3.411   3.556   2.025 -0.1875  0.7969  0.7693
 2471SOL     OW19045   0.206   1.407   1.254  0.1637  0.0411  0.1843
 2471SOL    HW119046   0.260   1.365   1.320  0.9244  1.0807  0.2303
 2471SOL    HW219047   0.117   1.391   1.283  0.3909  0.4006  1.0694
 2472SOL     OW19048   3.144   3.530   2.109  0.2641  0.0547 -0.0573
 2472SOL    HW119049   3.088   3.604   2.086 -0.7602 -0.5390  0.5392
 2472SOL    HW219050   3.203   3.540   2.034  2.0570  1.5478  1.5502
 2473SOL     OW19051   2.306   4.510   6.738 -0.1958 -0.3747 -0.0779
 2473SOL    HW119052   2.216   4.526   6.767 -0.6418 -1.9237 -0.6347
 2473SOL    HW219053   2.357   4.528   6.817 -2.4422 -3.2564  2.0114
 2474SOL     OW19054   4.246   4.145   7.971  0.4187 -0.2666 -0.6401
 2474SOL    HW119055   4.298   4.076   7.930  2.2142  0.4074  0.5160
 2474SOL    HW219056   4.316   4.184   8.023  0.4539  0.7390 -1.4484
 2475SOL     OW19057   1.573   1.781   2.322  0.2568  0.5237 -0.0302
 2475SOL    HW119058   1.658   1.777   2.278 -0.1778  1.5577 -0.9537
 2475SOL    HW219059   1.506   1.749   2.263  0.1481 -0.1258  0.4488
 2476SOL     OW19060   0.986   3.164  12.291 -0.1571 -0.0223 -0.0586
 2476SOL    HW119061   0.923   3.104  12.331  0.8569 -1.0480  0.0331
 2476SOL    HW219062   1.065   3.137  12.338  0.6733  2.3645 -0.1115
 2477SOL     OW19063   3.141   2.145  13.466  0.1329 -0.0246 -0.7788
 2477SOL    HW119064   3.220   2.191  13.494  1.1921 -1.5334 -1.2972
 2477SOL    HW219065   3.140   2.076  13.533  1.0649  1.3007  0.6076
 2478SOL     OW19066   0.640   3.243  13.736  0.2947  0.2953  0.0100
 2478SOL    HW119067   0.736   3.243  13.735  0.3164  1.1227  2.6812
 2478SOL    HW219068   0.617   3.279  13.650  3.0131  0.1890 -0.7607
 2479SOL     OW19069   1.005   1.582   2.087 -0.0376  0.2810  0.2791
 2479SOL    HW119070   0.926   1.576   2.142  0.4529 -1.1345  0.8249
 2479SOL    HW219071   1.065   1.624   2.148  1.1014 -1.7157  0.5185
 2480SOL     OW19072   1.630   2.297   1.531 -0.5264  0.4180  0.3554
 2480SOL    HW119073   1.720   2.274   1.507 -0.0973  2.1010  0.3613
 2480SOL    HW219074   1.645   2.349   1.610 -1.2846  1.2743 -0.0801
 2481SOL     OW19075   0.531   1.409   6.698  0.3690  0.0079 -0.1295
 2481SOL    HW119076   0.494   1.496   6.681 -0.4871 -0.6047 -1.3141
 2481SOL    HW219077   0.589   1.444   6.766  2.5967 -3.4196 -0.2465
 2482SOL     OW19078   4.488   1.343   7.822  0.2493  0.2174  0.6360
 2482SOL    HW119079   4.394   1.331   7.834  0.4590 -1.8799  0.1610
 2482SOL    HW219080   4.487   1.363   7.728  3.5137  0.5363  0.6471
 2483SOL     OW19081   0.887   2.507   2.599  0.0732  0.6726  0.1354
 2483SOL    HW119082   0.880   2.435   2.662  0.1069 -0.8678 -1.6455
 2483SOL    HW219083   0.905   2.588   2.647  2.0239  1.3471 -1.7412
 2484SOL     OW19084   2.348   0.412   9.511 -0.4799 -0.4665 -0.9536
 2484SOL    HW119085   2.373   0.494   9.554 -2.0989  0.3082 -1.5188
 2484SOL    HW219086   2.300   0.374   9.585  0.6196  0.1861  0.0996
 2485SOL     OW19087   4.490   4.019   1.750 -0.1269 -0.1570  1.2484
 2485SOL    HW119088   4.400   4.018   1.781 -0.2280  0.4593  0.9536
 2485SOL    HW219089   4.493   3.946   1.688  0.5712 -0.8644  2.0992
 2486SOL     OW19090   4.207   3.400   8.664  0.0381 -0.8359  0.1140
 2486SOL    HW119091   4.210   3.403   8.568 -0.1248 -0.4125  0.1213
 2486SOL    HW219092   4.267   3.329   8.684  1.8771  0.4210 -0.8926
 2487SOL     OW19093   0.201   0.490   3.667  0.3088 -0.0943  0.4354
 2487SOL    HW119094   0.242   0.570   3.635 -1.0376  0.6848  0.6738
 2487SOL    HW219095   0.139   0.465   3.599 -1.6727 -0.8761  2.5293
 2488SOL     OW19096   3.688   4.088   3.977 -0.1437 -0.2487 -0.3093
 2488SOL    HW119097   3.717   4.121   4.062 -0.6061 -3.4950  1.0937
 2488SOL    HW219098   3.643   4.163   3.939 -0.9838 -0.6419 -0.0857
 2489SOL     OW19099   1.738   0.299  12.949  0.1724 -0.2994  0.3649
 2489SOL    HW119100   1.767   0.300  12.857  0.6259 -2.1540  0.4931
 2489SOL    HW219101   1.655   0.254  12.940  0.2895 -0.3326 -0.5739
 2490SOL     OW19102   0.411   0.666   2.525 -0.0128 -0.1969 -0.0435
 2490SOL    HW119103   0.493   0.620   2.504 -0.8668 -1.0014 -1.5658
 2490SOL    HW219104   0.421   0.733   2.458 -0.6726  0.9401  1.0126
 2491SOL     OW19105   4.666   3.637   1.448 -0.0646 -1.2961 -0.0909
 2491SOL    HW119106   4.673   3.542   1.447  2.4035 -1.0979 -1.4709
 2491SOL    HW219107   4.662   3.650   1.354  0.3602  0.0895  0.0716
 2492SOL     OW19108   3.210   1.702   3.062  0.0721 -0.0567 -0.1052
 2492SOL    HW119109   3.154   1.638   3.106  1.5937  0.4510  2.5202
 2492SOL    HW219110   3.196   1.774   3.123 -0.5238 -0.8600  0.6977
 2493SOL     OW19111   3.818   0.905   4.574  0.1573  0.6797 -0.5461
 2493SOL    HW119112   3.795   0.978   4.631 -1.3603 -0.4885  0.3617
 2493SOL    HW219113   3.836   0.840   4.643  0.1691 -0.7366 -1.8779
 2494SOL     OW19114   2.752   4.047   6.924 -0.1059  0.5571  0.0023
 2494SOL    HW119115   2.812   4.113   6.958  1.4695 -0.3154 -1.0746
 2494SOL    HW219116   2.817   4.004   6.869 -0.2557  1.0153 -0.5353
 2495SOL     OW19117   2.886   3.224   6.103 -0.8176 -0.4723 -0.1656
 2495SOL    HW119118   2.899   3.314   6.133 -1.3668 -0.7611  0.9182
 2495SOL    HW219119   2.804   3.225   6.055 -2.1140 -1.0538  2.0388
 2496SOL     OW19120   3.494   3.201   8.759  0.6077 -0.5065  0.3521
 2496SOL    HW119121   3.535   3.276   8.716 -2.1310 -0.5413 -2.3876
 2496SOL    HW219122   3.559   3.134   8.782 -1.9270 -3.2110 -0.3141
 2497SOL     OW19123   2.964   0.853   4.303 -0.4934 -0.3039 -0.0482
 2497SOL    HW119124   2.909   0.859   4.381 -1.4520  0.5246 -0.7904
 2497SOL    HW219125   2.905   0.813   4.239 -0.6001 -0.0670 -0.0955
 2498SOL     OW19126   3.135   4.710   7.303 -0.1087 -0.0851 -0.6690
 2498SOL    HW119127   3.180   4.677   7.226 -1.0691 -1.3015 -0.7115
 2498SOL    HW219128   3.157   0.066   7.301 -1.7975  0.2647 -2.8288
 2499SOL     OW19129   1.888   4.029  11.096 -0.0592 -0.7514 -0.6486
 2499SOL    HW119130   1.850   4.084  11.027  0.2173  0.3705  0.0956
 2499SOL    HW219131   1.849   4.062  11.177 -0.7442 -0.7740 -0.9710
 2500SOL     OW19132   3.739   1.082  15.103  0.1236  0.2503 -0.4133
 2500SOL    HW119133   3.766   1.174  15.110 -0.5233  0.3744  0.4138
 2500SOL    HW219134   3.751   1.052  15.193 -0.0639  2.0787  0.2323
 2501SOL     OW19135   1.939   3.108   1.333  0.2359 -0.5812 -0.0977
 2501SOL    HW119136   1.889   3.168   1.277  0.9197 -1.0636 -1.2343
 2501SOL    HW219137   1.869   3.051   1.364 -1.4014  2.2784  1.3747
 2502SOL     OW19138   0.655   0.677  15.392 -0.1430  0.2280  0.3175
 2502SOL    HW119139   0.608   0.747  15.437 -1.2546  1.2246 -2.3999
 2502SOL    HW219140   0.715   0.644  15.459 -0.9179  1.7147  1.7552
 2503SOL     OW19141   4.060   0.165   1.867  0.1581 -0.6072 -0.2166
 2503SOL    HW119142   4.035   0.252   1.898 -0.6841 -0.7419 -0.4917
 2503SOL    HW219143   4.141   0.191   1.824  0.2051 -1.0960 -0.4194
 2504SOL     OW19144   0.184   0.453   1.803  0.4961 -0.0979 -0.3087
 2504SOL    HW119145   0.119   0.385   1.786 -1.2999  1.2693  1.1362
 2504SOL    HW219146   0.126   0.523   1.833  0.2153 -0.1812 -0.6514
 2505SOL     OW19147   0.409   1.118   1.608  0.6686  0.0129  0.5144
 2505SOL    HW119148   0.464   1.054   1.654  0.0698 -2.3275 -2.0499
 2505SOL    HW219149   0.324   1.075   1.607  2.2046 -3.0326 -1.0483
 2506SOL     OW19150   0.430   3.103  14.818  0.2116  0.3334  0.3220
 2506SOL    HW119151   0.414   3.152  14.899 -0.3061  1.6699 -0.5856
 2506SOL    HW219152   0.385   3.019  14.830  0.6109 -0.0651 -1.0077
 2507SOL     OW19153   0.681   3.643   7.687  1.0524 -0.2474 -0.0741
 2507SOL    HW119154   0.669   3.707   7.757 -3.1692 -1.4617  0.3214
 2507SOL    HW219155   0.730   3.577   7.736  1.9375 -0.8890 -1.8160
 2508SOL     OW19156   4.621   3.180   3.263  0.1850  1.2430  0.0699
 2508SOL    HW119157   4.556   3.134   3.210  2.0606 -2.0234  0.6160
 2508SOL    HW219158   4.638   3.107   3.323  0.6674 -1.6512 -3.5508
 2509SOL     OW19159   2.262   2.748   5.133  0.6836  0.3819 -0.5862
 2509SOL    HW119160   2.281   2.695   5.056  0.2935  0.2919 -0.6222
 2509SOL    HW219161   2.250   2.834   5.092 -0.3115 -0.2777 -1.6730
 2510SOL     OW19162   4.048   3.740  12.596  0.3031 -0.0089  0.2826
 2510SOL    HW119163   4.009   3.795  12.664 -0.0176  0.2375 -0.0999
 2510SOL    HW219164   4.113   3.695  12.651 -0.0685  1.9055  2.2927
 2511SOL     OW19165   3.629   2.161   8.633 -0.1043  0.0182 -0.2002
 2511SOL    HW119166   3.597   2.072   8.645  3.0366 -0.8727  1.4554
 2511SOL    HW219167   3.576   2.193   8.705 -0.2911  0.0586 -0.3547
 2512SOL     OW19168   4.435   3.868   2.989 -0.0026  0.0164  0.0638
 2512SOL    HW119169   4.370   3.937   2.976  2.1338  2.1135  0.4705
 2512SOL    HW219170   4.382   3.806   3.039 -0.4253 -1.0460 -1.7026
 2513SOL     OW19171   0.261   2.069   9.219 -0.0802  0.1945  0.3369
 2513SOL    HW119172   0.337   2.109   9.261 -2.2340  2.1714  2.3739
 2513SOL    HW219173   0.237   2.003   9.284 -1.5773 -0.4849 -0.9161
 2514SOL     OW19174   0.322   3.505   1.242  0.5182 -0.3115 -0.4507
 2514SOL    HW119175   0.313   3.495   1.337  1.8791  0.5799 -0.2366
 2514SOL    HW219176   0.400   3.452   1.229  0.1159 -0.8519 -0.7123
 2515SOL     OW19177   4.035   0.304   6.559  0.3591  0.0174  0.1302
 2515SOL    HW119178   4.036   0.229   6.499  0.2833 -1.5353  2.0916
 2515SOL    HW219179   4.017   0.259   6.641  3.3071 -2.3178 -0.5142
 2516SOL     OW19180   2.837   2.708   4.808  0.7192 -0.0181  0.3271
 2516SOL    HW119181   2.929   2.705   4.835  0.8916 -3.2381 -0.6358
 2516SOL    HW219182   2.828   2.625   4.762 -1.5517 -0.3495  1.3534
 2517SOL     OW19183   3.529   3.649   0.233 -0.1119  0.0684 -0.4384
 2517SOL    HW119184   3.572   3.723   0.189  0.9573  0.5972  1.4778
 2517SOL    HW219185   3.599   3.593   0.267 -1.6450 -1.2225  0.5815
 2518SOL     OW19186   0.472   3.958   6.888 -0.5018  0.0878  0.1545
 2518SOL    HW119187   0.510   4.042   6.861  1.8815 -0.9021  0.3843
 2518SOL    HW219188   0.541   3.893   6.874 -1.6080 -1.1400  0.4240
 2519SOL     OW19189   3.838   0.667   7.144  0.4771  0.2923  0.3248
 2519SOL    HW119190   3.838   0.689   7.051  1.1382  2.5641  0.8654
 2519SOL    HW219191   3.745   0.652   7.162  0.2602 -0.9205 -1.7303
 2520SOL     OW19192   2.347   1.530   6.211 -0.1738 -0.7958 -0.2391
 2520SOL    HW119193   2.284   1.545   6.282  0.2412  0.2567 -0.0906
 2520SOL    HW219194   2.324   1.452   6.161  3.1030 -1.7780 -0.1545
 2521SOL     OW19195   1.091   2.624  14.550 -0.2549  0.2430 -0.6030
 2521SOL    HW119196   1.040   2.701  14.574  0.2358  0.4008 -0.0461
 2521SOL    HW219197   1.035   2.551  14.576 -1.0321  1.0029 -0.1494
 2522SOL     OW19198   3.383   3.784   7.944 -0.1960  0.3831 -0.1135
 2522SOL    HW119199   3.367   3.689   7.952  2.1828  0.0245  0.3696
 2522SOL    HW219200   3.329   3.815   8.017  0.1756 -2.2565  1.2846
 2523SOL     OW19201   3.271   3.392   3.862 -0.6728 -0.0065 -0.4286
 2523SOL    HW119202   3.253   3.480   3.894  0.0144 -0.4689  1.2539
 2523SOL    HW219203   3.324   3.363   3.936  0.6129 -1.6794 -1.9900
 2524SOL     OW19204   1.722   1.448  14.933  0.3766 -0.0789 -0.1907
 2524SOL    HW119205   1.756   1.503  14.863 -0.8406  0.1066 -0.6415
 2524SOL    HW219206   1.641   1.409  14.899 -2.7956  2.0705  4.8102
 2525SOL     OW19207   3.311   2.524  12.283  0.0574  0.2708  0.5152
 2525SOL    HW119208   3.250   2.481  12.223  1.8849  0.0608 -1.1711
 2525SOL    HW219209   3.351   2.585  12.221 -0.3157 -0.5909 -0.5628
 2526SOL     OW19210   2.430   3.635   5.214 -0.4982  0.2218  0.3764
 2526SOL    HW119211   2.441   3.556   5.161 -1.0338  1.1684 -1.1763
 2526SOL    HW219212   2.415   3.702   5.147 -1.5869  0.1089  0.5002
 2527SOL     OW19213   2.974   1.688   4.622  0.4130  0.6164 -0.6197
 2527SOL    HW119214   2.901   1.749   4.608  1.4393  2.1643  0.8389
 2527SOL    HW219215   3.003   1.723   4.706 -0.0169  0.9891 -0.6250
 2528SOL     OW19216   2.048   0.424   5.186  0.0467 -0.0960  0.1577
 2528SOL    HW119217   2.038   0.391   5.275  0.3729  0.0677  0.2561
 2528SOL    HW219218   2.013   0.513   5.188  0.2223 -0.0695  1.6728
 2529SOL     OW19219   4.701   1.639   6.799 -0.1261  0.7570  0.1665
 2529SOL    HW119220   4.634   1.571   6.803 -0.3079  0.8044 -2.0892
 2529SOL    HW219221   0.004   1.612   6.717 -1.8058 -1.5831  0.1180
 2530SOL     OW19222   3.253   0.315   7.925 -0.0978  0.3649 -0.6257
 2530SOL    HW119223   3.261   0.232   7.972 -0.6099  1.6345  1.6723
 2530SOL    HW219224   3.340   0.352   7.936  0.4270 -1.4942  1.5725
 2531SOL     OW19225   1.879   3.449   4.017  0.0928  0.2263  0.5202
 2531SOL    HW119226   1.879   3.354   4.027 -1.1431  0.3188  1.5209
 2531SOL    HW219227   1.926   3.456   3.934  1.6515 -3.3600  1.0823
 2532SOL     OW19228   2.158   3.692   5.325 -0.3564  0.1356 -0.3045
 2532SOL    HW119229   2.192   3.681   5.414  1.1848  0.6416 -0.8487
 2532SOL    HW219230   2.231   3.709   5.267 -2.6928  0.2090 -3.2124
 2533SOL     OW19231   1.182   0.169   5.823  0.0218  0.0847  0.1044
 2533SOL    HW119232   1.268   0.130   5.803  0.9294  2.5939 -0.8203
 2533SOL    HW219233   1.213   0.206   5.905  0.0545 -1.0577  0.6130
 2534SOL     OW19234   4.057   1.359   7.455  0.5254  0.5417  0.3192
 2534SOL    HW119235   4.086   1.268   7.446 -2.5080 -0.4145  0.3010
 2534SOL    HW219236   3.978   1.350   7.508  0.5801 -2.7973 -0.1689
 2535SOL     OW19237   2.388   1.681  13.953 -0.3413  0.3562  0.0643
 2535SOL    HW119238   2.417   1.619  13.886 -1.2736 -0.6527  0.5782
 2535SOL    HW219239   2.476   1.705  13.981 -0.1709 -0.4003  0.1847
 2536SOL     OW19240   0.906   0.611  16.868 -0.5748 -0.1700 -0.1827
 2536SOL    HW119241   0.885   0.595  16.776 -2.4620  0.5165  0.1150
 2536SOL    HW219242   0.957   0.534  16.894  0.1831 -0.1843 -1.7521
 2537SOL     OW19243   1.396   2.020   5.956 -0.5128 -0.7259  0.1103
 2537SOL    HW119244   1.475   2.059   5.992 -0.6155 -1.4054  1.0837
 2537SOL    HW219245   1.362   2.098   5.912  0.5343 -0.5579 -0.4004
 2538SOL     OW19246   2.894   4.563   6.370  0.7138  0.0867  0.2835
 2538SOL    HW119247   2.946   4.550   6.291  0.2262  1.0987 -0.2044
 2538SOL    HW219248   2.877   4.472   6.392 -1.3248  0.4127  0.0236
 2539SOL     OW19249   0.998   4.056   7.884  0.0073 -0.5736 -0.1402
 2539SOL    HW119250   0.958   4.021   7.964  0.9003 -0.1209  0.5088
 2539SOL    HW219251   1.072   3.997   7.868 -0.7328 -1.5085 -0.1361
 2540SOL     OW19252   1.051   1.203   0.164  0.5895  0.1618  0.2589
 2540SOL    HW119253   1.134   1.175   0.201  0.5158 -2.7702 -1.7660
 2540SOL    HW219254   1.024   1.140   0.097  0.6669 -0.8646  1.1912
 2541SOL     OW19255   1.076   1.410   8.111 -0.0165  0.1332 -0.5345
 2541SOL    HW119256   1.009   1.345   8.088  0.8418  0.6670 -4.5294
 2541SOL    HW219257   1.024   1.486   8.137 -1.8285 -2.3285  3.1184
 2542SOL     OW19258   1.111   1.165  12.074 -0.1285  0.1549  0.2709
 2542SOL    HW119259   1.159   1.245  12.095  1.0331 -0.8474  1.3944
 2542SOL    HW219260   1.166   1.098  12.114 -0.7401 -0.4899  0.0391
 2543SOL     OW19261   2.995   1.538  11.775  0.7937  0.1637 -0.1075
 2543SOL    HW119262   3.066   1.574  11.722 -1.6432  0.2893 -3.2705
 2543SOL    HW219263   3.042   1.544  11.858  0.8846 -0.7304 -0.0944
 2544SOL     OW19264   0.971   4.470   4.641  0.2585 -0.1266 -0.2171
 2544SOL    HW119265   0.997   4.387   4.681  1.8993  1.2658  1.5337
 2544SOL    HW219266   0.876   4.458   4.630  0.0319  1.1427  0.2921
 2545SOL     OW19267   0.359   2.519   4.629 -0.1897 -0.2040 -0.1064
 2545SOL    HW119268   0.425   2.576   4.669 -1.4986  0.7290  0.7007
 2545SOL    HW219269   0.397   2.432   4.641 -0.2580 -0.0697  1.0339
 2546SOL     OW19270   2.860   2.550   6.587  0.1672  0.0203 -0.2963
 2546SOL    HW119271   2.893   2.583   6.503 -0.6277  1.9339  0.1454
 2546SOL    HW219272   2.941   2.522   6.630 -1.1883  0.2940  2.4188
 2547SOL     OW19273   4.079   0.577   3.720  0.3542 -0.0168  0.3468
 2547SOL    HW119274   4.170   0.590   3.694  0.4645  1.4709  1.5013
 2547SOL    HW219275   4.084   0.482   3.732  1.2510 -0.0457 -0.1904
 2548SOL     OW19276   4.651   2.957   3.784  0.5591  0.6339  0.2424
 2548SOL    HW119277   4.722   2.977   3.845  0.4603 -1.6448  1.0742
 2548SOL    HW219278   4.580   3.004   3.828 -0.1049  0.9205 -1.1079
 2549SOL     OW19279   0.193   0.386   9.075 -0.3080 -0.8960  0.4172
 2549SOL    HW119280   0.168   0.294   9.062 -0.9626 -0.7320  0.4898
 2549SOL    HW219281   0.288   0.389   9.080 -0.3285 -0.3821  0.5363
 2550SOL     OW19282   1.167   3.842  14.310 -0.0890  0.0521 -0.0120
 2550SOL    HW119283   1.156   3.915  14.250  0.7352 -2.2722 -2.9654
 2550SOL    HW219284   1.252   3.866  14.345 -1.2289  1.1021  2.0346
 2551SOL     OW19285   2.556   4.185  10.533  0.6059  0.2218 -0.7871
 2551SOL    HW119286   2.560   4.145  10.619  1.1469  1.0131 -0.4417
 2551SOL    HW219287   2.540   4.113  10.472  1.1596 -0.6859  0.1459
 2552SOL     OW19288   0.204   4.031  11.051  0.1615  0.3192 -0.5781
 2552SOL    HW119289   0.246   4.020  11.137 -1.2489 -1.2673 -0.0804
 2552SOL    HW219290   0.146   4.105  11.065  0.3859  0.4520 -0.3375
 2553SOL     OW19291   3.609   0.439   8.892 -0.5255 -0.0113  0.1135
 2553SOL    HW119292   3.688   0.491   8.908 -1.7049  1.6788  0.4085
 2553SOL    HW219293   3.610   0.424   8.797 -3.4229  4.2866 -0.5674
 2554SOL     OW19294   0.296   1.525   2.791 -0.0886 -0.2194 -0.0455
 2554SOL    HW119295   0.294   1.442   2.837  1.2639  0.6493  1.5601
 2554SOL    HW219296   0.370   1.512   2.732  0.5220 -1.3034  0.9687
 2555SOL     OW19297   3.416   1.461   9.343  0.3794 -0.2104  0.0808
 2555SOL    HW119298   3.440   1.378   9.303  2.6298  0.2795  0.4221
 2555SOL    HW219299   3.473   1.470   9.419 -1.5367 -0.7003  1.5653
 2556SOL     OW19300   4.166   2.618   3.096  0.0930 -0.0997 -0.0574
 2556SOL    HW119301   4.117   2.612   3.179 -1.7765 -2.2404 -1.3072
 2556SOL    HW219302   4.137   2.536   3.057  1.9097 -2.3753  3.2853
 2557SOL     OW19303   3.370   0.177   7.571  0.2964 -0.3612  0.2522
 2557SOL    HW119304   3.410   0.204   7.489 -0.7423  0.1240 -0.1024
 2557SOL    HW219305   3.300   0.240   7.589  0.9649  0.4178  0.1524
 2558SOL     OW19306   3.853   2.856   5.623 -0.0132 -0.8248  0.3229
 2558SOL    HW119307   3.905   2.887   5.697  0.4613 -2.2020  0.5698
 2558SOL    HW219308   3.768   2.836   5.664  0.0236  2.1553  1.8051
 2559SOL     OW19309   0.264   2.190   5.964 -0.3475 -0.6377  0.0281
 2559SOL    HW119310   0.357   2.170   5.975  0.0720  1.2051 -0.0806
 2559SOL    HW219311   0.247   2.165   5.873  0.3064  1.7587 -0.7663
 2560SOL     OW19312   2.976   1.424   1.235 -0.3700  0.0355 -0.5737
 2560SOL    HW119313   3.036   1.481   1.187  0.2714 -1.0141 -1.0374
 2560SOL    HW219314   2.894   1.468   1.215 -0.8657 -0.4196  0.4656
 2561SOL     OW19315   1.527   2.864   7.222 -0.1308  0.1251  0.1599
 2561SOL    HW119316   1.584   2.925   7.270  0.4183 -0.0104 -0.3203
 2561SOL    HW219317   1.524   2.901   7.134 -0.3984 -1.8908 -0.6773
 2562SOL     OW19318   2.465   0.456   7.948 -0.2507 -0.2246  0.1147
 2562SOL    HW119319   2.493   0.527   8.006  0.3382 -0.5954  0.2821
 2562SOL    HW219320   2.466   0.384   8.011 -0.3164 -0.5609 -0.2714
 2563SOL     OW19321   1.922   0.147   2.406 -0.8679 -0.6544 -0.1746
 2563SOL    HW119322   1.953   0.178   2.491 -1.2439  0.0936 -0.3190
 2563SOL    HW219323   2.010   0.125   2.373  0.0096  0.3917  1.4750
 2564SOL     OW19324   4.450   4.242   8.128  0.0311 -0.6072 -0.6301
 2564SOL    HW119325   4.541   4.234   8.100  0.5639 -2.2582  1.5863
 2564SOL    HW219326   4.460   4.238   8.223  3.4437  1.9687 -0.8950
 2565SOL     OW19327   1.521   3.698  14.209  0.4297  0.3492 -0.0972
 2565SOL    HW119328   1.554   3.788  14.217 -2.7410  1.4620  0.9832
 2565SOL    HW219329   1.527   3.665  14.299  0.1070 -2.1818 -1.0102
 2566SOL     OW19330   4.594   3.292   9.276  0.0288 -0.1870  0.0640
 2566SOL    HW119331   4.581   3.327   9.188  5.2625  0.4499 -0.4687
 2566SOL    HW219332   4.665   3.230   9.257 -0.4698 -0.9534  0.7060
 2567SOL     OW19333   1.682   0.367   4.200  0.4321  0.1808  0.2831
 2567SOL    HW119334   1.700   0.304   4.131  3.7174 -0.5848  1.8334
 2567SOL    HW219335   1.704   0.307   4.271  1.5733 -2.0270 -1.9412
 2568SOL     OW19336   2.756   3.173   9.509 -0.0367  0.7102  0.8660
 2568SOL    HW119337   2.847   3.190   9.484 -0.6108  0.0482 -1.6347
 2568SOL    HW219338   2.695   3.215   9.449 -0.7498 -0.2806  0.9026
 2569SOL     OW19339   4.314   3.537   0.514  0.2038 -0.5302 -0.5578
 2569SOL    HW119340   4.341   3.514   0.603 -1.8300  2.1919  0.7865
 2569SOL    HW219341   4.376   3.609   0.501  1.0440 -0.9012  1.3536
 2570SOL     OW19342   2.894   0.907  14.353  0.3602  0.0859  0.5885
 2570SOL    HW119343   2.952   0.843  14.393  0.1382 -0.0885  0.6330
 2570SOL    HW219344   2.870   0.853  14.277  0.5165  1.2769 -0.2999
 2571SOL     OW19345   2.702   1.580   6.210 -0.0585  0.0306 -0.3995
 2571SOL    HW119346   2.735   1.644   6.273 -0.1738  0.8261 -1.1542
 2571SOL    HW219347   2.675   1.654   6.155 -1.2544  1.4218  2.0522
 2572SOL     OW19348   0.088   3.019   9.954 -0.2028 -0.1054 -0.5196
 2572SOL    HW119349   0.104   2.925   9.954 -1.3975 -0.3198 -3.3981
 2572SOL    HW219350   4.732   3.029   9.973  0.0842  0.9229  0.3371
 2573SOL     OW19351   1.744   0.541  12.158 -0.0553 -0.1641 -0.2490
 2573SOL    HW119352   1.772   0.625  12.122 -4.1352  0.9253 -0.8929
 2573SOL    HW219353   1.819   0.486  12.137  1.5978  1.5279  1.1821
 2574SOL     OW19354   3.836   2.595   2.916 -0.2031 -0.2170  0.2122
 2574SOL    HW119355   3.769   2.588   2.848  0.2056 -2.3750  0.0322
 2574SOL    HW219356   3.826   2.514   2.967  3.0084 -0.0805  1.0475
 2575SOL     OW19357   4.109   4.494   0.019 -0.1177  0.0601 -0.0602
 2575SOL    HW119358   4.087   4.414  17.718  0.9446  1.1471 -2.2959
 2575SOL    HW219359   4.027   4.543   0.008 -0.0297  0.6914  2.1710
 2576SOL     OW19360   0.042   0.933  10.759 -0.6627  0.0159  0.2822
 2576SOL    HW119361   0.108   0.966  10.818 -0.5147  1.7495 -0.8491
 2576SOL    HW219362   0.098   0.927  10.681  0.5872  1.2547  1.0909
 2577SOL     OW19363   1.832   3.110   8.593  0.4339 -0.1762  0.1727
 2577SOL    HW119364   1.752   3.106   8.645  1.3331 -0.1148  1.5796
 2577SOL    HW219365   1.841   3.017   8.569  0.5210 -0.8440  2.7394
 2578SOL     OW19366   4.166   1.460   2.878 -0.0812  0.4681 -0.8328
 2578SOL    HW119367   4.084   1.470   2.829 -0.1747  2.2778 -0.3215
 2578SOL    HW219368   4.228   1.482   2.809  2.1607 -0.7111  0.8195
 2579SOL     OW19369   1.407   2.621   1.914 -0.3084 -0.2415 -0.1505
 2579SOL    HW119370   1.375   2.539   1.876 -1.3373 -0.8618  2.0635
 2579SOL    HW219371   1.325   2.656   1.948  0.4792  0.7731  0.6702
 2580SOL     OW19372   4.007   0.756   8.990 -0.2173  0.5181 -0.1226
 2580SOL    HW119373   3.983   0.840   8.952 -3.1703 -1.5033 -2.7479
 2580SOL    HW219374   4.102   0.765   8.984 -0.2156  0.5063 -0.1161
 2581SOL     OW19375   0.072   0.920   0.573  0.0654  0.3611 -0.2429
 2581SOL    HW119376   4.724   0.909   0.616 -0.9812 -0.5844 -2.5641
 2581SOL    HW219377   0.079   0.830   0.539  1.0093 -0.3598  1.8814
 2582SOL     OW19378   3.251   4.150   0.593  0.3810 -0.1667  0.6521
 2582SOL    HW119379   3.158   4.154   0.616  0.0294  0.0458 -0.8019
 2582SOL    HW219380   3.249   4.135   0.498 -0.6690  0.6020  0.5449
 2583SOL     OW19381   1.687   4.462   8.855 -0.1000  0.8553  0.1501
 2583SOL    HW119382   1.688   4.521   8.931 -1.3427  0.7334  0.2583
 2583SOL    HW219383   1.776   4.427   8.859 -0.4858 -0.0834  0.4872
 2584SOL     OW19384   4.291   3.125   1.758  0.1811  0.4763  0.4224
 2584SOL    HW119385   4.312   3.122   1.852  0.8342  0.3126  0.2754
 2584SOL    HW219386   4.258   3.214   1.756  0.1577  0.4590  0.0671
 2585SOL     OW19387   3.540   2.347   6.050 -0.2033 -0.4471 -0.2492
 2585SOL    HW119388   3.525   2.284   5.978 -0.8196  0.4859 -0.9345
 2585SOL    HW219389   3.575   2.425   6.008 -1.0937  0.6676  1.1130
 2586SOL     OW19390   1.381   3.840   5.594 -0.5932  0.7287 -0.1604
 2586SOL    HW119391   1.346   3.891   5.667  0.4836  1.6953 -0.3371
 2586SOL    HW219392   1.384   3.752   5.634  0.0674  0.8276  0.0143
 2587SOL     OW19393   0.592   3.247  14.430 -0.3072  0.2695  0.5705
 2587SOL    HW119394   0.585   3.169  14.486 -0.4043 -0.0675  0.0899
 2587SOL    HW219395   0.517   3.233  14.372  1.0480  1.1835 -1.3813
 2588SOL     OW19396   3.544   1.709   7.021  0.1306  0.7386 -0.1433
 2588SOL    HW119397   3.553   1.619   7.053 -2.5835  0.7670  0.7574
 2588SOL    HW219398   3.634   1.724   6.994  0.5124 -0.5771  0.4061
 2589SOL     OW19399   0.604   3.390   3.451  0.2312  0.0375  0.3018
 2589SOL    HW119400   0.615   3.351   3.538 -1.7081  0.1509  0.5860
 2589SOL    HW219401   0.695   3.409   3.427  0.2504 -0.5121 -0.0608
 2590SOL     OW19402   1.725   2.409   9.300  0.9711 -0.7595 -0.1319
 2590SOL    HW119403   1.701   2.500   9.281 -0.5477 -0.9636  0.8189
 2590SOL    HW219404   1.650   2.361   9.265 -0.9901  1.2562  1.3033
 2591SOL     OW19405   3.812   3.600   0.635  0.1028 -1.1596  0.1173
 2591SOL    HW119406   3.788   3.598   0.727  0.3056 -2.6828  0.1421
 2591SOL    HW219407   3.806   3.693   0.613 -0.0155 -1.2075 -0.0567
 2592SOL     OW19408   1.305   1.987   7.627  0.7091 -0.4108  0.1981
 2592SOL    HW119409   1.261   2.071   7.639 -0.3770 -0.6805 -1.8998
 2592SOL    HW219410   1.391   2.007   7.662  0.2772  1.9629 -0.1190
 2593SOL     OW19411   3.085   0.333   5.589 -0.0312 -0.1803 -0.3290
 2593SOL    HW119412   3.130   0.365   5.668  0.8041  0.3930 -1.0405
 2593SOL    HW219413   3.131   0.396   5.534  0.9867  0.2012  0.9592
 2594SOL     OW19414   1.958   4.637  11.375 -0.0483  0.3762  0.4577
 2594SOL    HW119415   1.955   4.732  11.384  0.9559  0.4824 -0.2302
 2594SOL    HW219416   1.919   4.612  11.291 -2.2884  1.9394  1.0507
 2595SOL     OW19417   4.315   4.012   9.126 -0.4848  0.2636  0.1709
 2595SOL    HW119418   4.262   3.965   9.190  0.4728 -1.2375 -0.1560
 2595SOL    HW219419   4.382   3.947   9.107 -0.1754  1.1949 -1.9320
 2596SOL     OW19420   4.355   0.840   3.561  0.5528  0.4535 -0.0105
 2596SOL    HW119421   4.440   0.882   3.545  1.0853 -1.1939 -1.4618
 2596SOL    HW219422   4.316   0.917   3.602 -1.3679  0.1885 -1.3185
 2597SOL     OW19423   2.998   4.310   4.084  0.1891  0.4995  0.0466
 2597SOL    HW119424   2.909   4.316   4.117 -0.2128  0.5226 -1.0784
 2597SOL    HW219425   3.048   4.367   4.143  1.1580  1.7226 -1.9505
 2598SOL     OW19426   2.854   1.394   3.861  0.0504 -0.0736 -0.3052
 2598SOL    HW119427   2.864   1.340   3.783  0.3983  0.2709 -0.5024
 2598SOL    HW219428   2.792   1.334   3.901  1.1125  0.9324  2.8338
 2599SOL     OW19429   2.947   2.738   9.669 -0.1985  0.3306 -0.2035
 2599SOL    HW119430   2.923   2.722   9.760 -0.2712  0.1493 -0.2523
 2599SOL    HW219431   2.986   2.825   9.678 -3.4644  1.4585  2.6982
 2600SOL     OW19432   0.605   1.029  12.188 -0.2823 -0.3740 -0.4322
 2600SOL    HW119433   0.589   1.036  12.282  2.0726 -2.6674  0.1473
 2600SOL    HW219434   0.694   0.994  12.184  0.1445  0.6220  0.5317
 2601SOL     OW19435   3.483   3.782  13.930 -0.3088  0.1533  0.2251
 2601SOL    HW119436   3.503   3.746  13.844 -3.6731 -0.2562 -0.3986
 2601SOL    HW219437   3.536   3.862  13.932 -2.6438  1.7680 -2.1694
 2602SOL     OW19438   0.681   2.443   8.107  0.1838  0.4216  0.8225
 2602SOL    HW119439   0.627   2.427   8.030 -0.4157  1.1418  1.0933
 2602SOL    HW219440   0.769   2.418   8.078 -0.1068  0.2573  0.0779
 2603SOL     OW19441   2.414   3.259  10.898 -0.1293 -0.4984 -0.2678
 2603SOL    HW119442   2.396   3.350  10.920  2.0963 -0.4540  1.3339
 2603SOL    HW219443   2.421   3.222  10.986  1.2697 -1.4205 -0.7671
 2604SOL     OW19444   3.074   0.604   7.497 -0.6483  0.3188 -0.1506
 2604SOL    HW119445   3.064   0.690   7.538  0.0767  0.3470 -0.0403
 2604SOL    HW219446   3.147   0.622   7.438  0.5436  0.5600  1.3954
 2605SOL     OW19447   2.439   1.833   3.406  0.3261  0.2125  0.1342
 2605SOL    HW119448   2.513   1.779   3.378  0.6652  0.3244  0.7988
 2605SOL    HW219449   2.467   1.913   3.361  0.0721  1.6886  2.5909
 2606SOL     OW19450   0.469   2.060   2.599  0.4004  0.3321 -0.6546
 2606SOL    HW119451   0.392   2.088   2.648  1.4744  0.1749  1.1305
 2606SOL    HW219452   0.486   2.144   2.557  1.2612 -0.4988 -1.9721
 2607SOL     OW19453   4.068   4.690   5.875 -0.5314  0.0926  0.2075
 2607SOL    HW119454   4.135   4.623   5.864 -1.9494 -1.0577 -1.2693
 2607SOL    HW219455   4.008   4.668   5.804 -0.4298  0.1482  0.1039
 2608SOL     OW19456   3.784   4.086  16.979  0.2284 -0.3081  0.0334
 2608SOL    HW119457   3.792   4.000  16.938 -3.3026 -0.7386  0.2408
 2608SOL    HW219458   3.712   4.126  16.930  0.6589 -0.7464 -0.9399
 2609SOL     OW19459   0.654   2.245  11.515 -0.0546 -0.2075 -0.1093
 2609SOL    HW119460   0.739   2.202  11.501  1.4561  2.3937  0.9979
 2609SOL    HW219461   0.677   2.333  11.487 -0.0375 -0.6581 -1.5481
 2610SOL     OW19462   3.578   3.604   4.240 -0.0014 -0.3467 -0.2005
 2610SOL    HW119463   3.668   3.617   4.212  0.1131  3.3976  1.9534
 2610SOL    HW219464   3.533   3.659   4.176  2.5126  0.3899 -1.2994
 2611SOL     OW19465   2.239   0.595   7.106 -0.4503 -0.2971 -0.8932
 2611SOL    HW119466   2.151   0.593   7.143  0.2641 -0.1566  0.7955
 2611SOL    HW219467   2.287   0.534   7.162 -0.5210  0.2230 -0.2705
 2612SOL     OW19468   1.402   4.150   4.053 -0.2388 -0.1925 -1.2090
 2612SOL    HW119469   1.497   4.140   4.056 -0.3268 -0.3105  0.8570
 2612SOL    HW219470   1.380   4.214   4.121  2.6434  0.4736 -0.9064
 2613SOL     OW19471   2.489   2.697   6.319 -0.2309 -0.0040 -0.1870
 2613SOL    HW119472   2.440   2.616   6.305  1.9577 -1.3359 -0.2162
 2613SOL    HW219473   2.552   2.671   6.386  0.0930 -3.3219 -1.7795
 2614SOL     OW19474   0.535   2.346   7.646  0.3512  0.1902 -0.0291
 2614SOL    HW119475   0.626   2.369   7.625  1.5921 -2.0247  2.8767
 2614SOL    HW219476   0.525   2.410   7.716 -2.5149 -0.0878 -0.2097
 2615SOL     OW19477   3.109   0.785   8.134  0.4751  0.5971 -0.6717
 2615SOL    HW119478   3.199   0.798   8.163  0.4186 -0.0181 -0.2387
 2615SOL    HW219479   3.118   0.773   8.039 -0.3839 -2.1165 -0.4153
 2616SOL     OW19480   0.227   1.229  11.917 -0.4882 -0.4385  0.4845
 2616SOL    HW119481   0.250   1.295  11.983  2.0912 -1.9246  1.0823
 2616SOL    HW219482   0.314   1.190  11.905  0.0779  0.1265  2.6169
 2617SOL     OW19483   3.040   2.876   0.228  0.3476  0.4606 -0.2151
 2617SOL    HW119484   3.113   2.913   0.278 -1.5043  2.1698  1.2191
 2617SOL    HW219485   3.003   2.825   0.299 -1.3480  0.1867 -1.2999
 2618SOL     OW19486   0.964   4.099   7.239 -0.2602 -0.1289  0.2270
 2618SOL    HW119487   0.906   4.162   7.197 -0.6520 -0.0019  0.9524
 2618SOL    HW219488   1.004   4.159   7.302  0.0203 -0.2609  0.1738
 2619SOL     OW19489   3.281   0.181   4.387 -0.5428  0.3162 -0.3540
 2619SOL    HW119490   3.256   0.234   4.462  0.4345 -0.3025  0.4067
 2619SOL    HW219491   3.338   0.115   4.427 -1.4086  0.6857  1.4962
 2620SOL     OW19492   0.447   2.887   4.066  0.1674  0.0819  0.0632
 2620SOL    HW119493   0.436   2.933   4.150  1.4283 -0.7143  0.6592
 2620SOL    HW219494   0.364   2.899   4.020 -0.4398  2.3670  1.7438
 2621SOL     OW19495   4.674   3.595   3.036 -0.1354 -0.1731 -0.2170
 2621SOL    HW119496   4.717   3.591   3.121 -0.1075  0.6434 -0.1935
 2621SOL    HW219497   4.669   3.690   3.025  4.0912 -0.0223 -0.7441
 2622SOL     OW19498   0.354   1.915  11.104  0.0154 -0.1387  0.1158
 2622SOL    HW119499   0.368   1.875  11.190 -0.1600  1.2062  0.7677
 2622SOL    HW219500   0.335   2.004  11.133 -2.1741 -0.6814  0.3848
 2623SOL     OW19501   0.374   1.431   5.007  0.2352  0.1270  0.3166
 2623SOL    HW119502   0.318   1.463   4.937  0.7894  1.4831  0.4820
 2623SOL    HW219503   0.354   1.493   5.077 -0.1995  1.8195 -1.3078
 2624SOL     OW19504   3.510   4.202  13.816  0.0687 -0.5770 -0.5367
 2624SOL    HW119505   3.430   4.158  13.786 -0.1192 -0.9938  0.5671
 2624SOL    HW219506   3.571   4.128  13.814  1.2197  0.3376  0.4991
 2625SOL     OW19507   1.172   4.447   2.352 -0.9273 -0.2698 -0.4114
 2625SOL    HW119508   1.148   4.387   2.281 -1.6635 -1.2040  0.6442
 2625SOL    HW219509   1.257   4.481   2.324 -0.7485 -1.1101 -0.8881
 2626SOL     OW19510   4.126   2.930   8.688 -0.1250 -0.3222  0.0057
 2626SOL    HW119511   4.050   2.872   8.692  0.1915 -0.7024  0.4919
 2626SOL    HW219512   4.096   3.013   8.726  2.5559  0.0837  1.2340
 2627SOL     OW19513   0.000   3.620   8.103 -0.2771  0.8673  0.1612
 2627SOL    HW119514   0.032   3.531   8.113  1.4626  1.2570 -1.8584
 2627SOL    HW219515   4.686   3.620   8.183  1.2537  0.9004  1.1559
 2628SOL     OW19516   4.172   2.411   5.105  0.0740 -0.0050 -0.0286
 2628SOL    HW119517   4.243   2.472   5.122  0.1699 -0.2551  0.4703
 2628SOL    HW219518   4.116   2.476   5.147 -0.9474 -0.3736 -0.8124
 2629SOL     OW19519   4.671   2.693  16.045  0.4153  0.0230  0.4848
 2629SOL    HW119520   0.006   2.755  16.045  1.8899 -1.7217  0.2622
 2629SOL    HW219521   4.676   2.671  15.952 -2.0034  0.9323  0.1201
 2630SOL     OW19522   3.078   1.864  16.646 -0.2148 -0.4576  0.4471
 2630SOL    HW119523   3.016   1.792  16.653  1.0529 -1.6362 -0.3503
 2630SOL    HW219524   3.135   1.855  16.722  1.6948  0.5281 -0.8511
 2631SOL     OW19525   0.010   2.839   7.115  0.3191  0.3628 -0.4840
 2631SOL    HW119526   0.087   2.782   7.113 -0.5947 -0.8486 -1.3441
 2631SOL    HW219527   0.026   2.894   7.191  1.1692  0.2856 -0.6113
 2632SOL     OW19528   0.866   2.458  13.346 -0.1919 -0.6819  0.3522
 2632SOL    HW119529   0.909   2.471  13.262 -2.4987  0.5914 -0.6229
 2632SOL    HW219530   0.942   2.439  13.401 -0.3897 -1.8827  0.2290
 2633SOL     OW19531   0.345   1.142  12.259  0.1289 -0.3283 -0.2448
 2633SOL    HW119532   0.317   1.055  12.232  1.4556 -0.4397 -1.2669
 2633SOL    HW219533   0.437   1.143  12.232  0.0317 -1.5270 -0.6326
 2634SOL     OW19534   0.491   2.882   7.474  0.5044  0.0482  0.7335
 2634SOL    HW119535   0.424   2.822   7.508  2.1133 -1.0721  1.9141
 2634SOL    HW219536   0.438   2.935   7.415  0.1079 -2.6206 -1.3068
 2635SOL     OW19537   0.977   3.080   0.751 -0.2469 -0.0298  0.2572
 2635SOL    HW119538   1.033   3.047   0.681 -0.4828 -0.4681  0.2773
 2635SOL    HW219539   1.040   3.101   0.820 -0.1783  2.8363 -0.6931
 2636SOL     OW19540   3.260   3.117   2.662  0.9748  0.5082  0.3258
 2636SOL    HW119541   3.278   3.053   2.594  0.8824 -1.4627  2.1527
 2636SOL    HW219542   3.322   3.188   2.647 -0.5720  1.9398  0.6527
 2637SOL     OW19543   0.131   2.960  10.317  0.1922 -0.2647  0.3960
 2637SOL    HW119544   0.075   3.008  10.256  1.6943  0.4576 -0.4123
 2637SOL    HW219545   0.185   3.032  10.349 -0.8362 -0.7344  3.1221
 2638SOL     OW19546   0.902   3.285   1.677 -0.0388 -0.3416 -0.0724
 2638SOL    HW119547   0.991   3.249   1.680 -0.8548 -2.1530  2.2390
 2638SOL    HW219548   0.886   3.282   1.771 -0.8601 -0.2404 -0.2091
 2639SOL     OW19549   2.294   3.513   8.618  0.5414 -0.3632 -0.4811
 2639SOL    HW119550   2.199   3.509   8.605  0.4572 -1.0065  0.3514
 2639SOL    HW219551   2.312   3.419   8.619  0.7191 -0.3830 -4.4050
 2640SOL     OW19552   2.559   0.898  14.506  0.4940  0.9568 -0.0398
 2640SOL    HW119553   2.563   0.853  14.422  1.2369 -1.8059  1.4929
 2640SOL    HW219554   2.616   0.971  14.483  0.6072  1.7035  2.5420
 2641SOL     OW19555   1.959   2.392   4.402  0.1150 -0.4701 -0.3118
 2641SOL    HW119556   1.983   2.309   4.443  0.1695 -1.2615 -1.9505
 2641SOL    HW219557   1.865   2.380   4.416 -0.1773 -0.0394 -1.8387
 2642SOL     OW19558   4.568   1.020   3.883  0.3157 -0.1878  0.0627
 2642SOL    HW119559   4.535   1.105   3.911  0.7848 -0.3259  1.0148
 2642SOL    HW219560   4.503   1.001   3.815  1.3411  0.3016 -1.0761
 2643SOL     OW19561   2.229   1.420  16.059 -0.6147 -0.2753  0.1129
 2643SOL    HW119562   2.251   1.416  16.152  2.2783 -0.6228 -0.5974
 2643SOL    HW219563   2.296   1.364  16.018  0.7427  0.4725  1.3260
 2644SOL     OW19564   4.337   2.433   5.743  0.7040 -0.6548  0.2637
 2644SOL    HW119565   4.361   2.524   5.761  2.2165 -1.5810  2.9342
 2644SOL    HW219566   4.288   2.418   5.824  2.8986  0.4246  1.7972
 2645SOL     OW19567   3.663   3.751   4.767  0.0164 -0.3208 -0.3656
 2645SOL    HW119568   3.702   3.736   4.681  1.0869 -2.8718  0.5534
 2645SOL    HW219569   3.656   3.846   4.771  2.4465 -0.2124  1.4871
 2646SOL     OW19570   3.777   0.948   5.205  0.3922 -0.5941 -0.0526
 2646SOL    HW119571   3.760   0.874   5.146 -2.3861 -1.1590  1.4449
 2646SOL    HW219572   3.701   0.952   5.263  0.4308  2.0053 -0.2059
 2647SOL     OW19573   2.513   2.622   1.824  0.1786 -0.1403  0.3051
 2647SOL    HW119574   2.505   2.563   1.899 -3.8788  0.9691  0.7429
 2647SOL    HW219575   2.563   2.694   1.864 -2.3475  2.6069 -1.4981
 2648SOL     OW19576   3.525   1.849   6.024 -0.4132 -0.1381  0.5016
 2648SOL    HW119577   3.567   1.844   6.110 -2.1516  0.4683  1.3996
 2648SOL    HW219578   3.594   1.876   5.964 -0.4341 -4.0744 -1.2346
 2649SOL     OW19579   0.059   4.208   6.221  0.0417  0.6455  0.7149
 2649SOL    HW119580   0.009   4.129   6.246 -0.9910  1.2408  0.5445
 2649SOL    HW219581   0.053   4.256   6.304 -0.5055  0.7447  0.6199
 2650SOL     OW19582   4.110   1.645  14.430 -0.1089 -0.0810 -0.3311
 2650SOL    HW119583   4.107   1.738  14.409  0.4281  0.4269  1.8442
 2650SOL    HW219584   4.099   1.653  14.525  0.6873  0.8936 -0.3213
 2651SOL     OW19585   4.363   1.626   5.158 -0.2040 -0.2021 -0.6775
 2651SOL    HW119586   4.325   1.540   5.176  1.0247 -0.7399 -0.6191
 2651SOL    HW219587   4.409   1.603   5.077 -0.2067 -0.7857 -0.5102
 2652SOL     OW19588   3.932   0.508  10.227  0.0882  0.2078  0.9571
 2652SOL    HW119589   3.896   0.420  10.221  0.5353  0.2759 -2.4543
 2652SOL    HW219590   3.950   0.528  10.136 -1.6808 -0.9939  0.3496
 2653SOL     OW19591   0.996   4.418   8.857  0.1887 -0.9069  0.1120
 2653SOL    HW119592   1.032   4.330   8.847  0.7461 -0.6729  0.0569
 2653SOL    HW219593   0.905   4.398   8.879 -0.0947  0.6759  0.3940
 2654SOL     OW19594   0.262   4.051   2.762  0.0886  0.2219 -0.4880
 2654SOL    HW119595   0.337   4.060   2.702 -0.7520 -1.4631 -1.7689
 2654SOL    HW219596   0.267   4.128   2.819  2.5413  0.1725 -0.6113
 2655SOL     OW19597   3.394   0.453   2.043 -0.0421  0.3064 -0.1795
 2655SOL    HW119598   3.415   0.502   1.963 -1.3886 -0.6337 -1.1129
 2655SOL    HW219599   3.403   0.524   2.106 -0.6715 -0.8290  1.1812
 2656SOL     OW19600   4.467   2.700   2.012 -0.5421 -0.6019  0.0778
 2656SOL    HW119601   4.554   2.690   2.050 -0.7296 -2.8778 -0.0388
 2656SOL    HW219602   4.495   2.694   1.921 -1.5162 -0.1263 -0.2531
 2657SOL     OW19603   1.084   2.119   7.985  0.0248 -0.1969 -0.7075
 2657SOL    HW119604   1.137   2.048   8.023  1.0683  1.7645  1.5225
 2657SOL    HW219605   1.058   2.157   8.068 -1.3314 -1.7695 -0.4078
 2658SOL     OW19606   3.740   2.040   2.529  0.2470  0.2780  0.0395
 2658SOL    HW119607   3.801   2.046   2.603  0.6945 -1.8923 -0.1624
 2658SOL    HW219608   3.744   1.945   2.517  0.3180  0.0231  1.9735
 2659SOL     OW19609   3.812   3.570  16.809  0.0836 -0.1487 -0.3667
 2659SOL    HW119610   3.828   3.478  16.833  1.5574  0.0501 -0.5582
 2659SOL    HW219611   3.751   3.561  16.736 -0.8958 -3.5459  0.8474
 2660SOL     OW19612   0.521   3.115  15.434  0.6050 -0.1274  0.0985
 2660SOL    HW119613   0.482   3.044  15.383  0.9826 -0.6333  0.5116
 2660SOL    HW219614   0.602   3.128  15.383  1.4580 -2.6868  0.7935
 2661SOL     OW19615   2.502   1.447   5.282 -0.6257  0.4002  0.3395
 2661SOL    HW119616   2.434   1.388   5.315  0.2699  0.9273  3.1315
 2661SOL    HW219617   2.502   1.423   5.190 -2.7687 -0.2071  0.4894
 2662SOL     OW19618   1.617   0.612  15.453  0.1658 -0.2911  0.1108
 2662SOL    HW119619   1.697   0.663  15.445 -0.6251  1.1853  1.6388
 2662SOL    HW219620   1.601   0.607  15.548  2.5079 -0.7450  0.4685
 2663SOL     OW19621   3.517   3.657   8.497  0.0360 -0.3015  0.4140
 2663SOL    HW119622   3.422   3.653   8.491  0.1063  1.1924 -1.7048
 2663SOL    HW219623   3.539   3.618   8.412 -1.7672  1.6981 -0.9734
 2664SOL     OW19624   0.326   1.768   7.384 -0.2217 -0.1425  0.3387
 2664SOL    HW119625   0.389   1.831   7.419  1.1273 -1.3033 -0.0073
 2664SOL    HW219626   0.370   1.723   7.312  1.5947 -0.7227  1.8064
 2665SOL     OW19627   3.768   2.418  16.498  0.2602  0.3500  0.1399
 2665SOL    HW119628   3.808   2.496  16.461  1.1560 -1.9466 -3.7714
 2665SOL    HW219629   3.789   2.431  16.590  2.1131 -0.2826 -0.1896
 2666SOL     OW19630   2.297   2.362   2.546 -0.1428 -0.0820 -0.0521
 2666SOL    HW119631   2.252   2.277   2.545 -1.2328  0.4842  0.9101
 2666SOL    HW219632   2.285   2.399   2.459 -0.0060 -0.6883 -0.3337
 2667SOL     OW19633   1.744   3.204  12.835  0.3066  0.2204  0.9772
 2667SOL    HW119634   1.684   3.130  12.833 -0.1629  0.5874  1.3278
 2667SOL    HW219635   1.754   3.221  12.741 -1.9100  1.2844  0.9103
 2668SOL     OW19636   2.250   0.537  10.712 -0.2233  0.1489 -0.4004
 2668SOL    HW119637   2.262   0.461  10.655  0.5569 -0.8255  1.0657
 2668SOL    HW219638   2.194   0.591  10.656 -0.2159 -0.8754 -1.4018
 2669SOL     OW19639   4.035   3.811   3.704 -0.0921  0.1485 -0.3025
 2669SOL    HW119640   3.965   3.847   3.758 -0.0508 -1.2070  0.6779
 2669SOL    HW219641   3.999   3.825   3.617  0.9970  1.9072 -0.4558
 2670SOL     OW19642   0.406   1.192   9.786 -0.1029  0.4055  0.7175
 2670SOL    HW119643   0.363   1.109   9.806  1.1733 -0.0994  1.3866
 2670SOL    HW219644   0.456   1.205   9.867  0.0317  2.1471  0.3708
 2671SOL     OW19645   2.893   1.285  13.942 -0.4242  0.0413  0.1007
 2671SOL    HW119646   2.915   1.227  13.870  0.3562 -2.2227  2.1873
 2671SOL    HW219647   2.808   1.325  13.923 -0.4996  0.0632  0.4995
 2672SOL     OW19648   1.629   0.553  13.721 -0.2141 -0.4485  0.1204
 2672SOL    HW119649   1.576   0.595  13.653 -0.2074 -1.5904 -0.5925
 2672SOL    HW219650   1.572   0.477  13.732 -0.1047 -0.8310 -1.9901
 2673SOL     OW19651   2.950   2.626  11.979  0.0595  0.7069  0.2076
 2673SOL    HW119652   2.863   2.587  11.971  1.2363 -1.8284 -0.0911
 2673SOL    HW219653   2.939   2.662  12.067 -0.8631 -0.1785  0.4568
 2674SOL     OW19654   3.073   2.848   6.845 -0.0751 -0.2517  0.5403
 2674SOL    HW119655   3.100   2.786   6.777  0.9941  0.1459  0.6116
 2674SOL    HW219656   3.057   2.934   6.807 -0.0606 -0.5511 -0.1431
 2675SOL     OW19657   3.792   3.468   8.017  0.8314 -0.4713  0.0851
 2675SOL    HW119658   3.773   3.406   8.087  1.1646 -0.2241  0.3920
 2675SOL    HW219659   3.738   3.435   7.945  0.0428  1.6448 -0.3037
 2676SOL     OW19660   4.559   1.965   0.551  0.4370  0.0253 -0.1839
 2676SOL    HW119661   4.640   1.915   0.541  0.4616  0.1771 -0.7107
 2676SOL    HW219662   4.599   2.043   0.589 -2.8912  1.4105  0.4703
 2677SOL     OW19663   3.993   0.288   6.066 -0.1838 -0.2499 -0.4800
 2677SOL    HW119664   3.998   0.309   5.973 -0.5341  2.1017  0.0391
 2677SOL    HW219665   3.925   0.347   6.100 -0.3374 -2.4144  2.9887
 2678SOL     OW19666   4.424   3.947   6.411 -0.6149  0.2956 -0.0874
 2678SOL    HW119667   4.473   3.938   6.329  1.7314  2.1843  1.0743
 2678SOL    HW219668   4.373   4.021   6.376  1.9535  0.5670 -3.3032
 2679SOL     OW19669   2.783   1.890   1.278 -0.1755  0.4040  0.7880
 2679SOL    HW119670   2.792   1.802   1.315 -1.4678  1.6627  4.0466
 2679SOL    HW219671   2.872   1.924   1.275 -0.4305  1.0702  0.7916
 2680SOL     OW19672   0.951   3.784   4.581  0.6446 -0.1100  0.1378
 2680SOL    HW119673   0.931   3.698   4.618  0.8732  0.2071  0.9903
 2680SOL    HW219674   0.958   3.752   4.491 -0.7161 -3.2973  1.1788
 2681SOL     OW19675   1.602   0.391   0.926  0.0900 -0.1495  0.5367
 2681SOL    HW119676   1.627   0.446   0.851  0.0372  0.6606  1.1152
 2681SOL    HW219677   1.592   0.303   0.889 -0.2683  0.1289 -0.0228
 2682SOL     OW19678   1.991   3.205  17.237 -0.5437  0.9038  0.0226
 2682SOL    HW119679   2.019   3.175  17.324  0.3743  1.1138 -0.2079
 2682SOL    HW219680   1.929   3.133  17.223  0.5281  0.4400 -2.1496
 2683SOL     OW19681   4.682   2.039  15.320  0.0915 -0.0785 -0.4018
 2683SOL    HW119682   0.040   2.041  15.326  0.0429 -1.9074  0.8273
 2683SOL    HW219683   4.670   1.980  15.246 -0.7939  0.3251 -0.5798
 2684SOL     OW19684   2.737   1.564   7.766 -0.5757 -0.2775 -0.1210
 2684SOL    HW119685   2.768   1.524   7.847  0.4705  2.3461  0.7822
 2684SOL    HW219686   2.678   1.632   7.798  0.6520  1.1318 -0.8050
 2685SOL     OW19687   4.106   0.744  14.706 -1.0147 -0.4908  0.7232
 2685SOL    HW119688   4.141   0.759  14.794  2.2989 -3.7184 -0.0194
 2685SOL    HW219689   4.162   0.668  14.692  1.3974  0.9151  2.6983
 2686SOL     OW19690   3.262   3.138   8.654 -0.0559  0.2167 -0.2459
 2686SOL    HW119691   3.340   3.158   8.706  0.7546 -0.8850 -1.0414
 2686SOL    HW219692   3.226   3.226   8.649 -0.8255 -0.0253  1.0149
 2687SOL     OW19693   2.523   2.470   1.089 -0.0203  0.7793 -0.5398
 2687SOL    HW119694   2.548   2.378   1.091  1.4204  1.1988  1.3486
 2687SOL    HW219695   2.434   2.461   1.122 -0.4825  0.3395 -1.9090
 2688SOL     OW19696   1.388   2.224   1.336 -0.0937  0.1566 -0.3541
 2688SOL    HW119697   1.364   2.169   1.410  0.6644 -2.7240 -2.2792
 2688SOL    HW219698   1.478   2.251   1.357 -0.0348 -0.6398  0.4140
 2689SOL     OW19699   1.582   3.655   0.531  0.1903  0.3150 -0.3576
 2689SOL    HW119700   1.659   3.634   0.583  1.2370  2.2867 -1.1241
 2689SOL    HW219701   1.576   3.581   0.470  0.2573  0.1242 -0.1278
 2690SOL     OW19702   3.517   4.278   2.763  0.8212  0.3350  0.3020
 2690SOL    HW119703   3.541   4.234   2.844 -1.4835 -4.1288 -1.4741
 2690SOL    HW219704   3.429   4.245   2.745  0.8938 -0.4501  1.3807
 2691SOL     OW19705   3.466   2.339  11.430  0.0056 -0.0248  0.4779
 2691SOL    HW119706   3.467   2.379  11.517  0.8848 -1.4990  1.1423
 2691SOL    HW219707   3.412   2.408  11.392 -1.6290 -1.1671  0.7385
 2692SOL     OW19708   2.195   0.485   2.807 -0.5040 -0.7768 -0.1131
 2692SOL    HW119709   2.166   0.452   2.892  0.7684  0.7245  0.8979
 2692SOL    HW219710   2.159   0.573   2.807 -2.6224 -1.6549  0.3554
 2693SOL     OW19711   2.858   0.422   7.127  0.1797  0.2372  0.3432
 2693SOL    HW119712   2.811   0.341   7.105 -1.6480  0.5450  3.0281
 2693SOL    HW219713   2.807   0.491   7.085  0.3628 -2.2681 -3.9857
 2694SOL     OW19714   1.386   1.775   6.615  0.6543 -0.1282 -0.0512
 2694SOL    HW119715   1.294   1.760   6.639  0.5755  0.9282  0.2841
 2694SOL    HW219716   1.381   1.741   6.526 -1.8179 -2.8336  1.1219
 2695SOL     OW19717   2.381   3.417   3.262 -0.4007  0.8394  0.2972
 2695SOL    HW119718   2.295   3.386   3.231  0.6436 -0.6897 -1.0584
 2695SOL    HW219719   2.375   3.401   3.356  0.1026  1.8571  0.5039
 2696SOL     OW19720   0.020   2.273   2.765 -0.7430  0.1913 -0.1944
 2696SOL    HW119721   4.716   2.281   2.851  0.8075 -1.8666  0.7139
 2696SOL    HW219722   0.059   2.361   2.768 -1.0413  0.3023  0.5105
 2697SOL     OW19723   3.676   2.258   3.539 -0.3517 -0.7266  0.6974
 2697SOL    HW119724   3.751   2.302   3.579  0.6943  0.4527 -2.5454
 2697SOL    HW219725   3.636   2.211   3.612 -0.4381 -1.8420 -0.0604
 2698SOL     OW19726   1.348   4.142  12.711 -0.3618 -0.4041 -0.5692
 2698SOL    HW119727   1.292   4.138  12.634  0.5412 -3.6374 -1.0653
 2698SOL    HW219728   1.323   4.054  12.742 -1.8873 -0.0810 -0.9128
 2699SOL     OW19729   1.781   4.543   6.275 -0.3860  0.0174 -0.4612
 2699SOL    HW119730   1.716   4.496   6.223 -0.9338  1.5541 -1.1473
 2699SOL    HW219731   1.739   4.626   6.298 -0.1981 -0.1263  0.4200
 2700SOL     OW19732   3.450   3.099   6.234 -0.5386 -0.3753 -0.4323
 2700SOL    HW119733   3.455   3.192   6.212 -0.4462 -0.2071  0.2945
 2700SOL    HW219734   3.372   3.098   6.290  1.2397  2.0648  2.0875
 2701SOL     OW19735   2.146   3.990   4.846  0.4029 -0.2216  0.7750
 2701SOL    HW119736   2.231   4.035   4.843  0.3355 -0.2473 -2.1653
 2701SOL    HW219737   2.167   3.898   4.833 -0.6836 -0.1779 -1.3757
 2702SOL     OW19738   1.701   3.375   8.158 -0.1944  0.1918  0.0804
 2702SOL    HW119739   1.786   3.354   8.196 -1.0046 -1.0963  1.1937
 2702SOL    HW219740   1.679   3.288   8.123  0.6087 -0.8325  2.1234
 2703SOL     OW19741   2.856   1.305   2.625  0.3577 -0.0374 -0.0428
 2703SOL    HW119742   2.850   1.210   2.640  3.0428 -0.1694  0.1205
 2703SOL    HW219743   2.845   1.307   2.530 -0.2565  1.7006  0.0603
 2704SOL     OW19744   1.454   0.407  11.736 -0.0016 -0.3428 -0.3370
 2704SOL    HW119745   1.468   0.335  11.675 -3.2385 -0.4828 -0.8690
 2704SOL    HW219746   1.415   0.473  11.679  1.8512  2.0479  1.1322
 2705SOL     OW19747   2.215   4.533   6.451  0.2025  0.1281 -0.3252
 2705SOL    HW119748   2.158   4.470   6.407 -1.5640  0.9307  0.7975
 2705SOL    HW219749   2.211   4.499   6.541 -1.4005  0.4224 -0.2844
 2706SOL     OW19750   3.302   2.653   3.496 -0.2442  0.6250 -0.1567
 2706SOL    HW119751   3.364   2.666   3.424 -1.3008 -1.1609 -1.3579
 2706SOL    HW219752   3.325   2.718   3.563 -2.5957  1.5720 -0.2649
 2707SOL     OW19753   2.703   0.727  13.773  0.6374  0.0267  0.1024
 2707SOL    HW119754   2.627   0.724  13.831  2.6031 -0.8502  2.6313
 2707SOL    HW219755   2.660   0.756  13.692  0.5648  0.6670  0.3742
 2708SOL     OW19756   3.630   0.509   3.096 -0.4114  0.1324  0.0620
 2708SOL    HW119757   3.658   0.494   3.005  0.2677 -1.5026  0.5436
 2708SOL    HW219758   3.583   0.591   3.083 -1.1072 -0.1793  0.6166
 2709SOL     OW19759   1.173   2.315   6.751  0.0153 -0.1770 -0.3700
 2709SOL    HW119760   1.227   2.389   6.723 -0.1327  0.6230  1.5061
 2709SOL    HW219761   1.239   2.250   6.773  1.4107 -0.4732 -5.3766
 2710SOL     OW19762   3.680   0.750  10.192  0.3174  0.6944 -0.1082
 2710SOL    HW119763   3.770   0.747  10.160  0.0740  1.1808 -0.8390
 2710SOL    HW219764   3.689   0.803  10.271 -2.0390 -1.0169  1.3059
 2711SOL     OW19765   4.551   2.578   5.567 -0.6185  0.3114  0.3950
 2711SOL    HW119766   4.545   2.610   5.657 -0.5370 -2.5659  1.4286
 2711SOL    HW219767   4.483   2.510   5.567  0.3836 -0.7028  0.4305
 2712SOL     OW19768   3.603   0.509  10.110 -0.4485 -0.0355 -0.1215
 2712SOL    HW119769   3.623   0.597  10.142 -0.9500 -0.6587  1.9430
 2712SOL    HW219770   3.684   0.476  10.073 -0.9174 -0.3552 -0.8711
 2713SOL     OW19771   3.101   1.954  13.676  0.1168 -0.2374 -0.2916
 2713SOL    HW119772   3.020   1.974  13.723 -0.0035 -1.4443  0.0158
 2713SOL    HW219773   3.085   1.861  13.663  1.3370 -0.7077  1.6750
 2714SOL     OW19774   0.029   3.471   5.419  0.1992  0.0239 -0.0604
 2714SOL    HW119775   4.720   3.448   5.500 -0.9105  1.1849 -0.3738
 2714SOL    HW219776   0.087   3.394   5.423  0.4739  0.2314 -0.0386
 2715SOL     OW19777   4.219   0.374   8.409 -0.4629  0.4452 -0.1095
 2715SOL    HW119778   4.136   0.383   8.457 -1.2324  1.2158 -1.5774
 2715SOL    HW219779   4.275   0.444   8.441  0.2207  1.1996 -2.9767
 2716SOL     OW19780   2.963   0.992   6.581  0.1206 -0.2972  0.2689
 2716SOL    HW119781   2.912   1.071   6.594 -0.0452 -0.3832  0.1533
 2716SOL    HW219782   2.990   1.006   6.490  0.8799  0.9617  0.6952
 2717SOL     OW19783   3.604   3.734   2.763  0.1908  0.1338 -0.1554
 2717SOL    HW119784   3.517   3.765   2.738  0.3846  0.1110 -0.8387
 2717SOL    HW219785   3.616   3.688   2.681 -4.7656 -2.1211  0.3806
 2718SOL     OW19786   0.716   1.559  11.830  0.3032  0.6633  0.0188
 2718SOL    HW119787   0.730   1.628  11.766 -0.9480 -0.8249 -1.8419
 2718SOL    HW219788   0.738   1.481  11.778 -1.1197 -1.0893  1.9953
 2719SOL     OW19789   2.150   0.239   7.854  0.3934  0.4490 -0.1852
 2719SOL    HW119790   2.223   0.286   7.893 -0.8131  1.1693  1.1951
 2719SOL    HW219791   2.119   0.311   7.800 -3.9491 -2.2899 -1.3447
 2720SOL     OW19792   1.513   3.695   7.466  0.2160  0.3108 -0.3554
 2720SOL    HW119793   1.478   3.697   7.377  1.9208 -0.0197 -1.0348
 2720SOL    HW219794   1.513   3.788   7.490 -0.2877  0.3852 -0.6362
 2721SOL     OW19795   2.866   0.017   6.586  0.6569 -0.1831 -0.6905
 2721SOL    HW119796   2.772   0.029   6.593  0.8079  1.1166 -0.8120
 2721SOL    HW219797   2.878   4.692   6.515  2.2730 -0.5188 -0.1388
 2722SOL     OW19798   3.577   2.087   5.390 -0.5187 -0.3661 -0.5010
 2722SOL    HW119799   3.525   2.007   5.402 -0.2215 -0.4241  0.4515
 2722SOL    HW219800   3.646   2.080   5.457  0.3708  0.1774 -1.3690
 2723SOL     OW19801   3.685   0.960  14.449  0.0522 -0.1187  0.3721
 2723SOL    HW119802   3.626   0.963  14.524 -0.3130  1.7696 -0.0150
 2723SOL    HW219803   3.677   1.052  14.424  0.4684  0.1813  1.3449
 2724SOL     OW19804   1.017   0.520  17.567 -0.4009  0.0767  0.0226
 2724SOL    HW119805   1.053   0.479  17.488 -1.2005  0.6094 -0.6201
 2724SOL    HW219806   0.925   0.527  17.542 -0.2442 -0.1425 -0.6213
 2725SOL     OW19807   3.835   4.145  12.062  0.8380  0.2972  0.0528
 2725SOL    HW119808   3.752   4.150  12.111  1.5845  0.6598  1.2628
 2725SOL    HW219809   3.819   4.208  11.991  0.0191 -1.2495 -1.1565
 2726SOL     OW19810   3.933   3.629   4.550  0.3023 -0.4895 -0.2053
 2726SOL    HW119811   3.952   3.723   4.550  1.2758 -0.6833  0.8856
 2726SOL    HW219812   3.967   3.611   4.638 -0.0560 -0.4770 -0.0646
 2727SOL     OW19813   2.971   2.183   1.874 -0.7299 -0.5887  0.0910
 2727SOL    HW119814   2.919   2.186   1.794  0.4088 -4.0682 -0.7825
 2727SOL    HW219815   2.901   2.190   1.940  0.0944  0.1282  0.8828
 2728SOL     OW19816   2.174   4.520   1.544 -0.1461 -0.1480  0.1967
 2728SOL    HW119817   2.248   4.545   1.600 -0.9835  1.0483  0.7897
 2728SOL    HW219818   2.174   4.425   1.553 -2.0274 -0.2241 -0.5746
 2729SOL     OW19819   3.048   3.726   0.849 -0.3596 -0.3128  0.4889
 2729SOL    HW119820   2.954   3.725   0.864 -0.6025 -2.3907 -1.1066
 2729SOL    HW219821   3.042   3.730   0.753 -1.1269  0.8969  0.5961
 2730SOL     OW19822   2.834   0.064   1.156  0.2501  0.3644 -0.0364
 2730SOL    HW119823   2.787   4.730   1.114 -1.8099  2.2122 -0.8624
 2730SOL    HW219824   2.848   0.129   1.088 -1.9872  1.9439  1.0374
 2731SOL     OW19825   1.090   4.710   1.499 -0.3946 -0.4139  0.1235
 2731SOL    HW119826   1.036   0.021   1.562  0.9261  2.0199 -0.5867
 2731SOL    HW219827   1.151   0.044   1.483 -0.8046 -0.3842 -1.2518
 2732SOL     OW19828   4.703   1.706   5.444  0.7022  0.0445 -0.0037
 2732SOL    HW119829   4.690   1.791   5.486  2.5696 -0.5347  1.8146
 2732SOL    HW219830   4.722   1.733   5.355 -1.6242 -0.4471 -0.6287
 2733SOL     OW19831   0.017   2.219   8.825 -0.5541 -0.0544 -0.1648
 2733SOL    HW119832   0.012   2.131   8.789  1.8781 -1.7901  3.7603
 2733SOL    HW219833   0.050   2.199   8.913 -0.3232  0.5943 -0.1051
 2734SOL     OW19834   1.221   0.234   6.715 -0.0177  0.0107 -0.1080
 2734SOL    HW119835   1.273   0.164   6.755  2.2280  0.7879 -1.6661
 2734SOL    HW219836   1.203   0.195   6.629  1.2069  2.6400 -1.5375
 2735SOL     OW19837   0.481   0.379   5.797 -0.1734  0.3479  0.0324
 2735SOL    HW119838   0.558   0.382   5.854  0.6577 -0.0039 -1.0722
 2735SOL    HW219839   0.414   0.331   5.846  0.5104 -2.2486 -1.5223
 2736SOL     OW19840   1.676   4.670   5.682 -0.4643  0.1190 -0.2631
 2736SOL    HW119841   1.756   4.677   5.630 -0.4692 -1.5096 -0.4810
 2736SOL    HW219842   1.635   0.014   5.653 -2.5142 -0.7936  0.0314
 2737SOL     OW19843   2.269   3.785  15.336 -0.7553 -0.5141 -0.4461
 2737SOL    HW119844   2.338   3.719  15.328 -0.5556 -0.2839 -0.5987
 2737SOL    HW219845   2.325   3.860  15.355 -0.6368 -0.6160 -0.3952
 2738SOL     OW19846   1.951   3.069   6.224 -0.6846 -0.3032  0.9963
 2738SOL    HW119847   1.919   3.077   6.313  1.1374  1.3850  1.4941
 2738SOL    HW219848   2.043   3.068   6.249 -0.5964  4.7328  0.8072
 2739SOL     OW19849   0.603   2.886   7.919 -0.4651  0.0877  0.4106
 2739SOL    HW119850   0.528   2.825   7.916 -0.3163 -0.1834  2.3116
 2739SOL    HW219851   0.635   2.870   7.830  0.5187 -0.7657  0.9306
 2740SOL     OW19852   4.609   1.805   7.370  0.0885 -0.7603  0.5859
 2740SOL    HW119853   4.556   1.760   7.305  0.5651  0.8923 -0.9548
 2740SOL    HW219854   4.686   1.830   7.321 -0.6437  3.0939  1.3640
 2741SOL     OW19855   2.752   3.257   8.830 -0.1663 -0.0643 -0.2030
 2741SOL    HW119856   2.836   3.250   8.875  0.5940 -1.3642 -1.8103
 2741SOL    HW219857   2.757   3.351   8.812 -0.0692 -0.1867 -0.8221
 2742SOL     OW19858   0.175   2.183   4.922 -0.3216 -0.8742 -0.3111
 2742SOL    HW119859   0.268   2.165   4.931  0.0211  1.3744  0.5747
 2742SOL    HW219860   0.148   2.108   4.868 -0.1951 -1.1148 -0.0370
 2743SOL     OW19861   3.740   1.837   9.175  0.3325 -0.1739  0.2915
 2743SOL    HW119862   3.809   1.814   9.112 -0.9002 -1.1327 -0.7006
 2743SOL    HW219863   3.722   1.916   9.124 -0.3026  0.0420  0.8534
 2744SOL     OW19864   1.441   0.765  12.478  0.4218  0.3633  0.3660
 2744SOL    HW119865   1.359   0.745  12.524  0.4100 -0.9168 -0.2001
 2744SOL    HW219866   1.501   0.771  12.552 -0.1207 -1.2560  0.9519
 2745SOL     OW19867   4.098   2.541   7.752 -0.2368  0.2557  0.1883
 2745SOL    HW119868   4.146   2.614   7.714  0.2326  0.2153  0.7065
 2745SOL    HW219869   4.169   2.489   7.789  0.5481  0.9779 -0.3197
 2746SOL     OW19870   0.714   4.636   4.953  0.7693  0.2529 -0.4969
 2746SOL    HW119871   0.670   4.665   4.873 -1.0127 -0.9369  0.0316
 2746SOL    HW219872   0.654   4.657   5.025 -0.7941  0.5249 -1.8654
 2747SOL     OW19873   1.808   3.892   6.303 -0.6119 -0.1955  0.4896
 2747SOL    HW119874   1.829   3.957   6.235  2.6717 -0.7674  0.9763
 2747SOL    HW219875   1.809   3.814   6.247 -0.7424  0.1129  0.0531
 2748SOL     OW19876   1.801   3.518  16.635 -0.3854  0.1513  0.0416
 2748SOL    HW119877   1.822   3.487  16.546 -0.5339 -0.9521  0.3920
 2748SOL    HW219878   1.871   3.476  16.685  0.2146  0.4160 -0.5741
 2749SOL     OW19879   4.589   0.090   4.512  0.0104  0.3746  0.0565
 2749SOL    HW119880   4.580   0.143   4.433 -2.0530  1.3285  0.9245
 2749SOL    HW219881   4.580   0.164   4.572  2.4865 -0.1383  1.0429
 2750SOL     OW19882   3.287   1.652   2.641  0.2176 -0.1866  0.4740
 2750SOL    HW119883   3.241   1.601   2.575  0.6417 -1.1438  0.9115
 2750SOL    HW219884   3.237   1.611   2.712 -1.1194 -1.0276 -0.9490
 2751SOL     OW19885   0.914   4.490   5.995  0.4071 -0.0568  0.6833
 2751SOL    HW119886   0.857   4.456   6.064 -0.2662  0.6676  0.4813
 2751SOL    HW219887   0.929   4.409   5.946 -1.8361 -0.2138  0.2467
 2752SOL     OW19888   1.081   3.037   7.351  0.1952  0.1718  0.0492
 2752SOL    HW119889   1.022   3.104   7.387 -2.0070 -1.3057 -0.7954
 2752SOL    HW219890   1.167   3.077   7.356  1.1315 -1.7694 -0.7356
 2753SOL     OW19891   0.407   2.100   3.352 -0.2934  0.1560 -0.6941
 2753SOL    HW119892   0.491   2.080   3.310 -0.9476 -0.4881 -1.6868
 2753SOL    HW219893   0.433   2.125   3.441  1.3243 -1.2274 -0.7751
 2754SOL     OW19894   0.577   1.394   1.349  0.1186  0.5388  0.9371
 2754SOL    HW119895   0.661   1.425   1.382  1.6612 -1.7160 -0.8504
 2754SOL    HW219896   0.580   1.299   1.340 -0.6015  0.5903  0.1307
 2755SOL     OW19897   0.419   4.537   8.320 -0.3345  0.4816  0.0042
 2755SOL    HW119898   0.346   4.562   8.262  1.4659  0.9218 -2.0717
 2755SOL    HW219899   0.487   4.534   8.253  0.0145  0.3859  0.3686
 2756SOL     OW19900   0.949   0.176  14.685  0.9278 -0.5568 -0.6454
 2756SOL    HW119901   0.882   0.166  14.754 -0.2063  1.4375 -1.4623
 2756SOL    HW219902   0.893   0.150  14.611 -1.0707  1.1960  0.2351
 2757SOL     OW19903   3.286   3.893   7.209  0.0140  0.2175  0.0609
 2757SOL    HW119904   3.270   3.805   7.243 -3.6152  1.5763  1.9652
 2757SOL    HW219905   3.239   3.950   7.271  0.2064  1.7824 -1.2238
 2758SOL     OW19906   1.630   0.841   0.972  0.0708 -0.3869  0.1894
 2758SOL    HW119907   1.653   0.784   1.045 -0.8616 -3.2910 -1.7564
 2758SOL    HW219908   1.636   0.929   1.008  0.5668  0.9146 -3.0900
 2759SOL     OW19909   1.196   0.845   5.759  0.2571  0.3352 -0.4298
 2759SOL    HW119910   1.274   0.889   5.794  0.6463  0.5362 -1.5694
 2759SOL    HW219911   1.149   0.919   5.719 -1.5666 -0.4378  0.2706
 2760SOL     OW19912   0.478   1.717   8.188  0.0414  0.2637  0.3106
 2760SOL    HW119913   0.421   1.770   8.243 -0.6757  0.5970 -0.7615
 2760SOL    HW219914   0.502   1.784   8.125  0.4037  0.0567  0.2289
 2761SOL     OW19915   1.412   0.676   3.044  0.1991  0.1238  0.1493
 2761SOL    HW119916   1.366   0.602   3.004  0.7322  0.3798 -0.9543
 2761SOL    HW219917   1.381   0.751   2.992 -1.0368 -0.2530  0.3422
 2762SOL     OW19918   4.525   1.018   7.535  0.2296  0.1165  0.5311
 2762SOL    HW119919   4.577   0.941   7.558  1.9648  0.6097 -1.7419
 2762SOL    HW219920   4.590   1.088   7.531  0.3809  0.0548  1.8531
 2763SOL     OW19921   4.122   1.509  13.651 -0.2366  0.3925 -0.1076
 2763SOL    HW119922   4.090   1.540  13.567  0.5116  0.4698 -0.3665
 2763SOL    HW219923   4.035   1.496  13.688 -1.1016  1.6421 -1.7579
 2764SOL     OW19924   4.266   0.895   5.235  0.2151  0.3175 -0.6060
 2764SOL    HW119925   4.243   0.886   5.328  1.6427  0.8414 -0.2025
 2764SOL    HW219926   4.361   0.883   5.233  0.1533 -0.5017  1.7392
 2765SOL     OW19927   3.393   3.389   6.335 -0.0116 -0.0297 -0.2402
 2765SOL    HW119928   3.364   3.478   6.353  0.2753 -0.4003  1.9967
 2765SOL    HW219929   3.439   3.405   6.252  0.2274  0.3307 -0.0353
 2766SOL     OW19930   4.258   3.312   7.373 -0.0245  0.3011 -0.4654
 2766SOL    HW119931   4.266   3.352   7.287 -0.6788 -0.8519 -1.0545
 2766SOL    HW219932   4.165   3.334   7.379 -0.4333 -1.4939 -0.1556
 2767SOL     OW19933   4.695   2.200  10.027 -0.0607  0.3194 -0.1860
 2767SOL    HW119934   0.009   2.151  10.091 -0.6557 -1.3450 -0.9874
 2767SOL    HW219935   0.029   2.246   9.983  0.5895  0.1956  0.7218
 2768SOL     OW19936   1.746   4.120   8.310 -0.1095 -0.0552  0.0249
 2768SOL    HW119937   1.712   4.198   8.267  0.8555 -1.0149 -2.4703
 2768SOL    HW219938   1.711   4.134   8.399 -0.1500  1.1588 -0.1865
 2769SOL     OW19939   3.080   0.853   2.989  0.2920 -0.5358 -0.8386
 2769SOL    HW119940   3.157   0.855   3.046 -0.7949  0.4726  0.5893
 2769SOL    HW219941   3.076   0.760   2.965  0.8882 -1.2053  1.6734
 2770SOL     OW19942   0.826   1.335   2.030  0.0141  0.1061  0.2405
 2770SOL    HW119943   0.753   1.392   2.052 -1.9957 -2.8974  1.3567
 2770SOL    HW219944   0.839   1.349   1.936  0.0017 -1.8419 -0.0539
 2771SOL     OW19945   2.413   0.566   1.851 -0.8643 -0.8942  0.3931
 2771SOL    HW119946   2.496   0.614   1.858 -1.9567  0.7453  2.2298
 2771SOL    HW219947   2.438   0.475   1.865 -1.8132 -1.1215  0.6176
 2772SOL     OW19948   3.759   4.685   2.992  0.4019  0.1587  0.6164
 2772SOL    HW119949   3.686   4.629   3.014 -0.0071  0.1290 -0.7877
 2772SOL    HW219950   3.789   4.707   3.080  0.5883  1.3440  0.2676
 2773SOL     OW19951   0.214   1.700  10.762  0.2836 -0.1544  0.3189
 2773SOL    HW119952   0.185   1.714  10.853  2.1632 -2.1620  1.2298
 2773SOL    HW219953   0.306   1.727  10.772  0.2078 -0.1787  1.1447
 2774SOL     OW19954   1.161   0.081   0.187  0.3656  0.1475 -0.3785
 2774SOL    HW119955   1.255   0.094   0.196  0.1868  0.5219  0.8662
 2774SOL    HW219956   1.150   4.734   0.231 -0.9029 -0.3708 -1.6773
 2775SOL     OW19957   4.545   2.773   2.855 -0.0015 -0.5123  0.3218
 2775SOL    HW119958   4.477   2.838   2.841 -0.1321 -0.5969  0.5692
 2775SOL    HW219959   4.603   2.823   2.912  0.1603 -1.0677  0.6420
 2776SOL     OW19960   2.122   4.471   3.891  0.1265  0.0003 -0.6156
 2776SOL    HW119961   2.192   4.487   3.829  1.6637  0.8366  1.3154
 2776SOL    HW219962   2.162   4.388   3.917 -1.7036 -1.1697 -1.5627
 2777SOL     OW19963   0.538   1.084   4.203  0.2397 -0.2726 -0.2841
 2777SOL    HW119964   0.485   1.010   4.172 -0.3598  0.4180 -0.9059
 2777SOL    HW219965   0.627   1.052   4.191  0.0889 -0.5685 -0.5871
 2778SOL     OW19966   4.266   2.024  17.662 -0.6751  0.1183 -0.1887
 2778SOL    HW119967   4.221   2.109  17.669  1.8570  1.5319 -1.1233
 2778SOL    HW219968   4.275   2.001   0.007  0.5658 -2.5253 -0.9859
 2779SOL     OW19969   3.041   3.087   7.505 -0.0599  0.3393  0.2533
 2779SOL    HW119970   2.974   3.151   7.480 -0.3261  0.0451  0.2057
 2779SOL    HW219971   2.995   3.003   7.504  0.3713  0.1076  0.1120
 2780SOL     OW19972   2.076   1.019   1.572 -0.5521  0.1326  0.2758
 2780SOL    HW119973   2.065   0.954   1.504 -1.6831 -0.1173  0.6890
 2780SOL    HW219974   2.152   0.982   1.617 -0.6617  1.1994  1.3535
 2781SOL     OW19975   2.632   1.803  15.218  0.4761 -0.4446 -0.3730
 2781SOL    HW119976   2.599   1.729  15.167  1.4958  0.7553 -2.7460
 2781SOL    HW219977   2.587   1.874  15.173 -0.6016 -0.8951  0.0010
 2782SOL     OW19978   0.845   2.303  13.992  0.1277  0.0807 -0.1767
 2782SOL    HW119979   0.824   2.387  13.952 -1.2132  0.1983  0.7892
 2782SOL    HW219980   0.821   2.242  13.923 -2.7575  0.2806  0.6504
 2783SOL     OW19981   3.924   2.277   4.988 -0.6506  0.3101 -0.3124
 2783SOL    HW119982   3.977   2.266   4.909 -0.6791 -0.2753 -0.2543
 2783SOL    HW219983   3.984   2.245   5.055 -2.8939 -0.4195  1.3401
 2784SOL     OW19984   1.097   2.502   3.075  0.0237 -0.3841 -0.4576
 2784SOL    HW119985   1.180   2.491   3.029  0.7089 -0.2266  0.7476
 2784SOL    HW219986   1.049   2.431   3.032 -1.4269  0.4504 -0.2252
 2785SOL     OW19987   2.910   2.351  15.476 -0.1755 -0.5301  0.1685
 2785SOL    HW119988   2.879   2.340  15.566  0.1549  2.5195  0.6495
 2785SOL    HW219989   3.000   2.319  15.475  0.9088  2.6352 -0.8336
 2786SOL     OW19990   1.884   2.877   6.958  0.1831  0.4879 -0.0578
 2786SOL    HW119991   1.858   2.818   6.887  1.2000  0.8211 -0.7138
 2786SOL    HW219992   1.975   2.884   6.930 -0.1537  0.4057 -1.1729
 2787SOL     OW19993   2.583   3.886   7.598 -0.2394  0.1247  0.3121
 2787SOL    HW119994   2.570   3.943   7.522  0.2208 -0.7188 -0.4099
 2787SOL    HW219995   2.493   3.856   7.613 -0.8350  1.2768 -0.9468
 2788SOL     OW19996   2.881   1.790  15.106 -0.2416 -0.7126  0.0829
 2788SOL    HW119997   2.795   1.785  15.147  0.8941 -1.4006  2.3880
 2788SOL    HW219998   2.852   1.773  15.016 -0.2881 -0.1673 -0.0017
 2789SOL     OW19999   2.246   3.087   7.801  0.0062 -0.4685 -0.0330
 2789SOL    HW120000   2.185   3.062   7.871 -3.5182  0.4855 -2.7929
 2789SOL    HW220001   2.193   3.130   7.734  0.9604  0.1132 -0.4115
 2790SOL     OW20002   2.812   2.805   7.843  0.3842 -0.0610  0.1765
 2790SOL    HW120003   2.775   2.892   7.830 -0.7822 -0.4803  0.6350
 2790SOL    HW220004   2.786   2.782   7.933 -0.5294 -0.1602 -0.1101
 2791SOL     OW20005   0.843   3.819   8.288  0.2420  0.4474  0.2756
 2791SOL    HW120006   0.813   3.909   8.294 -2.0008 -0.5518  3.7618
 2791SOL    HW220007   0.898   3.829   8.210 -1.0503  1.7118 -0.4721
 2792SOL     OW20008   2.831   2.307   8.826 -0.4529  0.3640  0.2534
 2792SOL    HW120009   2.902   2.242   8.830  1.2387  2.3008  1.6010
 2792SOL    HW220010   2.873   2.393   8.828  0.7823 -0.2298 -0.0183
 2793SOL     OW20011   1.482   4.285  15.837 -0.1010  0.0355 -0.2622
 2793SOL    HW120012   1.411   4.319  15.891 -0.4812 -1.2689  0.0584
 2793SOL    HW220013   1.463   4.318  15.749  0.9433 -0.6837 -0.7542
 2794SOL     OW20014   3.368   2.152  12.920 -0.2367 -0.6784  0.4054
 2794SOL    HW120015   3.334   2.066  12.946  2.2064 -1.7784 -0.1098
 2794SOL    HW220016   3.397   2.133  12.830 -0.3007 -2.9883  0.8826
 2795SOL     OW20017   3.312   2.489   4.205  0.0590  0.2460 -0.3772
 2795SOL    HW120018   3.274   2.575   4.186  0.8676  0.9021  0.9822
 2795SOL    HW220019   3.271   2.450   4.128  0.6454 -0.9249 -0.1083
 2796SOL     OW20020   1.622   2.555   4.952 -0.0505  0.2389 -0.1697
 2796SOL    HW120021   1.717   2.557   4.964 -0.3274 -0.7824  2.3229
 2796SOL    HW220022   1.595   2.582   5.040 -1.7978 -0.0943 -0.6106
 2797SOL     OW20023   3.324   1.700  11.147  0.9381 -0.2033  0.9566
 2797SOL    HW120024   3.269   1.661  11.079  0.9210 -0.3839  1.0738
 2797SOL    HW220025   3.407   1.654  11.137  0.6821 -0.6599  0.9569
 2798SOL     OW20026   1.177   3.056  17.349  0.3467 -0.6476  0.2616
 2798SOL    HW120027   1.196   3.089  17.262  1.1831 -0.8075  0.3835
 2798SOL    HW220028   1.176   2.964  17.321  2.1769 -1.0248  1.4284
 2799SOL     OW20029   1.340   0.094   3.923  0.0817  0.0219 -0.0230
 2799SOL    HW120030   1.246   0.078   3.910  0.0864  0.1270 -0.1861
 2799SOL    HW220031   1.378   0.076   3.837  0.6699 -0.9582  0.4396
 2800SOL     OW20032   4.622   4.519   5.482 -0.1924 -0.1995 -0.0384
 2800SOL    HW120033   4.688   4.544   5.546 -1.8704 -0.2160  1.7020
 2800SOL    HW220034   4.665   4.502   5.399 -0.2308 -1.2659  0.1702
 2801SOL     OW20035   1.297   2.783   3.563 -0.4251 -0.3449 -0.3074
 2801SOL    HW120036   1.333   2.776   3.475 -1.5881  1.5970 -0.9283
 2801SOL    HW220037   1.339   2.710   3.608 -1.0642 -0.4212  0.1698
 2802SOL     OW20038   3.095   0.510   4.466 -0.3952  0.5852  0.3090
 2802SOL    HW120039   3.007   0.505   4.503  0.4261 -0.4231  2.0984
 2802SOL    HW220040   3.133   0.430   4.501  0.3573  1.0360  0.5285
 2803SOL     OW20041   3.485   1.058  14.662 -1.0589 -0.3039  0.0048
 2803SOL    HW120042   3.541   1.084  14.735 -2.5162  0.2663  0.9212
 2803SOL    HW220043   3.395   1.064  14.693 -1.3897 -0.7256 -0.8711
 2804SOL     OW20044   4.080   1.278   0.182 -0.4071  0.2555  0.3628
 2804SOL    HW120045   4.095   1.211   0.249  0.2321  1.0889  1.0417
 2804SOL    HW220046   4.168   1.314   0.175  0.8404 -2.7502  0.6171
 2805SOL     OW20047   4.488   0.877  10.460  0.2795  0.1115  0.1001
 2805SOL    HW120048   4.397   0.884  10.431  0.3380  0.0958 -0.0886
 2805SOL    HW220049   4.478   0.872  10.555 -0.3785  0.4380  0.0473
 2806SOL     OW20050   1.982   2.167   5.500 -0.4256  0.1790  0.1925
 2806SOL    HW120051   2.028   2.229   5.557 -0.4708  0.9529 -0.6207
 2806SOL    HW220052   1.951   2.101   5.562 -0.7185 -0.1434 -0.3001
 2807SOL     OW20053   1.679   3.795   8.707  0.8688 -0.1336  0.3654
 2807SOL    HW120054   1.597   3.777   8.662  0.4083 -2.6994  2.2622
 2807SOL    HW220055   1.680   3.729   8.776 -0.6343  0.2212  0.7149
 2808SOL     OW20056   0.555   3.818   1.070 -0.1908 -0.2123  0.3987
 2808SOL    HW120057   0.603   3.745   1.030 -0.6493 -1.1224  1.5072
 2808SOL    HW220058   0.474   3.776   1.043  0.1794 -0.9326  0.3872
 2809SOL     OW20059   4.627   4.624   7.449 -0.1253  0.2587 -0.2253
 2809SOL    HW120060   4.539   4.661   7.445  0.7533  2.4206  0.5325
 2809SOL    HW220061   4.679   4.703   7.436 -0.2178 -0.2921 -3.9728
 2810SOL     OW20062   1.000   1.940  11.782 -0.2477  0.2710  0.3476
 2810SOL    HW120063   1.070   2.004  11.796  0.7021 -0.6817  0.0023
 2810SOL    HW220064   1.044   1.874  11.727 -0.2861  0.0094  0.6326
 2811SOL     OW20065   0.483   2.265   6.617 -0.0894  0.0769  0.0158
 2811SOL    HW120066   0.437   2.276   6.701  1.4017 -0.1777  0.8702
 2811SOL    HW220067   0.408   2.255   6.559 -0.8940 -0.2041  1.0909
 2812SOL     OW20068   3.766   1.068  11.227  0.5490  0.3681 -0.4498
 2812SOL    HW120069   3.697   1.050  11.164  1.2346  0.0396 -1.1128
 2812SOL    HW220070   3.751   1.161  11.246  0.4457 -0.0661  1.5772
 2813SOL     OW20071   1.899   1.704  13.086 -0.4345 -0.1255  0.1730
 2813SOL    HW120072   1.844   1.764  13.037 -0.5267 -0.8043 -0.5577
 2813SOL    HW220073   1.951   1.765  13.137 -0.8498  1.3276 -1.1553
 2814SOL     OW20074   0.048   3.680   7.248 -0.1730 -0.3457  0.6299
 2814SOL    HW120075   0.025   3.767   7.280  0.7034  1.0235 -2.3878
 2814SOL    HW220076   0.141   3.672   7.269  0.1662  2.3285  0.2248
 2815SOL     OW20077   2.788   1.511   4.469  0.2777 -0.8743 -0.4371
 2815SOL    HW120078   2.835   1.532   4.550 -0.0786  2.0501 -1.0067
 2815SOL    HW220079   2.826   1.573   4.406 -0.9576 -0.8640 -1.1618
 2816SOL     OW20080   0.176   0.295   0.097 -0.0711 -0.1473  0.2701
 2816SOL    HW120081   0.241   0.230   0.121  0.6293  0.7650  0.8492
 2816SOL    HW220082   0.092   0.252   0.114 -1.0037  1.3794 -0.4220
 2817SOL     OW20083   3.474   4.685   5.822 -0.6633  0.4413  0.1893
 2817SOL    HW120084   3.390   4.727   5.844 -0.9087 -1.2644  2.4968
 2817SOL    HW220085   3.532   0.009   5.866  0.6097 -0.6747  0.0586
 2818SOL     OW20086   2.414   1.187   4.657  0.0938  0.3815 -0.1841
 2818SOL    HW120087   2.506   1.189   4.630  0.1697 -3.6167 -0.3101
 2818SOL    HW220088   2.376   1.132   4.588 -0.0916 -0.3544  0.4982
 2819SOL     OW20089   4.551   4.203  17.325 -0.5103 -0.0408  0.3028
 2819SOL    HW120090   4.621   4.263  17.350  1.2140 -2.5090  1.4451
 2819SOL    HW220091   4.497   4.253  17.264 -0.1994  0.2226  0.2427
 2820SOL     OW20092   2.887   2.178  13.029  0.1984  0.1574 -0.4935
 2820SOL    HW120093   2.982   2.189  13.031  0.2049 -0.1400  1.0776
 2820SOL    HW220094   2.863   2.260  13.074 -2.4288 -1.8076  1.6791
 2821SOL     OW20095   2.757   2.733  12.639 -0.0187 -0.0227  1.0132
 2821SOL    HW120096   2.731   2.733  12.547 -0.5503  2.7844  1.1577
 2821SOL    HW220097   2.829   2.796  12.635 -0.2716  0.3968  2.9613
 2822SOL     OW20098   4.159   0.317   5.382  0.7799  0.1399  0.0676
 2822SOL    HW120099   4.083   0.332   5.325  0.9858 -0.0831 -0.2628
 2822SOL    HW220100   4.123   0.294   5.468 -1.7086  0.0732 -0.9796
 2823SOL     OW20101   3.764   0.006  17.381 -0.1570 -0.0362  0.8379
 2823SOL    HW120102   3.686   0.026  17.431  0.9884  2.5893  1.5704
 2823SOL    HW220103   3.730   4.720  17.294  0.9236  0.4984  0.2697
 2824SOL     OW20104   1.064   4.111   2.489 -0.8729  0.6630  0.0771
 2824SOL    HW120105   1.057   4.074   2.577 -3.6315  1.6642  0.2640
 2824SOL    HW220106   1.145   4.066   2.466  0.1591  1.6411  1.8087
 2825SOL     OW20107   1.613   2.216   3.683 -0.4659 -0.1550  0.7341
 2825SOL    HW120108   1.666   2.164   3.744  0.0015 -0.0369  0.4256
 2825SOL    HW220109   1.573   2.278   3.744  0.4769  1.9908 -0.8223
 2826SOL     OW20110   2.181   0.200   2.210  0.1435  0.1786 -0.6087
 2826SOL    HW120111   2.219   0.281   2.243 -0.2642 -0.3910  1.2650
 2826SOL    HW220112   2.133   0.227   2.132  0.2698  0.6382 -0.5217
 2827SOL     OW20113   1.961   2.822   0.008  0.6750  0.7274  0.1790
 2827SOL    HW120114   1.900   2.795  17.688  0.2471  2.2690 -0.0442
 2827SOL    HW220115   1.980   2.912  17.729  0.9715  1.3867  2.5601
 2828SOL     OW20116   1.038   0.537  15.017 -0.0457 -0.2987  0.1135
 2828SOL    HW120117   0.953   0.548  15.059 -0.3713 -3.0624  0.1670
 2828SOL    HW220118   1.092   0.599  15.066 -0.2849  0.4413 -0.5685
 2829SOL     OW20119   3.585   0.277  16.022 -0.0914  0.0884 -0.0414
 2829SOL    HW120120   3.611   0.365  15.991  1.5202  0.6286  2.8931
 2829SOL    HW220121   3.529   0.254  15.948 -2.2801  1.4824  1.1721
 2830SOL     OW20122   1.497   1.007   6.662 -0.1005  0.5007  0.4118
 2830SOL    HW120123   1.413   1.032   6.700 -0.4779  1.3523 -1.0002
 2830SOL    HW220124   1.532   0.973   6.744 -1.6132 -1.6642  0.1477
 2831SOL     OW20125   1.392   2.271   2.399  0.8205 -0.5978 -0.2933
 2831SOL    HW120126   1.408   2.178   2.381 -1.2972 -0.9855 -0.2204
 2831SOL    HW220127   1.391   2.265   2.495  1.7553  1.8236 -0.1356
 2832SOL     OW20128   3.808   1.765  16.719 -0.2771 -0.0702  0.5889
 2832SOL    HW120129   3.836   1.745  16.809  1.5199  2.0705  0.5092
 2832SOL    HW220130   3.742   1.833  16.730 -1.4111 -0.8442 -1.4303
 2833SOL     OW20131   3.377   2.813   8.951 -0.0472 -0.6028  0.7302
 2833SOL    HW120132   3.289   2.777   8.959 -0.6470  0.4618 -1.0776
 2833SOL    HW220133   3.388   2.806   8.856 -1.8810 -1.4549  0.5823
 2834SOL     OW20134   4.259   3.743   8.401 -0.4178 -0.0066  0.6113
 2834SOL    HW120135   4.238   3.808   8.333  2.2721  0.0107 -0.2310
 2834SOL    HW220136   4.340   3.777   8.440 -1.2955  0.9511  1.5671
 2835SOL     OW20137   4.063   2.103   3.709  0.3814 -0.1923 -0.1527
 2835SOL    HW120138   4.047   2.048   3.786 -1.3651 -0.4926 -0.7257
 2835SOL    HW220139   4.051   2.189   3.751 -1.9278 -1.1589  1.1744
 2836SOL     OW20140   1.683   2.355  15.485 -0.0596 -0.3615 -0.3688
 2836SOL    HW120141   1.683   2.371  15.580 -2.7382 -1.1280 -0.2443
 2836SOL    HW220142   1.658   2.443  15.454  1.6568 -0.2321 -1.4054
 2837SOL     OW20143   1.396   1.079   8.628 -0.9611  0.0522 -0.1306
 2837SOL    HW120144   1.422   1.171   8.619  3.3071 -1.1831 -0.1359
 2837SOL    HW220145   1.416   1.061   8.537  0.2268 -0.9898  0.3485
 2838SOL     OW20146   2.450   1.372   5.012 -0.5715 -0.1581 -0.1361
 2838SOL    HW120147   2.387   1.302   4.997  1.6565 -2.0255 -0.8674
 2838SOL    HW220148   2.469   1.398   4.921 -1.3359 -0.3263 -0.3413
 2839SOL     OW20149   3.256   3.899   1.215  0.2270  0.4937  0.0452
 2839SOL    HW120150   3.303   3.981   1.231  1.4859 -0.3116  0.4835
 2839SOL    HW220151   3.215   3.918   1.130  1.1103  0.0289 -0.4897
 2840SOL     OW20152   2.497   0.444  15.553  0.4090 -0.6314  0.3356
 2840SOL    HW120153   2.411   0.473  15.524  0.0217 -0.8473  1.2684
 2840SOL    HW220154   2.513   0.364  15.503 -3.3487 -0.5143 -1.0111
 2841SOL     OW20155   1.987   3.882   6.677  0.0113  0.5350  0.5264
 2841SOL    HW120156   1.971   3.972   6.707 -0.9616  1.0046 -1.4256
 2841SOL    HW220157   2.060   3.888   6.615  0.8719 -1.1347  1.3798
 2842SOL     OW20158   0.366   4.629   2.352 -0.1470  0.0411 -0.0481
 2842SOL    HW120159   0.402   4.551   2.393  1.7921  1.6932  1.3610
 2842SOL    HW220160   0.317   4.585   2.282  0.2336  0.7861 -0.7832
 2843SOL     OW20161   1.076   1.135   1.743  0.1360  0.0740 -0.1055
 2843SOL    HW120162   1.117   1.099   1.821  0.6017  1.4095  0.2620
 2843SOL    HW220163   0.984   1.108   1.750  0.8177 -1.8846  1.3134
 2844SOL     OW20164   2.787   2.844  13.594  0.7643  0.1244  0.0668
 2844SOL    HW120165   2.846   2.902  13.547 -0.4011  0.1945 -1.3119
 2844SOL    HW220166   2.808   2.761  13.552 -0.8068  0.7402 -1.9285
 2845SOL     OW20167   2.966   2.255   6.979 -0.6264  0.4272  0.2734
 2845SOL    HW120168   2.991   2.224   6.892 -1.9381  0.2207 -0.0269
 2845SOL    HW220169   3.020   2.332   6.994  1.0335 -1.1181  2.4211
 2846SOL     OW20170   2.443   3.582   3.866 -0.4451 -0.6977 -0.5839
 2846SOL    HW120171   2.369   3.522   3.875 -3.3886  2.8742 -1.0580
 2846SOL    HW220172   2.482   3.546   3.787 -0.9902  0.6654 -1.4728
 2847SOL     OW20173   2.177   2.732   0.163 -0.3663 -0.2683 -0.3167
 2847SOL    HW120174   2.209   2.812   0.120 -1.6603  0.0623 -0.6456
 2847SOL    HW220175   2.107   2.703   0.106 -0.3209 -0.9495 -0.0245
 2848SOL     OW20176   3.000   1.613  13.144 -0.5812 -0.5477  0.2230
 2848SOL    HW120177   2.919   1.633  13.190 -1.2453  0.5942 -1.4369
 2848SOL    HW220178   3.061   1.678  13.180 -2.2386  0.4318  1.2398
 2849SOL     OW20179   0.140   0.745  10.281  0.2261  0.0715 -0.4130
 2849SOL    HW120180   0.122   0.791  10.363 -0.7646  2.0097 -1.7047
 2849SOL    HW220181   0.084   0.794  10.221  0.5791 -0.4080 -1.1361
 2850SOL     OW20182   2.881   4.736   3.191 -0.0775  0.6556  0.1057
 2850SOL    HW120183   2.794   4.736   3.231 -0.2058  0.3355 -0.1733
 2850SOL    HW220184   2.917   0.082   3.221  1.2391 -0.5451  1.8501
 2851SOL     OW20185   2.419   4.230   0.972 -0.4189  0.4707  0.3155
 2851SOL    HW120186   2.376   4.150   0.942 -2.5290  1.6001  0.3269
 2851SOL    HW220187   2.477   4.255   0.900  0.1912 -1.5531  0.0882
 2852SOL     OW20188   0.388   1.588   7.091 -0.6363  0.0745  0.1719
 2852SOL    HW120189   0.337   1.516   7.129  2.7522 -2.4791 -0.1659
 2852SOL    HW220190   0.315   1.645   7.066 -1.2556 -0.1869  1.3753
 2853SOL     OW20191   2.138   3.551   2.198  0.0722  0.3247 -0.0214
 2853SOL    HW120192   2.081   3.628   2.204 -0.6194 -0.2238  0.4375
 2853SOL    HW220193   2.110   3.512   2.115 -2.1712  0.2732  0.7709
 2854SOL     OW20194   1.153   2.937   6.259 -0.7647  0.3281  0.3639
 2854SOL    HW120195   1.121   3.027   6.259  0.1844  0.6570 -1.6066
 2854SOL    HW220196   1.077   2.895   6.219  0.4085 -2.4049  0.9905
 2855SOL     OW20197   3.659   1.801   7.584  0.1918 -0.1728  0.6100
 2855SOL    HW120198   3.611   1.882   7.602 -0.3125 -0.0348 -1.2693
 2855SOL    HW220199   3.704   1.781   7.666  0.3389 -0.7328  0.3947
 2856SOL     OW20200   0.119   3.723   9.674 -0.2338  0.3208 -0.0818
 2856SOL    HW120201   0.176   3.775   9.730 -0.0510 -1.5444  1.4806
 2856SOL    HW220202   0.147   3.748   9.586  0.7734 -2.2364 -0.4780
 2857SOL     OW20203   2.462   1.636   7.379  0.0834  0.5464  0.0878
 2857SOL    HW120204   2.451   1.726   7.408  2.3005  0.5455  0.9540
 2857SOL    HW220205   2.549   1.616   7.414 -0.3012 -2.1602 -0.4799
 2858SOL     OW20206   2.921   0.836  11.300  0.2266 -0.0444  0.1942
 2858SOL    HW120207   2.833   0.843  11.264  0.7213 -1.2749 -1.2435
 2858SOL    HW220208   2.921   0.916  11.353 -0.1063  0.4927 -0.5972
 2859SOL     OW20209   3.420   0.171   2.089 -0.7614  0.3776  0.1493
 2859SOL    HW120210   3.414   0.253   2.041 -1.4860  0.6525  0.7063
 2859SOL    HW220211   3.447   0.194   2.178 -2.5608  0.7628  0.5855
 2860SOL     OW20212   4.351   0.762   8.042  0.2344  0.5819  0.2026
 2860SOL    HW120213   4.296   0.763   8.120 -1.1766  0.5391 -0.7900
 2860SOL    HW220214   4.412   0.693   8.068  0.5792  0.3362 -1.2626
 2861SOL     OW20215   4.004   1.127   8.488 -0.0628  0.0704  0.4096
 2861SOL    HW120216   3.928   1.183   8.499  0.9163  1.6079 -0.7473
 2861SOL    HW220217   3.953   1.057   8.448 -2.0495  0.8742  1.5459
 2862SOL     OW20218   3.904   3.227   2.477 -0.4991 -0.3173  0.3529
 2862SOL    HW120219   3.891   3.192   2.389  1.1327  0.1803 -0.0894
 2862SOL    HW220220   3.984   3.184   2.508 -1.2837 -1.2748  1.0358
 2863SOL     OW20221   0.177   2.169   7.350 -0.0298 -0.1194 -0.4736
 2863SOL    HW120222   0.262   2.162   7.392  1.0180  3.0376 -2.0146
 2863SOL    HW220223   0.139   2.253   7.375  1.2585  0.8097 -1.6260
 2864SOL     OW20224   3.115   0.762  15.160 -0.6399  0.5056  0.3107
 2864SOL    HW120225   3.079   0.707  15.091 -0.8751  2.1229 -0.8575
 2864SOL    HW220226   3.049   0.753  15.228 -0.7259  0.0144  0.1632
 2865SOL     OW20227   0.850   3.393   6.453 -0.2161  0.1612  0.1202
 2865SOL    HW120228   0.813   3.447   6.523 -2.0789 -2.6634  1.3331
 2865SOL    HW220229   0.907   3.332   6.500 -1.1793 -1.4826 -0.8469
 2866SOL     OW20230   0.111   1.127   0.223 -0.2573  0.1041  0.0152
 2866SOL    HW120231   0.092   1.098   0.134  1.3820 -1.4590  0.1755
 2866SOL    HW220232   0.171   1.063   0.260 -1.6943 -1.6306 -0.6580
 2867SOL     OW20233   0.067   2.155  12.360 -0.1248 -0.2798 -0.0327
 2867SOL    HW120234   0.013   2.198  12.426  1.0845 -1.7350  1.8866
 2867SOL    HW220235   4.735   2.115  12.308 -1.0596 -1.8517  2.4431
 2868SOL     OW20236   4.450   3.647   2.091 -0.2072  0.3282 -0.4377
 2868SOL    HW120237   4.523   3.709   2.087 -0.3069  0.4529 -0.3381
 2868SOL    HW220238   4.477   3.581   2.154 -0.8707 -1.8929 -2.5103
 2869SOL     OW20239   0.052   1.045   8.501 -0.1459 -0.5532  0.1625
 2869SOL    HW120240   0.046   1.131   8.458  0.0359 -0.6362 -0.0303
 2869SOL    HW220241   0.086   1.070   8.586  0.6130  1.3044 -0.6934
 2870SOL     OW20242   3.795   0.669   4.438 -0.3851 -0.0258  0.0823
 2870SOL    HW120243   3.765   0.757   4.463 -1.3229 -0.3542  0.0853
 2870SOL    HW220244   3.740   0.606   4.484 -0.4427 -0.2682 -0.3224
 2871SOL     OW20245   4.067   2.820   4.917  0.1653 -0.1876 -0.3551
 2871SOL    HW120246   4.088   2.882   4.847 -0.4169  0.3340 -0.0586
 2871SOL    HW220247   4.154   2.797   4.951  0.3961 -1.0807 -1.5222
 2872SOL     OW20248   3.641   1.514   6.003  0.0914  0.6622  0.0623
 2872SOL    HW120249   3.634   1.549   6.091 -0.9545 -1.9351  1.0276
 2872SOL    HW220250   3.733   1.488   6.005  0.0030  0.1534 -2.5794
 2873SOL     OW20251   0.053   4.278   4.918 -0.2014  0.3228  0.1207
 2873SOL    HW120252   0.147   4.273   4.904 -0.1090  0.7078  0.6057
 2873SOL    HW220253   0.046   4.333   4.996 -0.9490  0.3159  0.0647
 2874SOL     OW20254   0.256   4.635   8.993 -0.3907 -0.3838  0.3041
 2874SOL    HW120255   0.306   4.602   9.068  1.7655 -0.3751 -1.1447
 2874SOL    HW220256   0.302   4.595   8.920 -1.7859 -1.4359  0.0074
 2875SOL     OW20257   0.440   4.587   9.206  0.2000  0.1872 -0.4537
 2875SOL    HW120258   0.488   4.578   9.124  0.3512  0.6633 -0.4174
 2875SOL    HW220259   0.508   4.596   9.273  0.7021  1.6909 -1.1645
 2876SOL     OW20260   0.538   4.199   7.997 -0.0867 -0.0527  0.0159
 2876SOL    HW120261   0.518   4.106   7.982 -2.0809  0.3754  0.1332
 2876SOL    HW220262   0.517   4.240   7.913  1.7553  1.0912  0.1224
 2877SOL     OW20263   0.794   1.815   8.078 -0.0675  0.2302  0.3843
 2877SOL    HW120264   0.723   1.826   8.014 -1.1748 -1.7809  1.2704
 2877SOL    HW220265   0.866   1.870   8.048 -2.3690  0.6862 -4.3212
 2878SOL     OW20266   1.819   2.243  14.904 -0.4281  0.0267  0.6445
 2878SOL    HW120267   1.804   2.329  14.864  1.3759 -0.6557 -1.4621
 2878SOL    HW220268   1.778   2.258  14.990  1.1530 -1.1445  1.6029
 2879SOL     OW20269   1.594   0.457   6.607  0.2981 -0.2386  0.2941
 2879SOL    HW120270   1.606   0.545   6.643  1.4398 -0.3903  0.2703
 2879SOL    HW220271   1.656   0.461   6.534  1.4372 -1.0754  1.2310
 2880SOL     OW20272   2.189   2.421  10.054  1.0475 -0.6233  0.1407
 2880SOL    HW120273   2.185   2.334  10.092 -1.3326 -0.9843 -0.9574
 2880SOL    HW220274   2.186   2.403   9.961 -1.4713  0.6663 -0.0433
 2881SOL     OW20275   0.359   0.684   8.930  0.2552  0.4064  0.7049
 2881SOL    HW120276   0.337   0.628   8.856 -0.6128  0.1886  1.1338
 2881SOL    HW220277   0.352   0.776   8.905 -0.7211  0.2500  0.4186
 2882SOL     OW20278   3.981   1.522   4.724  0.6580  0.2783  0.3009
 2882SOL    HW120279   4.045   1.526   4.796  0.5105 -2.5146  0.5934
 2882SOL    HW220280   4.013   1.445   4.677  0.9820 -0.2206  1.3380
 2883SOL     OW20281   3.602   4.532  11.751  0.1452  1.0774  0.1848
 2883SOL    HW120282   3.625   4.597  11.684  1.6453 -0.5424 -0.8580
 2883SOL    HW220283   3.509   4.555  11.750  0.2466  1.3287 -3.7740
 2884SOL     OW20284   1.952   0.746   8.031 -0.3219  0.3906  0.5038
 2884SOL    HW120285   1.928   0.708   8.115 -1.6635  1.0810  0.4418
 2884SOL    HW220286   2.041   0.713   8.021 -0.2961  0.5096  0.3510
 2885SOL     OW20287   4.343   4.299   5.054 -0.0830 -0.4932 -0.2458
 2885SOL    HW120288   4.348   4.217   5.005 -0.7719 -0.8578  0.2887
 2885SOL    HW220289   4.252   4.295   5.083 -0.1015  2.0734  0.0704
 2886SOL     OW20290   4.036   2.850   4.362  0.4598 -0.1710  0.0387
 2886SOL    HW120291   4.114   2.893   4.398 -0.5523  1.5098  0.2255
 2886SOL    HW220292   4.047   2.773   4.418 -0.0238 -0.7448 -0.6565
 2887SOL     OW20293   1.062   2.287   7.463  0.0938  0.0452  0.0956
 2887SOL    HW120294   1.150   2.323   7.468  0.0471 -0.1157  2.0158
 2887SOL    HW220295   1.062   2.251   7.551 -0.1705  0.4415  0.2616
 2888SOL     OW20296   1.621   2.381   6.396  0.1967  0.2785 -0.1999
 2888SOL    HW120297   1.715   2.369   6.408  0.7293  1.6007 -3.1945
 2888SOL    HW220298   1.590   2.291   6.403  0.6939  0.1333  0.0793
 2889SOL     OW20299   3.989   1.202  17.701  0.0705 -0.5399 -0.3716
 2889SOL    HW120300   4.032   1.128  17.658 -0.4802 -2.2931  2.0794
 2889SOL    HW220301   4.033   1.227   0.034  1.7007  1.0406 -1.7510
 2890SOL     OW20302   4.395   2.101   3.430 -0.0364  0.0406 -0.4168
 2890SOL    HW120303   4.429   2.115   3.518 -1.2717 -1.0485  0.2330
 2890SOL    HW220304   4.302   2.119   3.440 -0.5876 -2.3401 -1.1337
 2891SOL     OW20305   2.320   2.867   4.318  0.5661 -0.1597  0.9000
 2891SOL    HW120306   2.340   2.819   4.238 -0.8597  2.7422 -1.2210
 2891SOL    HW220307   2.388   2.934   4.320 -0.9317  1.4246 -0.6323
 2892SOL     OW20308   1.950   0.206   2.667  0.1626  0.2505  0.4903
 2892SOL    HW120309   1.897   0.163   2.734  0.1607  0.4214  0.5974
 2892SOL    HW220310   1.933   0.299   2.684  3.2340  0.7713  0.6946
 2893SOL     OW20311   4.361   0.028   7.377 -0.4771 -0.4156 -0.0362
 2893SOL    HW120312   4.269   0.050   7.391 -0.1027  1.9315 -1.1708
 2893SOL    HW220313   4.385   0.106   7.326 -1.8545  1.2166  1.7819
 2894SOL     OW20314   3.282   1.091   7.640 -0.7016 -0.0785  0.1371
 2894SOL    HW120315   3.266   1.123   7.552  0.9497 -0.5251 -0.3178
 2894SOL    HW220316   3.223   1.015   7.635 -0.0306 -0.6373  0.7245
 2895SOL     OW20317   3.760   2.882   3.887  0.1432  0.5872 -0.3636
 2895SOL    HW120318   3.747   2.976   3.883 -0.3176  0.4058 -2.9078
 2895SOL    HW220319   3.730   2.858   3.975  0.8711  0.4471 -0.1541
 2896SOL     OW20320   0.808   4.141  17.685  0.1948  0.6320 -0.3248
 2896SOL    HW120321   0.720   4.142  17.722  0.9711 -1.3023  1.6282
 2896SOL    HW220322   0.860   4.117   0.014 -2.0703 -0.7686  0.7462
 2897SOL     OW20323   2.563   4.084   8.872 -0.1602  0.1054 -0.0005
 2897SOL    HW120324   2.577   3.991   8.855 -0.8629  0.1105 -0.6126
 2897SOL    HW220325   2.653   4.114   8.865  0.0753 -1.0165 -1.7272
 2898SOL     OW20326   0.580   0.204   3.533  0.4639 -0.0006 -0.2900
 2898SOL    HW120327   0.605   0.147   3.605 -2.8636 -1.3088 -0.1692
 2898SOL    HW220328   0.581   0.140   3.461  0.4493 -2.6364  2.0685
 2899SOL     OW20329   1.907   2.268   8.706 -0.4276  1.1192 -0.4684
 2899SOL    HW120330   1.982   2.291   8.651  0.8888 -1.2547  0.3294
 2899SOL    HW220331   1.895   2.350   8.754 -2.3244 -0.7544  2.2728
 2900SOL     OW20332   0.233   0.607   7.414  0.2464  0.2030  0.2409
 2900SOL    HW120333   0.228   0.652   7.499 -0.4875 -0.0896  0.3482
 2900SOL    HW220334   0.265   0.679   7.359 -0.1557  0.9313  0.9571
 2901SOL     OW20335   0.938   0.912   8.733  0.3540 -0.1601 -0.1956
 2901SOL    HW120336   0.914   0.936   8.822 -0.3953 -2.3677  0.1850
 2901SOL    HW220337   0.908   0.991   8.688 -0.5098 -0.8685 -0.8767
 2902SOL     OW20338   3.916   2.650  17.014 -0.0146  0.1664  0.6586
 2902SOL    HW120339   4.011   2.648  17.031 -0.2529  0.5409  1.9818
 2902SOL    HW220340   3.890   2.560  17.033 -0.1483 -0.1819 -1.1215
 2903SOL     OW20341   3.196   0.997   2.776 -0.1763  0.4584 -0.5593
 2903SOL    HW120342   3.152   0.991   2.861  3.1021  0.3528  1.1609
 2903SOL    HW220343   3.132   0.943   2.730  0.0902 -0.5636  0.2863
 2904SOL     OW20344   0.651   0.628   4.319  0.2202  0.4201 -0.2742
 2904SOL    HW120345   0.581   0.622   4.253 -0.2947 -0.0611  0.3088
 2904SOL    HW220346   0.670   0.536   4.340 -0.0738 -0.0921 -2.2058
 2905SOL     OW20347   2.474   0.902   3.855 -0.0435  0.2531  0.1225
 2905SOL    HW120348   2.431   0.849   3.921  1.0226 -0.7050  0.0592
 2905SOL    HW220349   2.403   0.951   3.815  0.9748 -0.3207 -2.4270
 2906SOL     OW20350   1.312   0.097   7.087  0.2512 -0.0968 -0.1925
 2906SOL    HW120351   1.347   0.051   7.010 -2.8264 -2.0826 -0.3959
 2906SOL    HW220352   1.245   0.159   7.059  0.0641 -0.4350 -0.5031
 2907SOL     OW20353   4.466   0.269   6.974 -0.0772 -0.4436 -0.4281
 2907SOL    HW120354   4.441   0.318   6.895 -2.9758  2.4695  2.2973
 2907SOL    HW220355   4.524   0.202   6.940 -1.0495 -0.8923 -1.2199
 2908SOL     OW20356   1.968   2.993  11.297 -0.4136  0.2471 -0.3377
 2908SOL    HW120357   1.883   2.953  11.314  0.4812 -1.1488  0.7402
 2908SOL    HW220358   1.957   3.012  11.203 -2.7639 -2.8043 -0.6872
 2909SOL     OW20359   0.199   3.056   4.464  0.5171  0.0318  0.8091
 2909SOL    HW120360   0.128   3.116   4.440  0.3085  0.6461  2.9012
 2909SOL    HW220361   0.203   3.060   4.560 -0.5560 -2.0950  0.9437
 2910SOL     OW20362   3.482   1.293  11.048 -0.2946 -0.0108  0.4198
 2910SOL    HW120363   3.558   1.273  11.102  0.9822  0.8287 -1.0787
 2910SOL    HW220364   3.420   1.229  11.084 -0.2019  0.2770  1.0846
 2911SOL     OW20365   4.393   0.630   5.122 -0.3133 -0.5252 -0.0725
 2911SOL    HW120366   4.392   0.587   5.207  0.6142  0.0943  0.2579
 2911SOL    HW220367   4.450   0.706   5.135 -1.2666  0.3740 -1.0631
 2912SOL     OW20368   3.071   0.196  11.972  0.6523  0.1455 -0.5482
 2912SOL    HW120369   3.066   0.208  11.877 -3.2525 -1.2033 -0.4982
 2912SOL    HW220370   3.037   0.284  11.989  2.9441  0.6603  1.4169
 2913SOL     OW20371   2.244   2.936   9.503 -0.0845  0.4883 -0.2725
 2913SOL    HW120372   2.256   3.028   9.527  1.7739  0.0168  0.5929
 2913SOL    HW220373   2.214   2.948   9.413  1.7486  2.4305 -0.6276
 2914SOL     OW20374   3.678   2.927   7.307  0.5517  0.2036  0.0856
 2914SOL    HW120375   3.662   2.858   7.243 -2.2498  2.8164 -2.0832
 2914SOL    HW220376   3.721   2.999   7.262 -0.4279  0.6035 -0.2286
 2915SOL     OW20377   0.363   3.196   4.749  0.6645  0.0441  0.3781
 2915SOL    HW120378   0.456   3.211   4.766  0.1683 -0.6186  3.6685
 2915SOL    HW220379   0.330   3.269   4.696  3.2461  0.6572 -0.3858
 2916SOL     OW20380   3.217   1.245   7.877  0.5583  0.1127  0.1797
 2916SOL    HW120381   3.241   1.208   7.792  2.5875  1.3393  0.1997
 2916SOL    HW220382   3.175   1.176   7.928 -0.9682 -0.2943 -1.6224
 2917SOL     OW20383   3.233   3.942   9.932 -0.4839  0.2871  0.8129
 2917SOL    HW120384   3.275   4.024   9.956  0.3917  0.8013 -2.3758
 2917SOL    HW220385   3.269   3.894  10.006 -1.2690 -0.1772  0.9028
 2918SOL     OW20386   1.148   3.274   2.304 -0.0112  0.0024 -0.5198
 2918SOL    HW120387   1.118   3.294   2.392 -0.7297 -1.2217 -0.5009
 2918SOL    HW220388   1.066   3.238   2.272 -0.8188  1.0055  0.4321
 2919SOL     OW20389   1.975   2.523   8.798 -0.3630 -0.1066 -0.1348
 2919SOL    HW120390   1.933   2.580   8.862  0.7247  0.6095 -0.0515
 2919SOL    HW220391   2.057   2.499   8.842 -1.2639  0.4347  1.8188
 2920SOL     OW20392   2.599   1.862   7.547 -0.0244 -0.2957 -0.1291
 2920SOL    HW120393   2.645   1.946   7.541 -2.2621  1.0081  0.6535
 2920SOL    HW220394   2.667   1.806   7.510  1.6326  2.3209 -1.0751
 2921SOL     OW20395   2.793   4.543   2.836  0.4366 -0.4355  0.5966
 2921SOL    HW120396   2.833   4.524   2.751 -1.5391  0.7771 -0.6014
 2921SOL    HW220397   2.827   4.467   2.883 -0.8478 -2.3894 -1.5914
 2922SOL     OW20398   0.021   4.154   7.347  0.3072 -0.5120 -0.4305
 2922SOL    HW120399   0.007   4.245   7.320 -0.7107 -0.1129  1.5107
 2922SOL    HW220400   0.053   4.169   7.436 -1.4470  1.3746 -0.1208
 2923SOL     OW20401   0.719   1.210   9.171  0.2213  0.7062 -0.3695
 2923SOL    HW120402   0.729   1.224   9.077 -0.3933  1.5381 -0.3144
 2923SOL    HW220403   0.686   1.297   9.195 -1.7606  0.4476 -2.1232
 2924SOL     OW20404   2.231   4.372   3.290 -0.2046  0.2416 -0.1267
 2924SOL    HW120405   2.289   4.372   3.366  1.4769 -0.7900 -1.4030
 2924SOL    HW220406   2.242   4.280   3.266  0.5237  0.0015  1.1381
 2925SOL     OW20407   3.497   1.667   4.452  0.1646  0.2923  0.3379
 2925SOL    HW120408   3.540   1.599   4.504  0.9212 -1.0071 -1.9871
 2925SOL    HW220409   3.449   1.723   4.513  1.3424 -0.4065  1.8833
 2926SOL     OW20410   1.427   3.968   9.064  0.2025 -0.6574  0.4101
 2926SOL    HW120411   1.473   4.023   9.127 -0.1680 -0.4482  0.4991
 2926SOL    HW220412   1.433   4.027   8.989  0.3732 -1.6611 -0.3631
 2927SOL     OW20413   4.436   0.925   9.352 -0.6881  0.7144 -0.0728
 2927SOL    HW120414   4.468   0.857   9.294  1.3182  0.0632  1.7624
 2927SOL    HW220415   4.354   0.880   9.372  0.3114 -1.0653 -0.0036
 2928SOL     OW20416   0.628   3.731   3.851  0.5904 -0.4095 -0.4376
 2928SOL    HW120417   0.640   3.787   3.928 -0.4049 -0.9183  0.0832
 2928SOL    HW220418   0.719   3.704   3.838  0.0714 -1.1912 -2.5139
 2929SOL     OW20419   3.884   3.126   5.115 -0.6102  0.0047 -0.6768
 2929SOL    HW120420   3.928   3.179   5.182 -1.4750 -2.3037  1.7276
 2929SOL    HW220421   3.890   3.047   5.169  0.1206  1.4150  1.3410
 2930SOL     OW20422   4.051   1.533  10.003 -0.4740 -0.3302 -0.3852
 2930SOL    HW120423   4.063   1.588  10.080 -3.2643 -1.0439  0.5707
 2930SOL    HW220424   4.141   1.534   9.970 -0.7254 -0.2700 -1.0752
 2931SOL     OW20425   0.318   2.857  12.228 -0.5689  0.2729  0.5931
 2931SOL    HW120426   0.335   2.805  12.149 -1.1931 -0.8463  1.2036
 2931SOL    HW220427   0.274   2.937  12.199  0.1293 -0.2636 -1.9803
 2932SOL     OW20428   4.409   2.845  15.929 -0.3438 -0.1277 -0.7165
 2932SOL    HW120429   4.489   2.866  15.977 -0.7647 -0.3095  0.0629
 2932SOL    HW220430   4.349   2.879  15.995 -1.2251 -1.7616 -0.6686
 2933SOL     OW20431   3.768   0.032   2.697  0.3662  0.2076  0.0893
 2933SOL    HW120432   3.789   0.105   2.755 -0.2697  0.3986  0.0829
 2933SOL    HW220433   3.743   4.710   2.768  0.7784 -0.6413 -0.4709
 2934SOL     OW20434   1.471   3.305   1.922  0.7341  0.5122  0.5849
 2934SOL    HW120435   1.413   3.326   1.996  0.0050  1.4150 -0.2448
 2934SOL    HW220436   1.534   3.244   1.960  0.4004 -0.0753  0.1810
 2935SOL     OW20437   2.837   3.077   1.079 -0.3773 -0.0464  0.1141
 2935SOL    HW120438   2.892   3.031   1.015 -0.9562  0.3218 -0.6498
 2935SOL    HW220439   2.750   3.056   1.045  0.4021 -1.5677 -0.9199
 2936SOL     OW20440   0.185   0.823   4.686  0.2296  0.6980 -0.3013
 2936SOL    HW120441   0.247   0.819   4.614 -0.2824 -1.2558 -0.6475
 2936SOL    HW220442   0.244   0.826   4.761  1.6441 -1.0394 -1.3419
 2937SOL     OW20443   0.622   0.340   3.308  0.4604 -0.2727  0.1110
 2937SOL    HW120444   0.662   0.263   3.268 -1.9998  0.2005 -3.2705
 2937SOL    HW220445   0.607   0.307   3.396 -0.5088 -1.3382 -0.4530
 2938SOL     OW20446   2.611   2.249   9.034  0.4872  0.3220  0.0899
 2938SOL    HW120447   2.692   2.299   9.025  1.3827 -0.9440  1.2717
 2938SOL    HW220448   2.632   2.167   8.989 -1.1731 -0.0083 -0.0907
 2939SOL     OW20449   1.572   4.074   5.013  0.6325  0.0368  0.8797
 2939SOL    HW120450   1.587   3.981   5.033  0.9014  0.2427  1.6478
 2939SOL    HW220451   1.504   4.065   4.946  0.9154  1.0664  0.4556
 2940SOL     OW20452   2.703   0.535  15.250  0.0388  0.1228 -0.5096
 2940SOL    HW120453   2.717   0.611  15.194 -0.4841  0.8803  0.3853
 2940SOL    HW220454   2.609   0.519  15.240 -0.5920  2.0719  2.4418
 2941SOL     OW20455   1.886   3.399   5.775  0.2329  0.1907  0.0781
 2941SOL    HW120456   1.938   3.351   5.710 -0.6671 -1.1573  0.3351
 2941SOL    HW220457   1.887   3.479   5.724  0.8575 -1.3626 -2.3539
 2942SOL     OW20458   3.322   0.462  14.031  0.6625  0.1812  0.4418
 2942SOL    HW120459   3.284   0.385  14.073  3.1543 -0.7480  1.0110
 2942SOL    HW220460   3.408   0.461  14.074  1.5108  0.6562 -1.2635
 2943SOL     OW20461   0.902   0.355   0.512  0.0066  0.4713  0.3203
 2943SOL    HW120462   0.924   0.264   0.528 -0.2209  0.1485 -1.2180
 2943SOL    HW220463   0.925   0.354   0.419 -1.9721  1.2630 -0.1958
 2944SOL     OW20464   3.502   4.451   7.330 -0.2983 -0.1382  0.2941
 2944SOL    HW120465   3.548   4.376   7.291  1.2763  0.8203  0.3052
 2944SOL    HW220466   3.562   4.490   7.393  0.5281  0.7824 -1.0446
 2945SOL     OW20467   3.184   0.350   2.534  0.1755  0.1302  0.0845
 2945SOL    HW120468   3.229   0.434   2.537 -1.2171  0.8576  0.7880
 2945SOL    HW220469   3.097   0.376   2.504 -0.6502  1.9051  3.9838
 2946SOL     OW20470   0.523   0.182   1.496  0.0137 -0.1071  0.2752
 2946SOL    HW120471   0.583   0.111   1.473  0.2302  0.4066 -0.7376
 2946SOL    HW220472   0.528   0.237   1.417 -0.8744  0.1061  0.3637
 2947SOL     OW20473   0.338   2.908   3.700  0.3889 -0.1761 -0.3633
 2947SOL    HW120474   0.353   2.955   3.619  0.8801  3.2277  1.7318
 2947SOL    HW220475   0.326   2.979   3.762  2.3431 -0.9640  0.9228
 2948SOL     OW20476   0.921   0.355  17.149  0.6662  0.4771  0.7555
 2948SOL    HW120477   0.950   0.353  17.058  0.1567 -0.1221  0.6030
 2948SOL    HW220478   0.828   0.362  17.129  1.0842  2.8579 -0.2713
 2949SOL     OW20479   2.389   3.644   3.019 -0.3638 -0.1050  0.3521
 2949SOL    HW120480   2.410   3.637   3.112  0.2917 -0.2890  0.1892
 2949SOL    HW220481   2.313   3.697   3.047  0.4410  2.0415 -1.5634
 2950SOL     OW20482   3.845   3.828   2.640  0.1772  0.4385  0.0245
 2950SOL    HW120483   3.797   3.800   2.718 -0.7211  2.7640  0.3049
 2950SOL    HW220484   3.774   3.834   2.576  1.3232  0.5758 -1.2284
 2951SOL     OW20485   0.875   3.091   6.928  0.1857  0.4746 -0.1497
 2951SOL    HW120486   0.947   3.136   6.884  0.8547 -2.0500 -1.6724
 2951SOL    HW220487   0.920   3.021   6.975  0.1142  0.1468 -0.5656
 2952SOL     OW20488   2.461   0.695  12.192  0.0686  0.5032  0.3983
 2952SOL    HW120489   2.440   0.646  12.271 -0.2192  0.7131  0.4527
 2952SOL    HW220490   2.517   0.632  12.148  0.8892  0.0737  2.0582
 2953SOL     OW20491   3.809   1.783   6.889  0.0363  0.0431 -0.2824
 2953SOL    HW120492   3.809   1.878   6.879  0.9578 -0.0936 -1.5506
 2953SOL    HW220493   3.877   1.773   6.956 -0.8308  0.8637  0.7084
 2954SOL     OW20494   1.981   4.569   2.431  0.2955  0.3179 -0.0829
 2954SOL    HW120495   1.953   4.661   2.435  0.3490  0.3559 -0.5693
 2954SOL    HW220496   2.040   4.573   2.356  0.2977 -1.1647 -0.1505
 2955SOL     OW20497   3.803   0.914   1.909  0.5497 -0.2514  0.0912
 2955SOL    HW120498   3.836   0.826   1.889 -0.6149 -0.6115 -0.2804
 2955SOL    HW220499   3.886   0.962   1.904 -0.1253  0.8178 -0.8020
 2956SOL     OW20500   0.683   1.799   0.939  0.0783 -0.3517  0.1476
 2956SOL    HW120501   0.599   1.764   0.910 -0.2823  0.6424 -0.0005
 2956SOL    HW220502   0.689   1.882   0.891  0.5742 -1.2213 -1.3064
 2957SOL     OW20503   3.342   0.993  13.149 -0.4299  0.0687  0.2522
 2957SOL    HW120504   3.261   0.943  13.141 -1.7472  2.1249  0.6846
 2957SOL    HW220505   3.366   0.960  13.236  2.8441  1.6454 -0.0467
 2958SOL     OW20506   2.757   0.873  12.386  0.1954 -0.1438 -0.4877
 2958SOL    HW120507   2.781   0.891  12.296  1.0149 -1.0905 -0.4592
 2958SOL    HW220508   2.670   0.839  12.367  0.9676 -1.4146 -1.7951
 2959SOL     OW20509   3.679   0.047  15.708 -0.2256 -0.0564  0.2228
 2959SOL    HW120510   3.696   0.030  15.615  0.3298  0.0452  0.3059
 2959SOL    HW220511   3.600   0.099  15.699  0.6250  1.4412  1.3321
 2960SOL     OW20512   1.783   0.171   1.837 -0.3555 -0.0190 -0.9384
 2960SOL    HW120513   1.867   0.156   1.793  0.0083  0.4692 -0.4194
 2960SOL    HW220514   1.732   0.221   1.774 -0.9517  0.1503 -0.3174
 2961SOL     OW20515   4.201   0.218   4.363  0.4516  0.0035 -0.4377
 2961SOL    HW120516   4.163   0.164   4.432  2.1824 -1.0731 -0.3301
 2961SOL    HW220517   4.268   0.267   4.411 -0.0327  1.1001 -0.8771
 2962SOL     OW20518   3.577   0.410   8.615  0.3645 -0.0137 -0.5080
 2962SOL    HW120519   3.616   0.343   8.559  0.4434  0.1948 -0.7000
 2962SOL    HW220520   3.604   0.493   8.577 -1.1724 -0.2281 -2.0477
 2963SOL     OW20521   2.160   0.640   0.559 -0.1078 -0.0605  0.3347
 2963SOL    HW120522   2.103   0.647   0.483  0.2510  0.9764  0.1588
 2963SOL    HW220523   2.165   0.729   0.594  3.9644 -0.1246 -0.0689
 2964SOL     OW20524   1.174   1.259  16.639 -0.3865 -0.2186  0.5025
 2964SOL    HW120525   1.086   1.244  16.607  0.6484 -1.4178 -1.7595
 2964SOL    HW220526   1.146   1.303  16.720  1.4199  0.4521  0.7798
 2965SOL     OW20527   0.376   4.132   3.306 -0.5910  0.0417 -0.2227
 2965SOL    HW120528   0.377   4.215   3.354 -2.8412 -2.0374  3.3590
 2965SOL    HW220529   0.418   4.077   3.372  0.8167  1.4290  0.0681
 2966SOL     OW20530   2.586   2.447   2.316  0.4197 -0.3101 -0.3598
 2966SOL    HW120531   2.665   2.443   2.371  0.9608 -1.5283 -1.2204
 2966SOL    HW220532   2.531   2.384   2.363  0.0879 -1.0565 -1.7563
 2967SOL     OW20533   3.874   4.181   8.420  0.0413 -0.1298 -0.3283
 2967SOL    HW120534   3.903   4.184   8.511 -1.4268  0.1986  0.1259
 2967SOL    HW220535   3.939   4.238   8.378  0.3682 -1.5786 -1.7917
 2968SOL     OW20536   3.479   0.237   5.205  0.0780  0.2513 -0.0717
 2968SOL    HW120537   3.402   0.221   5.259  0.1754  0.6498  0.1864
 2968SOL    HW220538   3.492   0.154   5.160 -0.3415 -0.1742  0.6006
 2969SOL     OW20539   4.027   1.460   3.626 -0.3204  0.3507 -0.6512
 2969SOL    HW120540   4.054   1.433   3.539 -1.7106  1.8926 -1.5602
 2969SOL    HW220541   3.933   1.443   3.615 -0.4393 -0.7314  1.9259
 2970SOL     OW20542   1.955   4.638  14.935  0.4944  0.2862  0.1292
 2970SOL    HW120543   1.973   4.547  14.958  0.4328  0.8456  2.3389
 2970SOL    HW220544   2.039   4.667  14.901  0.9127 -0.8204  0.2264
 2971SOL     OW20545   0.993   0.731   9.496  0.5312 -0.0925  0.4911
 2971SOL    HW120546   1.031   0.659   9.445 -2.0911  0.5270 -2.3730
 2971SOL    HW220547   0.988   0.695   9.584  0.7074 -1.0473  0.1145
 2972SOL     OW20548   4.069   2.777   9.914 -0.0346  0.0806  0.4018
 2972SOL    HW120549   4.016   2.794   9.991 -1.8615 -1.3908 -0.5407
 2972SOL    HW220550   4.049   2.685   9.898  3.5474 -0.4798 -0.9426
 2973SOL     OW20551   1.912   1.489   2.805 -0.0817 -0.3134 -0.0527
 2973SOL    HW120552   1.825   1.448   2.802  0.5320 -1.7452  2.0228
 2973SOL    HW220553   1.889   1.580   2.825 -2.9728 -0.9580 -0.3583
 2974SOL     OW20554   0.417   2.288   8.267  0.0324  0.0005  0.1137
 2974SOL    HW120555   0.348   2.344   8.304  0.7492  0.5456  0.6119
 2974SOL    HW220556   0.490   2.349   8.256  0.3231  0.0287  2.2055
 2975SOL     OW20557   1.284   2.744   5.312 -0.1546 -0.2864  0.2169
 2975SOL    HW120558   1.368   2.723   5.352  1.7525  4.0287 -1.5826
 2975SOL    HW220559   1.282   2.671   5.251  1.0223  1.5358 -1.9852
 2976SOL     OW20560   2.729   4.229   3.376 -0.0761 -0.3738 -0.2959
 2976SOL    HW120561   2.786   4.199   3.447 -0.7020  0.7328  0.6688
 2976SOL    HW220562   2.794   4.265   3.317  0.1283  1.7002  1.1942
 2977SOL     OW20563   3.581   3.098   3.192  0.0988  0.0683  0.2779
 2977SOL    HW120564   3.524   3.052   3.254  0.4868 -0.4832  0.2242
 2977SOL    HW220565   3.526   3.167   3.157  0.9689  0.6603  0.0788
 2978SOL     OW20566   0.289   3.901   8.573 -0.1770  0.3771 -0.0602
 2978SOL    HW120567   0.319   3.988   8.549 -2.1473  0.5845 -1.7152
 2978SOL    HW220568   0.200   3.889   8.542 -0.1660  1.7825 -0.6216
 2979SOL     OW20569   0.839   2.602   8.604  0.1973  0.4950 -0.5319
 2979SOL    HW120570   0.853   2.668   8.536 -1.7104  0.7219 -0.7015
 2979SOL    HW220571   0.922   2.556   8.601  1.4336  2.8267 -2.3170
 2980SOL     OW20572   0.553   4.475   3.514 -0.0572 -0.0613  0.4231
 2980SOL    HW120573   0.470   4.428   3.521  0.5751 -1.0547  1.2422
 2980SOL    HW220574   0.521   4.545   3.457  0.9134 -1.1055 -1.3933
 2981SOL     OW20575   4.226   3.423   5.615  0.3936 -0.2576 -0.2636
 2981SOL    HW120576   4.195   3.457   5.530  0.0566 -0.4350 -0.2084
 2981SOL    HW220577   4.292   3.362   5.582 -1.6482 -1.9264 -1.2777
 2982SOL     OW20578   3.046   2.019   9.508 -0.2319 -0.1373 -0.3715
 2982SOL    HW120579   2.961   1.976   9.500 -0.2841  0.2324 -1.7944
 2982SOL    HW220580   3.040   2.045   9.600 -2.2622 -0.4921 -0.3936
 2983SOL     OW20581   1.673   3.874   7.847 -0.5129 -0.4841  0.1167
 2983SOL    HW120582   1.725   3.803   7.808  0.2051  0.9005 -1.4451
 2983SOL    HW220583   1.738   3.919   7.900 -1.0819 -0.7406  1.0200
 2984SOL     OW20584   1.602   3.401  10.267  0.2215 -0.1857  0.2664
 2984SOL    HW120585   1.669   3.379  10.333 -1.0840 -2.1750  0.9409
 2984SOL    HW220586   1.650   3.415  10.186  0.2336 -1.0975  0.1123
 2985SOL     OW20587   2.524   2.178   8.234  0.0999  0.2286  0.5021
 2985SOL    HW120588   2.496   2.242   8.299  1.1967  0.5347  0.6808
 2985SOL    HW220589   2.543   2.105   8.293 -1.7369 -1.5845 -1.1715
 2986SOL     OW20590   0.066   3.976   1.575  0.1100 -0.3759  0.3602
 2986SOL    HW120591   0.016   3.993   1.495  2.8872 -1.1264 -1.5203
 2986SOL    HW220592   0.145   4.029   1.571  0.0883 -0.5146 -2.2594
 2987SOL     OW20593   4.000   3.918   6.371 -0.3603  0.2295  0.1447
 2987SOL    HW120594   3.995   3.839   6.426  1.7895  0.6953  1.0137
 2987SOL    HW220595   3.927   3.965   6.412 -0.5377 -0.4953  0.6680
 2988SOL     OW20596   4.587   4.705   3.150 -0.0816 -0.0348 -0.0205
 2988SOL    HW120597   4.560   4.625   3.195 -1.3834  0.9582  0.9743
 2988SOL    HW220598   4.652   0.015   3.203  1.7272 -0.1552 -2.1174
 2989SOL     OW20599   2.643   4.597   7.394 -0.4174  0.3735 -0.1993
 2989SOL    HW120600   2.640   4.678   7.445 -0.3697  0.2610 -0.0181
 2989SOL    HW220601   2.593   4.530   7.440  0.4412 -0.7567 -0.8787
 2990SOL     OW20602   4.631   1.605   4.316 -0.2643 -0.3186  0.0614
 2990SOL    HW120603   4.688   1.528   4.321  0.1142  0.1243  2.4689
 2990SOL    HW220604   4.671   1.667   4.377  0.5751 -1.5897  0.8129
 2991SOL     OW20605   1.924   2.390   2.775 -0.4893  0.0761 -0.2579
 2991SOL    HW120606   1.860   2.404   2.705 -3.3741 -0.1791  2.3381
 2991SOL    HW220607   1.967   2.310   2.743 -1.8295  0.0125 -1.8729
 2992SOL     OW20608   3.201   3.549   5.168  0.5433 -0.4850 -0.5837
 2992SOL    HW120609   3.289   3.580   5.191  0.3914  1.2373 -2.3914
 2992SOL    HW220610   3.218   3.455   5.162 -0.1628 -0.4589 -2.8142
 2993SOL     OW20611   2.021   1.939  11.411  0.4672 -0.1463 -0.2038
 2993SOL    HW120612   2.101   1.894  11.437 -0.3598 -1.2002  0.5179
 2993SOL    HW220613   2.023   1.916  11.318  0.7206  0.3135 -0.3101
 2994SOL     OW20614   4.368   3.485   8.938 -0.2050  0.0164  0.1215
 2994SOL    HW120615   4.369   3.471   8.844  0.7348 -2.3768  0.4997
 2994SOL    HW220616   4.304   3.416   8.958  1.7586 -1.3334  1.8098
 2995SOL     OW20617   4.446   1.900   9.253  0.2202 -0.8140  0.3816
 2995SOL    HW120618   4.415   1.818   9.293 -0.5695  0.0361  1.5030
 2995SOL    HW220619   4.374   1.956   9.283 -0.1638 -0.0631 -1.9477
 2996SOL     OW20620   1.222   1.499   7.874  0.4749  0.0696  0.1213
 2996SOL    HW120621   1.215   1.593   7.890  0.1985 -0.1278  1.1205
 2996SOL    HW220622   1.202   1.462   7.960 -1.2077 -0.8844 -0.6698
 2997SOL     OW20623   0.864   1.077   2.582  0.5893 -0.4256 -0.4168
 2997SOL    HW120624   0.934   1.091   2.518  1.3726 -2.3596  0.0117
 2997SOL    HW220625   0.892   0.992   2.615 -0.9900 -0.8057 -0.0553
 2998SOL     OW20626   3.547   0.539  17.318  0.9748  0.1345  0.2491
 2998SOL    HW120627   3.495   0.572  17.245 -1.1224 -2.3836  0.5717
 2998SOL    HW220628   3.616   0.601  17.337  1.7484 -1.3077  2.1863
 2999SOL     OW20629   2.506   1.797   6.988  0.5490 -0.0259  0.1030
 2999SOL    HW120630   2.587   1.798   6.938 -0.1590  0.8165 -1.0306
 2999SOL    HW220631   2.531   1.849   7.064  1.5310  1.1211 -1.0064
 3000SOL     OW20632   2.151   4.450   8.201 -0.4462  0.4918 -0.2009
 3000SOL    HW120633   2.111   4.437   8.115 -1.9534  0.4421  0.5105
 3000SOL    HW220634   2.154   4.545   8.214  1.5149  0.2255  1.3662
 3001SOL     OW20635   0.207   4.484   6.130 -0.2843  0.0563 -0.2084
 3001SOL    HW120636   0.183   4.417   6.067  3.2316 -0.3332 -1.1046
 3001SOL    HW220637   0.125   4.484   6.180  1.3856 -1.9036  2.4990
 3002SOL     OW20638   0.077   1.164   2.643 -0.3113 -0.0660  0.3037
 3002SOL    HW120639   0.146   1.104   2.670 -0.9715  0.0098  2.1747
 3002SOL    HW220640   0.126   1.223   2.585 -0.0185  1.9718  2.5753
 3003SOL     OW20641   1.491   0.817  12.004 -0.2157 -0.0469  0.2198
 3003SOL    HW120642   1.587   0.815  11.999 -0.1522 -1.0174  1.6387
 3003SOL    HW220643   1.489   0.723  12.023 -0.1553  0.1431  1.1758
 3004SOL     OW20644   2.068   2.617   2.922 -0.8584 -0.2783  0.1139
 3004SOL    HW120645   1.997   2.564   2.888 -1.2331  0.9521 -1.0149
 3004SOL    HW220646   2.139   2.585   2.867 -1.4323 -2.0486  0.4006
 3005SOL     OW20647   2.843   3.877  15.436  0.1836  0.0583  0.2909
 3005SOL    HW120648   2.759   3.913  15.467  0.2978  1.9690 -1.6244
 3005SOL    HW220649   2.887   3.957  15.407 -1.5481  0.4524 -1.3075
 3006SOL     OW20650   3.349   4.184   4.459  0.1752 -0.4642 -0.5916
 3006SOL    HW120651   3.265   4.140   4.457 -0.4717  0.6733  1.3224
 3006SOL    HW220652   3.365   4.225   4.374 -0.8951 -0.9944 -1.0367
 3007SOL     OW20653   4.271   3.871   6.599 -0.0359 -0.1736 -0.0775
 3007SOL    HW120654   4.311   3.797   6.644  0.2177  0.3376  0.5406
 3007SOL    HW220655   4.330   3.891   6.527  0.2765  0.5079  0.3711
 3008SOL     OW20656   2.606   3.899   1.935 -0.0612  0.5489 -0.0729
 3008SOL    HW120657   2.622   3.894   2.029 -0.3020 -2.3053 -0.1684
 3008SOL    HW220658   2.573   3.989   1.931  0.9151  0.9536  1.3053
 3009SOL     OW20659   2.904   3.874  13.734 -0.6709  0.0920 -0.5199
 3009SOL    HW120660   2.979   3.824  13.767  1.9984  3.1700 -1.8614
 3009SOL    HW220661   2.904   3.839  13.645  0.3543  0.2372 -0.5836
 3010SOL     OW20662   0.183   1.431   7.718  0.7422  0.1007 -0.2015
 3010SOL    HW120663   0.227   1.464   7.797  1.1311 -0.8363 -0.0245
 3010SOL    HW220664   0.166   1.505   7.659  0.7347  1.9992  2.1727
 3011SOL     OW20665   2.656   2.329  10.524 -0.0166  0.0544 -0.3394
 3011SOL    HW120666   2.741   2.369  10.505  0.7575 -1.0402  0.7952
 3011SOL    HW220667   2.603   2.354  10.449 -0.4266 -0.2383 -0.1494
 3012SOL     OW20668   1.811   3.149   4.322 -0.3387  0.0565 -0.6018
 3012SOL    HW120669   1.848   3.231   4.355 -1.2218 -0.6104  2.0370
 3012SOL    HW220670   1.717   3.163   4.334 -0.8224 -2.3291 -1.5744
 3013SOL     OW20671   1.580   0.219   0.505 -0.1885 -0.1365 -0.7280
 3013SOL    HW120672   1.516   0.237   0.575  0.0978 -0.4351 -0.3877
 3013SOL    HW220673   1.652   0.194   0.563 -1.8055 -0.2522  1.2591
 3014SOL     OW20674   3.054   3.586   5.455 -0.3441  0.0841 -0.3528
 3014SOL    HW120675   2.995   3.600   5.381  0.9073  0.3779 -1.2927
 3014SOL    HW220676   3.009   3.511   5.494 -0.4873  1.1200  1.4741
 3015SOL     OW20677   3.891   3.370   6.345 -0.1244  0.2933  0.0005
 3015SOL    HW120678   3.880   3.408   6.258  0.1098  2.4036  0.8895
 3015SOL    HW220679   3.807   3.372   6.391 -0.7955  1.0927 -1.2724
 3016SOL     OW20680   4.149   0.373   8.810 -0.4195 -0.2361  0.7790
 3016SOL    HW120681   4.101   0.387   8.892  1.1257 -0.2408  1.6919
 3016SOL    HW220682   4.233   0.416   8.829  1.1806 -3.5874  1.3801
 3017SOL     OW20683   3.388   1.288   3.753 -0.7949  0.0997 -0.4933
 3017SOL    HW120684   3.383   1.380   3.778 -0.1896  0.9107 -3.4395
 3017SOL    HW220685   3.394   1.244   3.838  0.4435  2.3415  0.5796
 3018SOL     OW20686   0.033   3.271   2.518  0.2225  0.1041 -0.3577
 3018SOL    HW120687   0.031   3.197   2.457 -0.6027  0.6060 -0.9408
 3018SOL    HW220688   0.122   3.268   2.554 -0.3199 -3.9075  0.6142
 3019SOL     OW20689   3.330   0.650  17.198  0.1080  1.1721  0.4443
 3019SOL    HW120690   3.333   0.712  17.125 -1.0847  0.0420 -0.5695
 3019SOL    HW220691   3.262   0.586  17.179 -0.1297  1.1405  1.4102
 3020SOL     OW20692   4.667   0.135   9.712  0.7453 -0.1987 -0.7074
 3020SOL    HW120693   4.623   0.166   9.791 -2.3932 -0.7095 -2.2362
 3020SOL    HW220694   0.016   0.177   9.716  1.0954 -1.1773  1.8460
 3021SOL     OW20695   4.093   1.700  14.708 -0.1706 -0.2016 -0.8342
 3021SOL    HW120696   4.056   1.775  14.754 -2.9660 -1.5669 -0.8698
 3021SOL    HW220697   4.109   1.637  14.778  0.4552  0.1641 -0.6426
 3022SOL     OW20698   2.689   1.919  12.322  0.8311  0.6765  0.3055
 3022SOL    HW120699   2.686   1.949  12.413  3.0161  1.1436  0.2193
 3022SOL    HW220700   2.699   1.826  12.342 -0.9517  0.3722 -0.2216
 3023SOL     OW20701   1.605   4.159  17.037 -0.3039  0.3307  0.0836
 3023SOL    HW120702   1.642   4.172  16.950  2.3963 -3.4156  0.6726
 3023SOL    HW220703   1.682   4.151  17.093 -2.2743  0.5230  2.8377
 3024SOL     OW20704   4.084   1.776   9.641  0.0475 -0.5098  0.4637
 3024SOL    HW120705   4.091   1.739   9.729  1.9766  0.8253  0.8689
 3024SOL    HW220706   4.127   1.709   9.588 -0.7698 -1.4785  1.0209
 3025SOL     OW20707   1.143   1.073   6.511  0.0471  0.0151  0.8957
 3025SOL    HW120708   1.131   0.978   6.511 -1.8051  0.2282 -1.4814
 3025SOL    HW220709   1.061   1.114   6.483  0.0030  0.2791  1.4031
 3026SOL     OW20710   0.748   1.717  16.921  0.2354 -0.0978 -0.0390
 3026SOL    HW120711   0.780   1.723  16.831  0.1889 -0.3608 -0.0731
 3026SOL    HW220712   0.752   1.624  16.943  0.6954 -0.1842 -0.4775
 3027SOL     OW20713   1.717   3.168   6.683  0.1625  0.6535 -0.1426
 3027SOL    HW120714   1.769   3.167   6.603 -0.5915  0.5847 -0.6290
 3027SOL    HW220715   1.781   3.190   6.751  0.3787  2.3240 -0.8740
 3028SOL     OW20716   0.611   1.499   1.092 -0.4002  0.3515 -0.1307
 3028SOL    HW120717   0.523   1.524   1.063 -1.0051 -0.2512  1.1596
 3028SOL    HW220718   0.590   1.472   1.182 -1.2170  2.7544  0.4161
 3029SOL     OW20719   1.576   0.680   3.366  0.3789 -0.0655  0.0194
 3029SOL    HW120720   1.496   0.639   3.336 -0.5210  1.8182 -0.1905
 3029SOL    HW220721   1.640   0.639   3.308  0.0075 -0.4856 -0.0919
 3030SOL     OW20722   2.107   4.719   4.027  0.1679 -0.2963  0.6004
 3030SOL    HW120723   2.162   4.672   4.090  1.5972 -0.3994 -0.7242
 3030SOL    HW220724   2.082   4.650   3.965 -1.9958 -1.1853  2.4526
 3031SOL     OW20725   2.904   0.473   3.706 -0.1027  0.1423 -0.2819
 3031SOL    HW120726   2.997   0.483   3.725 -0.4254  1.9382  0.3271
 3031SOL    HW220727   2.871   0.485   3.795 -1.2365 -0.1423 -0.6610
 3032SOL     OW20728   0.099   2.792   0.919  0.6106 -0.4330  0.0388
 3032SOL    HW120729   0.162   2.731   0.879 -1.4705 -0.8798 -2.5679
 3032SOL    HW220730   0.020   2.767   0.870 -1.8836  2.6558  2.5136
 3033SOL     OW20731   1.043   3.966  10.407  0.1735  0.3616  0.3692
 3033SOL    HW120732   1.104   4.022  10.454  0.3152 -0.1094  0.7486
 3033SOL    HW220733   1.097   3.924  10.339  0.7237  2.2920 -0.3884
 3034SOL     OW20734   3.481   0.862   7.769 -0.0312 -0.1871 -0.1766
 3034SOL    HW120735   3.395   0.895   7.796 -0.0774 -0.7886  0.4108
 3034SOL    HW220736   3.455   0.795   7.706 -4.3099  1.2180  0.0902
 3035SOL     OW20737   3.364   2.316  13.579  0.1932  0.0369  0.1308
 3035SOL    HW120738   3.342   2.401  13.616 -3.4433 -1.5946  1.6752
 3035SOL    HW220739   3.372   2.270  13.663 -1.8164 -0.0932  0.2457
 3036SOL     OW20740   4.619   3.535   9.386  0.0926  0.0481  1.1824
 3036SOL    HW120741   4.554   3.534   9.316  0.9154 -0.3026  0.4161
 3036SOL    HW220742   4.632   3.441   9.391 -0.9803 -0.0949  1.3109
 3037SOL     OW20743   3.213   4.315   5.412 -0.9712 -0.2028  0.4828
 3037SOL    HW120744   3.300   4.296   5.447 -0.8567 -1.0189 -0.2551
 3037SOL    HW220745   3.223   4.409   5.397  1.5271 -0.3333  1.3458
 3038SOL     OW20746   0.007   4.644   6.282 -0.5273  0.8399 -0.0177
 3038SOL    HW120747   4.716   4.728   6.318  1.2773  0.7783  1.5607
 3038SOL    HW220748   0.099   4.669   6.286 -0.1452 -0.9381  2.5326
 3039SOL     OW20749   2.164   3.627  15.079  0.2161 -0.6257 -0.0439
 3039SOL    HW120750   2.093   3.655  15.022 -1.0030  1.8884  2.7235
 3039SOL    HW220751   2.172   3.714  15.118  1.1676 -0.2921 -0.9876
 3040SOL     OW20752   2.723   2.508  12.774  0.0287 -0.2509  0.1689
 3040SOL    HW120753   2.731   2.588  12.722 -0.9862 -2.1568 -2.9519
 3040SOL    HW220754   2.781   2.527  12.847  1.1451 -0.1914 -0.7377
 3041SOL     OW20755   3.842   2.871   1.863 -0.0215  0.3284  0.4949
 3041SOL    HW120756   3.920   2.822   1.888 -0.5609 -1.4436 -1.2285
 3041SOL    HW220757   3.781   2.797   1.853  0.3066  0.4925 -2.8773
 3042SOL     OW20758   1.388   2.313   7.457  0.1517 -0.0043  0.5402
 3042SOL    HW120759   1.349   2.243   7.406  0.5912  0.4238 -0.3801
 3042SOL    HW220760   1.476   2.323   7.420 -0.4901  0.0770 -0.9520
 3043SOL     OW20761   3.586   0.504  10.737  0.5859 -0.2880  0.2756
 3043SOL    HW120762   3.598   0.509  10.832 -0.6982  0.9260  0.3659
 3043SOL    HW220763   3.667   0.455  10.721 -0.3623 -1.6494 -0.3728
 3044SOL     OW20764   3.557   1.711  15.620 -0.2495 -0.7389 -0.1264
 3044SOL    HW120765   3.545   1.616  15.626 -1.9664 -0.4775  0.3846
 3044SOL    HW220766   3.617   1.717  15.546 -0.0070  2.7334  0.3228
 3045SOL     OW20767   3.295   1.382   0.700  0.6685  0.3253  0.0638
 3045SOL    HW120768   3.279   1.421   0.786 -0.2985 -2.0634  0.9791
 3045SOL    HW220769   3.276   1.458   0.646  0.6491  0.5426  0.3738
 3046SOL     OW20770   2.390   2.461   7.371 -0.3937  0.0857  0.2006
 3046SOL    HW120771   2.415   2.426   7.286  1.0485 -1.0861  1.1178
 3046SOL    HW220772   2.469   2.482   7.420 -1.5857  3.0810  0.8373
 3047SOL     OW20773   2.587   1.204   3.631 -0.5359  1.1063 -0.2341
 3047SOL    HW120774   2.544   1.142   3.572  0.7793 -0.4126  0.3991
 3047SOL    HW220775   2.540   1.285   3.614 -1.1069  0.8472  0.1167
 3048SOL     OW20776   3.704   2.037   2.961 -0.4226  0.5214  0.6197
 3048SOL    HW120777   3.611   2.055   2.971 -0.9752 -1.3490 -1.2851
 3048SOL    HW220778   3.731   2.039   3.053  1.7506 -1.3648  0.0379
 3049SOL     OW20779   3.853   1.391   4.215  0.2589 -0.5287  0.1578
 3049SOL    HW120780   3.937   1.371   4.175  0.7375  2.4576 -0.3564
 3049SOL    HW220781   3.870   1.360   4.304 -1.9098 -0.5268  0.5853
 3050SOL     OW20782   4.394   1.974  12.028  0.0342 -0.2232  0.1506
 3050SOL    HW120783   4.391   1.913  12.102 -0.2982  1.2497  1.3481
 3050SOL    HW220784   4.303   1.963  12.000 -0.2785  0.2161  0.9664
 3051SOL     OW20785   1.112   1.135   5.745  0.0674  0.3290  0.5905
 3051SOL    HW120786   1.075   1.208   5.695  1.3884  0.9298  0.4767
 3051SOL    HW220787   1.181   1.173   5.799  0.3708 -0.3989  0.7130
 3052SOL     OW20788   3.286   0.046   8.430 -0.5228  0.1463  0.5000
 3052SOL    HW120789   3.285   0.031   8.524 -0.6531 -1.3282  0.2573
 3052SOL    HW220790   3.265   0.140   8.431  0.0814  0.2857  0.4556
 3053SOL     OW20791   2.889   1.255   8.445 -0.2578 -0.1594 -0.0842
 3053SOL    HW120792   2.873   1.186   8.509  0.3175 -1.7869 -1.6982
 3053SOL    HW220793   2.851   1.206   8.372  0.1276 -0.2990 -0.1895
 3054SOL     OW20794   3.345   1.099   5.643  0.5607 -0.3789  0.0254
 3054SOL    HW120795   3.366   1.108   5.551 -0.2306 -2.9059 -0.3933
 3054SOL    HW220796   3.286   1.174   5.650 -0.1309 -0.8807 -0.4542
 3055SOL     OW20797   3.237   0.159   3.116  0.0967  0.7109 -0.5925
 3055SOL    HW120798   3.286   0.156   3.198  0.6931 -0.9955 -1.0198
 3055SOL    HW220799   3.227   0.065   3.101  2.0309  0.7770 -2.2901
 3056SOL     OW20800   2.121   0.769  15.509 -0.8322 -0.5567 -0.0233
 3056SOL    HW120801   2.105   0.783  15.416 -0.5391 -3.1511 -0.4857
 3056SOL    HW220802   2.120   0.859  15.541 -0.1135 -1.0013  1.2859
 3057SOL     OW20803   2.933   2.948   3.784 -0.3746  0.3969 -0.2973
 3057SOL    HW120804   2.956   3.034   3.749  0.0637  0.9122  1.3033
 3057SOL    HW220805   2.950   2.881   3.718  1.2612  0.9125 -0.3961
 3058SOL     OW20806   2.193   0.286  10.234 -0.4394  0.1221 -0.2329
 3058SOL    HW120807   2.229   0.299  10.147  2.4029 -0.9015  0.7865
 3058SOL    HW220808   2.232   0.359  10.284  1.6736  0.3084 -2.1424
 3059SOL     OW20809   4.453   4.624   2.502 -0.2804 -0.0961  0.1683
 3059SOL    HW120810   4.523   4.672   2.458 -1.0444 -0.6473 -1.6594
 3059SOL    HW220811   4.386   4.634   2.434  1.3789 -1.6919 -1.7293
 3060SOL     OW20812   2.857   4.496   5.069 -0.2325 -0.0340 -0.4084
 3060SOL    HW120813   2.820   4.514   5.156 -0.1455  0.5412 -0.4864
 3060SOL    HW220814   2.947   4.516   5.097 -0.5109 -1.1120  1.2753
 3061SOL     OW20815   2.766   2.354  11.434  0.1100 -0.2120 -0.1517
 3061SOL    HW120816   2.783   2.427  11.493 -1.5665 -0.3675  0.4996
 3061SOL    HW220817   2.674   2.338  11.452 -0.3013  1.7075 -0.5752
 3062SOL     OW20818   1.232   3.140  13.516  0.0146  0.6303 -0.5629
 3062SOL    HW120819   1.314   3.188  13.502 -1.5400  2.5436 -3.0083
 3062SOL    HW220820   1.236   3.133  13.611 -2.0783  1.0003 -0.4558
 3063SOL     OW20821   2.116   0.004  10.315 -0.1195 -0.2465 -0.3119
 3063SOL    HW120822   2.201   4.703  10.338 -0.8195  0.1099  2.8831
 3063SOL    HW220823   2.143   0.088  10.277 -1.7572  0.1172 -0.6932
 3064SOL     OW20824   0.776   2.847   5.025  0.2347  0.1465  0.2261
 3064SOL    HW120825   0.757   2.888   4.941 -2.0268 -0.9873  0.1509
 3064SOL    HW220826   0.709   2.888   5.080 -1.5548 -2.8442  0.2995
 3065SOL     OW20827   3.230   2.606   6.038  0.3056  0.1265 -0.0058
 3065SOL    HW120828   3.181   2.687   6.017  0.5458  0.1474 -0.4939
 3065SOL    HW220829   3.205   2.547   5.967 -2.6315 -0.8584  1.8307
 3066SOL     OW20830   0.901   4.173   5.389 -0.1987 -0.5612 -0.1440
 3066SOL    HW120831   0.837   4.187   5.320  0.5073  0.3028 -0.6328
 3066SOL    HW220832   0.898   4.254   5.440  0.3575 -0.4146 -0.3359
 3067SOL     OW20833   4.239   0.718  15.917  0.1044  0.1381  0.3368
 3067SOL    HW120834   4.182   0.768  15.859 -0.5361  0.8005  1.5444
 3067SOL    HW220835   4.298   0.788  15.948  0.7644 -1.0876  1.8314
 3068SOL     OW20836   0.215   3.605   7.602  0.1863  0.0128  0.0037
 3068SOL    HW120837   0.276   3.581   7.671  0.9321 -2.1407 -1.4142
 3068SOL    HW220838   0.180   3.691   7.625  0.1533  0.1373 -0.5002
 3069SOL     OW20839   0.199   0.961   3.984  0.0520  0.1721 -0.1246
 3069SOL    HW120840   0.175   1.050   3.957  0.5283  0.0575 -0.9481
 3069SOL    HW220841   0.198   0.915   3.900 -0.5942 -0.7153  0.3718
 3070SOL     OW20842   0.723   3.488   7.454  0.6317  0.5611  0.6847
 3070SOL    HW120843   0.669   3.526   7.524 -0.1295  0.9333 -0.1041
 3070SOL    HW220844   0.768   3.570   7.432  0.7147  0.1309 -0.7456
 3071SOL     OW20845   3.705   3.651   7.724 -0.6125 -0.0677  0.1945
 3071SOL    HW120846   3.654   3.732   7.732 -0.5762  0.0524 -0.8061
 3071SOL    HW220847   3.778   3.683   7.777  1.9973  1.1200 -4.1387
 3072SOL     OW20848   3.990   4.676   8.360 -0.4975  0.0543  0.0928
 3072SOL    HW120849   3.996   0.002   8.432 -0.9333 -0.3213  0.4657
 3072SOL    HW220850   3.900   4.687   8.329 -0.8389  1.1589  1.4742
 3073SOL     OW20851   1.883   1.186   7.998  0.0683 -0.8407  0.3043
 3073SOL    HW120852   1.869   1.273   7.959  0.2765 -1.1935 -0.5607
 3073SOL    HW220853   1.902   1.130   7.923  0.7664 -1.0826  0.6654
 3074SOL     OW20854   1.583   2.685   0.818 -0.2840  0.4633  0.2578
 3074SOL    HW120855   1.543   2.605   0.852  0.5103  0.2368  0.6786
 3074SOL    HW220856   1.668   2.679   0.862 -0.2505  0.5099  0.1983
 3075SOL     OW20857   0.343   2.467  13.363 -0.4227  0.3897  0.5758
 3075SOL    HW120858   0.293   2.542  13.329 -1.0643 -0.8605 -1.1885
 3075SOL    HW220859   0.427   2.513  13.374 -0.7553  0.5478  2.4266
 3076SOL     OW20860   3.442   3.314   2.635  0.0888 -0.2850  0.5066
 3076SOL    HW120861   3.480   3.401   2.636 -0.3426 -0.0697 -2.0453
 3076SOL    HW220862   3.519   3.257   2.633  1.7137  1.9144  0.8076
 3077SOL     OW20863   2.125   0.603   4.074 -0.1403 -0.0879 -0.1338
 3077SOL    HW120864   2.072   0.580   4.150 -1.2572  0.5701 -0.7196
 3077SOL    HW220865   2.079   0.562   4.001  1.9453  1.4691 -2.3320
 3078SOL     OW20866   4.154   1.970   5.902 -0.5052 -0.0768 -1.0319
 3078SOL    HW120867   4.190   2.054   5.928  1.9113 -1.6977  0.8181
 3078SOL    HW220868   4.224   1.946   5.841  1.6610  2.2044  0.5940
 3079SOL     OW20869   2.174   1.458   8.870 -0.5800 -0.1078 -0.1770
 3079SOL    HW120870   2.205   1.390   8.931  0.6698  0.0501 -0.6380
 3079SOL    HW220871   2.138   1.520   8.933  0.4007  0.3779 -0.0878
 3080SOL     OW20872   2.669   1.906   9.887  0.4164 -0.3885  0.1135
 3080SOL    HW120873   2.763   1.920   9.879  0.6096 -1.4092  0.6362
 3080SOL    HW220874   2.662   1.853   9.808  0.0801 -0.0104 -0.1129
 3081SOL     OW20875   2.816   3.970   7.776  0.4053 -0.3944  0.3453
 3081SOL    HW120876   2.812   3.962   7.871 -0.3574  1.5664  0.4894
 3081SOL    HW220877   2.738   3.923   7.744 -1.4544  0.5091  3.5472
 3082SOL     OW20878   4.143   1.918   7.878 -0.6741 -0.2174 -0.8101
 3082SOL    HW120879   4.158   1.854   7.808 -0.7057  0.5627 -1.5190
 3082SOL    HW220880   4.210   1.887   7.940  0.8999  1.3891 -1.7228
 3083SOL     OW20881   3.178   1.487   4.596  0.9810 -0.1227 -0.4650
 3083SOL    HW120882   3.120   1.563   4.609  1.0673 -0.7147  3.3965
 3083SOL    HW220883   3.202   1.486   4.504  1.7557  0.4497 -0.2672
 3084SOL     OW20884   4.387   4.516   7.585 -0.6461  0.1963 -0.1085
 3084SOL    HW120885   4.451   4.556   7.645 -1.4927 -0.2338  1.0686
 3084SOL    HW220886   4.303   4.537   7.625  0.2083  1.2521  1.1420
 3085SOL     OW20887   2.842   4.473   0.643  0.2187 -0.4236  0.1927
 3085SOL    HW120888   2.752   4.496   0.623  0.2390 -0.7090 -0.2064
 3085SOL    HW220889   2.838   4.397   0.701  1.5450 -0.6344  0.0201
 3086SOL     OW20890   2.677   4.089   6.578  0.7023 -0.1764 -0.1630
 3086SOL    HW120891   2.715   4.041   6.652 -1.2982 -1.5148 -0.0302
 3086SOL    HW220892   2.586   4.098   6.604  0.3754 -0.2131 -1.3034
 3087SOL     OW20893   3.341   2.571  13.739  0.2257  0.3089 -0.5333
 3087SOL    HW120894   3.352   2.645  13.680  0.5696  0.2830 -0.5042
 3087SOL    HW220895   3.429   2.535  13.724  0.8479  0.7365  2.1323
 3088SOL     OW20896   2.347   4.636   5.208 -0.0017 -0.7921 -0.4620
 3088SOL    HW120897   2.376   4.727   5.209 -0.3845 -0.6661 -0.8481
 3088SOL    HW220898   2.264   4.639   5.255 -0.7424 -1.7794 -1.6978
 3089SOL     OW20899   1.091   4.320   3.457  0.4123 -0.2342 -0.0410
 3089SOL    HW120900   1.178   4.345   3.426  0.5674  0.2763  0.8228
 3089SOL    HW220901   1.115   4.227   3.462  2.1964  0.3202  1.7901
 3090SOL     OW20902   1.182   3.061   1.958 -0.0816 -0.3122  1.0703
 3090SOL    HW120903   1.099   3.061   1.912 -0.0807 -0.4537  1.0695
 3090SOL    HW220904   1.236   3.086   1.884 -1.4154  1.6291  0.7396
 3091SOL     OW20905   3.776   1.126  17.188 -0.3884  0.0666 -0.7655
 3091SOL    HW120906   3.690   1.098  17.219  0.2441 -0.2275  0.7406
 3091SOL    HW220907   3.834   1.097  17.259 -1.0246 -0.1011 -0.3155
 3092SOL     OW20908   3.798   2.241  11.443  0.6264 -0.2202 -0.1809
 3092SOL    HW120909   3.748   2.188  11.382  1.7968 -1.4528 -0.0573
 3092SOL    HW220910   3.726   2.263  11.502  0.6738  0.6000 -0.4247
 3093SOL     OW20911   2.744   3.883   2.175  0.2814 -0.5951  0.2338
 3093SOL    HW120912   2.784   3.806   2.135  2.0370  0.5689 -0.2344
 3093SOL    HW220913   2.706   3.841   2.252  0.4859  0.2607  0.7980
 3094SOL     OW20914   1.633   2.253   4.105  0.2676  0.7627  0.5761
 3094SOL    HW120915   1.552   2.303   4.113 -1.7326 -2.2626 -0.9862
 3094SOL    HW220916   1.613   2.175   4.158  0.5497 -0.4505 -1.0989
 3095SOL     OW20917   3.103   2.940  17.152  0.0063  0.4668 -0.0195
 3095SOL    HW120918   3.091   2.949  17.246  1.5287  2.0463  0.0057
 3095SOL    HW220919   3.014   2.938  17.117 -0.3394  2.3736  0.7947
 3096SOL     OW20920   0.885   1.674   7.375  0.1086  0.2817  0.0354
 3096SOL    HW120921   0.897   1.586   7.409  0.0334  0.9532  1.8148
 3096SOL    HW220922   0.926   1.661   7.290 -1.0161  0.4685 -0.5456
 3097SOL     OW20923   1.375   2.352   4.105  0.0165  0.0748  0.3969
 3097SOL    HW120924   1.360   2.401   4.186 -0.3602 -0.2587  0.5298
 3097SOL    HW220925   1.298   2.295   4.099  1.9524 -2.8839  3.7644
 3098SOL     OW20926   0.231   4.193   1.493  0.1491 -0.1699 -0.3103
 3098SOL    HW120927   0.296   4.180   1.562 -0.2087 -0.3224  0.0019
 3098SOL    HW220928   0.189   4.273   1.525  1.8121 -0.2527  2.1468
 3099SOL     OW20929   1.219   4.526   6.353  0.5010  0.0723  0.2411
 3099SOL    HW120930   1.226   4.440   6.312  1.5188 -0.7604  2.1836
 3099SOL    HW220931   1.248   4.581   6.280  1.2338 -0.7854 -0.1178
 3100SOL     OW20932   0.457   2.790   9.026  0.1432 -0.6844 -0.2886
 3100SOL    HW120933   0.397   2.736   8.975  0.5647  0.8324 -2.3759
 3100SOL    HW220934   0.532   2.731   9.039  1.3822  0.9154 -0.0646
 3101SOL     OW20935   1.720   4.274   9.092 -0.2860 -0.4424  0.1755
 3101SOL    HW120936   1.809   4.272   9.057 -0.4697  0.4124 -0.3327
 3101SOL    HW220937   1.713   4.365   9.120  1.5843 -0.4147  0.5819
 3102SOL     OW20938   3.842   2.013  13.748 -0.5365  0.0581  0.1987
 3102SOL    HW120939   3.816   2.011  13.840  0.0657  1.0022  0.3819
 3102SOL    HW220940   3.931   1.977  13.753 -0.4839  0.5863  3.2834
 3103SOL     OW20941   4.443   1.033   6.914 -0.3456  0.7569  0.0352
 3103SOL    HW120942   4.358   1.005   6.948  0.9132 -1.5303  1.2734
 3103SOL    HW220943   4.405   1.053   6.828 -2.2580 -1.4582  0.3721
 3104SOL     OW20944   3.829   1.272   7.250 -0.2049  0.3494 -0.7352
 3104SOL    HW120945   3.759   1.275   7.315  1.1218  0.1508  0.6951
 3104SOL    HW220946   3.841   1.366   7.234  0.5202 -0.0726 -2.6044
 3105SOL     OW20947   3.117   2.067  12.733  0.4412  0.0071  0.0654
 3105SOL    HW120948   3.073   2.147  12.762 -1.1600  0.0619 -2.5123
 3105SOL    HW220949   3.200   2.095  12.695 -0.2644  0.6685 -0.9925
 3106SOL     OW20950   4.430   1.733   3.519  0.5637  0.0873  0.1025
 3106SOL    HW120951   4.475   1.677   3.583  0.1298 -1.2746 -0.7916
 3106SOL    HW220952   4.511   1.771   3.486  1.6950 -1.9151  0.5138
 3107SOL     OW20953   0.957   3.510   4.668  0.6072  0.0505  0.1089
 3107SOL    HW120954   0.880   3.476   4.712  0.4398  0.5104  0.1734
 3107SOL    HW220955   0.978   3.432   4.617  1.0840 -0.5171  1.1792
 3108SOL     OW20956   2.601   0.249   4.711 -0.0234 -0.4798 -0.1690
 3108SOL    HW120957   2.688   0.278   4.738 -0.5579 -0.0239  1.0174
 3108SOL    HW220958   2.571   0.198   4.785  1.6502 -0.3531  0.6002
 3109SOL     OW20959   0.371   3.303   7.161  0.2215 -0.5165  0.0007
 3109SOL    HW120960   0.431   3.300   7.087 -2.4984  0.9197 -2.2902
 3109SOL    HW220961   0.319   3.380   7.136  1.9929  0.4491 -0.7373
 3110SOL     OW20962   1.737   3.134   0.966 -0.3665  0.6975 -0.0978
 3110SOL    HW120963   1.746   3.186   1.046 -2.8296  0.6063  0.2339
 3110SOL    HW220964   1.830   3.122   0.946  0.1223 -0.7847  3.0792
 3111SOL     OW20965   3.547   2.712   4.310  0.7596  0.5134  0.1129
 3111SOL    HW120966   3.569   2.619   4.310 -0.9890  0.1041 -1.6595
 3111SOL    HW220967   3.502   2.718   4.394 -0.9401 -2.9081 -0.5495
 3112SOL     OW20968   4.684   4.302   6.459 -0.0762  0.1946 -0.1665
 3112SOL    HW120969   4.599   4.332   6.491 -1.3899 -2.7297 -0.8851
 3112SOL    HW220970   0.009   4.338   6.522 -3.4551 -0.0964  3.3595
 3113SOL     OW20971   1.457   2.219   3.266 -0.1453 -0.0387 -0.8207
 3113SOL    HW120972   1.498   2.269   3.195  1.4632  2.6607  1.9927
 3113SOL    HW220973   1.533   2.173   3.301  0.4522  0.8941 -0.8827
 3114SOL     OW20974   4.417   4.019   6.056  0.0657 -0.5030  0.0199
 3114SOL    HW120975   4.488   3.989   6.113 -0.8486  0.3787  1.6139
 3114SOL    HW220976   4.420   4.114   6.068  0.6566 -0.4256 -0.6885
 3115SOL     OW20977   3.498   3.702   2.279 -0.1990  0.1981 -0.0248
 3115SOL    HW120978   3.478   3.628   2.222  2.0623  0.7548 -1.5263
 3115SOL    HW220979   3.552   3.751   2.217  2.2730 -1.2985  0.9463
 3116SOL     OW20980   4.720   4.536   9.357  0.3258  0.4776 -0.0411
 3116SOL    HW120981   4.735   4.586   9.277 -0.4234 -0.2485 -0.6393
 3116SOL    HW220982   4.638   4.579   9.379  0.6428  1.5472 -0.9626
 3117SOL     OW20983   3.596   4.204   9.562  0.0930  0.2074  0.3641
 3117SOL    HW120984   3.616   4.116   9.594  0.0204  1.2006  3.0832
 3117SOL    HW220985   3.685   4.240   9.558  0.3994 -0.6451 -0.9259
 3118SOL     OW20986   0.922   2.074   8.839  0.0741 -0.4242  0.2197
 3118SOL    HW120987   0.941   2.143   8.902  0.5394 -1.5360  1.2807
 3118SOL    HW220988   0.898   2.120   8.758  0.4359 -4.1485 -1.9811
 3119SOL     OW20989   2.162   1.479   6.952 -0.1272 -0.2422  0.0285
 3119SOL    HW120990   2.189   1.452   6.864  2.5915  0.6234  0.6041
 3119SOL    HW220991   2.118   1.400   6.986 -0.7130 -0.1263 -0.4625
 3120SOL     OW20992   1.895   0.912   6.619  0.9164 -0.2620  0.0425
 3120SOL    HW120993   1.874   0.859   6.542 -1.7263 -1.4688  1.6023
 3120SOL    HW220994   1.885   1.000   6.582  3.8348 -0.1419 -0.4495
 3121SOL     OW20995   2.588   0.507   6.639 -0.4852  0.1993 -0.4426
 3121SOL    HW120996   2.538   0.549   6.710  2.3472  2.3513  0.2588
 3121SOL    HW220997   2.520   0.507   6.572 -0.7862 -4.0185 -0.0918
 3122SOL     OW20998   1.715   0.715   2.175 -0.2279 -0.4218 -0.1163
 3122SOL    HW120999   1.621   0.708   2.155 -0.3346  2.2900 -0.5963
 3122SOL    HW221000   1.741   0.632   2.215 -3.0437 -0.9148  0.7321
 3123SOL     OW21001   1.170   3.950   1.845  0.6615  0.0750  0.0072
 3123SOL    HW121002   1.099   3.913   1.897  0.3085 -0.2500 -0.7091
 3123SOL    HW221003   1.143   3.915   1.760  1.8410  0.3577 -0.4923
 3124SOL     OW21004   0.684   3.109   5.858 -0.0538  0.4228  0.7959
 3124SOL    HW121005   0.683   3.199   5.891 -1.6664  0.5472  0.3952
 3124SOL    HW221006   0.683   3.124   5.763  2.8228 -1.3488  0.4890
 3125SOL     OW21007   3.003   2.647   3.438 -0.4414 -0.4276  0.0725
 3125SOL    HW121008   3.074   2.625   3.378 -0.1190  0.0779  0.2788
 3125SOL    HW221009   3.007   2.742   3.433 -0.6107 -0.4842 -1.2562
 3126SOL     OW21010   4.293   2.775  11.626 -0.3481  0.3826 -0.3899
 3126SOL    HW121011   4.317   2.866  11.642 -0.4397  0.4610 -0.6933
 3126SOL    HW221012   4.316   2.748  11.714  0.8709 -0.1550 -0.8664
 3127SOL     OW21013   3.638   1.488  12.875 -0.1159  0.3203  0.0494
 3127SOL    HW121014   3.639   1.527  12.788  1.6104  0.2599  0.0469
 3127SOL    HW221015   3.588   1.406  12.867 -0.5901  0.7348 -1.2511
 3128SOL     OW21016   2.728   2.269   3.837 -0.1793  0.0397  0.1828
 3128SOL    HW121017   2.774   2.253   3.755  2.4985 -0.5897  1.8224
 3128SOL    HW221018   2.800   2.298   3.892 -1.2567  2.1765  0.4709
 3129SOL     OW21019   0.131   2.745   8.319 -0.4539 -0.0265  0.0008
 3129SOL    HW121020   0.182   2.684   8.266 -0.3191 -1.9546  2.3325
 3129SOL    HW221021   0.165   2.832   8.302 -0.1187 -0.3956 -1.2137
 3130SOL     OW21022   0.537   3.867   9.383 -0.0767  0.1346  0.4195
 3130SOL    HW121023   0.590   3.806   9.333  1.2225  0.5147  1.3272
 3130SOL    HW221024   0.582   3.948   9.360 -2.4736  1.6944  1.1782
 3131SOL     OW21025   1.287   1.116   7.725 -0.3455  0.3387 -0.5806
 3131SOL    HW121026   1.314   1.087   7.812  0.3624  4.1089  0.4702
 3131SOL    HW221027   1.359   1.086   7.670 -0.6878 -0.6997 -0.4722
 3132SOL     OW21028   4.333   2.334   7.253  1.0889 -0.0274  0.0911
 3132SOL    HW121029   4.240   2.314   7.244  0.5930  2.6544 -0.9573
 3132SOL    HW221030   4.346   2.399   7.184  1.7113 -0.6909 -0.4081
 3133SOL     OW21031   0.209   0.500   8.128  0.0411  0.5612  0.7324
 3133SOL    HW121032   0.145   0.545   8.183 -0.9220 -1.6685  1.4692
 3133SOL    HW221033   0.154   0.461   8.060  1.5582 -1.2710  0.5597
 3134SOL     OW21034   3.215   0.313   6.001  0.0740 -0.7470 -0.2985
 3134SOL    HW121035   3.154   0.333   6.072 -0.4677 -0.3130 -0.8827
 3134SOL    HW221036   3.286   0.262   6.039 -0.5158 -2.3277 -1.3096
 3135SOL     OW21037   2.405   3.735  15.926 -0.1561  0.3716 -0.3944
 3135SOL    HW121038   2.425   3.694  15.842  0.7751  1.0666 -0.5049
 3135SOL    HW221039   2.355   3.664  15.966 -0.3644  1.0804  0.5986
 3136SOL     OW21040   2.682   2.673   8.663 -0.1526  0.2929  0.0693
 3136SOL    HW121041   2.724   2.598   8.621 -0.8208 -0.2903  0.4478
 3136SOL    HW221042   2.746   2.692   8.731 -1.5856  0.2246  1.4316
 3137SOL     OW21043   1.917   2.336   4.737  0.0709  0.0120  0.5153
 3137SOL    HW121044   1.940   2.283   4.814 -2.2346 -0.3723  0.9440
 3137SOL    HW221045   1.962   2.282   4.672 -1.7489  2.4614 -2.7724
 3138SOL     OW21046   4.037   1.630   6.725  0.6491  0.1791  0.8199
 3138SOL    HW121047   4.088   1.645   6.804 -0.5575  1.3063  1.3665
 3138SOL    HW221048   3.950   1.660   6.752  0.0620 -2.1720  1.5474
 3139SOL     OW21049   1.598   1.089   4.881 -0.0281 -0.1671  0.3594
 3139SOL    HW121050   1.620   1.104   4.973 -0.5940  1.6475  0.2034
 3139SOL    HW221051   1.532   1.158   4.872  0.6601  0.4969  0.4378
 3140SOL     OW21052   2.208   1.573   7.811  0.3741  0.1952 -0.0074
 3140SOL    HW121053   2.260   1.604   7.884  0.2918 -0.8178  0.4750
 3140SOL    HW221054   2.130   1.628   7.822  2.0228  2.1814  1.6169
 3141SOL     OW21055   1.386   0.871   5.497  0.0042 -0.1669  0.3036
 3141SOL    HW121056   1.381   0.788   5.544  3.3647 -0.4317  0.1493
 3141SOL    HW221057   1.291   0.884   5.487 -0.2477 -2.4836 -0.3721
 3142SOL     OW21058   2.058   0.248   3.556  0.1796  0.0472  0.1060
 3142SOL    HW121059   1.977   0.289   3.526 -0.4331 -0.0300  1.6963
 3142SOL    HW221060   2.100   0.240   3.470 -1.0125  0.9033 -0.5498
 3143SOL     OW21061   4.197   0.594   6.231 -0.6519  0.5902  0.3244
 3143SOL    HW121062   4.160   0.667   6.182  2.2179  1.2321 -0.8610
 3143SOL    HW221063   4.191   0.520   6.170 -2.6376  0.1622  1.0241
 3144SOL     OW21064   4.106   1.767   8.702 -0.4125  0.0549  0.2632
 3144SOL    HW121065   4.021   1.791   8.740  0.8403  1.4599  2.1294
 3144SOL    HW221066   4.130   1.841   8.645 -0.6461  1.2976  1.7784
 3145SOL     OW21067   2.485   2.539  13.117 -0.0374 -0.3562 -0.1626
 3145SOL    HW121068   2.483   2.554  13.212  2.9534 -2.0659  0.1614
 3145SOL    HW221069   2.397   2.509  13.095  0.2430 -1.0023 -0.3989
 3146SOL     OW21070   2.303   3.978   8.168  0.4086  0.0827  0.1311
 3146SOL    HW121071   2.260   3.912   8.222 -0.5164 -1.6553 -2.7201
 3146SOL    HW221072   2.286   4.056   8.221 -0.8445  1.7699 -2.7515
 3147SOL     OW21073   4.582   4.563  11.641  0.0597  0.2304  0.3331
 3147SOL    HW121074   4.628   4.607  11.713  0.5575 -1.0785  0.8080
 3147SOL    HW221075   4.539   4.495  11.693  0.2041 -0.4571 -0.4578
 3148SOL     OW21076   4.652   1.004   4.822 -0.3680  0.0119 -0.1058
 3148SOL    HW121077   4.723   0.948   4.852 -0.4536  0.6556  1.3223
 3148SOL    HW221078   4.692   1.044   4.745 -1.5917 -2.5903 -2.1026
 3149SOL     OW21079   0.556   2.960   5.623  0.0808 -0.3730 -0.4441
 3149SOL    HW121080   0.615   2.906   5.569 -0.7781 -0.3786 -1.3858
 3149SOL    HW221081   0.600   3.042   5.602  0.0858  0.4483  2.8524
 3150SOL     OW21082   1.174   1.446  15.747  0.3932  0.1670  0.4104
 3150SOL    HW121083   1.132   1.501  15.814 -0.4927  0.2370 -0.2069
 3150SOL    HW221084   1.217   1.512  15.692 -0.3136 -0.1512 -0.5091
 3151SOL     OW21085   2.271   3.826   0.582 -0.8906 -0.2704 -0.2808
 3151SOL    HW121086   2.194   3.882   0.569 -0.8652 -0.0705  0.4254
 3151SOL    HW221087   2.261   3.800   0.674 -0.1634  1.6991  0.3513
 3152SOL     OW21088   0.589   0.528  16.763 -0.3369  0.1257  0.2997
 3152SOL    HW121089   0.674   0.527  16.718 -0.5875  1.0548 -0.1935
 3152SOL    HW221090   0.550   0.591  16.703 -2.0698 -2.2563 -1.1186
 3153SOL     OW21091   0.624   1.862   7.875 -0.2016  0.1726 -0.0450
 3153SOL    HW121092   0.626   1.955   7.851 -1.4791  0.4734  1.0423
 3153SOL    HW221093   0.680   1.828   7.805  0.1819  2.1394 -0.6991
 3154SOL     OW21094   2.434   0.833  16.473  0.6269 -0.6128  0.3756
 3154SOL    HW121095   2.393   0.759  16.516 -2.2932 -0.2792 -1.8587
 3154SOL    HW221096   2.525   0.803  16.465  0.7228 -0.1196 -0.5080
 3155SOL     OW21097   2.712   2.739   3.656 -0.5522 -0.4061  0.1319
 3155SOL    HW121098   2.637   2.696   3.697 -0.2281  0.0579  1.2284
 3155SOL    HW221099   2.699   2.830   3.685  0.5471  0.0121 -0.6859
 3156SOL     OW21100   3.899   3.635   4.272 -0.2100 -0.5449  0.4100
 3156SOL    HW121101   3.970   3.571   4.260  2.2801  2.1054  1.1107
 3156SOL    HW221102   3.916   3.667   4.360 -2.0094 -0.5900  0.7618
 3157SOL     OW21103   3.284   1.896  13.015  0.0483  0.4372  0.1054
 3157SOL    HW121104   3.369   1.902  13.060 -0.3402  0.1034  0.8759
 3157SOL    HW221105   3.274   1.802  13.003  1.1800  0.6815 -2.7999
 3158SOL     OW21106   4.506   0.464   4.298  0.5208 -0.5201  0.4098
 3158SOL    HW121107   4.417   0.501   4.293  0.6861 -0.2617 -0.5728
 3158SOL    HW221108   4.475   0.416   4.375 -3.1510  1.5551  0.2693
 3159SOL     OW21109   4.449   1.129  17.577 -0.2154  0.2019  0.2728
 3159SOL    HW121110   4.439   1.224  17.588 -0.5055  0.1313  0.5807
 3159SOL    HW221111   4.538   1.119  17.610  0.3413  0.2354 -1.2009
 3160SOL     OW21112   0.509   0.119  11.796 -0.1683  0.3218  0.2295
 3160SOL    HW121113   0.485   0.194  11.852  1.4138 -0.2545  1.6812
 3160SOL    HW221114   0.568   0.165  11.736 -0.3495  1.5622  0.9936
 3161SOL     OW21115   2.665   0.263  11.331  0.2722 -0.1772 -0.0234
 3161SOL    HW121116   2.623   0.332  11.383  2.1985  1.1567 -0.2437
 3161SOL    HW221117   2.599   0.193  11.340  2.2666 -2.0939 -0.2623
 3162SOL     OW21118   1.770   1.334   9.085  0.2258 -0.1037 -0.4464
 3162SOL    HW121119   1.737   1.402   9.027 -2.0240 -1.8787 -1.2253
 3162SOL    HW221120   1.811   1.286   9.013 -0.4693 -1.8304  0.3021
 3163SOL     OW21121   0.853   1.621   4.439  0.1093 -0.2340 -0.0575
 3163SOL    HW121122   0.929   1.616   4.496 -0.8803 -1.8769  1.1396
 3163SOL    HW221123   0.803   1.553   4.484 -0.2713  1.0430  1.4276
 3164SOL     OW21124   0.606   0.357   2.368 -0.8498 -0.0422 -0.1053
 3164SOL    HW121125   0.608   0.452   2.370 -1.7064 -0.0523  1.2442
 3164SOL    HW221126   0.517   0.336   2.341 -1.0673  0.2568  0.3825
 3165SOL     OW21127   4.624   0.966   9.855 -0.1029  0.7076  0.2166
 3165SOL    HW121128   4.636   0.999   9.765  2.5384 -0.8650  0.0073
 3165SOL    HW221129   4.544   1.011   9.882 -1.1815 -0.2335 -1.3681
 3166SOL     OW21130   3.523   3.436   1.216  0.1468  0.1566  0.1043
 3166SOL    HW121131   3.553   3.414   1.304  0.9594  1.5914  0.1861
 3166SOL    HW221132   3.477   3.518   1.233  1.3011  0.5990  1.1262
 3167SOL     OW21133   1.024   1.214   1.186  0.3431  0.0089 -0.0599
 3167SOL    HW121134   0.977   1.246   1.109 -0.0057 -0.0654  0.1214
 3167SOL    HW221135   0.958   1.155   1.223  0.1270  1.3714  1.6763
 3168SOL     OW21136   3.864   3.428   5.833  0.1889  0.3838  1.1842
 3168SOL    HW121137   3.919   3.352   5.814  0.9455  1.1072  0.4237
 3168SOL    HW221138   3.852   3.468   5.747 -0.3777  1.0238  1.5556
 3169SOL     OW21139   0.101   1.486   0.892  0.4957 -0.3527 -0.3517
 3169SOL    HW121140   0.124   1.450   0.807 -0.0884  0.9106 -1.0298
 3169SOL    HW221141   0.011   1.513   0.876  0.5081 -0.0537  0.0883
 3170SOL     OW21142   0.468   2.262   5.377 -0.3678 -0.7012 -0.2008
 3170SOL    HW121143   0.529   2.319   5.330  1.1252 -2.4453 -0.3867
 3170SOL    HW221144   0.402   2.255   5.308  0.0778 -2.2102 -0.4917
 3171SOL     OW21145   0.964   4.298   2.163  0.4812  0.4130 -0.0080
 3171SOL    HW121146   0.891   4.264   2.216 -0.0538  1.5163 -0.0425
 3171SOL    HW221147   0.947   4.392   2.162  0.4875  0.4270  1.1433
 3172SOL     OW21148   1.490   0.560   4.100 -0.0294 -0.2214  0.0386
 3172SOL    HW121149   1.555   0.494   4.123 -0.4093 -0.0179  1.6811
 3172SOL    HW221150   1.515   0.620   4.170 -0.2521 -0.6480  0.4857
 3173SOL     OW21151   0.792   1.132   0.738 -0.1253  0.2778 -0.7485
 3173SOL    HW121152   0.724   1.189   0.773 -1.3261 -1.9378  0.5795
 3173SOL    HW221153   0.744   1.087   0.668 -1.5335  1.3642 -0.4890
 3174SOL     OW21154   1.899   0.569   9.311 -0.0583  0.0196  0.2143
 3174SOL    HW121155   1.918   0.648   9.362  1.1231  0.3014 -0.6818
 3174SOL    HW221156   1.925   0.607   9.227  0.4187 -0.1585  0.2796
 3175SOL     OW21157   2.747   0.848   6.645 -0.0769  0.0832 -0.0188
 3175SOL    HW121158   2.820   0.902   6.615 -0.0542 -0.8812 -1.7095
 3175SOL    HW221159   2.718   0.874   6.732 -0.8522 -0.5056 -0.0997
 3176SOL     OW21160   2.433   2.765   9.149  0.0247  0.1056 -0.2241
 3176SOL    HW121161   2.348   2.782   9.108 -0.1774 -2.4732 -0.8663
 3176SOL    HW221162   2.402   2.752   9.239 -2.0832  2.4846 -0.6010
 3177SOL     OW21163   0.240   3.025   8.526  0.2346 -0.2636  0.1508
 3177SOL    HW121164   0.255   3.110   8.485  0.2433 -0.0937  0.5057
 3177SOL    HW221165   0.308   2.963   8.497  0.9177  0.4683  0.1730
 3178SOL     OW21166   1.606   4.375   8.226  0.2370 -0.2860  0.3620
 3178SOL    HW121167   1.660   4.454   8.224 -1.2117  0.6887  0.0222
 3178SOL    HW221168   1.528   4.420   8.257 -0.2782 -1.7194  1.1191
 3179SOL     OW21169   4.201   4.101   6.302  0.6213 -0.0975  0.2210
 3179SOL    HW121170   4.149   4.170   6.342 -2.3708 -0.2995 -3.3531
 3179SOL    HW221171   4.156   4.021   6.329  0.7654 -0.7778 -1.5468
 3180SOL     OW21172   4.125   4.132   5.022 -0.0958 -0.5845  0.8349
 3180SOL    HW121173   4.134   4.101   5.111  1.2707  1.7966  1.5306
 3180SOL    HW221174   4.124   4.050   4.974  0.8345  1.3873 -2.5925
 3181SOL     OW21175   2.005   2.929  15.668 -0.1631 -0.1014  0.2593
 3181SOL    HW121176   2.039   2.991  15.604 -1.1385 -1.9614 -2.0321
 3181SOL    HW221177   2.047   2.844  15.650 -0.3258 -0.1393  0.0637
 3182SOL     OW21178   1.904   3.242  10.128  0.1208  0.1015 -0.6922
 3182SOL    HW121179   1.971   3.177  10.107  1.2141  1.2138 -0.6207
 3182SOL    HW221180   1.864   3.207  10.208 -2.8073 -0.3459 -2.3250
 3183SOL     OW21181   2.504   0.159   5.289 -0.2876  0.1043 -0.1582
 3183SOL    HW121182   2.459   0.144   5.372  0.5084  2.1891  0.6370
 3183SOL    HW221183   2.548   0.241   5.309 -2.3684  1.2250 -0.1565
 3184SOL     OW21184   3.687   3.870   6.876 -0.1808 -0.2592 -0.4439
 3184SOL    HW121185   3.741   3.934   6.923 -1.1986  0.0405  0.3071
 3184SOL    HW221186   3.612   3.870   6.934 -1.0809  1.6865 -1.6159
 3185SOL     OW21187   1.314   2.860   5.061 -0.2340 -0.2154  0.0732
 3185SOL    HW121188   1.409   2.875   5.065 -0.4634  1.4641 -0.6055
 3185SOL    HW221189   1.306   2.825   5.149 -1.2269  1.1728  0.5394
 3186SOL     OW21190   3.297   2.380   5.092 -0.3508 -0.0906  0.2177
 3186SOL    HW121191   3.347   2.432   5.156 -0.1332 -0.0967  0.0530
 3186SOL    HW221192   3.341   2.296   5.084 -0.1737 -0.0969  1.3007
 3187SOL     OW21193   0.693   0.572   2.964 -0.1836 -0.1670 -0.0987
 3187SOL    HW121194   0.788   0.584   2.964 -0.2761  0.5577  1.7937
 3187SOL    HW221195   0.673   0.491   2.917  2.2855  0.3392 -1.9649
 3188SOL     OW21196   2.814   3.336   3.854  0.4214  0.0897  0.0795
 3188SOL    HW121197   2.899   3.309   3.819  0.1029 -0.6457 -0.1234
 3188SOL    HW221198   2.825   3.429   3.875  0.6037  0.3687 -1.2400
 3189SOL     OW21199   2.147   1.240  13.027  0.0882 -0.4800  0.4141
 3189SOL    HW121200   2.203   1.164  13.011 -0.6820 -1.0695  0.4944
 3189SOL    HW221201   2.065   1.191  13.020 -0.4667  0.4260  0.6083
 3190SOL     OW21202   2.279   2.174   9.302  0.6942  0.6590 -0.8910
 3190SOL    HW121203   2.281   2.267   9.326  0.4774  0.0448  1.4824
 3190SOL    HW221204   2.240   2.140   9.383  3.6942 -2.6172 -0.7997
 3191SOL     OW21205   0.851   4.303   8.211 -0.0466 -0.2878  0.4502
 3191SOL    HW121206   0.788   4.322   8.142 -1.0540 -0.5388  1.3100
 3191SOL    HW221207   0.925   4.360   8.192  0.8938 -1.5754  0.2636
 3192SOL     OW21208   2.695   1.563   7.492 -0.3485 -0.0500 -0.4990
 3192SOL    HW121209   2.695   1.585   7.586 -1.0449 -0.6382 -0.3546
 3192SOL    HW221210   2.779   1.520   7.480 -0.2099  0.5130 -1.5020
 3193SOL     OW21211   4.055   3.223   5.773  0.6601  0.1434  0.3898
 3193SOL    HW121212   4.123   3.207   5.708  0.2633 -0.3008  0.0885
 3193SOL    HW221213   4.102   3.292   5.821 -1.6042  1.4377  0.7813
 3194SOL     OW21214   1.609   0.575   1.799  0.3116  0.5389  0.1971
 3194SOL    HW121215   1.555   0.640   1.845 -0.3340  0.7808 -0.8936
 3194SOL    HW221216   1.584   0.620   1.718 -0.5072 -1.4984 -0.6902
 3195SOL     OW21217   0.115   2.604  14.311 -0.2344 -0.5750 -0.5112
 3195SOL    HW121218   0.081   2.689  14.335 -1.0841 -0.7136 -1.2192
 3195SOL    HW221219   0.137   2.621  14.219 -0.2026  2.0514 -0.0033
 3196SOL     OW21220   2.945   0.720   1.522 -0.1337  0.1980  0.5965
 3196SOL    HW121221   3.029   0.691   1.558 -0.0863  1.9634  1.8680
 3196SOL    HW221222   2.962   0.813   1.507 -0.6005  0.0490 -0.8822
 3197SOL     OW21223   1.881   0.501   3.264  0.2250 -0.2267 -0.3728
 3197SOL    HW121224   1.966   0.520   3.303 -0.6578  1.0457  0.9186
 3197SOL    HW221225   1.840   0.470   3.344 -1.7999  0.3194 -1.1796
 3198SOL     OW21226   0.668   3.398   8.778 -0.3334 -0.1155 -0.5991
 3198SOL    HW121227   0.574   3.391   8.790 -0.6987 -1.0769 -3.9684
 3198SOL    HW221228   0.692   3.451   8.854  1.6273  0.1225 -1.3719
 3199SOL     OW21229   1.408   0.061   2.550  0.4572 -0.1154 -0.1368
 3199SOL    HW121230   1.335   0.049   2.489 -1.7517  0.2361  2.4557
 3199SOL    HW221231   1.429   4.709   2.576 -0.1421 -0.1298  0.2771
 3200SOL     OW21232   3.123   0.225  13.491 -0.5471  0.0035  0.6572
 3200SOL    HW121233   3.123   0.271  13.575 -1.7367 -0.6194  1.0040
 3200SOL    HW221234   3.193   0.160  13.497 -0.1329  0.1805 -2.1726
 3201SOL     OW21235   0.699   3.609   1.887  0.2516 -0.6989 -0.1043
 3201SOL    HW121236   0.773   3.626   1.829  0.7780 -0.3897  0.6611
 3201SOL    HW221237   0.666   3.523   1.863  0.1638 -1.0848  1.4049
 3202SOL     OW21238   1.404   0.101   8.805 -0.4912 -0.3796  0.1213
 3202SOL    HW121239   1.321   0.056   8.788 -1.8945  1.5996  1.6891
 3202SOL    HW221240   1.390   0.189   8.771  0.6374 -0.0328  0.5495
 3203SOL     OW21241   0.985   0.888   3.326  0.2958 -0.9952 -0.4986
 3203SOL    HW121242   1.052   0.830   3.290  1.0507 -0.6866  0.4148
 3203SOL    HW221243   0.999   0.972   3.282 -0.3798 -3.0026 -4.5826
 3204SOL     OW21244   2.775   0.906   0.911 -0.7590 -0.3616  0.4008
 3204SOL    HW121245   2.752   0.825   0.956  0.4362 -1.3844 -0.8152
 3204SOL    HW221246   2.764   0.874   0.821 -0.3714  2.9772 -0.8348
 3205SOL     OW21247   3.673   1.798   5.513 -0.4884  0.0567 -0.1084
 3205SOL    HW121248   3.743   1.732   5.511 -0.3168  0.2462 -0.4071
 3205SOL    HW221249   3.727   1.876   5.527  2.2425 -1.5100 -1.9196
 3206SOL     OW21250   3.765   3.197   9.119 -0.5941  0.9116 -0.0931
 3206SOL    HW121251   3.795   3.170   9.205 -0.9224  0.7385 -0.0327
 3206SOL    HW221252   3.675   3.227   9.131 -1.8769 -2.8088 -0.5908
 3207SOL     OW21253   4.308   1.932   7.127 -0.3877 -0.0011 -0.1867
 3207SOL    HW121254   4.243   1.986   7.173  0.3399 -2.1436  3.4395
 3207SOL    HW221255   4.342   1.883   7.202  0.1432 -1.0173 -1.0900
 3208SOL     OW21256   0.531   0.843  14.863 -0.3590 -0.3645 -0.4055
 3208SOL    HW121257   0.515   0.792  14.784  0.4639 -0.3801 -0.5622
 3208SOL    HW221258   0.461   0.907  14.851  0.4967  0.8115  0.8710
 3209SOL     OW21259   4.654   4.018  16.567 -1.0778 -0.6045  0.4083
 3209SOL    HW121260   4.565   3.993  16.540 -1.4273  0.2765  0.7178
 3209SOL    HW221261   4.700   3.956  16.511 -1.6040  0.3269 -1.0568
 3210SOL     OW21262   0.411   0.006   4.604  0.0217 -0.0336  0.1340
 3210SOL    HW121263   0.401   4.660   4.558 -2.2368  2.4628 -3.9049
 3210SOL    HW221264   0.483   0.043   4.554  0.3644  0.2462  0.8488
 3211SOL     OW21265   0.917   3.735  10.043  0.0499 -0.0486  0.1897
 3211SOL    HW121266   0.838   3.747   9.990  1.5951 -1.2416 -2.3697
 3211SOL    HW221267   0.944   3.826  10.055  2.4827 -0.5844 -1.1655
 3212SOL     OW21268   2.480   0.577   8.487 -0.0322 -0.4639  1.1722
 3212SOL    HW121269   2.400   0.629   8.496  0.3820  0.6795 -1.9325
 3212SOL    HW221270   2.554   0.628   8.522  1.5217 -0.8338 -1.5991
 3213SOL     OW21271   2.990   0.419   2.351 -0.0185  0.3094  0.5908
 3213SOL    HW121272   3.049   0.393   2.280 -2.1031  2.0437 -1.7729
 3213SOL    HW221273   2.991   0.512   2.328  0.0890  0.3410  0.7307
 3214SOL     OW21274   0.790   3.719   3.137  0.2661 -0.0767  0.4211
 3214SOL    HW121275   0.876   3.687   3.110 -0.5784 -0.5693 -1.7105
 3214SOL    HW221276   0.760   3.774   3.064 -1.2904  0.3271  1.3644
 3215SOL     OW21277   2.050   2.629  13.826  0.8257  0.8198 -0.4077
 3215SOL    HW121278   2.090   2.578  13.756  0.8348  0.3686 -0.0796
 3215SOL    HW221279   2.099   2.709  13.809  0.3637  1.0735 -0.5343
 3216SOL     OW21280   1.337   1.215   9.244  0.0899  0.5575 -0.0389
 3216SOL    HW121281   1.374   1.197   9.331 -0.3550 -1.7190 -0.3217
 3216SOL    HW221282   1.245   1.232   9.267  0.4324  0.8357  1.1389
 3217SOL     OW21283   1.795   3.507   6.531  0.3506  0.3439 -0.0010
 3217SOL    HW121284   1.782   3.601   6.524  1.5629  0.5206  0.1601
 3217SOL    HW221285   1.847   3.499   6.611 -0.8381 -0.8117  0.6701
 3218SOL     OW21286   3.120   0.636   6.603  0.1607  0.0444 -0.2260
 3218SOL    HW121287   3.119   0.694   6.526  1.5827  0.3059 -0.0535
 3218SOL    HW221288   3.120   0.549   6.563 -0.0613 -0.1548  0.2104
 3219SOL     OW21289   3.551   0.060  17.511 -0.2408  0.2415 -0.0919
 3219SOL    HW121290   3.539   4.709  17.545 -0.3544 -0.3016 -1.5802
 3219SOL    HW221291   3.524   0.114  17.585 -3.5273 -2.3008  0.5949
 3220SOL     OW21292   4.436   3.157   8.045  0.1193 -0.4260  0.4313
 3220SOL    HW121293   4.486   3.230   8.007 -2.4564  1.3642  0.4972
 3220SOL    HW221294   4.403   3.115   7.966 -0.2418 -0.9328  0.8489
 3221SOL     OW21295   0.588   2.247  13.086  0.1438 -0.4630  0.3723
 3221SOL    HW121296   0.494   2.245  13.070  0.4870  0.4743 -1.7947
 3221SOL    HW221297   0.625   2.249  12.997 -1.9208 -1.9545 -0.5269
 3222SOL     OW21298   4.180   2.966   9.011  0.3756 -0.7161  0.0075
 3222SOL    HW121299   4.158   3.023   8.937 -2.9645 -0.6540  1.0277
 3222SOL    HW221300   4.220   2.885   8.979  1.4868  1.1188 -3.2254
 3223SOL     OW21301   0.589   4.305   5.469  0.1946  0.5614  0.0690
 3223SOL    HW121302   0.600   4.249   5.545  1.0059 -0.1895 -0.5973
 3223SOL    HW221303   0.612   4.237   5.406 -2.6395  0.3563 -0.7305
 3224SOL     OW21304   0.600   1.183   7.968 -0.0726  0.7823  0.3333
 3224SOL    HW121305   0.539   1.160   8.038 -0.7263  0.5311 -0.3130
 3224SOL    HW221306   0.555   1.154   7.888  1.5779  0.1391 -0.3626
 3225SOL     OW21307   1.804   3.188   5.178  0.7162  0.0757 -0.2242
 3225SOL    HW121308   1.816   3.151   5.091  1.2050 -2.0375  0.7299
 3225SOL    HW221309   1.727   3.238   5.154  0.2633 -0.6039 -0.1978
 3226SOL     OW21310   2.393   3.583   6.158  0.5401  0.1847  0.0130
 3226SOL    HW121311   2.475   3.591   6.207 -0.5974  1.6804  1.6369
 3226SOL    HW221312   2.336   3.616   6.227  0.2361  0.6990 -0.4845
 3227SOL     OW21313   1.501   3.476   7.894  0.4962  0.2444 -0.2979
 3227SOL    HW121314   1.447   3.401   7.920 -0.4242  1.1473  0.3474
 3227SOL    HW221315   1.464   3.557   7.929  2.0235  0.7641  0.1281
 3228SOL     OW21316   0.306   1.132   6.442  0.4673  0.0597  0.5950
 3228SOL    HW121317   0.394   1.113   6.474 -0.1613 -2.5421  0.7143
 3228SOL    HW221318   0.280   1.044   6.416 -2.6627  1.2783 -0.3132
 3229SOL     OW21319   0.322   4.269   7.474 -0.1387 -0.0864  0.1378
 3229SOL    HW121320   0.292   4.344   7.423  2.3937 -1.3491 -3.2575
 3229SOL    HW221321   0.251   4.248   7.534 -0.5005 -2.3344 -1.0947
 3230SOL     OW21322   3.827   2.371  11.788  0.5095  0.5822  0.0870
 3230SOL    HW121323   3.871   2.295  11.827  0.4767  0.1100 -0.7898
 3230SOL    HW221324   3.896   2.409  11.733 -0.1857  0.8021 -0.6325
 3231SOL     OW21325   2.852   1.325  11.842 -0.7505 -0.4146 -0.5313
 3231SOL    HW121326   2.907   1.395  11.806 -2.1245  0.7210 -0.4467
 3231SOL    HW221327   2.786   1.321  11.772 -1.7176  4.0478  0.1269
 3232SOL     OW21328   0.980   0.005   4.141 -1.0820  0.1920  0.0005
 3232SOL    HW121329   1.016   0.024   4.054 -0.4406 -0.7538  0.0660
 3232SOL    HW221330   1.054   0.010   4.201 -1.3130 -0.5274  0.3430
 3233SOL     OW21331   1.285   0.950   3.458 -0.5980  0.5274 -0.3886
 3233SOL    HW121332   1.268   0.900   3.537  2.1017  0.5939  0.2315
 3233SOL    HW221333   1.252   1.034   3.490 -0.1619  0.7472 -0.5251
 3234SOL     OW21334   3.785   0.420   6.174 -0.7058  0.4593 -0.4626
 3234SOL    HW121335   3.805   0.509   6.147  0.9299  0.1142 -0.3537
 3234SOL    HW221336   3.733   0.426   6.254  0.5978 -4.2565  0.7209
 3235SOL     OW21337   2.620   1.077  10.473  0.2454  0.1250 -0.2764
 3235SOL    HW121338   2.690   1.015  10.452 -0.7377 -0.8940 -0.5738
 3235SOL    HW221339   2.593   1.044  10.559 -1.9520 -2.1185 -1.8100
 3236SOL     OW21340   0.654   2.008   4.599 -0.3260 -0.2848  0.5677
 3236SOL    HW121341   0.715   1.980   4.531 -2.0046 -0.9869 -0.6588
 3236SOL    HW221342   0.610   1.930   4.633  0.0248 -1.0437 -0.6834
 3237SOL     OW21343   0.070   2.103   6.564  0.1318 -0.1329  0.2379
 3237SOL    HW121344   4.734   2.048   6.592  2.8656 -3.9869 -0.1326
 3237SOL    HW221345   0.074   2.171   6.630 -2.0036  0.2402 -0.0330
 3238SOL     OW21346   2.518   4.293   9.813 -0.3008 -0.2184  0.0937
 3238SOL    HW121347   2.489   4.245   9.890 -0.6887 -0.8246 -0.4199
 3238SOL    HW221348   2.613   4.293   9.826 -0.3394 -0.5821  0.3670
 3239SOL     OW21349   1.511   2.347   2.676 -0.4625 -0.4329 -0.1080
 3239SOL    HW121350   1.554   2.274   2.721 -0.7854 -0.8245 -0.4383
 3239SOL    HW221351   1.586   2.401   2.652  1.3849 -2.5033  1.0043
 3240SOL     OW21352   0.800   3.604   1.633  0.4946 -0.5795  0.0864
 3240SOL    HW121353   0.785   3.672   1.568 -2.0392 -0.9536  0.2978
 3240SOL    HW221354   0.896   3.610   1.635  0.2429  3.5700  0.5014
 3241SOL     OW21355   0.685   1.282   2.673  0.6189  0.1418  1.0758
 3241SOL    HW121356   0.641   1.262   2.756 -1.9978 -1.9723 -0.8367
 3241SOL    HW221357   0.758   1.222   2.659 -2.2202 -2.8078 -1.1664
 3242SOL     OW21358   1.354   2.707   3.043  0.4248  0.4071 -0.5285
 3242SOL    HW121359   1.354   2.795   3.006  0.3892  0.0095 -1.4854
 3242SOL    HW221360   1.290   2.677   2.979  1.9707 -0.4641 -1.6723
 3243SOL     OW21361   1.716   1.757   3.309 -0.5687  0.2189  0.5209
 3243SOL    HW121362   1.626   1.726   3.296 -0.4561 -0.9669  2.5137
 3243SOL    HW221363   1.741   1.719   3.394  0.6848 -1.0937 -0.4304
 3244SOL     OW21364   4.557   1.263   6.682 -0.0653  0.7406 -0.1156
 3244SOL    HW121365   4.485   1.202   6.671  0.3537  0.1499  0.4728
 3244SOL    HW221366   4.510   1.332   6.730 -2.1015 -0.0845 -0.9352
 3245SOL     OW21367   4.272   1.782  14.205  0.1323 -0.3861 -0.1564
 3245SOL    HW121368   4.229   1.827  14.278  0.1459  1.1426 -1.0921
 3245SOL    HW221369   4.213   1.708  14.192  0.2506 -0.3011 -1.1939
 3246SOL     OW21370   4.204   1.058   3.621 -0.4286  0.3204  0.0488
 3246SOL    HW121371   4.176   1.129   3.680  0.8630  0.1762  0.8312
 3246SOL    HW221372   4.142   0.989   3.643 -1.2896  0.3845 -2.1795
 3247SOL     OW21373   3.705   0.433  11.352 -0.0378 -0.3125 -0.0368
 3247SOL    HW121374   3.617   0.406  11.324  0.7128 -0.7999 -1.8890
 3247SOL    HW221375   3.706   0.523  11.320  0.1713 -0.9922 -1.9189
 3248SOL     OW21376   0.876   3.992   9.882 -0.5088 -0.2147 -0.2601
 3248SOL    HW121377   0.814   4.064   9.895  0.0248  0.0743  0.6163
 3248SOL    HW221378   0.910   3.986   9.971  0.6420  4.6564 -0.3456
 3249SOL     OW21379   1.987   3.821  15.024  0.2243 -0.0322 -0.1353
 3249SOL    HW121380   1.944   3.897  15.063  0.5517  0.6861 -1.1675
 3249SOL    HW221381   1.912   3.766  15.001 -1.6579  1.9400  1.2966
 3250SOL     OW21382   3.079   0.697  12.961 -0.4540  0.4612  0.2787
 3250SOL    HW121383   2.998   0.646  12.951 -0.1353 -0.1933  1.0492
 3250SOL    HW221384   3.139   0.638  12.914 -1.5075 -0.6358  0.2885
 3251SOL     OW21385   4.672   2.445   3.239  0.1287 -0.2362  0.1920
 3251SOL    HW121386   4.649   2.428   3.148 -1.5155  0.2027  0.5241
 3251SOL    HW221387   4.718   2.362   3.252 -0.9821 -0.5424  2.3100
 3252SOL     OW21388   3.415   3.731   6.052 -0.0420  0.0634  0.2908
 3252SOL    HW121389   3.497   3.715   6.005  0.4820  2.1619  0.4894
 3252SOL    HW221390   3.359   3.772   5.986 -1.0309 -2.5911 -0.5294
 3253SOL     OW21391   4.320   0.954   4.072  0.4525  0.4288 -0.1443
 3253SOL    HW121392   4.400   0.991   4.110 -0.6137  1.2964  1.2510
 3253SOL    HW221393   4.347   0.864   4.057  0.0209  0.3298 -0.3449
 3254SOL     OW21394   0.142   3.480  15.412 -0.8307  0.4828 -0.0825
 3254SOL    HW121395   0.212   3.417  15.398 -0.9332  0.2418  0.4579
 3254SOL    HW221396   0.199   3.554  15.430 -0.8056  0.7034 -1.0738
 3255SOL     OW21397   4.725   3.900   1.814 -0.3805 -0.4463 -0.4916
 3255SOL    HW121398   0.014   3.908   1.722  0.1512  0.2478 -0.2881
 3255SOL    HW221399   4.637   3.936   1.810 -0.6080 -1.0411 -0.7735
 3256SOL     OW21400   3.428   0.124   1.646 -0.0506  0.4199  0.2939
 3256SOL    HW121401   3.493   0.073   1.694  1.4547  0.9944 -1.1157
 3256SOL    HW221402   3.346   0.085   1.676  2.1276 -3.7117  0.9081
 3257SOL     OW21403   0.447   2.450  12.250  0.0125 -0.5931  0.1744
 3257SOL    HW121404   0.383   2.432  12.319  0.1082 -2.0169 -0.1123
 3257SOL    HW221405   0.444   2.372  12.194 -0.1374 -0.8834  0.5867
 3258SOL     OW21406   0.685   1.406   6.441 -0.0679  0.5684 -0.2428
 3258SOL    HW121407   0.633   1.389   6.519 -2.4014 -0.8604 -2.1358
 3258SOL    HW221408   0.726   1.488   6.468  0.3343  0.1827  0.3190
 3259SOL     OW21409   3.033   2.602   4.545  0.1983  0.6132  0.0445
 3259SOL    HW121410   2.974   2.559   4.606  2.5090 -2.6168  0.0209
 3259SOL    HW221411   3.115   2.562   4.575 -1.3100 -0.9203  2.0885
 3260SOL     OW21412   3.107   3.480   3.183  0.1401 -0.3844 -0.2759
 3260SOL    HW121413   3.077   3.398   3.143 -2.2591 -0.2593  1.2670
 3260SOL    HW221414   3.171   3.447   3.245 -1.4042 -2.0436  0.4463
 3261SOL     OW21415   3.953   4.229   9.259  0.5514  0.2016 -0.0324
 3261SOL    HW121416   3.979   4.237   9.167  1.4122  1.7020  0.3554
 3261SOL    HW221417   4.032   4.181   9.287  0.3573 -0.1207 -0.0315
 3262SOL     OW21418   1.565   2.977  15.245 -0.0895  0.8337  0.2803
 3262SOL    HW121419   1.566   2.976  15.341  0.3684 -1.3501  0.2478
 3262SOL    HW221420   1.657   2.956  15.225 -0.2232  0.9707 -0.4867
 3263SOL     OW21421   2.021   4.557   3.309 -0.2784  0.0063 -0.0869
 3263SOL    HW121422   2.007   4.591   3.398 -1.8226 -0.0345 -0.3262
 3263SOL    HW221423   2.099   4.504   3.323 -0.4328 -0.2233 -0.1061
 3264SOL     OW21424   3.568   3.358  15.380 -0.0487 -0.7721 -0.2838
 3264SOL    HW121425   3.605   3.300  15.446  0.9465 -1.8353 -1.7532
 3264SOL    HW221426   3.505   3.415  15.424 -0.5646 -1.5265 -0.0541
 3265SOL     OW21427   4.192   3.255   8.207 -0.3214 -0.7070 -0.1698
 3265SOL    HW121428   4.132   3.218   8.271 -0.3507 -1.1900 -0.4751
 3265SOL    HW221429   4.260   3.188   8.204  1.0277  0.6276  0.5241
 3266SOL     OW21430   1.903   2.594  10.947 -0.3206 -0.5180  0.7132
 3266SOL    HW121431   1.984   2.572  10.993 -0.2885  1.9326  1.8108
 3266SOL    HW221432   1.931   2.672  10.900 -0.0720 -2.4757 -2.3515
 3267SOL     OW21433   0.697   3.543   8.538  0.3425 -0.2404  0.1115
 3267SOL    HW121434   0.683   3.537   8.632  0.5998 -2.0683  0.0320
 3267SOL    HW221435   0.782   3.578   8.509  1.1174 -1.2397  1.1777
 3268SOL     OW21436   2.551   0.842   3.329  0.9216 -0.2002  0.5610
 3268SOL    HW121437   2.490   0.835   3.255  0.4509  2.9250  0.6623
 3268SOL    HW221438   2.525   0.763   3.376  1.2882 -1.6520 -1.6697
 3269SOL     OW21439   3.613   1.025   2.935  0.6435  0.3418  0.1807
 3269SOL    HW121440   3.546   1.051   2.872 -1.6757 -0.0357  2.4886
 3269SOL    HW221441   3.595   1.076   3.014  0.8271  2.8532 -1.3920
 3270SOL     OW21442   3.426   1.365  13.320  0.1706 -0.6328 -0.4263
 3270SOL    HW121443   3.493   1.427  13.349  1.2554 -2.1154  0.2286
 3270SOL    HW221444   3.480   1.312  13.262 -0.9561  0.4857 -2.5070
 3271SOL     OW21445   1.962   2.766   9.676  0.2029 -0.1192  0.6283
 3271SOL    HW121446   1.961   2.727   9.764 -1.0979  0.1955  0.7479
 3271SOL    HW221447   2.051   2.735   9.661 -0.7243 -1.8050 -1.3602
 3272SOL     OW21448   3.781   0.682  17.390 -0.0954 -0.5345 -0.2846
 3272SOL    HW121449   3.797   0.769  17.426 -2.1317  0.8421 -2.7103
 3272SOL    HW221450   3.831   0.691  17.309  2.5499 -1.5469  1.2331
 3273SOL     OW21451   1.998   4.013   8.235  0.4509  0.3240  0.3730
 3273SOL    HW121452   2.065   4.079   8.220 -0.1096  1.4921  2.9877
 3273SOL    HW221453   1.923   4.071   8.248  1.2851  1.6311 -0.6105
 3274SOL     OW21454   0.759   1.557   5.494 -0.1352 -0.3445 -0.4819
 3274SOL    HW121455   0.846   1.583   5.524 -0.9007  2.9118 -1.0577
 3274SOL    HW221456   0.769   1.463   5.480  1.7546 -0.4010  1.2141
 3275SOL     OW21457   2.912   1.860   7.775 -0.0248 -0.0711  0.1356
 3275SOL    HW121458   2.915   1.955   7.786 -0.2898 -0.2207  1.5234
 3275SOL    HW221459   3.000   1.833   7.799  0.1116 -0.7091 -1.0888
 3276SOL     OW21460   1.706   3.308   9.211 -0.0460 -0.4378  0.2730
 3276SOL    HW121461   1.669   3.229   9.250  1.4888 -0.4892  1.5744
 3276SOL    HW221462   1.701   3.287   9.118  0.1539 -0.0663  0.1749
 3277SOL     OW21463   2.022   1.139  13.321  0.2090 -0.4696 -0.4991
 3277SOL    HW121464   1.966   1.159  13.396  0.1805  0.5982 -0.7971
 3277SOL    HW221465   1.963   1.157  13.248  0.0469 -1.0844 -0.5225
 3278SOL     OW21466   3.881   2.854   2.441 -0.0322  0.1504  0.0700
 3278SOL    HW121467   3.807   2.853   2.502  0.7901 -1.6391  1.0337
 3278SOL    HW221468   3.847   2.839   2.352 -1.4274  0.0788  0.6124
 3279SOL     OW21469   0.040   2.091  16.691  0.1740  0.0168  0.5682
 3279SOL    HW121470   0.034   2.006  16.648 -0.0455  0.8793 -1.1347
 3279SOL    HW221471   4.717   2.073  16.763  0.1663  1.8444  1.0212
 3280SOL     OW21472   1.139   1.223   4.579  0.6915 -0.1519 -0.2576
 3280SOL    HW121473   1.180   1.292   4.526  1.8976  0.6743  1.7282
 3280SOL    HW221474   1.203   1.153   4.588  0.2792 -0.4620  0.2265
 3281SOL     OW21475   0.721   0.857   3.211  0.5095 -0.1957 -1.0139
 3281SOL    HW121476   0.757   0.894   3.292  1.4564  0.5862 -1.7875
 3281SOL    HW221477   0.767   0.775   3.194  1.0198 -0.0883 -0.1644
 3282SOL     OW21478   2.808   1.030   7.218 -0.5587 -0.1763  0.3332
 3282SOL    HW121479   2.821   1.083   7.140  0.7189 -0.0593  0.6196
 3282SOL    HW221480   2.780   1.099   7.279  0.6799  1.6426 -1.1812
 3283SOL     OW21481   1.371   0.481   3.442 -0.4847 -0.2147 -0.6294
 3283SOL    HW121482   1.412   0.547   3.499 -0.8594  0.4071 -1.0752
 3283SOL    HW221483   1.445   0.448   3.393 -1.4411 -4.3023  0.6792
 3284SOL     OW21484   0.831   4.144   8.692  0.0620  0.2184 -0.4770
 3284SOL    HW121485   0.835   4.058   8.649  0.3202 -0.4269  0.8404
 3284SOL    HW221486   0.783   4.198   8.630 -0.1639 -2.3996 -2.6131
 3285SOL     OW21487   2.498   2.892  14.184  0.0229 -0.3163 -0.4819
 3285SOL    HW121488   2.502   2.957  14.254  1.7359  0.1901 -1.0636
 3285SOL    HW221489   2.591   2.875  14.172  0.3920  1.8337 -0.6027
 3286SOL     OW21490   0.917   4.055  15.018 -0.6719 -0.3821  0.5501
 3286SOL    HW121491   0.930   4.114  15.093 -0.6205  1.8452 -1.1990
 3286SOL    HW221492   0.991   4.069  14.959 -1.4848  0.7973 -0.1822
 3287SOL     OW21493   1.777   0.558   5.666  0.1516  0.1377  0.5687
 3287SOL    HW121494   1.780   0.463   5.666 -0.6104  0.1154  1.0232
 3287SOL    HW221495   1.801   0.578   5.757 -0.8446 -0.9820  1.0756
 3288SOL     OW21496   4.657   1.209   8.703  0.0486 -0.1814  0.3503
 3288SOL    HW121497   0.001   1.215   8.753 -0.6951 -0.6998  1.6233
 3288SOL    HW221498   4.590   1.212   8.772  0.9919  1.3674  1.1747
 3289SOL     OW21499   3.594   2.144  15.804 -0.2110 -0.3786 -0.5122
 3289SOL    HW121500   3.499   2.140  15.788  0.0122  0.0437 -1.9696
 3289SOL    HW221501   3.611   2.072  15.864  3.4992 -0.1134 -1.2819
 3290SOL     OW21502   3.493   4.638  14.150 -0.0246  0.0570 -0.0366
 3290SOL    HW121503   3.568   4.688  14.119 -0.2157 -0.3034 -1.0665
 3290SOL    HW221504   3.483   4.567  14.087 -1.7201  1.9338 -1.8635
 3291SOL     OW21505   0.107   2.627   8.921  0.2830  1.0062 -0.2077
 3291SOL    HW121506   0.183   2.637   8.865  0.9223 -3.5953 -0.1322
 3291SOL    HW221507   0.151   2.597   9.000  1.5296  0.5007 -1.0882
 3292SOL     OW21508   3.373   1.288  12.866  0.4732  0.0119 -0.5293
 3292SOL    HW121509   3.366   1.232  12.789  0.1561  0.7433 -1.0369
 3292SOL    HW221510   3.422   1.235  12.928  0.6089 -1.0825 -1.5765
 3293SOL     OW21511   3.583   2.459  15.422 -0.3163  0.2224 -0.1614
 3293SOL    HW121512   3.516   2.390  15.431 -0.5871  0.6973  1.3443
 3293SOL    HW221513   3.659   2.401  15.426 -2.1016 -2.0331  1.2537
 3294SOL     OW21514   2.300   3.996   3.603 -0.1149  0.8063  0.3012
 3294SOL    HW121515   2.361   4.012   3.531  0.6489  2.8135  1.4145
 3294SOL    HW221516   2.268   3.906   3.590 -0.9868  1.0071  1.0795
 3295SOL     OW21517   0.590   1.370   9.965  0.1285 -0.2590 -0.5029
 3295SOL    HW121518   0.628   1.416  10.039 -2.1712 -1.3377  1.3458
 3295SOL    HW221519   0.512   1.426   9.961 -0.0325 -0.2047  3.0198
 3296SOL     OW21520   1.511   2.936   6.954  0.3860  0.4733 -0.2971
 3296SOL    HW121521   1.467   3.009   6.912  2.3839  0.3678 -2.6218
 3296SOL    HW221522   1.570   2.916   6.881  2.0879  1.2714  0.8430
 3297SOL     OW21523   3.994   0.384   0.787  0.2955 -0.0024  0.0537
 3297SOL    HW121524   4.052   0.406   0.859  2.7143  0.7004 -2.0967
 3297SOL    HW221525   3.971   0.291   0.793 -1.9490  0.4174 -1.8114
 3298SOL     OW21526   2.006   2.326   7.519  0.7444 -0.0887 -0.3309
 3298SOL    HW121527   1.985   2.269   7.444  2.0260 -1.5990  0.4478
 3298SOL    HW221528   2.086   2.285   7.554  1.1099 -0.7886 -1.9941
 3299SOL     OW21529   0.007   0.624   8.286 -0.0338  0.1146 -0.0673
 3299SOL    HW121530   0.032   0.597   8.375  0.1634  1.2192  0.2065
 3299SOL    HW221531   4.718   0.714   8.304 -1.8236 -0.3835 -0.2579
 3300SOL     OW21532   1.903   0.499   2.643 -0.2751 -0.3560  0.5494
 3300SOL    HW121533   1.811   0.520   2.659 -0.7636 -0.6968 -1.7345
 3300SOL    HW221534   1.944   0.583   2.665 -2.2559  0.2313  1.9942
 3301SOL     OW21535   3.874   1.369   8.153 -0.0467  0.6124 -0.1994
 3301SOL    HW121536   3.796   1.317   8.176 -1.1226  2.1149 -0.4799
 3301SOL    HW221537   3.861   1.455   8.192 -0.6461 -0.3266  1.7033
 3302SOL     OW21538   4.142   4.351   9.517  0.1294 -0.0309  0.4863
 3302SOL    HW121539   4.148   4.264   9.478 -1.6707 -0.1957  0.5711
 3302SOL    HW221540   4.195   4.323   9.591 -1.2826  0.4347  1.6825
 3303SOL     OW21541   2.345   2.273   6.129 -0.2182  0.1370 -0.1638
 3303SOL    HW121542   2.354   2.220   6.208  1.7347  1.6367  0.6095
 3303SOL    HW221543   2.412   2.341   6.135 -0.8708  1.0578 -3.0775
 3304SOL     OW21544   4.529   0.859   5.232 -0.0281 -0.1000  0.9730
 3304SOL    HW121545   4.519   0.869   5.327 -0.8113 -0.1543  0.8978
 3304SOL    HW221546   4.620   0.888   5.227  0.8816 -3.1046  0.4523
 3305SOL     OW21547   2.591   0.560   4.578  1.1273 -0.4288  0.0885
 3305SOL    HW121548   2.545   0.564   4.662  2.8574 -0.6845  1.0640
 3305SOL    HW221549   2.679   0.539   4.612  1.0552  1.6691  1.6011
 3306SOL     OW21550   1.977   0.662   9.041 -0.0097  0.2147 -0.4293
 3306SOL    HW121551   1.945   0.753   9.037 -0.3952  0.0617 -0.8043
 3306SOL    HW221552   2.065   0.681   9.073  0.5096 -2.1191 -0.5182
 3307SOL     OW21553   0.037   2.355  11.228 -0.0205 -0.5600  0.2109
 3307SOL    HW121554   4.686   2.351  11.193  0.6433 -1.1146 -1.3948
 3307SOL    HW221555   0.091   2.401  11.163 -1.3447 -2.2921 -2.0602
 3308SOL     OW21556   2.323   0.491   4.935 -0.1450  0.3046  0.5014
 3308SOL    HW121557   2.285   0.526   5.016 -1.0903  1.7993 -0.5721
 3308SOL    HW221558   2.359   0.410   4.970 -0.0308 -0.6569 -1.8532
 3309SOL     OW21559   0.320   4.056   9.125 -0.2254 -0.5782  0.1365
 3309SOL    HW121560   0.330   4.143   9.086  1.0309 -0.9817 -0.4359
 3309SOL    HW221561   0.230   4.073   9.154  0.0703  2.6913 -0.8183
 3310SOL     OW21562   2.305   2.689  14.208  0.1687 -0.4518 -0.0157
 3310SOL    HW121563   2.281   2.716  14.297 -0.1777  0.9130 -0.5302
 3310SOL    HW221564   2.371   2.757  14.197 -0.3190  0.5558  3.5242
 3311SOL     OW21565   2.634   2.930   0.993  0.5946 -0.1168 -0.3386
 3311SOL    HW121566   2.639   2.859   1.056  0.7732  0.9917  0.8858
 3311SOL    HW221567   2.565   2.977   1.039  1.0367  1.6767 -1.4748
 3312SOL     OW21568   4.624   2.738   8.814  0.3051  0.0273  0.2887
 3312SOL    HW121569   4.705   2.699   8.846 -0.1148  0.1484  1.5117
 3312SOL    HW221570   4.640   2.759   8.722 -0.3653 -0.4161  0.0662
 3313SOL     OW21571   3.206   3.538   6.749  0.5962  0.3314  0.2150
 3313SOL    HW121572   3.293   3.553   6.712  0.5290 -0.7899 -0.4144
 3313SOL    HW221573   3.214   3.583   6.833 -0.0232  1.0940 -0.1391
 3314SOL     OW21574   0.272   2.503   7.915 -0.1229 -0.3475 -0.6000
 3314SOL    HW121575   0.262   2.409   7.932  2.7773 -0.4588  0.4225
 3314SOL    HW221576   0.178   2.521   7.915  0.0649  0.5274  2.2402
 3315SOL     OW21577   2.535   1.054   4.893 -0.0852 -0.6836 -0.8162
 3315SOL    HW121578   2.485   1.136   4.896 -1.7299 -1.7682  1.3819
 3315SOL    HW221579   2.501   1.018   4.811 -3.6994 -2.5333  1.5124
 3316SOL     OW21580   4.117   3.137   0.156  0.0474 -0.0847  1.2250
 3316SOL    HW121581   4.050   3.164   0.219 -2.2007  0.2112 -1.3345
 3316SOL    HW221582   4.115   3.042   0.165  3.0434 -0.1639  1.3436
 3317SOL     OW21583   0.816   2.871   9.243  0.5804  0.1958 -0.2874
 3317SOL    HW121584   0.759   2.811   9.291 -2.1436  0.1619 -3.4955
 3317SOL    HW221585   0.758   2.943   9.217 -1.4513 -1.5306 -0.5488
 3318SOL     OW21586   2.612   0.016   6.670  0.1707 -0.1728 -0.6266
 3318SOL    HW121587   2.560   0.087   6.633  0.9792  0.4331 -0.6163
 3318SOL    HW221588   2.571   0.017   6.756  2.2299 -1.5520  0.3743
 3319SOL     OW21589   0.240   0.786  12.035 -0.7341  0.0562  0.6088
 3319SOL    HW121590   0.327   0.747  12.043 -0.1602  1.7705  2.9615
 3319SOL    HW221591   0.218   0.820  12.122 -1.7069  1.9981 -0.3951
 3320SOL     OW21592   0.308   4.629   7.583 -0.2498 -0.4374  0.3184
 3320SOL    HW121593   0.387   4.681   7.575 -2.6595  3.3727  1.5030
 3320SOL    HW221594   0.249   4.691   7.626  0.7554  0.5241  0.3014
 3321SOL     OW21595   4.004   0.641   8.467  0.1600 -0.1514  0.4751
 3321SOL    HW121596   3.982   0.709   8.530  1.5015 -0.2505  1.0626
 3321SOL    HW221597   4.055   0.686   8.399 -1.5056  1.3181  0.1969
 3322SOL     OW21598   2.273   0.074  14.551  0.0696 -0.3575 -0.2468
 3322SOL    HW121599   2.206   0.026  14.503 -0.4095  0.4006 -0.3307
 3322SOL    HW221600   2.316   0.112  14.475  0.5428  0.9773  0.6801
 3323SOL     OW21601   3.516   0.403   7.947 -0.4819 -0.2952 -0.3984
 3323SOL    HW121602   3.558   0.408   7.861 -2.1545  1.1284 -1.1304
 3323SOL    HW221603   3.547   0.322   7.985  1.1399  0.2096 -0.6690
 3324SOL     OW21604   0.919   0.762   9.804  0.1504 -0.6248  0.0566
 3324SOL    HW121605   0.897   0.748   9.896  0.8087 -1.2186  0.1257
 3324SOL    HW221606   0.834   0.774   9.761  0.1414 -0.6143  0.0779
 3325SOL     OW21607   3.329   0.384   6.958  0.0326  0.1003  0.7846
 3325SOL    HW121608   3.403   0.336   6.921 -0.5264  1.5272 -2.2071
 3325SOL    HW221609   3.323   0.464   6.906 -0.7061  0.5028  1.4916
 3326SOL     OW21610   1.463   3.486   8.869  0.1590 -0.1136  0.2473
 3326SOL    HW121611   1.454   3.412   8.929  1.1345 -0.9721 -0.6704
 3326SOL    HW221612   1.527   3.539   8.916 -0.1946  0.2887  0.2854
 3327SOL     OW21613   2.645   4.330   2.176  0.3148  0.8777  0.1460
 3327SOL    HW121614   2.724   4.277   2.177  0.4407  1.0745  0.8476
 3327SOL    HW221615   2.647   4.363   2.086 -1.1690 -0.2670 -0.3129
 3328SOL     OW21616   0.067   0.674  17.730  0.0902  0.0482  0.2660
 3328SOL    HW121617   0.034   0.635   0.062  1.7770  1.6632  1.7441
 3328SOL    HW221618   0.091   0.593  17.685  0.4401  0.7230 -0.7733
 3329SOL     OW21619   2.125   2.556   3.946  0.5551 -0.8004  0.8167
 3329SOL    HW121620   2.117   2.651   3.933  1.1642 -0.8611  0.0027
 3329SOL    HW221621   2.039   2.548   3.986 -0.6040 -1.0809 -1.7262
 3330SOL     OW21622   2.604   4.511   2.535  0.5316  0.5996 -0.0897
 3330SOL    HW121623   2.694   4.482   2.524  0.5217  0.2767  0.6924
 3330SOL    HW221624   2.607   4.599   2.497 -0.0311  0.9739  0.7221
 3331SOL     OW21625   2.544   3.523  17.359  0.3847  0.8671  0.0349
 3331SOL    HW121626   2.506   3.609  17.342  0.8396  1.2244  0.8211
 3331SOL    HW221627   2.469   3.465  17.346  0.8966  0.4542 -1.1358
 3332SOL     OW21628   4.012   4.220   6.475 -0.2596  0.2295 -0.1105
 3332SOL    HW121629   4.044   4.189   6.560 -1.4150  0.4978  0.4217
 3332SOL    HW221630   3.924   4.183   6.472 -1.0451  1.9464  1.1880
 3333SOL     OW21631   2.732   3.332   5.018  0.3287 -0.4628 -0.1435
 3333SOL    HW121632   2.751   3.238   5.018 -1.6081 -0.8553  0.9900
 3333SOL    HW221633   2.780   3.354   5.097  1.3017  0.3803 -0.9850
 3334SOL     OW21634   2.984   2.253   2.586 -0.0504 -0.0822  0.0774
 3334SOL    HW121635   2.987   2.301   2.669 -1.3489  2.8355 -1.5681
 3334SOL    HW221636   3.063   2.200   2.594  0.1995  0.2859  0.0459
 3335SOL     OW21637   2.509   3.643   6.884 -0.5964  0.1472 -0.4707
 3335SOL    HW121638   2.480   3.551   6.884  0.6900 -0.2551  2.9639
 3335SOL    HW221639   2.603   3.638   6.900 -1.0765 -1.0041  2.0776
 3336SOL     OW21640   3.588   4.644   5.535  0.0126  0.3964  0.1489
 3336SOL    HW121641   3.558   4.652   5.625  2.3044 -1.2533  1.0532
 3336SOL    HW221642   3.667   4.597   5.562 -0.0422  0.9999  1.3241
 3337SOL     OW21643   4.585   2.955   3.098 -0.0993 -0.0582 -0.4913
 3337SOL    HW121644   4.637   2.911   3.165  0.2596  1.5304  0.2876
 3337SOL    HW221645   4.503   2.908   3.110  1.9043 -3.9543 -2.3474
 3338SOL     OW21646   2.458   1.453   3.350  0.3673 -0.0752 -0.5353
 3338SOL    HW121647   2.457   1.469   3.444 -1.5426  0.1200 -0.5869
 3338SOL    HW221648   2.401   1.377   3.341  2.3117 -1.4776 -0.9846
 3339SOL     OW21649   0.687   2.509   3.813 -0.7845 -0.0697 -0.0281
 3339SOL    HW121650   0.656   2.599   3.802 -0.0552  0.2890  0.9147
 3339SOL    HW221651   0.757   2.506   3.878 -0.2268 -2.5723 -0.7597
 3340SOL     OW21652   2.543   0.068   2.445 -0.3406  0.0697 -0.1202
 3340SOL    HW121653   2.566   0.136   2.508 -0.7372 -0.6711  0.8241
 3340SOL    HW221654   2.633   0.041   2.426 -0.5021 -1.2546  1.0462
 3341SOL     OW21655   2.470   4.640   5.611  0.1470  0.1243  0.5520
 3341SOL    HW121656   2.448   4.551   5.584 -0.7483 -0.3622  2.8681
 3341SOL    HW221657   2.545   4.670   5.560 -0.4933  2.0556  0.7296
 3342SOL     OW21658   3.761   3.477   9.686 -0.1574 -0.0332 -0.1674
 3342SOL    HW121659   3.750   3.382   9.682  0.2160 -0.1741  1.8370
 3342SOL    HW221660   3.857   3.486   9.687 -0.1985  0.1707  1.8414
 3343SOL     OW21661   2.803   0.323   7.955  0.1488  0.2556 -0.2929
 3343SOL    HW121662   2.890   0.361   7.962 -0.5497  1.9487 -0.8300
 3343SOL    HW221663   2.780   0.335   7.862  0.3667  0.0496 -0.3722
 3344SOL     OW21664   3.663   4.709  11.139  0.0398 -0.1709  0.2308
 3344SOL    HW121665   3.641   0.032  11.068  1.5707  0.1281  0.0161
 3344SOL    HW221666   3.741   4.666  11.103 -0.3467 -0.6025 -0.1029
 3345SOL     OW21667   3.366   0.418   0.133  0.3139 -0.2342  1.0377
 3345SOL    HW121668   3.442   0.463   0.097  0.2657  0.5438  1.8907
 3345SOL    HW221669   3.311   0.456   0.065 -0.1334 -1.0906  0.9289
 3346SOL     OW21670   0.184   3.838   2.967  0.2727  0.8607 -0.1854
 3346SOL    HW121671   0.130   3.905   3.009  0.5296  1.3950 -0.7112
 3346SOL    HW221672   0.209   3.868   2.880  0.9722  1.1652  0.1183
 3347SOL     OW21673   3.253   2.683   2.847  0.2354  0.2809 -0.5093
 3347SOL    HW121674   3.181   2.668   2.785 -0.5289 -0.3331  0.5293
 3347SOL    HW221675   3.234   2.618   2.914 -0.9917  0.6258 -0.5219
 3348SOL     OW21676   0.964   2.188   8.244 -0.0844  0.4002  0.2124
 3348SOL    HW121677   0.875   2.161   8.218 -0.1017  0.9992 -0.3645
 3348SOL    HW221678   0.970   2.138   8.325 -0.4434 -1.1786 -0.7235
 3349SOL     OW21679   0.265   3.214   2.645 -0.1406  0.6132  0.4918
 3349SOL    HW121680   0.223   3.234   2.729 -0.9503 -2.8550  0.9434
 3349SOL    HW221681   0.335   3.156   2.673 -1.1418 -1.3358 -1.0088
 3350SOL     OW21682   0.572   1.958  15.084 -0.4960  0.7852 -0.0045
 3350SOL    HW121683   0.502   1.893  15.081 -2.5309  2.9869 -0.4217
 3350SOL    HW221684   0.530   2.030  15.037 -1.8394  1.0939  1.6949
 3351SOL     OW21685   1.539   1.080  10.712 -0.4471 -0.6668 -0.1409
 3351SOL    HW121686   1.613   1.026  10.684 -0.4122  0.0222 -1.3328
 3351SOL    HW221687   1.542   1.152  10.650  0.9894  0.1769  0.8961
 3352SOL     OW21688   0.014   0.207   1.774 -0.1168 -0.0267  0.1669
 3352SOL    HW121689   4.688   0.153   1.727  0.3010 -0.7529  0.4363
 3352SOL    HW221690   0.084   0.144   1.792  0.0314  0.1957  0.3644
 3353SOL     OW21691   3.645   0.821   5.949 -0.2530 -0.0871  0.0633
 3353SOL    HW121692   3.667   0.898   6.003  0.0822 -0.8738  1.0409
 3353SOL    HW221693   3.597   0.863   5.878  1.1885 -0.2918 -1.0320
 3354SOL     OW21694   2.232   4.682   2.948 -0.0019  0.2692 -0.2346
 3354SOL    HW121695   2.241   4.728   2.865  1.9688  1.3422  0.5757
 3354SOL    HW221696   2.307   4.711   3.000 -0.0564  0.0341 -0.0242
 3355SOL     OW21697   0.798   3.816   5.074  0.3154  0.0161  0.5098
 3355SOL    HW121698   0.859   3.877   5.033 -0.7694  0.3902 -0.5719
 3355SOL    HW221699   0.725   3.869   5.107  0.0561 -1.5398  2.4929
 3356SOL     OW21700   2.008   2.930   9.004  0.0229  0.4841 -0.2200
 3356SOL    HW121701   1.913   2.935   9.017  0.2917 -1.5821  2.5130
 3356SOL    HW221702   2.022   3.002   8.942 -2.3318 -0.6706 -2.1145
 3357SOL     OW21703   1.020   3.729   5.569 -0.0351 -0.3244 -0.0552
 3357SOL    HW121704   1.068   3.693   5.495  1.9997  1.2976  0.4684
 3357SOL    HW221705   1.029   3.660   5.635  1.0165 -0.9238 -0.8353
 3358SOL     OW21706   2.318   2.163  17.191  0.0091  0.8824  0.3288
 3358SOL    HW121707   2.255   2.231  17.167  0.1142 -0.3678 -3.5705
 3358SOL    HW221708   2.402   2.195  17.160  0.4604 -0.0348  0.5984
 3359SOL     OW21709   1.394   3.079  17.651  0.2440  0.1482  0.1126
 3359SOL    HW121710   1.332   3.006  17.651  0.0826  0.2836 -0.8986
 3359SOL    HW221711   1.349   3.164  17.646  2.1762  1.0569 -1.7314
 3360SOL     OW21712   0.140   1.864   2.284  0.5740 -0.2217  0.0292
 3360SOL    HW121713   0.067   1.912   2.325  0.0907 -1.3638  0.5077
 3360SOL    HW221714   0.207   1.861   2.353  0.0517  0.3821  0.5727
 3361SOL     OW21715   0.582   3.752   5.827  0.6221  0.2508 -0.3371
 3361SOL    HW121716   0.607   3.809   5.901 -1.7524  0.7962  0.0335
 3361SOL    HW221717   0.494   3.782   5.804  1.0306  0.8505 -1.0934
 3362SOL     OW21718   2.697   2.837  10.079 -0.0101  0.3283 -0.0943
 3362SOL    HW121719   2.615   2.880  10.102  0.7651  1.6580  0.2055
 3362SOL    HW221720   2.759   2.905  10.105 -0.5479  0.9349 -0.3980
 3363SOL     OW21721   4.256   1.164   5.304 -0.3880  0.1171 -0.0741
 3363SOL    HW121722   4.247   1.070   5.291  1.5135 -0.2323  1.1679
 3363SOL    HW221723   4.340   1.175   5.259 -0.2242  2.7345  0.8258
 3364SOL     OW21724   1.746   3.636   1.871  0.4656 -0.6527 -0.4775
 3364SOL    HW121725   1.795   3.584   1.934 -1.5079 -3.7533 -1.5145
 3364SOL    HW221726   1.806   3.709   1.854  0.9697 -0.5598  1.7299
 3365SOL     OW21727   1.197   0.704   2.364  0.5792  0.3246  0.0514
 3365SOL    HW121728   1.216   0.709   2.458  0.4829 -2.4093  0.2211
 3365SOL    HW221729   1.280   0.670   2.329  0.0828 -1.8314  0.9717
 3366SOL     OW21730   4.108   1.865   6.353 -0.3160 -0.3978  0.5156
 3366SOL    HW121731   4.179   1.930   6.345  0.3205 -1.0865  0.5867
 3366SOL    HW221732   4.050   1.916   6.409 -0.5130  0.2430 -0.2600
 3367SOL     OW21733   4.366   1.419   2.686  0.2896  0.3168  0.0261
 3367SOL    HW121734   4.457   1.391   2.699  0.1978  0.9677  1.9945
 3367SOL    HW221735   4.379   1.507   2.721  1.0703  0.5641 -0.8739
 3368SOL     OW21736   0.772   3.574   1.249 -0.4175  0.2317 -0.2160
 3368SOL    HW121737   0.771   3.627   1.328 -0.3514 -1.1011  0.6809
 3368SOL    HW221738   0.849   3.617   1.211 -0.6009  0.8865  0.1590
 3369SOL     OW21739   2.601   2.195   9.527 -0.4119  0.2058 -0.2363
 3369SOL    HW121740   2.615   2.279   9.485  0.6223  0.0425 -0.2121
 3369SOL    HW221741   2.539   2.151   9.469 -1.4732  1.1916  0.1457
 3370SOL     OW21742   3.844   1.422   9.148  0.1371  0.4550  1.1394
 3370SOL    HW121743   3.791   1.464   9.216 -0.2255  0.4295  0.8758
 3370SOL    HW221744   3.875   1.349   9.202  2.9655  0.5906 -0.3172
 3371SOL     OW21745   2.661   3.610   0.707 -0.0420  0.3939 -0.4507
 3371SOL    HW121746   2.643   3.652   0.623  0.0902 -0.4252 -0.8799
 3371SOL    HW221747   2.730   3.554   0.674  0.4850  1.9275 -1.9704
 3372SOL     OW21748   3.780   2.282   4.294 -0.0949 -0.3403 -0.0005
 3372SOL    HW121749   3.799   2.189   4.281 -1.8253 -0.2233 -3.0655
 3372SOL    HW221750   3.701   2.284   4.348  0.6769 -1.7233  1.2148
 3373SOL     OW21751   2.906   1.521   6.561 -0.3112  0.0576  0.2766
 3373SOL    HW121752   2.884   1.435   6.526 -1.0939  0.0909  0.6681
 3373SOL    HW221753   2.999   1.512   6.582  0.2929 -0.0389 -2.4414
 3374SOL     OW21754   2.940   3.733   1.470 -0.4832 -0.0718 -0.2336
 3374SOL    HW121755   2.845   3.746   1.470 -0.3319  1.0650 -0.4481
 3374SOL    HW221756   2.949   3.742   1.375 -0.9940 -1.4454 -0.4057
 3375SOL     OW21757   3.495   2.171   6.925  0.1124  0.1663 -0.1025
 3375SOL    HW121758   3.454   2.092   6.960  0.1393  0.4674  0.6210
 3375SOL    HW221759   3.478   2.240   6.989  0.5063 -0.1551  0.3450
 3376SOL     OW21760   3.931   0.350   5.787 -0.4616 -0.0402 -0.0679
 3376SOL    HW121761   3.921   0.317   5.697 -0.5766  0.6572 -0.3100
 3376SOL    HW221762   3.953   0.443   5.778 -2.5711  0.6229  1.6695
 3377SOL     OW21763   3.602   4.566   4.618  0.0531 -0.0066 -0.1766
 3377SOL    HW121764   3.673   4.619   4.582 -0.3828 -0.0919 -1.1386
 3377SOL    HW221765   3.619   4.473   4.601 -1.7210 -0.3417 -0.1068
 3378SOL     OW21766   3.606   3.921   9.622  0.6930  0.3977  0.0096
 3378SOL    HW121767   3.571   3.919   9.533  1.3732 -2.5124 -0.1703
 3378SOL    HW221768   3.586   3.836   9.662 -0.8790  0.5155 -0.5258
 3379SOL     OW21769   2.793   2.252   9.975 -0.1070  0.1487 -0.7050
 3379SOL    HW121770   2.860   2.186   9.960 -0.2025 -0.0769 -0.1356
 3379SOL    HW221771   2.744   2.263   9.894  1.5789 -0.2884 -1.7902
 3380SOL     OW21772   3.857   4.148  14.114  0.4122 -0.0844 -0.0819
 3380SOL    HW121773   3.777   4.201  14.115  0.9202  0.6844  0.1011
 3380SOL    HW221774   3.873   4.124  14.205  1.1275 -0.8645 -0.4152
 3381SOL     OW21775   0.446   0.983  17.596  0.2599 -0.0179  0.3513
 3381SOL    HW121776   0.492   0.936  17.665  0.2253 -1.0431 -0.3354
 3381SOL    HW221777   0.508   0.979  17.523  0.5968 -2.0872  0.7735
 3382SOL     OW21778   2.372   4.230  13.519  0.4595  0.1871  0.2247
 3382SOL    HW121779   2.295   4.240  13.576  1.1272 -1.1665  1.3507
 3382SOL    HW221780   2.340   4.206  13.432 -1.6902  0.6498  0.8972
 3383SOL     OW21781   4.227   1.571   2.274 -0.3578  0.2683  0.5781
 3383SOL    HW121782   4.202   1.492   2.320 -0.6299  0.1337  0.1944
 3383SOL    HW221783   4.170   1.559   2.198  0.6993 -1.8649  0.1170
 3384SOL     OW21784   0.050   0.837   5.883 -0.0293 -0.6948 -0.4768
 3384SOL    HW121785   0.135   0.823   5.925 -0.6368  0.1549  1.0214
 3384SOL    HW221786   0.029   0.919   5.929 -2.1737 -0.4395 -1.9030
 3385SOL     OW21787   0.248   0.004   6.076 -0.3270  0.1780 -0.3559
 3385SOL    HW121788   0.343   0.011   6.066 -0.3800 -0.0491 -1.0379
 3385SOL    HW221789   0.250   4.648   6.098 -1.8971  0.0533 -0.6974
 3386SOL     OW21790   1.223   3.934   7.375  0.1050  0.2314  0.7196
 3386SOL    HW121791   1.162   3.874   7.417 -0.5039 -2.0035 -3.4247
 3386SOL    HW221792   1.273   3.965   7.451  0.0452 -0.3492  0.9930
 3387SOL     OW21793   0.364   1.770   4.251 -0.0019  0.5072 -0.4977
 3387SOL    HW121794   0.334   1.683   4.276  0.1950 -0.1114 -2.4340
 3387SOL    HW221795   0.423   1.739   4.183 -0.0333 -0.7382  0.0430
 3388SOL     OW21796   3.207   4.622  14.916 -0.2364  0.6011  0.7727
 3388SOL    HW121797   3.173   4.623  14.827  2.8300  1.2049 -0.4181
 3388SOL    HW221798   3.211   4.529  14.939 -4.9047  0.2773  0.1660
 3389SOL     OW21799   1.112   0.641  14.777  0.0329 -0.1216 -0.8248
 3389SOL    HW121800   1.087   0.592  14.855 -1.2078 -0.2862 -1.3377
 3389SOL    HW221801   1.085   0.582  14.707  0.0936  0.5736 -1.4345
 3390SOL     OW21802   1.476   4.270   8.000  0.4766  0.0709  0.4556
 3390SOL    HW121803   1.405   4.222   8.042  0.3897  1.4036  1.8140
 3390SOL    HW221804   1.521   4.297   8.079  0.9239 -1.1622  0.6262
 3391SOL     OW21805   1.557   0.257   4.680 -0.1381 -0.0756 -0.1264
 3391SOL    HW121806   1.471   0.291   4.706 -0.0918  1.3039 -1.8447
 3391SOL    HW221807   1.534   0.184   4.624  2.2181 -0.8501 -0.0668
 3392SOL     OW21808   0.868   3.472   4.055 -0.3426  0.2299  0.1761
 3392SOL    HW121809   0.933   3.407   4.080 -2.3999 -3.0446 -3.0683
 3392SOL    HW221810   0.791   3.416   4.049 -0.2367 -0.0454  1.2571
 3393SOL     OW21811   3.424   1.116   2.731  0.6997  0.3082  0.0451
 3393SOL    HW121812   3.346   1.068   2.758  0.3044  0.2175 -1.2819
 3393SOL    HW221813   3.400   1.186   2.670  0.2363  0.5858  0.5402
 3394SOL     OW21814   4.563   2.116   5.897  0.5640  0.6313  0.1932
 3394SOL    HW121815   4.612   2.189   5.933 -0.2334 -0.3272  3.1693
 3394SOL    HW221816   4.503   2.095   5.969 -0.1722 -1.0122 -0.8997
 3395SOL     OW21817   1.744   1.985   6.844 -0.1730  0.2260  0.3438
 3395SOL    HW121818   1.651   1.986   6.821 -0.1271 -0.4898  0.1300
 3395SOL    HW221819   1.779   1.940   6.768 -0.8559  0.9132 -0.3720
 3396SOL     OW21820   4.326   0.824   4.328 -0.1012  0.3207  0.5770
 3396SOL    HW121821   4.259   0.869   4.276  0.4882  1.9855  1.2692
 3396SOL    HW221822   4.322   0.739   4.284  2.7914  0.6447 -0.2682
 3397SOL     OW21823   4.581   3.228   6.611  0.3373 -0.5821  0.1185
 3397SOL    HW121824   4.520   3.265   6.675  0.8414 -1.7810  1.2969
 3397SOL    HW221825   4.661   3.256   6.657  0.5346  0.5413 -0.9065
 3398SOL     OW21826   2.491   2.026   9.337  0.2413  0.1254  0.5979
 3398SOL    HW121827   2.409   2.073   9.318  0.8369  0.8768 -0.1465
 3398SOL    HW221828   2.474   1.944   9.292 -0.0876  0.7508 -0.4233
 3399SOL     OW21829   0.340   1.205   5.347  0.5750 -0.1697  0.4723
 3399SOL    HW121830   0.342   1.231   5.439 -1.5424  0.2883  0.3750
 3399SOL    HW221831   0.277   1.264   5.307  1.6730 -0.0244 -1.0466
 3400SOL     OW21832   2.345   2.308  13.716 -0.1862  0.1524  0.4184
 3400SOL    HW121833   2.357   2.336  13.807 -0.5350 -1.0300  0.8337
 3400SOL    HW221834   2.304   2.222  13.723  0.2642  0.1535  3.0680
 3401SOL     OW21835   0.106   4.011   4.183 -0.6247  0.4968  0.4535
 3401SOL    HW121836   0.036   3.973   4.131 -1.1096 -1.3477  2.4462
 3401SOL    HW221837   0.115   3.941   4.248  2.3521 -1.5181 -2.1547
 3402SOL     OW21838   0.265   0.019   2.565 -0.7804  0.7817 -0.0667
 3402SOL    HW121839   0.319   4.713   2.499 -1.2091  1.5433 -0.9347
 3402SOL    HW221840   0.272   4.689   2.632  1.4218  1.4575  0.3889
 3403SOL     OW21841   3.943   3.657   2.888 -0.3535 -0.4492  0.3857
 3403SOL    HW121842   4.009   3.647   2.819 -1.0304  5.6672 -1.0674
 3403SOL    HW221843   3.913   3.747   2.883  2.6911  0.6077  1.1015
 3404SOL     OW21844   0.016   0.108   4.985  0.6791  0.1762  0.4903
 3404SOL    HW121845   4.705   0.126   4.904 -0.4261  1.0171  1.3302
 3404SOL    HW221846   0.017   0.196   5.023  0.1856  0.9270 -1.2320
 3405SOL     OW21847   2.854   3.234   6.839  0.0148  0.0477 -0.2812
 3405SOL    HW121848   2.792   3.189   6.897 -0.4453  1.0735  0.0248
 3405SOL    HW221849   2.908   3.292   6.892  0.5844  0.3137 -1.1622
 3406SOL     OW21850   2.749   2.364   7.868  0.1233  0.3291 -0.6064
 3406SOL    HW121851   2.803   2.441   7.849  0.9757 -0.3302 -0.8566
 3406SOL    HW221852   2.709   2.399   7.948 -0.1004 -1.0270 -0.1267
 3407SOL     OW21853   4.107   0.486   1.780 -0.2870 -0.2451 -0.2794
 3407SOL    HW121854   4.149   0.571   1.768 -0.0915 -0.2631  0.2793
 3407SOL    HW221855   4.181   0.428   1.764 -1.5633 -1.7928 -0.5076
 3408SOL     OW21856   4.662   0.131  11.265  0.3381  0.4850  0.0288
 3408SOL    HW121857   4.655   0.117  11.360  1.5057  0.0037  0.0543
 3408SOL    HW221858   4.664   0.040  11.235 -0.6556  0.3257  0.4389
 3409SOL     OW21859   3.296   3.812  13.352  0.2028  0.3745  0.1370
 3409SOL    HW121860   3.297   3.779  13.441 -1.2201 -2.3583 -0.8485
 3409SOL    HW221861   3.213   3.769  13.330  1.2687 -1.4658 -0.3142
 3410SOL     OW21862   2.972   4.563   3.849  0.4000 -0.4264  0.0732
 3410SOL    HW121863   2.891   4.579   3.897  0.5895 -0.7493  0.4987
 3410SOL    HW221864   2.984   4.469   3.867  0.6420 -0.2640  0.7344
 3411SOL     OW21865   1.865   0.910   9.106 -0.3305 -0.0493 -0.1456
 3411SOL    HW121866   1.858   0.974   9.177 -2.8635  1.0756 -1.4004
 3411SOL    HW221867   1.778   0.918   9.067 -0.4702 -0.0846  0.1580
 3412SOL     OW21868   1.044   3.687  14.128  1.0047  0.2429 -0.5220
 3412SOL    HW121869   1.103   3.756  14.159  3.0590 -1.9800  0.5071
 3412SOL    HW221870   1.007   3.652  14.208 -2.6312  1.0635 -1.8303
 3413SOL     OW21871   0.267   0.262   1.538  0.1270 -0.1981 -0.4935
 3413SOL    HW121872   0.328   0.189   1.526 -1.2954 -1.3511 -0.7648
 3413SOL    HW221873   0.321   0.314   1.597  0.6451 -0.0397 -1.1049
 3414SOL     OW21874   1.388   1.913   6.206 -0.5016 -0.0913 -0.1957
 3414SOL    HW121875   1.400   1.929   6.112 -0.5244 -0.5247 -0.2741
 3414SOL    HW221876   1.309   1.859   6.217  0.4584 -1.6027 -0.6673
 3415SOL     OW21877   1.764   2.053   8.566  0.3287  0.0692  0.3911
 3415SOL    HW121878   1.793   2.091   8.483 -0.0522 -2.1070 -0.7322
 3415SOL    HW221879   1.805   2.115   8.626  0.1688  0.0080  0.5634
 3416SOL     OW21880   0.778   4.648   5.280 -0.6926  0.6476 -0.0339
 3416SOL    HW121881   0.719   4.632   5.206  0.0204 -1.7838 -0.0793
 3416SOL    HW221882   0.786   0.006   5.277 -0.5440  0.5927 -1.8166
 3417SOL     OW21883   2.993   2.612  10.156 -0.5296 -0.3706  0.3350
 3417SOL    HW121884   3.065   2.559  10.191 -1.4738 -0.4296  2.2291
 3417SOL    HW221885   2.998   2.698  10.198 -1.4140 -1.1670  2.1165
 3418SOL     OW21886   0.920   0.228   5.924  0.9220 -0.0250 -0.5554
 3418SOL    HW121887   0.978   0.188   5.859  1.4032 -0.0066 -0.1376
 3418SOL    HW221888   0.978   0.270   5.988  1.3544 -1.1420 -0.2047
 3419SOL     OW21889   2.691   0.287   4.175 -0.0824 -0.5432  0.2312
 3419SOL    HW121890   2.783   0.302   4.196  0.3353 -1.4427 -0.9787
 3419SOL    HW221891   2.660   0.258   4.261  1.4994  0.0068  0.9763
 3420SOL     OW21892   3.843   0.041   9.921  0.3932  0.2789  0.4008
 3420SOL    HW121893   3.912   0.039   9.855  0.2119 -0.6835  0.2337
 3420SOL    HW221894   3.869   4.713   9.986  1.0466  0.5204  0.3762
 3421SOL     OW21895   1.793   4.337  17.314 -0.3336  0.0570  0.1232
 3421SOL    HW121896   1.855   4.312  17.383 -1.3757  0.5235  1.2303
 3421SOL    HW221897   1.816   4.259  17.264 -0.0656  0.4850 -0.4130
 3422SOL     OW21898   0.434   3.310  11.911  0.3327 -0.0025  0.2740
 3422SOL    HW121899   0.512   3.256  11.897  0.4562  0.6319 -1.4468
 3422SOL    HW221900   0.391   3.295  11.827  1.1832  0.1374 -0.1974
 3423SOL     OW21901   1.282   4.685   8.146 -0.1600  0.0478  0.2317
 3423SOL    HW121902   1.305   0.025   8.197  0.9598 -1.1421  1.5560
 3423SOL    HW221903   1.260   4.729   8.064  0.2511  0.5620  0.3954
 3424SOL     OW21904   1.708   2.667   6.255 -0.0214 -0.1262 -0.6435
 3424SOL    HW121905   1.772   2.686   6.187 -0.3787  0.3502 -0.8501
 3424SOL    HW221906   1.653   2.595   6.224 -0.9141 -0.1545  1.0268
 3425SOL     OW21907   4.006   1.820   7.102 -0.3506 -0.2420 -0.2175
 3425SOL    HW121908   4.037   1.910   7.106  0.2658 -0.3010 -3.0304
 3425SOL    HW221909   3.979   1.806   7.192  2.5744  1.0307  0.8510
 3426SOL     OW21910   4.719   3.951  17.146  0.0700 -0.4212 -0.2382
 3426SOL    HW121911   0.038   3.962  17.223  1.0878  0.2568 -1.1016
 3426SOL    HW221912   4.687   4.039  17.127  0.7969  0.4203  2.3522
 3427SOL     OW21913   0.414   2.480   7.023  0.0873  0.6306 -0.8459
 3427SOL    HW121914   0.417   2.475   7.119  2.0250 -0.5937 -0.9671
 3427SOL    HW221915   0.495   2.517   6.988  1.3939 -2.5622 -1.1991
 3428SOL     OW21916   1.323   3.013   0.335 -0.1047 -0.0069  0.6987
 3428SOL    HW121917   1.419   3.015   0.334 -0.0989 -0.7715 -0.3739
 3428SOL    HW221918   1.299   2.921   0.326 -1.0051  0.1906  1.1378
 3429SOL     OW21919   2.068   1.059   8.992 -0.3734  0.0789 -0.7309
 3429SOL    HW121920   1.994   1.107   8.955 -1.3825 -0.5370  0.4935
 3429SOL    HW221921   2.033   1.010   9.067 -1.9220  0.6888 -1.0600
 3430SOL     OW21922   3.795   0.268  10.206  0.6490 -0.5747  0.0021
 3430SOL    HW121923   3.706   0.238  10.224 -0.3330  1.9170 -0.6973
 3430SOL    HW221924   3.842   0.191  10.172  0.0737 -0.7078 -0.4879
 3431SOL     OW21925   1.991   4.138   1.438  0.4644  0.0622  0.3739
 3431SOL    HW121926   2.044   4.176   1.508  1.3647 -1.6458  0.6295
 3431SOL    HW221927   2.021   4.174   1.354  0.8349  2.0535  1.3732
 3432SOL     OW21928   4.549   4.201   9.103  0.2774  0.2380  0.3384
 3432SOL    HW121929   4.507   4.287   9.104 -1.5506 -0.6655  0.6246
 3432SOL    HW221930   4.480   4.140   9.077  0.2977  0.1811  0.4156
 3433SOL     OW21931   0.305   0.509   5.429 -0.1992  0.2064  0.1706
 3433SOL    HW121932   0.324   0.593   5.389 -0.5161  0.2004  0.0072
 3433SOL    HW221933   0.329   0.524   5.520  1.8618  1.4110 -0.5707
 3434SOL     OW21934   3.175   2.411  13.901  0.1376  0.0001 -0.7401
 3434SOL    HW121935   3.225   2.473  13.847  0.4241 -1.8252 -2.5715
 3434SOL    HW221936   3.118   2.477  13.941  0.0848 -0.7655  0.4177
 3435SOL     OW21937   4.569   2.602   7.683  0.3225 -0.4861  0.4505
 3435SOL    HW121938   4.516   2.545   7.628 -0.6115  0.0610  0.7779
 3435SOL    HW221939   4.510   2.627   7.754 -1.2075 -1.3612 -0.5165
 3436SOL     OW21940   2.857   3.229   7.716  0.5060  0.1802 -0.0902
 3436SOL    HW121941   2.817   3.291   7.777 -1.2087 -2.0785  1.0753
 3436SOL    HW221942   2.784   3.205   7.659  0.1458 -1.1761  0.9570
 3437SOL     OW21943   2.709   1.303  10.619  0.3868 -0.6253  0.6503
 3437SOL    HW121944   2.644   1.257  10.565 -0.4538  1.8971 -0.4730
 3437SOL    HW221945   2.782   1.246  10.596  1.2766  1.5530 -1.7768
 3438SOL     OW21946   0.713   4.727  13.781 -0.1900 -0.0902  0.1084
 3438SOL    HW121947   0.758   0.064  13.742 -0.7025  0.6090  0.8530
 3438SOL    HW221948   0.748   4.646  13.744  1.0497  0.5387 -0.1153
 3439SOL     OW21949   1.731   0.046  14.818 -0.1205 -0.2447  0.2390
 3439SOL    HW121950   1.655   4.726  14.807 -2.2492  3.1595 -2.9257
 3439SOL    HW221951   1.799   0.003  14.870 -0.5614 -1.6492 -0.3735
 3440SOL     OW21952   0.225   2.587   9.168  0.5619  0.3936 -0.0068
 3440SOL    HW121953   0.165   2.531   9.218  1.6297 -0.2291  0.5630
 3440SOL    HW221954   0.304   2.534   9.169  0.8109  0.7440 -2.0749
 3441SOL     OW21955   2.639   0.141   2.711  0.4600 -0.4894  0.4019
 3441SOL    HW121956   2.665   0.126   2.802 -0.7683 -0.0718  0.8226
 3441SOL    HW221957   2.711   0.200   2.688  0.6960 -1.3301 -1.0637
 3442SOL     OW21958   1.781   2.455   1.743 -0.0764 -0.3203  0.0606
 3442SOL    HW121959   1.802   2.546   1.765 -3.5589  0.3710  0.4664
 3442SOL    HW221960   1.818   2.459   1.654  0.9899  0.1844  0.5220
 3443SOL     OW21961   1.441   0.172   4.175 -0.0080  0.8850 -0.5569
 3443SOL    HW121962   1.514   0.172   4.113 -0.1831 -1.1841 -0.7604
 3443SOL    HW221963   1.368   0.163   4.114 -0.3795  4.3514 -0.6353
 3444SOL     OW21964   4.016   4.247   3.836  0.5407  0.4089  0.6787
 3444SOL    HW121965   3.961   4.219   3.764  1.4327 -2.5295  1.1188
 3444SOL    HW221966   3.985   4.189   3.906  0.6502 -0.7406 -0.2488
 3445SOL     OW21967   1.163   1.576   5.364 -0.1584 -0.1844  0.4590
 3445SOL    HW121968   1.111   1.589   5.444 -0.7881  1.5083 -0.2353
 3445SOL    HW221969   1.169   1.665   5.332 -2.2872  0.0161  0.5889
 3446SOL     OW21970   0.515   3.022  17.079 -0.4765  0.2462  0.1235
 3446SOL    HW121971   0.595   3.064  17.110 -0.8975  1.4654 -0.4272
 3446SOL    HW221972   0.461   3.097  17.054 -1.3519 -1.2896 -2.6791
 3447SOL     OW21973   1.081   3.960   5.718  0.0236  0.3686 -0.0005
 3447SOL    HW121974   1.049   3.874   5.691 -1.0493  1.2966 -1.6623
 3447SOL    HW221975   1.108   3.931   5.805 -0.3459 -0.3356 -0.1224
 3448SOL     OW21976   3.601   0.435  12.910  0.0990 -0.1614 -0.7167
 3448SOL    HW121977   3.690   0.463  12.927  0.0695  0.1117 -1.0110
 3448SOL    HW221978   3.606   0.340  12.897 -1.3015 -0.1874 -1.1794
 3449SOL     OW21979   0.792   0.034  14.498 -0.1574 -0.5361 -0.5243
 3449SOL    HW121980   0.759   0.064  14.413  1.7116 -0.4832 -1.2307
 3449SOL    HW221981   0.846   4.693  14.488 -0.3653 -1.0389  2.4726
 3450SOL     OW21982   0.216   2.232  13.478  0.0204  0.1471 -0.6362
 3450SOL    HW121983   0.133   2.244  13.432 -0.6250  0.4769  0.6042
 3450SOL    HW221984   0.246   2.322  13.465  0.1856  0.2490  0.4117
 3451SOL     OW21985   3.755   3.652  12.773 -0.5900 -0.4460  0.1843
 3451SOL    HW121986   3.823   3.719  12.767  1.1246 -2.1877  0.0501
 3451SOL    HW221987   3.774   3.608  12.856  0.5386 -1.6767 -0.7247
 3452SOL     OW21988   2.856   3.955   4.578  0.0764 -0.2434  0.5578
 3452SOL    HW121989   2.915   3.891   4.616 -1.2534 -1.6061  0.3445
 3452SOL    HW221990   2.830   4.022   4.642 -1.2284  0.8275 -1.0878
 3453SOL     OW21991   4.223   3.976   5.597 -0.0430 -0.5625 -0.1345
 3453SOL    HW121992   4.221   3.882   5.614  2.7545 -0.3425  1.2972
 3453SOL    HW221993   4.252   4.015   5.679  2.3345 -0.7839 -0.8777
 3454SOL     OW21994   2.876   2.429   3.075  0.6485 -0.2305 -0.4161
 3454SOL    HW121995   2.871   2.387   3.161 -0.8071  0.9771  0.0819
 3454SOL    HW221996   2.804   2.489   3.089  1.7076  0.0008  3.8444
 3455SOL     OW21997   4.072   3.313   3.949 -1.1205 -0.0295 -0.4032
 3455SOL    HW121998   3.982   3.295   3.976 -0.3497 -1.2390  1.3049
 3455SOL    HW221999   4.069   3.408   3.935 -0.5434 -0.1855 -1.5898
 3456SOL     OW22000   3.644   0.461   4.180  0.0004  0.2204 -0.0702
 3456SOL    HW122001   3.606   0.519   4.247 -0.1434 -2.2874  1.9998
 3456SOL    HW222002   3.699   0.520   4.129 -0.3281  0.4515 -0.1633
 3457SOL     OW22003   1.351   3.032   2.510  0.0690 -0.3951 -0.3491
 3457SOL    HW122004   1.280   3.096   2.520  0.4828  0.3866 -2.3437
 3457SOL    HW222005   1.313   2.954   2.551  1.7910 -1.0845 -0.0729
 3458SOL     OW22006   4.263   1.024  10.167  0.3731 -0.0882  0.4048
 3458SOL    HW122007   4.274   0.966  10.243  2.4167 -0.2166  0.0079
 3458SOL    HW222008   4.169   1.039  10.159 -0.0044 -2.6800 -0.0204
 3459SOL     OW22009   1.286   1.375   4.406 -0.9085  0.6978 -0.5059
 3459SOL    HW122010   1.371   1.344   4.372 -1.3825  1.1767 -2.1438
 3459SOL    HW222011   1.301   1.462   4.442 -1.2661  0.4857  0.1541
 3460SOL     OW22012   0.664   0.863   0.017  0.1664  0.1078  0.0597
 3460SOL    HW122013   0.611   0.834   0.092  0.3120 -1.7513 -0.5759
 3460SOL    HW222014   0.687   0.777  17.732  0.0836 -1.1684  3.3004
 3461SOL     OW22015   4.259   4.178  16.796  0.7987 -0.3100 -0.0138
 3461SOL    HW122016   4.251   4.238  16.870 -3.4301 -1.6418  0.6069
 3461SOL    HW222017   4.281   4.097  16.843  1.5632 -0.3832 -0.4978
 3462SOL     OW22018   3.926   1.304   9.986 -0.1227 -0.0639 -0.7600
 3462SOL    HW122019   3.957   1.390  10.014  3.6279 -2.0099  0.9783
 3462SOL    HW222020   3.832   1.319   9.980 -0.1884  0.6361  1.8979
 3463SOL     OW22021   1.000   3.655   4.928  0.3730 -0.0420 -0.0392
 3463SOL    HW122022   0.999   3.645   4.832 -1.1608 -0.2043  0.0069
 3463SOL    HW222023   0.912   3.680   4.954 -0.5385 -0.9901 -2.1975
 3464SOL     OW22024   3.305   4.664   4.120 -0.0859  0.0495 -0.5490
 3464SOL    HW122025   3.393   4.641   4.150 -1.0071 -0.2563  1.9210
 3464SOL    HW222026   3.328   4.679   4.029  0.1853  1.9974 -0.1598
 3465SOL     OW22027   1.843   2.398  10.743  0.4867 -0.5417 -0.0014
 3465SOL    HW122028   1.871   2.455  10.814 -0.0793  0.8457 -0.8786
 3465SOL    HW222029   1.923   2.398  10.691  0.5165  0.0049  0.0491
 3466SOL     OW22030   2.041   2.801   0.717  0.1507 -0.2026  0.0411
 3466SOL    HW122031   2.001   2.853   0.648  0.5083 -0.4049 -0.3207
 3466SOL    HW222032   2.116   2.853   0.745  2.1349 -0.3457 -5.0497
 3467SOL     OW22033   1.971   0.907   2.185  0.5682 -0.3125 -0.0410
 3467SOL    HW122034   2.059   0.873   2.201  0.3260 -0.8497  0.1651
 3467SOL    HW222035   1.977   0.999   2.210  2.1280 -0.4647  0.1270
 3468SOL     OW22036   2.036   0.895  12.134 -0.4132 -0.7208 -0.1639
 3468SOL    HW122037   2.108   0.946  12.171 -1.0448  0.5731 -0.6873
 3468SOL    HW222038   2.077   0.810  12.146  2.3487  0.8475  1.4142
 3469SOL     OW22039   1.045   0.934  10.694  0.0874 -0.4879 -0.3000
 3469SOL    HW122040   1.122   0.928  10.752  0.3102  3.3875 -0.1622
 3469SOL    HW222041   0.985   0.996  10.736 -1.5285 -1.5478 -1.0926
 3470SOL     OW22042   4.582   2.249   8.168  0.3796 -0.3929 -0.9052
 3470SOL    HW122043   4.666   2.279   8.201 -0.9400  3.5666 -1.0735
 3470SOL    HW222044   4.565   2.180   8.232 -0.4736  0.7554  0.1064
 3471SOL     OW22045   4.691   0.654   4.269 -0.4178  0.1697 -0.3389
 3471SOL    HW122046   4.631   0.581   4.281 -0.7824  0.3156 -1.2938
 3471SOL    HW222047   4.689   0.684   4.178 -0.0656 -1.5744 -0.9191
 3472SOL     OW22048   0.486   3.116   7.788  0.3906  0.1677 -0.0331
 3472SOL    HW122049   0.507   3.024   7.801  1.6941  0.0978 -2.5176
 3472SOL    HW222050   0.576   3.147   7.783 -0.0912  1.6015  0.1774
 3473SOL     OW22051   0.728   4.366   1.971  0.2499 -0.0625 -0.1865
 3473SOL    HW122052   0.771   4.412   1.899  0.5631 -0.8716 -0.5125
 3473SOL    HW222053   0.765   4.413   2.045 -1.5164  0.3456  0.4318
 3474SOL     OW22054   1.386   0.111   9.411  0.3974 -0.1755 -0.1374
 3474SOL    HW122055   1.466   0.163   9.403  0.6634  0.1577  4.4609
 3474SOL    HW222056   1.369   0.107   9.317 -1.8478  0.1623  0.2561
 3475SOL     OW22057   4.712   1.042   1.305  0.5081  0.1661 -0.6129
 3475SOL    HW122058   4.679   1.074   1.220  0.1970  2.8030  0.4937
 3475SOL    HW222059   4.685   0.951   1.307  0.0393  0.3028 -0.6900
 3476SOL     OW22060   1.630   0.670  17.455 -0.1572 -0.2388 -0.4664
 3476SOL    HW122061   1.651   0.584  17.492 -2.3593 -0.5647 -0.0216
 3476SOL    HW222062   1.536   0.657  17.442 -0.7395  0.8160  2.7910
 3477SOL     OW22063   2.351   0.971  17.064 -0.0499  0.4599  0.0404
 3477SOL    HW122064   2.381   0.948  16.976  2.7749  3.3312  0.2625
 3477SOL    HW222065   2.262   0.938  17.048  0.9935 -1.7044 -1.2645
 3478SOL     OW22066   2.986   2.882  15.060 -0.5074 -0.1332  0.9222
 3478SOL    HW122067   2.994   2.819  15.131  1.7623  0.9975  1.6681
 3478SOL    HW222068   3.074   2.919  15.069 -0.2039 -1.0505  1.7873
 3479SOL     OW22069   0.449   4.148   6.418 -0.2116 -0.0271 -0.0896
 3479SOL    HW122070   0.434   4.214   6.350 -0.5178 -1.0513 -1.0127
 3479SOL    HW222071   0.448   4.200   6.498  1.1519  1.1097 -0.8103
 3480SOL     OW22072   3.696   1.100  14.839  0.2181 -0.9540 -0.5345
 3480SOL    HW122073   3.694   1.082  14.933  0.3897  0.2654 -0.2987
 3480SOL    HW222074   3.774   1.049  14.816  0.5706 -0.1212 -1.1817
 3481SOL     OW22075   2.938   2.762  11.331 -0.3351 -0.3645 -0.2848
 3481SOL    HW122076   2.905   2.760  11.241  1.1965  2.3936 -0.8783
 3481SOL    HW222077   3.026   2.746  11.298 -0.7679 -0.9406 -1.1557
 3482SOL     OW22078   0.036   4.292   8.973  0.0114  0.4119 -0.1371
 3482SOL    HW122079   4.698   4.270   9.028 -1.2788  2.4721 -1.0592
 3482SOL    HW222080   0.094   4.219   8.993 -1.3768  0.0626  2.5060
 3483SOL     OW22081   3.849   1.694   2.650  0.0586 -0.6039 -0.4709
 3483SOL    HW122082   3.792   1.709   2.574 -1.7433 -1.4192  0.7417
 3483SOL    HW222083   3.876   1.783   2.673 -1.1589 -0.5350  0.6315
 3484SOL     OW22084   2.588   3.133  14.293 -0.4851  0.5093 -0.0197
 3484SOL    HW122085   2.615   3.094  14.376  4.1226  1.6254 -0.9943
 3484SOL    HW222086   2.645   3.209  14.284  0.1871  0.0306  0.2182
 3485SOL     OW22087   0.257   3.319  11.353  0.6911  0.2536  0.1433
 3485SOL    HW122088   0.193   3.390  11.351  1.1961  0.6462 -2.8327
 3485SOL    HW222089   0.196   3.248  11.336  0.6021  0.2855  0.3322
 3486SOL     OW22090   1.398   3.014   4.465 -0.0883 -0.3149 -0.7024
 3486SOL    HW122091   1.379   2.926   4.499  2.0148 -0.3593  0.3770
 3486SOL    HW222092   1.366   3.067   4.538  1.8074 -0.4261  0.2054
 3487SOL     OW22093   0.784   2.671  16.736  0.3084  0.0594  0.3485
 3487SOL    HW122094   0.692   2.697  16.730  0.6529  0.1824 -4.0187
 3487SOL    HW222095   0.821   2.747  16.692 -0.2830 -0.6606 -1.3697
 3488SOL     OW22096   1.438   2.753   3.294 -0.8491  0.1547  0.1353
 3488SOL    HW122097   1.505   2.684   3.295 -0.4568  0.5283 -1.0889
 3488SOL    HW222098   1.381   2.735   3.220  0.4937 -0.4160 -0.7607
 3489SOL     OW22099   1.150   4.128   8.539 -0.3615  0.0022 -0.3757
 3489SOL    HW122100   1.185   4.099   8.623  1.0899  0.4642 -0.8155
 3489SOL    HW222101   1.189   4.065   8.478  1.8195  3.3824 -2.4060
 3490SOL     OW22102   2.455   4.449   8.001  0.1995  0.0889 -0.5914
 3490SOL    HW122103   2.449   4.458   8.096  1.6682 -0.1965 -0.4625
 3490SOL    HW222104   2.512   4.372   7.995  0.2374  0.0532  0.3481
 3491SOL     OW22105   3.832   0.151  15.949  0.1447  0.3788  0.4281
 3491SOL    HW122106   3.750   0.138  15.997 -0.0869 -2.2015 -0.6665
 3491SOL    HW222107   3.811   0.107  15.867  1.3291 -0.1736  0.4156
 3492SOL     OW22108   4.714   0.650   4.629 -0.1084 -0.7072 -0.0757
 3492SOL    HW122109   4.675   0.735   4.610  0.2336 -0.5535 -0.0828
 3492SOL    HW222110   0.068   0.672   4.643 -0.0784 -1.5220  0.9960
 3493SOL     OW22111   3.164   0.606  14.289  0.0967 -0.0554  0.2861
 3493SOL    HW122112   3.205   0.669  14.229  0.7290  1.2370  2.0963
 3493SOL    HW222113   3.198   0.520  14.262 -1.0342 -0.4082 -0.0192
 3494SOL     OW22114   0.263   1.092   3.269  0.4071  0.3554  0.5692
 3494SOL    HW122115   0.337   1.036   3.294 -0.3539 -0.0962  1.7937
 3494SOL    HW222116   0.212   1.102   3.349  0.1978 -0.2376  0.5094
 3495SOL     OW22117   0.344   1.453   9.713  0.2437 -0.0523  0.3890
 3495SOL    HW122118   0.359   1.359   9.725  1.7721  0.3662  1.7213
 3495SOL    HW222119   0.340   1.481   9.804 -0.8853  0.8049  0.0825
 3496SOL     OW22120   3.408   2.377  13.078 -0.3124 -0.0691 -0.6549
 3496SOL    HW122121   3.399   2.297  13.027  0.6552 -1.4004  1.2476
 3496SOL    HW222122   3.383   2.348  13.166 -1.2553 -3.5072 -2.0588
 3497SOL     OW22123   3.641   4.295   7.648  0.1158 -0.0710  0.6929
 3497SOL    HW122124   3.595   4.371   7.613  0.2608  0.0013  0.6618
 3497SOL    HW222125   3.568   4.245   7.685 -0.0280 -0.3326  0.0553
 3498SOL     OW22126   1.661   3.034   3.002  0.1781 -0.1211 -0.1631
 3498SOL    HW122127   1.685   2.959   3.056 -3.0639 -1.3144 -0.4131
 3498SOL    HW222128   1.672   3.102   3.069  0.8807 -0.1265 -0.2736
 3499SOL     OW22129   2.867   2.823  14.504 -0.6505  0.1285  0.0963
 3499SOL    HW122130   2.778   2.789  14.514 -1.2647  1.1036 -2.0070
 3499SOL    HW222131   2.892   2.839  14.595  4.4779 -0.0080 -1.2630
 3500SOL     OW22132   4.057   3.625   1.793  0.2174  0.5225 -0.0559
 3500SOL    HW122133   3.992   3.652   1.857 -0.1011 -1.5155  0.4926
 3500SOL    HW222134   4.062   3.707   1.744  1.6160  0.6255  0.2622
 3501SOL     OW22135   0.340   4.316   4.960 -0.4324  0.0188 -0.8234
 3501SOL    HW122136   0.312   4.406   4.941  0.3154  0.6589  1.1266
 3501SOL    HW222137   0.430   4.322   4.927 -0.8881 -1.0395 -2.2720
 3502SOL     OW22138   0.054   2.183   3.294 -0.1455  0.4245  0.1026
 3502SOL    HW122139   4.717   2.128   3.268 -0.2165 -0.0173  1.2677
 3502SOL    HW222140   0.086   2.121   3.359  0.9348  0.3731 -0.4832
 3503SOL     OW22141   3.813   0.250   4.332  0.5551  0.0665 -0.4431
 3503SOL    HW122142   3.754   0.315   4.294  2.7020  2.2256 -0.0861
 3503SOL    HW222143   3.894   0.299   4.343  0.3217  0.4263 -0.3223
 3504SOL     OW22144   4.464   4.002   5.266 -0.2700 -0.3326  0.0252
 3504SOL    HW122145   4.517   4.054   5.327  0.1634  0.4544 -1.0286
 3504SOL    HW222146   4.524   3.934   5.237  1.6253  0.8852  1.0085
 3505SOL     OW22147   3.743   3.410  16.220 -0.6527 -0.1196  0.6166
 3505SOL    HW122148   3.708   3.499  16.232 -1.2785 -0.0852 -1.4629
 3505SOL    HW222149   3.692   3.363  16.286 -1.5931  0.5772  0.3849
 3506SOL     OW22150   2.772   4.487   4.735  0.0514  0.2133 -0.2219
 3506SOL    HW122151   2.718   4.449   4.666 -0.1750 -2.9902  1.6937
 3506SOL    HW222152   2.711   4.487   4.809 -1.0807  1.0349 -1.1766
 3507SOL     OW22153   3.115   3.703   9.393  0.5913 -0.4303 -0.1859
 3507SOL    HW122154   3.164   3.760   9.452  0.2567 -0.3593  0.0230
 3507SOL    HW222155   3.048   3.767   9.369 -0.0687 -2.1265 -2.9360
 3508SOL     OW22156   2.910   4.082   3.524  0.5115 -0.2273 -0.6740
 3508SOL    HW122157   2.919   4.052   3.614  1.0932 -0.4557 -0.8071
 3508SOL    HW222158   2.901   3.996   3.482  1.4783 -1.1652  1.0246
 3509SOL     OW22159   3.771   0.745   4.997  0.9583  0.4170 -0.3822
 3509SOL    HW122160   3.707   0.809   4.967  0.3567  0.3629  0.8058
 3509SOL    HW222161   3.822   0.741   4.916  0.8643  0.2783 -0.4340
 3510SOL     OW22162   3.780   4.512   6.960 -0.1233 -0.2395 -0.5621
 3510SOL    HW122163   3.798   4.419   6.973 -0.4060 -0.1161  0.7017
 3510SOL    HW222164   3.815   4.546   7.042 -0.9604  2.2454 -1.2393
 3511SOL     OW22165   1.178   2.484   7.880 -0.1064 -0.2850 -0.1454
 3511SOL    HW122166   1.135   2.538   7.814  1.0513 -1.0031 -1.4652
 3511SOL    HW222167   1.102   2.451   7.928 -1.8173 -0.1165 -2.7304
 3512SOL     OW22168   4.337   1.819  14.703 -0.7832 -0.0537 -0.8057
 3512SOL    HW122169   4.355   1.823  14.609 -1.5624  1.1772 -0.9021
 3512SOL    HW222170   4.252   1.777  14.710 -1.1942  1.3120  2.2752
 3513SOL     OW22171   1.939   1.048   4.859 -0.4956 -0.4584  0.1100
 3513SOL    HW122172   1.864   1.073   4.913  0.7559 -1.4109  2.2917
 3513SOL    HW222173   2.017   1.061   4.913  0.6778 -2.0874 -1.1968
 3514SOL     OW22174   0.872   0.256   2.328 -0.3536  0.5539  0.4099
 3514SOL    HW122175   0.782   0.285   2.346  0.0337  1.8534  0.2760
 3514SOL    HW222176   0.930   0.331   2.345 -0.7053  0.9569 -0.1553
 3515SOL     OW22177   2.771   3.874   8.038 -0.0717  0.6997  0.7703
 3515SOL    HW122178   2.702   3.808   8.037  1.3306 -0.7423  0.8539
 3515SOL    HW222179   2.725   3.938   8.092  0.4152 -0.2672  2.3098
 3516SOL     OW22180   2.692   4.179   1.706  0.5213 -0.1073  0.2825
 3516SOL    HW122181   2.669   4.108   1.646 -1.8011  1.9344 -1.2457
 3516SOL    HW222182   2.658   4.249   1.651  2.0552 -1.2966 -2.1554
 3517SOL     OW22183   0.050   0.818  11.835 -0.2486 -0.4217  0.1197
 3517SOL    HW122184   0.127   0.833  11.889 -1.1125  0.3344  1.1247
 3517SOL    HW222185   0.032   0.909  11.810 -2.5226 -0.8752  0.0585
 3518SOL     OW22186   4.471   0.520   0.210  0.1541  0.1391 -0.7990
 3518SOL    HW122187   4.553   0.503   0.257 -0.4425  1.5647  0.7333
 3518SOL    HW222188   4.496   0.489   0.123 -1.5013  2.1092 -1.9681
 3519SOL     OW22189   2.687   4.614   1.021  0.5347 -1.0343 -0.3276
 3519SOL    HW122190   2.622   4.614   1.091  0.1140 -2.9496 -0.6996
 3519SOL    HW222191   2.629   4.631   0.947  0.0940 -1.4121 -0.0643
 3520SOL     OW22192   3.938   3.277   1.998 -0.2543 -0.2763 -0.0331
 3520SOL    HW122193   3.881   3.334   1.947  0.1268  1.1532  1.1481
 3520SOL    HW222194   3.977   3.222   1.929  1.7777  1.0754  0.0264
 3521SOL     OW22195   2.916   1.678   4.315  0.4948  0.3853 -0.0550
 3521SOL    HW122196   2.941   1.736   4.388  0.8950 -1.0716  0.9670
 3521SOL    HW222197   2.996   1.651   4.271 -0.0059 -0.3595 -0.4932
 3522SOL     OW22198   0.774   1.933   5.231  0.7221  0.3490  0.3762
 3522SOL    HW122199   0.804   2.021   5.211  0.4935  0.6808  1.5172
 3522SOL    HW222200   0.817   1.898   5.309  1.2732 -0.0717 -0.1061
 3523SOL     OW22201   2.267   4.569   4.195  0.0457  0.4357  0.0885
 3523SOL    HW122202   2.210   4.507   4.240  0.0275 -1.6477 -2.8505
 3523SOL    HW222203   2.297   4.624   4.268 -1.6903  1.0127  0.3533
 3524SOL     OW22204   2.052   2.172   4.561  0.5311 -0.2570 -0.2488
 3524SOL    HW122205   2.142   2.168   4.591  0.3748 -1.9002 -0.0226
 3524SOL    HW222206   2.039   2.096   4.503  0.2096 -0.4828  0.1207
 3525SOL     OW22207   4.480   4.063   4.960  0.2229 -0.5117  0.2290
 3525SOL    HW122208   4.544   4.092   5.024  0.4957  0.8483 -0.6632
 3525SOL    HW222209   4.521   4.092   4.878 -0.0937 -1.7210 -0.3608
 3526SOL     OW22210   3.024   2.368  13.669  0.0139 -0.0911  0.0224
 3526SOL    HW122211   2.957   2.300  13.656  0.6597 -0.4895 -1.2557
 3526SOL    HW222212   3.067   2.336  13.748 -1.3466 -0.6667  0.5303
 3527SOL     OW22213   1.898   3.779   6.904 -0.1676 -0.1276  0.5568
 3527SOL    HW122214   1.976   3.802   6.953 -0.7010 -1.6090  2.1082
 3527SOL    HW222215   1.938   3.796   6.819  0.3311 -1.8725  0.4421
 3528SOL     OW22216   1.964   1.989  13.075  0.5292 -0.3273 -0.0953
 3528SOL    HW122217   1.908   2.020  13.004 -1.4472  0.3169  1.7877
 3528SOL    HW222218   2.038   2.049  13.066  1.0550 -1.0896 -0.9027
 3529SOL     OW22219   1.234   1.132   8.857  0.0035  0.6827  0.1340
 3529SOL    HW122220   1.255   1.222   8.882 -2.5057  1.8419 -1.9014
 3529SOL    HW222221   1.262   1.125   8.765  1.6945  1.0800  0.6121
 3530SOL     OW22222   0.112   3.603   6.219 -0.3836  0.4430  0.0140
 3530SOL    HW122223   0.019   3.597   6.241 -0.3218 -0.7944 -0.0737
 3530SOL    HW222224   0.121   3.684   6.270  0.5306  1.1635 -1.2804
 3531SOL     OW22225   4.062   3.630  13.399 -0.3405 -0.2016 -0.6184
 3531SOL    HW122226   4.040   3.720  13.374 -0.8124  0.0944  0.8958
 3531SOL    HW222227   4.115   3.637  13.478 -2.2665 -0.5089  0.7018
 3532SOL     OW22228   1.384   1.009   5.828  0.0399  0.1834 -0.1165
 3532SOL    HW122229   1.469   0.994   5.869  0.3021  0.7554 -0.4432
 3532SOL    HW222230   1.371   1.097   5.866 -0.1137  0.9356 -1.9163
 3533SOL     OW22231   2.583   3.735  10.475 -0.5027 -0.3561  0.5181
 3533SOL    HW122232   2.540   3.693  10.550  1.0379  1.0431  2.1832
 3533SOL    HW222233   2.676   3.718  10.487 -0.3493  1.3310  1.6962
 3534SOL     OW22234   1.416   0.167   0.238 -0.7538  0.3263 -0.4929
 3534SOL    HW122235   1.477   0.229   0.279  0.6567 -1.6910  0.4368
 3534SOL    HW222236   1.477   0.104   0.199 -1.8851 -0.5753 -0.7877
 3535SOL     OW22237   4.464   1.212   7.348  0.2184  0.3439 -0.1908
 3535SOL    HW122238   4.429   1.123   7.356  1.2494 -0.2243 -1.9586
 3535SOL    HW222239   4.555   1.182   7.339  0.3281  0.3618  0.8392
 3536SOL     OW22240   2.513   1.869   1.653 -1.0679 -0.6137 -0.1706
 3536SOL    HW122241   2.486   1.946   1.704 -0.8502  0.1020 -1.1502
 3536SOL    HW222242   2.607   1.881   1.665 -1.0076 -4.2102  2.7940
 3537SOL     OW22243   1.249   3.057   5.879 -0.2211 -0.3822 -0.1065
 3537SOL    HW122244   1.204   3.004   5.813  1.9767 -2.1194 -0.2209
 3537SOL    HW222245   1.292   3.129   5.832 -1.5486  0.6622  0.2900
 3538SOL     OW22246   2.783   1.882   2.380  0.6422 -0.0141 -0.1578
 3538SOL    HW122247   2.799   1.976   2.368 -1.5787  0.5515  1.2268
 3538SOL    HW222248   2.862   1.860   2.429  0.0485 -3.9206 -0.9602
 3539SOL     OW22249   4.547   2.878   2.514 -0.1211  0.2229 -0.1254
 3539SOL    HW122250   4.621   2.889   2.574 -1.2977  1.0633  1.1539
 3539SOL    HW222251   4.487   2.818   2.558  1.1712 -0.5496  0.5838
 3540SOL     OW22252   3.891   4.150   3.628  0.0791  0.3169  0.3797
 3540SOL    HW122253   3.865   4.160   3.537 -0.9880 -1.3543  0.4949
 3540SOL    HW222254   3.811   4.112   3.666  1.5703 -2.2971  0.9248
 3541SOL     OW22255   3.880   4.242   4.165  0.0250 -0.5495 -0.5973
 3541SOL    HW122256   3.856   4.152   4.183  2.0289 -0.8170  0.7866
 3541SOL    HW222257   3.947   4.255   4.233 -2.8825 -2.2833  2.5928
 3542SOL     OW22258   3.456   2.535   5.287  0.4041 -0.1307 -0.5497
 3542SOL    HW122259   3.521   2.579   5.341 -0.5497  2.1587 -1.2432
 3542SOL    HW222260   3.435   2.461   5.344 -0.4913 -0.4581 -1.2911
 3543SOL     OW22261   2.129   1.597   6.387  0.0724  0.2276  0.3598
 3543SOL    HW122262   2.063   1.574   6.322 -0.6551  0.3548  1.0587
 3543SOL    HW222263   2.083   1.670   6.427  0.4440  0.6131  0.0897
 3544SOL     OW22264   2.561   2.505   9.911  0.2999 -0.0258  0.2975
 3544SOL    HW122265   2.605   2.494   9.995 -2.0376 -0.5919  1.4493
 3544SOL    HW222266   2.567   2.416   9.877 -1.8260  0.3903 -1.2151
 3545SOL     OW22267   0.321   4.355   4.564 -0.4568  0.4526 -0.1448
 3545SOL    HW122268   0.273   4.275   4.583 -0.7569  0.7212  0.2195
 3545SOL    HW222269   0.271   4.386   4.488 -2.4439 -1.1425  0.5204
 3546SOL     OW22270   3.693   3.946  16.193  0.2767  0.2850 -0.5641
 3546SOL    HW122271   3.746   4.018  16.226 -0.1967  0.7124 -0.7405
 3546SOL    HW222272   3.617   3.963  16.250  2.3429 -0.4463  2.4223
 3547SOL     OW22273   4.439   2.769   9.556  0.6959  0.4560 -0.1099
 3547SOL    HW122274   4.462   2.853   9.597 -0.9160  1.3645 -1.0731
 3547SOL    HW222275   4.473   2.777   9.466  0.8650  1.5556  0.0483
 3548SOL     OW22276   0.352   1.687   3.368 -0.1591  0.6919  0.4362
 3548SOL    HW122277   0.277   1.745   3.357  0.8096  1.7671 -0.4291
 3548SOL    HW222278   0.412   1.740   3.420  1.9609  0.0440 -1.3854
 3549SOL     OW22279   1.069   0.943  15.178  0.0582 -0.3986 -0.2298
 3549SOL    HW122280   1.059   0.955  15.084 -1.8675  0.6966  0.1020
 3549SOL    HW222281   1.083   0.849  15.183 -1.2108 -0.4950  1.4327
 3550SOL     OW22282   1.175   4.733   5.590 -0.0672 -0.6182 -0.5584
 3550SOL    HW122283   1.106   0.035   5.537 -0.4142 -1.0163 -0.4049
 3550SOL    HW222284   1.179   0.042   5.674  1.0641  0.1150 -1.0203
 3551SOL     OW22285   0.340   3.594   9.295 -0.0258 -0.1640 -0.3121
 3551SOL    HW122286   0.287   3.529   9.249 -1.3234 -0.1846  1.2208
 3551SOL    HW222287   0.432   3.578   9.277  0.2631  2.6881 -1.3839
 3552SOL     OW22288   0.755   4.683  15.316 -0.5005 -0.0142 -0.2165
 3552SOL    HW122289   0.686   0.012  15.313 -0.8792 -0.5619 -3.1702
 3552SOL    HW222290   0.829   4.732  15.280 -2.4238  2.5695 -0.6565
 3553SOL     OW22291   3.486   1.953   8.755  0.6249 -0.1236  0.0115
 3553SOL    HW122292   3.501   1.859   8.756  0.2373 -0.1702  3.0321
 3553SOL    HW222293   3.466   1.962   8.848 -0.5921  0.2400 -0.2926
 3554SOL     OW22294   2.862   3.239   7.357  0.5324  0.0532 -0.3259
 3554SOL    HW122295   2.864   3.176   7.286 -1.0073 -0.2988 -0.0508
 3554SOL    HW222296   2.881   3.323   7.315 -0.8110 -1.3817 -3.7547
 3555SOL     OW22297   2.985   4.203  10.717  0.3811 -0.5322  1.0424
 3555SOL    HW122298   2.936   4.281  10.690 -1.3061 -0.9319  2.9838
 3555SOL    HW222299   3.051   4.197  10.647 -0.1581  1.0351  0.3920
 3556SOL     OW22300   0.512   1.958   7.542 -0.3336  0.0038  0.0267
 3556SOL    HW122301   0.566   1.879   7.555 -2.3610 -1.2539  0.7578
 3556SOL    HW222302   0.550   2.009   7.614 -1.1829  0.9867 -0.2301
 3557SOL     OW22303   3.995   1.531   0.280 -0.4556  0.3716  0.2710
 3557SOL    HW122304   3.993   1.563   0.190  1.2008  2.0350  0.8201
 3557SOL    HW222305   3.967   1.441   0.267  1.2427 -0.0100 -0.7586
 3558SOL     OW22306   4.273   3.208   5.042  0.4121 -0.5357  0.2699
 3558SOL    HW122307   4.293   3.163   5.124  1.4196 -1.8060 -0.6814
 3558SOL    HW222308   4.223   3.139   4.998  0.9392 -1.1892  0.6993
 3559SOL     OW22309   1.074   2.170   5.141  0.3965 -0.6730 -0.3739
 3559SOL    HW122310   1.084   2.174   5.236 -0.6412 -1.9533 -0.1980
 3559SOL    HW222311   1.054   2.256   5.104  1.2323 -0.0781  0.5991
 3560SOL     OW22312   4.562   4.136   2.132  0.0829 -0.1483  0.0916
 3560SOL    HW122313   4.485   4.096   2.091  0.7420 -0.2102 -1.0940
 3560SOL    HW222314   4.578   4.069   2.198 -1.8934 -1.9556 -1.2370
 3561SOL     OW22315   4.499   0.894  16.255 -0.0258 -0.2006 -0.6089
 3561SOL    HW122316   4.527   0.911  16.345 -1.3846 -1.4270  0.0443
 3561SOL    HW222317   4.515   0.980  16.218  1.1943 -0.5705 -0.9522
 3562SOL     OW22318   2.774   3.927  11.677  0.0419  0.3105 -0.1656
 3562SOL    HW122319   2.867   3.932  11.699 -0.6937  0.0917  3.0909
 3562SOL    HW222320   2.779   3.937  11.582  0.2357  1.7987 -0.0109
 3563SOL     OW22321   1.918   3.138   6.502 -0.3873 -0.9022  0.5543
 3563SOL    HW122322   1.951   3.227   6.490 -1.1610 -0.8292 -0.9340
 3563SOL    HW222323   2.002   3.093   6.508  0.2246  0.2232  0.5253
 3564SOL     OW22324   0.055   1.260   9.597 -0.1152  0.4597  0.1430
 3564SOL    HW122325   4.720   1.202   9.574  1.1575 -0.9893 -0.1730
 3564SOL    HW222326   0.132   1.204   9.589 -1.1535 -0.6010 -2.3330
 3565SOL     OW22327   0.605   1.282   0.916  0.3787 -0.6127 -0.6047
 3565SOL    HW122328   0.539   1.232   0.965  1.2489 -2.6513 -1.4945
 3565SOL    HW222329   0.608   1.366   0.961 -0.5224 -1.4347  0.9773
 3566SOL     OW22330   4.451   1.093  14.206 -0.3207 -0.1542  0.0606
 3566SOL    HW122331   4.426   1.161  14.270 -1.2325 -0.8303  0.4337
 3566SOL    HW222332   4.366   1.062  14.175 -1.1194  0.5621  1.5203
 3567SOL     OW22333   4.521   0.340  11.417  0.3154 -0.2054 -0.6763
 3567SOL    HW122334   4.559   0.273  11.474 -1.3246 -1.1115 -0.6550
 3567SOL    HW222335   4.434   0.304  11.398  0.2620  0.9218 -2.5472
 3568SOL     OW22336   0.876   0.061   7.012 -0.0185  0.0362  0.1449
 3568SOL    HW122337   0.801   0.120   7.003  1.1018  1.7047  1.8006
 3568SOL    HW222338   0.946   0.126   7.005 -0.0029  0.0860  0.7662
 3569SOL     OW22339   2.810   3.558   1.790 -0.2037 -0.2290 -0.4960
 3569SOL    HW122340   2.725   3.600   1.787  0.1038  0.6062  3.7694
 3569SOL    HW222341   2.774   3.476   1.756 -0.2238 -0.8396  1.0137
 3570SOL     OW22342   1.253   4.053  16.112 -0.3533 -0.1518 -0.4028
 3570SOL    HW122343   1.244   4.122  16.177  2.7389  0.7721 -0.9380
 3570SOL    HW222344   1.242   4.101  16.030  1.6626  1.7718  0.4496
 3571SOL     OW22345   2.689   4.369   1.917  0.0326  0.3151 -0.2110
 3571SOL    HW122346   2.778   4.396   1.897 -0.4439 -0.3285 -3.2276
 3571SOL    HW222347   2.684   4.307   1.844  0.8005  1.2467 -1.0550
 3572SOL     OW22348   3.577   1.836   4.260  0.0695 -0.1994  0.4673
 3572SOL    HW122349   3.618   1.772   4.201  0.3163 -0.8697  1.3707
 3572SOL    HW222350   3.544   1.772   4.323 -0.7788 -0.8396 -0.6309
 3573SOL     OW22351   0.742   1.971   3.012 -0.8060  0.2112 -0.3086
 3573SOL    HW122352   0.713   2.013   3.093  1.5532  3.1166 -0.9999
 3573SOL    HW222353   0.796   1.908   3.061  2.9322  2.2446 -1.8116
 3574SOL     OW22354   0.768   0.326   6.220 -0.2188  0.3654  0.2084
 3574SOL    HW122355   0.677   0.356   6.219 -0.7152 -1.1450  0.1952
 3574SOL    HW222356   0.790   0.321   6.313  0.6569  1.7634  0.0811
 3575SOL     OW22357   2.320   1.719   6.590  0.1713 -0.1845 -0.3473
 3575SOL    HW122358   2.403   1.674   6.574  0.8436  1.4591 -1.4551
 3575SOL    HW222359   2.266   1.666   6.531  0.1284  0.5288 -0.9453
 3576SOL     OW22360   1.276   0.167   9.127  0.1871 -0.6830  0.0497
 3576SOL    HW122361   1.216   0.093   9.138 -3.1734  2.1174  0.4902
 3576SOL    HW222362   1.245   0.198   9.042  2.4511  0.7727 -0.2611
 3577SOL     OW22363   2.864   1.353   5.304 -0.0118  1.0129 -0.1366
 3577SOL    HW122364   2.848   1.349   5.210  1.0208  0.1611 -0.2812
 3577SOL    HW222365   2.890   1.443   5.323 -0.9071  1.1415  0.4783
 3578SOL     OW22366   4.444   2.838  11.304 -0.2363 -0.1649 -0.4733
 3578SOL    HW122367   4.480   2.844  11.216 -1.1960  1.7724 -0.7440
 3578SOL    HW222368   4.358   2.877  11.287  0.1392  1.3616  1.1684
 3579SOL     OW22369   1.774   2.882   7.435 -0.8693 -0.2201 -0.5623
 3579SOL    HW122370   1.706   2.931   7.482  1.1650  3.0521 -1.0272
 3579SOL    HW222371   1.850   2.902   7.490 -1.8149 -0.4329  0.8156
 3580SOL     OW22372   0.530   4.681   5.124 -0.1332 -0.4375  0.1212
 3580SOL    HW122373   0.449   4.728   5.146  0.2862  1.2147 -1.8910
 3580SOL    HW222374   0.518   4.595   5.164 -0.5225 -0.5849 -0.3071
 3581SOL     OW22375   2.658   1.302  13.678 -0.0594  0.8443  0.0309
 3581SOL    HW122376   2.587   1.239  13.686 -0.1977  0.8257 -1.3074
 3581SOL    HW222377   2.710   1.271  13.604 -0.2668 -1.0363  0.6912
 3582SOL     OW22378   2.271   4.138   7.733 -0.7676 -0.3471  0.1030
 3582SOL    HW122379   2.219   4.060   7.754  0.2693 -1.2838 -0.8087
 3582SOL    HW222380   2.315   4.103   7.656  1.2466  2.5940 -0.0509
 3583SOL     OW22381   4.051   2.834  11.482 -0.4743  0.4496  0.7081
 3583SOL    HW122382   4.071   2.798  11.396 -0.0803 -0.0146  0.9983
 3583SOL    HW222383   4.123   2.800  11.535  1.9307  1.9858 -1.5195
 3584SOL     OW22384   1.768   3.022   7.151 -0.1217  0.1473  0.5614
 3584SOL    HW122385   1.689   3.034   7.098 -0.0419 -0.9251  0.1991
 3584SOL    HW222386   1.829   2.985   7.088  1.9517  2.6993  1.0732
 3585SOL     OW22387   1.310   1.866   9.286 -0.0823  0.2111  0.3641
 3585SOL    HW122388   1.309   1.806   9.212 -0.5665  2.4606 -1.4393
 3585SOL    HW222389   1.401   1.866   9.317 -0.1496  0.5824  0.5710
 3586SOL     OW22390   0.489   1.907   5.330 -0.2754  0.4394  0.2090
 3586SOL    HW122391   0.471   1.881   5.421 -1.0530 -3.4162 -1.0741
 3586SOL    HW222392   0.584   1.916   5.333 -0.3828  1.7070 -0.3049
 3587SOL     OW22393   3.149   3.827  14.561  0.1217 -0.5580  0.2728
 3587SOL    HW122394   3.186   3.828  14.473  1.4118 -0.9874  0.8088
 3587SOL    HW222395   3.076   3.765  14.559  0.2294 -0.6673 -0.1668
 3588SOL     OW22396   3.201   2.687   5.184 -0.5289  0.5410 -0.0761
 3588SOL    HW122397   3.238   2.762   5.231  1.7066  1.2629 -2.9195
 3588SOL    HW222398   3.280   2.637   5.203  0.5217  2.4953  0.7303
 3589SOL     OW22399   2.546   1.867   3.995 -0.4889 -0.3383  0.2585
 3589SOL    HW122400   2.634   1.845   3.965  0.4387  3.3607  0.2412
 3589SOL    HW222401   2.519   1.928   3.926  1.0464  0.7682  0.6353
 3590SOL     OW22402   4.536   3.226   0.803 -0.0288  0.5458  0.2483
 3590SOL    HW122403   4.563   3.219   0.711 -0.5862 -1.1623  0.2207
 3590SOL    HW222404   4.456   3.174   0.799  0.5824 -0.3112 -0.9367
 3591SOL     OW22405   2.254   1.917   3.014 -0.2980  0.3089 -0.2766
 3591SOL    HW122406   2.347   1.897   3.019 -0.3571 -0.0510 -0.6097
 3591SOL    HW222407   2.237   1.903   2.921  0.1776 -2.8723  0.1303
 3592SOL     OW22408   2.139   3.916   1.481  0.2029 -0.5839  0.3179
 3592SOL    HW122409   2.074   3.982   1.456 -0.4803 -1.0637  0.8063
 3592SOL    HW222410   2.129   3.911   1.576  0.6447  1.6596  0.4638
 3593SOL     OW22411   0.465   0.253   6.143 -0.6650 -0.0299  0.3171
 3593SOL    HW122412   0.392   0.243   6.205 -1.1129 -0.2261 -0.2411
 3593SOL    HW222413   0.486   0.163   6.121 -1.9080 -0.4987  1.0626
 3594SOL     OW22414   3.813   1.353  11.765 -0.0112  0.1363  0.7140
 3594SOL    HW122415   3.785   1.313  11.848 -1.3988 -0.1375  0.0993
 3594SOL    HW222416   3.868   1.425  11.795  1.1409  0.9099 -3.2767
 3595SOL     OW22417   4.703   3.923   6.716  0.0897  0.9596  0.0553
 3595SOL    HW122418   4.658   4.002   6.746 -1.7859 -1.1746  2.9289
 3595SOL    HW222419   0.051   3.964   6.701  0.1246  0.1914 -1.7905
 3596SOL     OW22420   2.302   1.538   2.877 -0.8203 -0.1402  0.6528
 3596SOL    HW122421   2.357   1.546   2.955 -0.2731 -1.0178  0.3612
 3596SOL    HW222422   2.324   1.624   2.841 -0.4093  0.0754  1.4138
 3597SOL     OW22423   2.564   1.732  16.995 -0.0497 -0.5910  0.2450
 3597SOL    HW122424   2.470   1.733  17.008  0.0176  0.1209  0.6744
 3597SOL    HW222425   2.585   1.668  16.927  0.8322 -0.7758  0.6893
 3598SOL     OW22426   1.790   0.795  12.033 -0.2109 -0.2339  0.1194
 3598SOL    HW122427   1.810   0.775  11.941 -1.1795 -0.0149 -0.1354
 3598SOL    HW222428   1.872   0.829  12.068  0.3167 -2.3553  0.9638
 3599SOL     OW22429   2.666   4.208   2.698  0.0320  0.2001  0.0470
 3599SOL    HW122430   2.727   4.214   2.771  0.2179 -1.1875  0.0132
 3599SOL    HW222431   2.727   4.212   2.624  1.6258 -0.9285  1.3082
 3600SOL     OW22432   2.824   0.604   6.514 -0.8552 -0.2135 -0.3611
 3600SOL    HW122433   2.740   0.589   6.556  0.3553 -1.0178  1.7888
 3600SOL    HW222434   2.842   0.688   6.557  1.1551 -0.7951 -0.0427
 3601SOL     OW22435   4.519   0.935   6.457 -0.0254  0.3404  0.3359
 3601SOL    HW122436   4.458   0.862   6.446 -0.9166  1.0189  0.8495
 3601SOL    HW222437   4.467   1.011   6.432  1.5978  1.0706 -0.8611
 3602SOL     OW22438   4.733   3.425  14.598  0.6101 -0.1584  0.1559
 3602SOL    HW122439   0.088   3.443  14.618  0.6449 -1.7436  1.4843
 3602SOL    HW222440   4.688   3.476  14.666  2.5481  0.4186  1.0028
 3603SOL     OW22441   0.885   0.932   9.356  0.1258  0.3747 -0.3868
 3603SOL    HW122442   0.922   0.865   9.414  0.2583  2.7482  2.2419
 3603SOL    HW222443   0.884   0.883   9.273  1.2979  0.3107 -0.3742
 3604SOL     OW22444   2.257   4.518   8.496  0.0672  0.0464  0.5140
 3604SOL    HW122445   2.230   4.474   8.415  0.8915  1.1037 -0.3521
 3604SOL    HW222446   2.225   4.459   8.564  2.4587 -2.0220 -0.1136
 3605SOL     OW22447   1.533   0.613   8.898 -0.1709  0.7294  0.3445
 3605SOL    HW122448   1.598   0.580   8.961 -0.4307 -1.2187 -0.4364
 3605SOL    HW222449   1.478   0.669   8.953 -1.0523 -0.1990  0.4132
 3606SOL     OW22450   2.035   4.164   6.363  0.5007  0.5022 -0.6959
 3606SOL    HW122451   1.978   4.114   6.304 -0.3471 -0.1571  0.6752
 3606SOL    HW222452   2.014   4.251   6.329  0.2219  0.0304 -1.7552
 3607SOL     OW22453   1.485   1.216  17.298 -0.1809  0.1863  0.3929
 3607SOL    HW122454   1.394   1.215  17.328 -0.3963  2.1781 -0.1723
 3607SOL    HW222455   1.482   1.153  17.226 -0.3163  0.8189 -0.1562
 3608SOL     OW22456   1.679   1.024   6.445  0.4844 -0.5510  0.7463
 3608SOL    HW122457   1.628   1.043   6.524  0.7737 -0.1993  0.8492
 3608SOL    HW222458   1.599   1.022   6.393  1.6842  1.5251 -1.1794
 3609SOL     OW22459   4.080   2.634   5.283  0.5759  0.2372  0.0332
 3609SOL    HW122460   4.033   2.684   5.216 -1.2291 -1.3400  0.1127
 3609SOL    HW222461   4.046   2.681   5.359  0.7281 -0.5668  0.6005
 3610SOL     OW22462   1.533   0.549   1.529 -0.0816 -0.4929  0.1476
 3610SOL    HW122463   1.540   0.611   1.457  1.7079 -2.3572 -1.2909
 3610SOL    HW222464   1.452   0.501   1.513 -0.0851  0.5500 -3.0065
 3611SOL     OW22465   0.423   3.267  11.078 -0.1389  0.4986  0.4984
 3611SOL    HW122466   0.353   3.321  11.040 -1.1143 -0.3370  1.1075
 3611SOL    HW222467   0.393   3.268  11.169  0.0835  0.6184  0.5690
 3612SOL     OW22468   0.358   2.284   6.841 -0.5861  0.2633  0.5372
 3612SOL    HW122469   0.377   2.356   6.900 -0.8967  0.0045  0.9493
 3612SOL    HW222470   0.291   2.240   6.892 -1.7395 -0.9189 -1.9747
 3613SOL     OW22471   2.354   3.226   4.974 -0.0394 -0.3645 -0.2177
 3613SOL    HW122472   2.409   3.158   5.014  1.8135  0.7063 -0.9893
 3613SOL    HW222473   2.332   3.182   4.892  1.0187 -0.1508 -0.6125
 3614SOL     OW22474   2.625   0.794  14.233  0.1314 -0.0084 -0.2447
 3614SOL    HW122475   2.598   0.854  14.163  2.2420  2.4647  1.0212
 3614SOL    HW222476   2.713   0.777  14.198  0.4046  0.5008  0.1857
 3615SOL     OW22477   3.676   4.120   2.948  0.2221  0.3237  0.7055
 3615SOL    HW122478   3.719   4.035   2.958  0.0416  0.4893  2.8954
 3615SOL    HW222479   3.712   4.137   2.861 -0.7892  2.0198  0.6323
 3616SOL     OW22480   4.407   1.818  14.450 -0.1758  0.7340  0.1622
 3616SOL    HW122481   4.394   1.746  14.388  2.4917 -1.6839  2.3637
 3616SOL    HW222482   4.412   1.901  14.403 -1.9540  0.9714  0.4123
 3617SOL     OW22483   0.257   4.104   1.222 -0.1408 -0.1785  0.0787
 3617SOL    HW122484   0.169   4.074   1.246 -0.3762  2.5947  2.8238
 3617SOL    HW222485   0.264   4.176   1.285  0.1824 -1.7335  1.8182
 3618SOL     OW22486   2.181   2.357   3.703  0.1803  0.3122 -0.2354
 3618SOL    HW122487   2.100   2.360   3.753  0.0841 -3.1765 -0.2101
 3618SOL    HW222488   2.170   2.430   3.641  1.7983  0.3146 -0.5315
 3619SOL     OW22489   1.543   4.475   3.493 -0.1323 -0.2497  1.0863
 3619SOL    HW122490   1.596   4.398   3.472  1.9437  0.6776  2.9991
 3619SOL    HW222491   1.612   4.539   3.509 -1.9422  1.2736  2.7432
 3620SOL     OW22492   4.146   1.944  16.502  0.3739  0.0352  0.3502
 3620SOL    HW122493   4.132   1.883  16.429  1.3697  0.0887  0.1177
 3620SOL    HW222494   4.226   1.909  16.542  0.2191  1.7384  2.0880
 3621SOL     OW22495   0.543   0.615   9.964 -0.3572 -0.3010 -0.2335
 3621SOL    HW122496   0.476   0.670  10.005 -0.9632 -1.3902  0.2235
 3621SOL    HW222497   0.620   0.673   9.965  0.1407 -0.9357 -1.0591
 3622SOL     OW22498   2.459   4.492  15.053 -0.1697  0.6343 -0.2457
 3622SOL    HW122499   2.402   4.435  15.105  0.6665  1.1641  1.2631
 3622SOL    HW222500   2.461   4.572  15.106 -0.1452  1.6131 -1.7089
 3623SOL     OW22501   3.909   3.703   5.710 -0.3388 -0.4680  0.4412
 3623SOL    HW122502   4.005   3.700   5.717 -0.2205 -0.2687 -1.0432
 3623SOL    HW222503   3.901   3.798   5.718 -1.0098 -0.6684  2.0352
 3624SOL     OW22504   0.000   1.245   2.079 -0.4300  0.3487  0.0133
 3624SOL    HW122505   0.075   1.301   2.059  0.2393 -0.4431  0.3197
 3624SOL    HW222506   4.674   1.296   2.028 -1.4920  1.0181  1.9874
 3625SOL     OW22507   0.010   1.644   6.523  0.7202 -0.4786 -0.3706
 3625SOL    HW122508   4.711   1.685   6.445  2.4020 -0.7755 -1.3066
 3625SOL    HW222509   0.092   1.692   6.532  0.5937 -0.4250  0.5097
 3626SOL     OW22510   2.594   1.713   2.805 -0.2741  0.1049 -0.5910
 3626SOL    HW122511   2.524   1.765   2.767  0.5985  2.2066  0.6858
 3626SOL    HW222512   2.638   1.694   2.721 -1.8106 -0.8100 -1.1842
 3627SOL     OW22513   1.686   0.182   6.965 -0.8206 -0.2869  0.3306
 3627SOL    HW122514   1.676   0.181   6.870 -0.0787  1.8162  0.2385
 3627SOL    HW222515   1.674   0.094   7.001  2.1663 -0.4214  0.9739
 3628SOL     OW22516   2.512   1.561   6.443 -0.6446  1.2782 -0.0198
 3628SOL    HW122517   2.605   1.554   6.419 -0.3860  1.5090  0.8932
 3628SOL    HW222518   2.470   1.577   6.359  0.9384 -2.8240 -1.5855
 3629SOL     OW22519   4.198   4.539   9.137 -0.3434  0.0257  0.7413
 3629SOL    HW122520   4.110   4.506   9.121  1.2806 -2.9795 -1.8676
 3629SOL    HW222521   4.207   4.539   9.232  1.0891 -0.2549  0.6055
 3630SOL     OW22522   4.516   2.668   5.818 -0.1465 -0.0225  0.5289
 3630SOL    HW122523   4.473   2.752   5.802 -1.1729 -0.8059 -0.8659
 3630SOL    HW222524   4.581   2.693   5.883 -0.5360  0.2864  0.7957
 3631SOL     OW22525   3.246   3.791   9.668  0.0462  0.0283  0.2680
 3631SOL    HW122526   3.239   3.859   9.735  1.5227  1.4907 -1.0588
 3631SOL    HW222527   3.294   3.834   9.597  0.7317  0.2983  0.8994
 3632SOL     OW22528   3.491   4.601   3.071  0.3463 -0.3507 -0.3791
 3632SOL    HW122529   3.397   4.602   3.086  0.2228 -1.5227 -1.1115
 3632SOL    HW222530   3.516   4.653   3.147 -1.0389 -0.9078  0.4366
 3633SOL     OW22531   4.676   1.755  15.461 -0.2775 -0.1217 -0.1084
 3633SOL    HW122532   4.685   1.660  15.453 -2.0925 -0.4579  1.7160
 3633SOL    HW222533   4.607   1.779  15.399  0.1734 -2.1559 -1.3846
 3634SOL     OW22534   1.758   0.521   0.483  0.2894 -0.0914 -0.2485
 3634SOL    HW122535   1.785   0.497   0.571  1.4811  0.8879 -0.3576
 3634SOL    HW222536   1.840   0.535   0.436 -0.6534 -2.4080 -2.5931
 3635SOL     OW22537   1.834   0.813   6.098  0.1286  0.0421  0.0435
 3635SOL    HW122538   1.895   0.832   6.027  0.4459  0.8753  0.5272
 3635SOL    HW222539   1.753   0.858   6.071 -0.5236  0.0516  2.0080
 3636SOL     OW22540   3.696   2.168   0.831  0.3242 -0.3358 -0.5411
 3636SOL    HW122541   3.780   2.183   0.875 -0.8103 -0.8206  1.7893
 3636SOL    HW222542   3.661   2.257   0.834  0.0446 -0.4186 -1.3492
 3637SOL     OW22543   1.654   1.095   8.052  0.0047  0.2490  0.4697
 3637SOL    HW122544   1.658   1.066   8.143  1.5058  1.9752  0.9684
 3637SOL    HW222545   1.739   1.138   8.043 -0.0206  0.2608  0.2929
 3638SOL     OW22546   2.300   4.017   0.860 -0.1243 -0.1184 -0.6501
 3638SOL    HW122547   2.208   4.028   0.835  0.5096  1.4012 -2.3056
 3638SOL    HW222548   2.306   3.924   0.879  1.1576  0.1144  0.0757
 3639SOL     OW22549   1.947   2.669   6.756 -0.5662 -0.2848  1.0343
 3639SOL    HW122550   1.930   2.695   6.666 -1.9990  1.7072  1.8844
 3639SOL    HW222551   1.883   2.597   6.759 -0.5336 -0.3467  0.1949
 3640SOL     OW22552   2.177   2.735   6.389  0.1417 -0.0388 -0.0112
 3640SOL    HW122553   2.101   2.741   6.447 -0.2360 -0.8670 -0.4018
 3640SOL    HW222554   2.252   2.750   6.445 -0.3012 -1.5247  0.9835
 3641SOL     OW22555   1.773   4.465  13.697  0.4838 -0.1419 -0.4531
 3641SOL    HW122556   1.720   4.469  13.617  1.0380 -1.2254 -0.8806
 3641SOL    HW222557   1.857   4.439  13.658  0.9981  2.3082 -0.9668
 3642SOL     OW22558   3.832   3.532   2.342  0.1826 -0.1332 -0.1303
 3642SOL    HW122559   3.779   3.456   2.315  1.8576 -1.9840  1.7978
 3642SOL    HW222560   3.915   3.493   2.368 -0.2975 -1.7081 -0.9626
 3643SOL     OW22561   1.158   1.756   2.253 -0.0366 -0.6456  0.1386
 3643SOL    HW122562   1.175   1.825   2.317  1.6486 -0.0989 -0.9269
 3643SOL    HW222563   1.205   1.681   2.289 -1.0729 -0.5002  1.8454
 3644SOL     OW22564   1.346   0.616  17.518  0.2904  0.0829  0.2827
 3644SOL    HW122565   1.294   0.554  17.468  1.5709 -1.8574  1.3259
 3644SOL    HW222566   1.284   0.641  17.587  1.5722 -1.6871  2.0645
 3645SOL     OW22567   3.593   1.912  10.210 -0.0284 -0.2879 -0.0278
 3645SOL    HW122568   3.558   1.959  10.286 -0.1622  0.7935 -0.7637
 3645SOL    HW222569   3.672   1.870  10.245 -0.7238 -2.5168 -1.1042
 3646SOL     OW22570   1.333   3.532   6.435 -0.5525 -0.0068 -0.0775
 3646SOL    HW122571   1.402   3.533   6.369 -0.9074  0.2816 -0.4418
 3646SOL    HW222572   1.363   3.583   6.511 -2.0651  1.1205 -0.2549
 3647SOL     OW22573   0.669   4.467  11.891 -0.0300  0.3081  0.1800
 3647SOL    HW122574   0.687   4.545  11.944 -0.5964  0.3900  0.2441
 3647SOL    HW222575   0.587   4.430  11.923 -0.7382 -0.7754 -2.9346
 3648SOL     OW22576   0.733   3.263   9.355  0.6356 -0.2818  0.3148
 3648SOL    HW122577   0.805   3.320   9.384  0.7907  0.0494 -0.7333
 3648SOL    HW222578   0.724   3.203   9.429  1.7636 -2.5476 -1.4102
 3649SOL     OW22579   4.672   3.484  16.756 -0.3870  0.3127  0.1971
 3649SOL    HW122580   4.625   3.544  16.813  3.0519  2.3689  0.8505
 3649SOL    HW222581   0.001   3.459  16.820  0.2414  2.3629  0.3445
 3650SOL     OW22582   0.670   0.239   6.936 -0.1562 -0.3820  0.0150
 3650SOL    HW122583   0.590   0.195   6.906  1.3004 -1.6066 -2.0675
 3650SOL    HW222584   0.706   0.273   6.854  0.2023  1.0245  0.7680
 3651SOL     OW22585   4.683   2.305   0.423  0.7001 -0.2657 -0.0523
 3651SOL    HW122586   4.636   2.385   0.444 -0.3850 -1.1892  0.9559
 3651SOL    HW222587   4.646   2.261   0.346  1.0031  1.1252 -1.0112
 3652SOL     OW22588   3.093   2.854   7.862 -0.0114  0.0171 -0.6166
 3652SOL    HW122589   3.091   2.949   7.873  1.5280  0.0338 -0.4632
 3652SOL    HW222590   2.999   2.847   7.876  0.3208 -1.9634  0.6775
 3653SOL     OW22591   1.603   0.187   5.649 -0.8286 -0.1249  0.2427
 3653SOL    HW122592   1.565   0.195   5.737 -0.5524 -1.2791  0.4761
 3653SOL    HW222593   1.532   0.236   5.609  0.1595 -0.3489 -1.7697
 3654SOL     OW22594   4.065   0.456  15.904 -0.4284  0.1885  0.6629
 3654SOL    HW122595   4.001   0.429  15.838 -2.0542 -0.0818  2.3489
 3654SOL    HW222596   4.052   0.550  15.901  1.8566  0.5908  2.9260
 3655SOL     OW22597   2.275   4.407   7.700 -0.5571  0.4129 -0.4878
 3655SOL    HW122598   2.307   4.318   7.716  1.3162  1.3157  0.7642
 3655SOL    HW222599   2.194   4.407   7.650 -1.5621  0.3110  1.1569
 3656SOL     OW22600   3.406   2.743   4.536 -0.3701 -0.6111  0.0541
 3656SOL    HW122601   3.346   2.812   4.565  2.4248  1.1478  1.6042
 3656SOL    HW222602   3.350   2.669   4.561 -0.6825 -0.3939 -0.0049
 3657SOL     OW22603   4.322   3.021   2.854 -0.2337 -0.3510  0.0685
 3657SOL    HW122604   4.284   2.987   2.935  1.0506 -1.2870  0.2940
 3657SOL    HW222605   4.327   3.115   2.868 -0.5459 -0.0802 -1.6466
 3658SOL     OW22606   4.535   2.823   9.288  0.0719  0.3871  0.2401
 3658SOL    HW122607   4.623   2.811   9.324 -0.0207  1.0531  0.6863
 3658SOL    HW222608   4.548   2.841   9.195  0.7693 -3.6377 -0.4531
 3659SOL     OW22609   4.168   0.802   5.798 -0.3389  0.2471 -0.4708
 3659SOL    HW122610   4.234   0.838   5.858 -0.5981 -0.3045  0.1425
 3659SOL    HW222611   4.218   0.733   5.755 -0.5618 -1.5241  2.1248
 3660SOL     OW22612   2.376   3.136   1.759 -0.3096  0.2220 -0.7076
 3660SOL    HW122613   2.431   3.197   1.710  0.1068  0.5704  0.1778
 3660SOL    HW222614   2.402   3.168   1.846  1.1135  2.2456 -1.8909
 3661SOL     OW22615   4.037   3.075   7.277 -0.1262 -0.4844  0.2945
 3661SOL    HW122616   3.972   3.051   7.343 -1.1457  2.1022  0.2460
 3661SOL    HW222617   3.986   3.127   7.215 -1.2655 -2.1023 -0.1156
 3662SOL     OW22618   0.428   0.150  16.086 -0.1170 -0.1336  0.1403
 3662SOL    HW122619   0.505   0.199  16.055 -1.6166  2.4395  0.4659
 3662SOL    HW222620   0.364   0.221  16.075  0.6380  0.3426 -1.2043
 3663SOL     OW22621   1.466   3.916   0.240 -0.7092 -0.1174  0.0500
 3663SOL    HW122622   1.542   3.949   0.289 -0.7414  3.3379 -2.2025
 3663SOL    HW222623   1.419   3.859   0.300  0.4584  0.2211  1.2876
 3664SOL     OW22624   1.912   3.443   4.767 -0.1128 -0.5555 -0.1949
 3664SOL    HW122625   1.989   3.442   4.824  0.4941 -2.6821 -1.0448
 3664SOL    HW222626   1.841   3.394   4.808 -0.8985  1.5036  0.8904
 3665SOL     OW22627   1.595   1.065  12.597  1.0860  0.0028 -0.5326
 3665SOL    HW122628   1.631   1.148  12.631 -0.4739 -0.1139  1.3900
 3665SOL    HW222629   1.576   1.084  12.505  0.1265  0.7882 -0.1720
 3666SOL     OW22630   0.677   2.491   8.804 -0.6542 -0.5550  0.0012
 3666SOL    HW122631   0.639   2.577   8.824  2.4089  0.0472  3.1241
 3666SOL    HW222632   0.728   2.515   8.726  0.8663  2.0320  1.8160
 3667SOL     OW22633   3.384   2.999  15.692 -0.6479 -0.0288 -0.3071
 3667SOL    HW122634   3.289   3.005  15.707 -0.8267  0.3078 -1.5087
 3667SOL    HW222635   3.430   3.045  15.761  1.0024 -1.1321 -0.6584
 3668SOL     OW22636   3.936   2.508   9.473  0.0318 -0.0666 -0.0984
 3668SOL    HW122637   3.893   2.475   9.394 -1.2269  1.9110 -0.2654
 3668SOL    HW222638   4.011   2.451   9.488 -0.7049 -1.3585 -1.4007
 3669SOL     OW22639   4.547   1.785   6.379  0.6132 -0.0670 -0.2996
 3669SOL    HW122640   4.510   1.821   6.460  2.0383 -0.7475  0.6474
 3669SOL    HW222641   4.466   1.746   6.345  0.3900  0.1049  0.0280
 3670SOL     OW22642   3.188   4.140  12.517  0.1047  0.5193 -0.7609
 3670SOL    HW122643   3.249   4.066  12.527  0.0245  0.6041  0.3518
 3670SOL    HW222644   3.148   4.147  12.603  2.9683  0.1390  0.6183
 3671SOL     OW22645   4.351   0.981  16.779  0.2243  0.4972 -0.4329
 3671SOL    HW122646   4.278   0.966  16.839  0.9097  1.7420  0.7113
 3671SOL    HW222647   4.411   1.025  16.840  1.2173 -1.8690  0.3058
 3672SOL     OW22648   3.017   1.888   6.423 -0.2390  0.2179  0.5898
 3672SOL    HW122649   3.055   1.801   6.424  0.6308  0.5633 -1.0525
 3672SOL    HW222650   3.092   1.936   6.389  0.4942 -0.0277  1.8779
 3673SOL     OW22651   4.083   1.291   8.020  0.1110  0.2172  0.0907
 3673SOL    HW122652   3.999   1.317   8.058  0.0845  0.4614 -0.1322
 3673SOL    HW222653   4.137   1.276   8.098  0.4328 -1.8548 -0.5123
 3674SOL     OW22654   2.457   2.322   3.214  0.2575  0.2482  0.1702
 3674SOL    HW122655   2.376   2.353   3.253 -0.9989 -2.0203 -0.6663
 3674SOL    HW222656   2.506   2.399   3.185 -1.7130  1.1012 -0.8649
 3675SOL     OW22657   1.398   1.276   4.920  0.2143  0.3202  0.1788
 3675SOL    HW122658   1.342   1.243   4.990  1.5035  0.3094  1.2241
 3675SOL    HW222659   1.381   1.370   4.920  1.5973  0.5796 -1.6181
 3676SOL     OW22660   2.488   1.055   8.165  0.6984  0.0574  0.2945
 3676SOL    HW122661   2.456   0.976   8.209  2.1885  0.2146  1.6912
 3676SOL    HW222662   2.421   1.058   8.097  0.0877 -3.4067  0.7659
 3677SOL     OW22663   4.442   4.664  10.158 -0.5063 -0.2259 -0.4547
 3677SOL    HW122664   4.406   4.667  10.069 -1.9512 -0.6574  0.1267
 3677SOL    HW222665   4.476   0.016  10.165  1.5150 -1.0784  0.7717
 3678SOL     OW22666   1.767   0.158   4.385  0.4125 -0.1464  0.0403
 3678SOL    HW122667   1.754   0.176   4.478  1.5891 -1.0142  0.3690
 3678SOL    HW222668   1.791   0.066   4.383  0.7206 -0.0579 -0.2887
 3679SOL     OW22669   1.348   0.717   8.214  0.2162  0.0736  0.3616
 3679SOL    HW122670   1.340   0.633   8.170 -2.3536  0.8479 -0.6593
 3679SOL    HW222671   1.437   0.727   8.248 -0.0117  0.6648  0.8006
 3680SOL     OW22672   1.108   1.559  15.311  0.0963 -0.2978  0.6939
 3680SOL    HW122673   1.130   1.649  15.336 -1.7770  0.4921 -0.5729
 3680SOL    HW222674   1.187   1.511  15.337 -0.8711 -1.9405  0.5575
 3681SOL     OW22675   3.127   2.452  10.349 -0.3409 -0.0187  0.1996
 3681SOL    HW122676   3.193   2.479  10.413 -0.5795  1.5717 -0.2313
 3681SOL    HW222677   3.145   2.358  10.346 -0.1437  0.0778 -1.8057
 3682SOL     OW22678   3.154   3.824  15.255  0.2220  0.6135  0.0878
 3682SOL    HW122679   3.246   3.838  15.233  0.6040 -2.7879 -0.4629
 3682SOL    HW222680   3.152   3.803  15.348 -0.1829  0.5499  0.0653
 3683SOL     OW22681   4.722   2.478   9.809  0.0286  0.0031 -0.4465
 3683SOL    HW122682   4.729   2.539   9.883 -2.8609  1.0004 -1.0138
 3683SOL    HW222683   4.723   2.543   9.739 -0.6563 -1.0618 -1.4570
 3684SOL     OW22684   3.637   4.549  13.863  0.5074  0.5182 -0.0555
 3684SOL    HW122685   3.555   4.520  13.821  0.3989 -0.7383  1.0096
 3684SOL    HW222686   3.618   4.641  13.881 -0.4013 -0.3519  3.3289
 3685SOL     OW22687   2.071   1.241   7.054 -0.3108 -0.1314 -0.1381
 3685SOL    HW122688   2.039   1.193   6.977 -0.0527  1.2900 -1.1532
 3685SOL    HW222689   2.095   1.169   7.111 -0.7056 -0.5019 -0.4374
 3686SOL     OW22690   1.510   2.726  15.206 -0.2643  0.6111  0.0143
 3686SOL    HW122691   1.415   2.723  15.192 -0.4518 -1.5149  1.6773
 3686SOL    HW222692   1.517   2.820  15.223  2.6321  0.6312 -1.4657
 3687SOL     OW22693   4.073   0.295  14.100  0.3510  0.3170 -0.3148
 3687SOL    HW122694   4.032   0.380  14.119  1.9344  0.6106  1.7022
 3687SOL    HW222695   4.014   0.223  14.118 -0.4958  1.3996  1.2005
 3688SOL     OW22696   4.535   1.290   3.937 -0.1245  0.3116 -0.1427
 3688SOL    HW122697   4.568   1.379   3.924  0.5076  0.4039  2.1931
 3688SOL    HW222698   4.478   1.303   4.013  0.9446  2.6426  0.2822
 3689SOL     OW22699   3.025   3.294   1.020  0.4072  0.0264  0.2613
 3689SOL    HW122700   2.978   3.212   1.038  0.1637 -0.2053 -1.4296
 3689SOL    HW222701   2.974   3.353   0.965 -2.4279 -0.9393  1.8484
 3690SOL     OW22702   3.279   4.482   4.448 -0.3012  0.4143  0.0681
 3690SOL    HW122703   3.294   4.465   4.541  0.5272  2.1600  0.2602
 3690SOL    HW222704   3.370   4.495   4.421 -0.0946  0.4554  0.7922
 3691SOL     OW22705   1.015   4.617   2.728 -0.4856 -0.2664 -0.1191
 3691SOL    HW122706   1.005   4.559   2.653  0.9544  0.3784 -0.8075
 3691SOL    HW222707   0.972   4.564   2.796 -0.4952 -0.4233 -0.2485
 3692SOL     OW22708   0.917   1.876   4.104  0.6929 -0.3094 -0.2264
 3692SOL    HW122709   0.833   1.839   4.079  0.7260  0.8532 -2.1045
 3692SOL    HW222710   0.888   1.966   4.117  0.1442 -0.3926 -0.8612
 3693SOL     OW22711   0.114   1.480   9.023 -0.8574  0.3778 -0.1224
 3693SOL    HW122712   0.153   1.393   9.029  1.0148  1.0776 -2.1600
 3693SOL    HW222713   0.163   1.518   8.950 -0.8737 -0.2834 -0.4711
 3694SOL     OW22714   1.516   1.322   3.970  0.1140 -0.2284  0.3816
 3694SOL    HW122715   1.501   1.405   3.924  0.6741 -0.1314  0.3791
 3694SOL    HW222716   1.607   1.316   3.942 -0.2430 -2.9443 -0.1257
 3695SOL     OW22717   2.817   0.469   3.146  0.5376  0.5884 -0.5838
 3695SOL    HW122718   2.903   0.496   3.115  0.4232 -0.4399 -1.7799
 3695SOL    HW222719   2.847   0.407   3.212 -0.4658  0.8328  0.0947
 3696SOL     OW22720   1.776   1.748   6.629 -0.5158  0.0606 -0.1180
 3696SOL    HW122721   1.728   1.699   6.562 -0.2367 -1.2476  0.6428
 3696SOL    HW222722   1.836   1.683   6.663  0.8125  1.1755 -0.3334
 3697SOL     OW22723   0.563   4.525   8.960  0.3082  0.4469 -0.5501
 3697SOL    HW122724   0.609   4.591   8.909  3.4277 -2.3083 -1.2777
 3697SOL    HW222725   0.631   4.459   8.959  0.1142  0.2298  0.6698
 3698SOL     OW22726   0.766   1.957  14.897  0.2302  0.1985 -0.1505
 3698SOL    HW122727   0.739   1.965  14.989  0.9023  2.3525 -0.1408
 3698SOL    HW222728   0.706   1.890  14.866  0.2647 -0.1399  0.5118
 3699SOL     OW22729   0.923   3.182   8.923 -0.3547  0.4086 -0.2537
 3699SOL    HW122730   0.835   3.183   8.961 -0.2375 -1.2141  0.0645
 3699SOL    HW222731   0.964   3.142   9.000  1.0078  1.0290 -0.6408
 3700SOL     OW22732   2.438   0.630   6.827  0.0337  0.6251 -0.0806
 3700SOL    HW122733   2.349   0.597   6.812  1.1610 -2.5698  0.1936
 3700SOL    HW222734   2.431   0.698   6.894  3.6136  1.0483 -0.1679
 3701SOL     OW22735   1.613   0.004   6.365 -0.4969  0.1449  0.3896
 3701SOL    HW122736   1.669   0.060   6.312  0.5662 -0.7829  0.5137
 3701SOL    HW222737   1.533   0.047   6.338  0.1470  1.3531  0.4282
 3702SOL     OW22738   2.897   0.579  11.290 -0.3233  0.1469  0.0098
 3702SOL    HW122739   2.805   0.588  11.314 -0.3827  1.2873 -0.6489
 3702SOL    HW222740   2.930   0.667  11.308 -0.2851  0.1708 -0.1773
 3703SOL     OW22741   0.976   2.009   2.808  0.6123  0.1251  0.3544
 3703SOL    HW122742   1.016   1.969   2.885 -0.8750 -1.7951  0.1279
 3703SOL    HW222743   0.884   1.989   2.823  0.7402 -0.2775  0.6021
 3704SOL     OW22744   1.667   1.738   2.589 -0.1564 -0.0606  0.3198
 3704SOL    HW122745   1.629   1.774   2.509 -3.7722 -2.8767  0.7480
 3704SOL    HW222746   1.696   1.651   2.563  2.1438  0.8351 -0.1640
 3705SOL     OW22747   2.130   1.702   4.893 -0.2019 -0.3361 -0.0310
 3705SOL    HW122748   2.076   1.657   4.827  0.1183  0.8591 -1.1096
 3705SOL    HW222749   2.208   1.711   4.839  0.2908  1.4730  1.0035
 3706SOL     OW22750   0.238   0.177  11.280  0.1489 -0.6677  0.2992
 3706SOL    HW122751   0.143   0.168  11.286  0.1121  0.6753  1.5665
 3706SOL    HW222752   0.248   0.229  11.200  0.0843 -0.0218  0.7118
 3707SOL     OW22753   0.982   1.501   0.163 -0.2651 -0.7091  0.4134
 3707SOL    HW122754   0.994   1.406   0.168 -0.3884 -0.7618 -0.3841
 3707SOL    HW222755   1.056   1.526   0.218  1.2965 -2.7918 -0.7522
 3708SOL     OW22756   0.855   1.818   3.229  0.3883 -0.8304  0.0601
 3708SOL    HW122757   0.859   1.722   3.227 -2.8666 -0.9428 -1.5567
 3708SOL    HW222758   0.812   1.843   3.311 -1.7738  1.0235 -1.6614
 3709SOL     OW22759   0.270   2.315  12.843 -0.6002 -0.2844 -0.3280
 3709SOL    HW122760   0.308   2.362  12.918  0.8328 -1.0279 -0.5758
 3709SOL    HW222761   0.278   2.383  12.776 -3.3708 -0.5049 -0.8554
 3710SOL     OW22762   1.954   3.806  11.280 -0.5162 -0.0776  0.5608
 3710SOL    HW122763   1.978   3.847  11.363  1.6042 -2.4865  1.1515
 3710SOL    HW222764   1.919   3.887  11.243  1.4093  1.4717  2.0606
 3711SOL     OW22765   0.204   1.118   2.274 -0.2591  0.2669  0.3340
 3711SOL    HW122766   0.125   1.130   2.221 -1.5059 -1.3909  1.8269
 3711SOL    HW222767   0.213   1.197   2.327  0.3790  0.0955  0.4824
 3712SOL     OW22768   2.351   1.544   5.600  0.0863  0.2077 -0.0165
 3712SOL    HW122769   2.417   1.608   5.576  2.8959 -2.1577  1.3921
 3712SOL    HW222770   2.274   1.598   5.584 -1.0804 -1.0844  1.2637
 3713SOL     OW22771   4.188   4.145   2.991  0.7740 -0.5029 -0.7083
 3713SOL    HW122772   4.260   4.208   2.983  0.7491 -0.2908  0.6955
 3713SOL    HW222773   4.157   4.148   3.081  0.3144  1.0817 -0.9083
 3714SOL     OW22774   2.753   0.910   4.890  0.1691  0.4610 -0.2786
 3714SOL    HW122775   2.667   0.952   4.887  1.1684  2.6027  0.7404
 3714SOL    HW222776   2.735   0.819   4.868 -2.3232  0.8602  0.1941
 3715SOL     OW22777   0.284   1.734  13.059  0.1026  0.1906  0.3489
 3715SOL    HW122778   0.339   1.666  13.021 -0.8428  0.0819 -0.8419
 3715SOL    HW222779   0.265   1.784  12.980 -3.7513  0.1279  1.2588
 3716SOL     OW22780   0.143   3.935  15.956  0.1885  0.1966 -0.1165
 3716SOL    HW122781   0.123   4.026  15.976 -0.0851  0.4066 -1.3375
 3716SOL    HW222782   0.058   3.894  15.970  0.4352  0.1020  1.0650
 3717SOL     OW22783   0.847   3.749  11.613  0.0397  0.3768 -0.2292
 3717SOL    HW122784   0.846   3.779  11.704 -3.6263 -0.9929  0.1912
 3717SOL    HW222785   0.767   3.697  11.623  0.6005 -0.1512  1.4763
 3718SOL     OW22786   0.080   0.491   2.756  0.1189 -0.3464  0.4138
 3718SOL    HW122787   0.083   0.545   2.835  0.8252 -0.8270  0.7266
 3718SOL    HW222788   0.114   0.561   2.700  1.9750  0.0514  2.0125
 3719SOL     OW22789   1.189   4.456   6.951 -0.5138  0.5145  0.0967
 3719SOL    HW122790   1.190   4.510   7.030  3.9542 -0.4811  0.6706
 3719SOL    HW222791   1.144   4.375   6.977  0.4478 -0.3411 -0.9085
 3720SOL     OW22792   3.630   1.884   1.261 -0.0970  0.1714  0.0775
 3720SOL    HW122793   3.695   1.928   1.316 -0.2802 -1.3015  1.4326
 3720SOL    HW222794   3.629   1.939   1.182  0.4026  2.0460  1.3752
 3721SOL     OW22795   0.952   3.012   8.410  0.3187 -0.3074 -0.1767
 3721SOL    HW122796   0.925   2.921   8.412  1.0385 -0.4917  1.0171
 3721SOL    HW222797   0.880   3.056   8.456  1.0448 -0.9835  1.5864
 3722SOL     OW22798   2.167   3.958  16.774 -0.6945  0.2375 -0.4146
 3722SOL    HW122799   2.241   3.990  16.825 -0.0344 -1.4160 -0.3537
 3722SOL    HW222800   2.176   3.864  16.787  3.8715  0.9838  1.7988
 3723SOL     OW22801   1.760   2.235  17.088 -0.2915  0.2187  0.3180
 3723SOL    HW122802   1.805   2.280  17.017 -0.1675  0.4760  0.5638
 3723SOL    HW222803   1.783   2.143  17.071  1.4876 -0.0379  4.2029
 3724SOL     OW22804   0.760   2.510   7.556  0.4356 -0.0647  0.4248
 3724SOL    HW122805   0.745   2.535   7.464 -0.0513 -0.1384  0.4869
 3724SOL    HW222806   0.852   2.485   7.554  0.4342 -0.2168  2.5735
 3725SOL     OW22807   2.310   3.082   0.296 -0.2445 -0.5473 -0.4165
 3725SOL    HW122808   2.287   3.038   0.378 -0.9203  2.0866  0.8287
 3725SOL    HW222809   2.393   3.035   0.282  1.0887  1.3095  1.1502
 3726SOL     OW22810   4.566   3.399  10.814 -0.1663 -0.3445  0.8514
 3726SOL    HW122811   4.563   3.461  10.742 -0.8051  0.6870  1.7649
 3726SOL    HW222812   4.550   3.464  10.883 -0.1638  0.8543 -0.2772
 3727SOL     OW22813   3.318   1.843   7.265  0.1255 -0.3312 -0.3528
 3727SOL    HW122814   3.362   1.758   7.273  2.1318  0.4545 -2.9998
 3727SOL    HW222815   3.229   1.818   7.288 -0.6728 -0.7492 -3.9946
 3728SOL     OW22816   3.293   3.302   9.544  0.3836  0.0860 -0.1172
 3728SOL    HW122817   3.303   3.343   9.630 -0.0908 -1.0219  0.4577
 3728SOL    HW222818   3.348   3.225   9.551 -2.4192 -1.8933  0.0986
 3729SOL     OW22819   1.258   0.173  10.935 -0.5312  0.1433  0.7651
 3729SOL    HW122820   1.195   0.155  11.004  0.5306  1.1576  2.0081
 3729SOL    HW222821   1.246   0.266  10.916  0.4390  0.1399  0.1208
 3730SOL     OW22822   0.266   2.498   6.613  0.5840 -0.3305  0.8706
 3730SOL    HW122823   0.250   2.419   6.665 -1.3789 -0.1741  0.4935
 3730SOL    HW222824   0.344   2.530   6.659  0.7751  0.0740  0.2684
 3731SOL     OW22825   2.781   3.092  15.310  0.0943 -0.1727  0.0812
 3731SOL    HW122826   2.743   3.016  15.353 -0.0303  0.4804  1.1250
 3731SOL    HW222827   2.871   3.069  15.334 -1.4025 -3.0120  2.8914
 3732SOL     OW22828   4.021   4.350   2.653 -0.3232  0.4795 -0.6582
 3732SOL    HW122829   4.106   4.357   2.611  0.7890  1.2406  1.7114
 3732SOL    HW222830   3.997   4.443   2.657  0.1899  0.4920  2.1270
 3733SOL     OW22831   1.688   3.129  11.665  0.1578  0.3673  0.1734
 3733SOL    HW122832   1.712   3.042  11.634 -0.4133  0.5446 -0.7768
 3733SOL    HW222833   1.683   3.123  11.760  1.2904 -1.8359  0.0812
 3734SOL     OW22834   4.302   0.534   5.815 -0.2146  0.1671 -0.1837
 3734SOL    HW122835   4.302   0.513   5.908 -0.7730  1.7560  0.1644
 3734SOL    HW222836   4.279   0.449   5.776  0.4470 -0.3635  0.5909
 3735SOL     OW22837   0.873   4.118   6.317 -0.4032  0.8273 -0.1927
 3735SOL    HW122838   0.955   4.088   6.276  0.0350 -0.7150  1.7901
 3735SOL    HW222839   0.858   4.203   6.276 -2.1138 -0.7552 -2.8099
 3736SOL     OW22840   1.389   3.699   9.151  0.2793  0.1845 -0.7074
 3736SOL    HW122841   1.446   3.674   9.224  0.7457  3.5158  0.0315
 3736SOL    HW222842   1.415   3.789   9.134  1.3124  0.6174  3.0859
 3737SOL     OW22843   0.130   0.664  11.110 -0.0782 -0.4563 -0.1508
 3737SOL    HW122844   0.092   0.577  11.125  1.7274 -0.9665  1.3779
 3737SOL    HW222845   0.212   0.661  11.157 -0.1377 -0.8470 -0.0676
 3738SOL     OW22846   0.026   0.357   5.091 -0.4683  0.5380  0.3856
 3738SOL    HW122847   4.731   0.446   5.079  0.4805  0.7940 -0.2925
 3738SOL    HW222848   0.112   0.378   5.128 -1.4440  1.0703  2.3488
 3739SOL     OW22849   0.238   4.076   5.523 -0.0222  0.0003  0.1965
 3739SOL    HW122850   0.264   4.166   5.504 -0.0048  0.0970  0.6872
 3739SOL    HW222851   0.275   4.068   5.611  0.4893  0.4482  0.0211
 3740SOL     OW22852   0.165   1.354   8.127  0.3613  0.6529 -0.1397
 3740SOL    HW122853   0.181   1.439   8.085  0.1300  1.4571  1.4081
 3740SOL    HW222854   0.109   1.315   8.061  0.7924 -1.4263  0.7253
 3741SOL     OW22855   3.312   3.286  15.561  0.1592  0.3696  0.2302
 3741SOL    HW122856   3.383   3.221  15.564  0.7552  1.0939  1.4796
 3741SOL    HW222857   3.308   3.319  15.650  2.2092  0.4862  0.2859
 3742SOL     OW22858   0.598   1.586   1.693  0.0509 -0.0610  0.0983
 3742SOL    HW122859   0.630   1.658   1.640  0.2259 -0.8770 -0.9079
 3742SOL    HW222860   0.583   1.623   1.780 -2.1841 -0.1887 -0.2302
 3743SOL     OW22861   4.450   4.220  17.040  0.7832 -0.8794 -0.1465
 3743SOL    HW122862   4.392   4.269  16.982 -0.2631 -1.1155  0.7028
 3743SOL    HW222863   4.405   4.137  17.050 -0.7442  0.0045  0.3654
 3744SOL     OW22864   2.246   4.167  15.636 -0.2177 -0.5530  0.0733
 3744SOL    HW122865   2.167   4.211  15.665  1.3940  1.8935  0.7376
 3744SOL    HW222866   2.223   4.085  15.681  1.5594 -1.2948 -0.3338
 3745SOL     OW22867   1.605   0.872   3.832  0.1750  0.2889  0.5480
 3745SOL    HW122868   1.630   0.858   3.740  0.1491 -1.9967  0.8867
 3745SOL    HW222869   1.668   0.935   3.866  0.8987 -0.8944  1.3712
 3746SOL     OW22870   4.040   0.944   4.254 -0.0109 -1.2108  0.3343
 3746SOL    HW122871   4.041   0.949   4.158  1.1664 -1.5477  0.3259
 3746SOL    HW222872   3.950   0.914   4.263 -0.4687  0.7742  2.3687
 3747SOL     OW22873   4.681   1.662   3.079  0.4074 -0.1687  0.0474
 3747SOL    HW122874   4.720   1.636   2.996 -0.0997 -0.1787 -0.1914
 3747SOL    HW222875   4.594   1.623   3.068 -0.0749  0.3266  2.0463
 3748SOL     OW22876   0.930   1.431   8.528  0.2185  0.2707 -0.2787
 3748SOL    HW122877   1.018   1.403   8.501  1.2648  0.8288  2.4967
 3748SOL    HW222878   0.939   1.462   8.618  1.7284 -1.4311  0.1650
 3749SOL     OW22879   3.489   3.456   1.671  0.1475 -0.0078 -0.5310
 3749SOL    HW122880   3.515   3.529   1.615 -0.1448  1.1484  0.8089
 3749SOL    HW222881   3.396   3.481   1.677 -0.2501 -2.0869  2.0800
 3750SOL     OW22882   1.582   0.965   4.503 -0.5129  0.1108  0.7571
 3750SOL    HW122883   1.618   1.002   4.584 -2.8225 -1.4292  2.4662
 3750SOL    HW222884   1.640   0.997   4.434 -1.0245  1.7833  1.0858
 3751SOL     OW22885   0.341   4.314   3.486  0.2166 -0.5945  0.2316
 3751SOL    HW122886   0.279   4.383   3.463  0.1127 -0.9378 -0.5040
 3751SOL    HW222887   0.290   4.258   3.544 -1.6661  1.6141  0.6904
 3752SOL     OW22888   2.814   0.532   7.459  0.0472 -0.1835  0.1558
 3752SOL    HW122889   2.792   0.534   7.366  0.6291  0.0148  0.0207
 3752SOL    HW222890   2.905   0.561   7.463  0.2981 -0.9835  0.2015
 3753SOL     OW22891   0.015   3.427   2.307 -0.6548  0.1930 -0.3086
 3753SOL    HW122892   0.035   3.385   2.391 -0.9529  1.3310  0.3218
 3753SOL    HW222893   4.664   3.462   2.313 -1.6041 -2.0150 -1.3173
 3754SOL     OW22894   4.235   2.433   3.609  0.0974 -0.4288 -0.3334
 3754SOL    HW122895   4.202   2.507   3.660  0.3835 -1.8585  1.9056
 3754SOL    HW222896   4.232   2.360   3.671  0.4752  0.5861  0.8636
 3755SOL     OW22897   2.517   0.915  13.948 -0.1630  0.1276  0.0144
 3755SOL    HW122898   2.505   0.841  13.889 -2.1218  0.4458 -0.0048
 3755SOL    HW222899   2.436   0.902  13.998  0.7496  1.4216  1.8562
 3756SOL     OW22900   0.645   3.212   3.665  0.2076 -0.4973 -0.0675
 3756SOL    HW122901   0.722   3.159   3.645  2.0291  3.2088 -2.8198
 3756SOL    HW222902   0.617   3.181   3.751 -0.2354  0.1863  0.0305
 3757SOL     OW22903   3.621   0.115   3.869  0.4848 -0.3200  0.0634
 3757SOL    HW122904   3.664   0.073   3.794 -1.0904  0.5348 -1.3129
 3757SOL    HW222905   3.697   0.127   3.926  0.0619  0.8963  0.3531
 3758SOL     OW22906   3.934   4.669  15.559 -0.2309  0.1341 -0.0173
 3758SOL    HW122907   3.850   4.644  15.597  0.1504  1.9664  1.9954
 3758SOL    HW222908   3.961   0.002  15.617 -0.8183 -0.3714  0.8733
 3759SOL     OW22909   3.924   1.608   7.674 -0.2272  0.0310 -0.5334
 3759SOL    HW122910   4.017   1.589   7.685  0.3244  2.9754 -0.1784
 3759SOL    HW222911   3.899   1.533   7.729  2.2056 -0.7445 -0.4929
 3760SOL     OW22912   3.503   3.492   8.293 -0.2539  0.2617  1.0598
 3760SOL    HW122913   3.485   3.405   8.329 -0.5813  1.2216  3.2315
 3760SOL    HW222914   3.518   3.478   8.200  3.4292  2.1487  1.3539
 3761SOL     OW22915   1.619   3.253   6.983  0.7545 -0.0868  0.0453
 3761SOL    HW122916   1.574   3.292   6.908 -1.4196 -2.0585  0.3487
 3761SOL    HW222917   1.711   3.253   6.954  1.0499  1.6965  0.9620
 3762SOL     OW22918   0.082   3.366   2.036  0.4904 -0.3887 -0.1514
 3762SOL    HW122919   0.111   3.434   2.098  0.0255 -0.0306 -0.3222
 3762SOL    HW222920   0.154   3.394   1.979 -0.6606  0.9692 -0.9559
 3763SOL     OW22921   2.267   3.434   1.392  0.5892 -0.3105 -0.0280
 3763SOL    HW122922   2.195   3.381   1.425 -0.2343  1.9762  1.7880
 3763SOL    HW222923   2.231   3.514   1.430  2.9176  0.2572  0.9934
 3764SOL     OW22924   1.431   3.039   3.307  0.0679 -0.0709  0.3592
 3764SOL    HW122925   1.359   3.057   3.247  1.1962 -1.7762 -1.5079
 3764SOL    HW222926   1.445   2.945   3.303  2.0320  0.1928  1.0863
 3765SOL     OW22927   3.329   3.077   9.296  0.4031  0.1206 -0.2749
 3765SOL    HW122928   3.356   2.989   9.270  0.4464 -0.2689  1.1060
 3765SOL    HW222929   3.305   3.070   9.388 -0.7538  2.1924 -0.4132
 3766SOL     OW22930   1.410   0.321  17.108  0.1976 -0.2474  0.4659
 3766SOL    HW122931   1.417   0.342  17.015 -1.1469 -0.1306  0.3848
 3766SOL    HW222932   1.376   0.232  17.100 -0.1540  0.1110 -2.1154
 3767SOL     OW22933   1.041   0.042  15.278 -0.3004  0.1117 -0.1565
 3767SOL    HW122934   1.112   4.715  15.271 -0.0103  0.4793 -0.5969
 3767SOL    HW222935   1.088   0.121  15.303  0.2479 -0.4217  0.5017
 3768SOL     OW22936   1.105   0.813   6.577 -0.0849 -0.4870  0.1848
 3768SOL    HW122937   1.118   0.719   6.563 -1.3548 -0.5023 -0.8416
 3768SOL    HW222938   1.150   0.819   6.662 -1.0144 -1.0465  0.7146
 3769SOL     OW22939   4.730   2.809   8.570 -0.2010 -0.5662  0.5282
 3769SOL    HW122940   0.053   2.883   8.566 -1.5881  0.5517  0.5785
 3769SOL    HW222941   0.031   2.762   8.496 -1.8303 -0.2840 -0.5031
 3770SOL     OW22942   0.046   1.927  11.536  0.1182 -0.7946  0.4491
 3770SOL    HW122943   0.058   1.994  11.469 -2.0481 -0.9970 -0.1231
 3770SOL    HW222944   0.136   1.931  11.570  0.5320 -0.2366 -0.7147
 3771SOL     OW22945   0.339   3.284  11.610  0.4441 -0.2255 -0.1859
 3771SOL    HW122946   0.305   3.325  11.531 -0.8677  3.1894  2.1291
 3771SOL    HW222947   0.414   3.236  11.575  0.6362 -0.5068  0.6113
 3772SOL     OW22948   3.571   3.670  15.192 -0.1523  0.3594  0.1793
 3772SOL    HW122949   3.527   3.610  15.132  0.6113 -0.0498  0.0365
 3772SOL    HW222950   3.503   3.689  15.257 -0.3233  0.9778 -0.1791
 3773SOL     OW22951   4.542   1.281   1.885  0.4043  0.1265  0.1967
 3773SOL    HW122952   4.621   1.243   1.847  0.5126  1.0979 -0.5649
 3773SOL    HW222953   4.540   1.358   1.828  0.5222 -0.1075 -0.1252
 3774SOL     OW22954   1.442   0.078   6.180 -0.1921 -0.7727  0.3868
 3774SOL    HW122955   1.457   0.013   6.112  2.7187 -0.1698  0.4377
 3774SOL    HW222956   1.349   0.095   6.172 -0.1463 -1.0178 -0.6623
 3775SOL     OW22957   3.870   1.689   1.291 -0.5281 -0.2560  0.5608
 3775SOL    HW122958   3.796   1.750   1.295 -1.0633 -0.7969 -0.8653
 3775SOL    HW222959   3.940   1.754   1.288 -0.3639 -0.4585 -0.1004
 3776SOL     OW22960   1.065   4.463   2.998  0.2482 -0.1235 -0.2373
 3776SOL    HW122961   1.067   4.552   3.031 -1.5174 -0.7180  1.4705
 3776SOL    HW222962   0.990   4.422   3.041  0.5069 -1.6044 -1.1733
 3777SOL     OW22963   3.080   3.674   8.798  0.0837  0.7087  0.6408
 3777SOL    HW122964   3.058   3.626   8.878 -2.4127  1.3341  0.2987
 3777SOL    HW222965   3.158   3.727   8.817 -0.5522  2.4614 -1.6448
 3778SOL     OW22966   1.553   4.223   8.876  0.5889 -0.2607  0.0467
 3778SOL    HW122967   1.592   4.285   8.814  1.0675  1.2586  1.8517
 3778SOL    HW222968   1.619   4.239   8.944  1.4776 -0.3679 -0.7904
 3779SOL     OW22969   0.901   0.278   3.041 -0.0392  0.5209 -0.3548
 3779SOL    HW122970   0.946   0.212   2.987 -2.0132  0.1918 -1.5795
 3779SOL    HW222971   0.854   0.315   2.966  0.9086 -1.8165 -2.1280
 3780SOL     OW22972   0.603   3.961   5.178  0.4863  0.4654 -0.4877
 3780SOL    HW122973   0.568   3.988   5.093  0.8807  0.5177 -0.6311
 3780SOL    HW222974   0.525   3.924   5.219  1.7818 -2.2866 -0.5066
 3781SOL     OW22975   0.865   0.368   4.069  0.0940  0.6104 -0.2357
 3781SOL    HW122976   0.848   0.453   4.027 -1.1698  0.5998  0.2456
 3781SOL    HW222977   0.940   0.397   4.121 -1.0208  0.7481  1.2937
 3782SOL     OW22978   3.453   4.295   8.588 -0.2351  0.5473 -0.0711
 3782SOL    HW122979   3.486   4.243   8.662  2.3037  1.0380 -0.8313
 3782SOL    HW222980   3.492   4.252   8.511  1.8847  3.9444 -0.8977
 3783SOL     OW22981   4.542   2.452   9.387 -0.0095 -0.4716 -0.5596
 3783SOL    HW122982   4.514   2.481   9.474  2.0593  1.4614 -0.5339
 3783SOL    HW222983   4.516   2.360   9.386  0.9368 -0.7484  0.5837
 3784SOL     OW22984   4.538   1.685  16.696 -0.2023  0.0398  0.2432
 3784SOL    HW122985   4.501   1.761  16.740 -0.2136 -1.5103  2.8738
 3784SOL    HW222986   4.587   1.732  16.628 -2.2952 -0.7612 -1.8031
 3785SOL     OW22987   0.654   3.105   9.573 -0.4192  0.1427 -0.0284
 3785SOL    HW122988   0.582   3.056   9.533  0.1767  1.0461 -2.1505
 3785SOL    HW222989   0.609   3.163   9.635  0.0894  0.1949  0.2883
 3786SOL     OW22990   0.107   1.430   9.373 -0.3275 -0.3930 -0.2778
 3786SOL    HW122991   0.095   1.407   9.465 -0.7030  0.0771 -0.2120
 3786SOL    HW222992   0.016   1.428   9.343 -0.6503 -0.6718  0.7458
 3787SOL     OW22993   3.834   2.045   6.814 -1.0921 -0.4444 -0.1905
 3787SOL    HW122994   3.785   2.118   6.853 -0.6572  0.1440 -0.7450
 3787SOL    HW222995   3.907   2.102   6.790 -1.2222 -1.1786 -2.2912
 3788SOL     OW22996   0.608   3.044   6.884  0.3857 -0.1885  0.3762
 3788SOL    HW122997   0.610   2.991   6.805 -1.3316  0.0839  0.1479
 3788SOL    HW222998   0.701   3.063   6.891  0.3446  0.5351 -1.0566
 3789SOL     OW22999   1.572   2.063   7.621  0.0668  0.2356  0.0641
 3789SOL    HW123000   1.665   2.080   7.609  0.4634  0.9038  4.0902
 3789SOL    HW223001   1.548   2.070   7.528  1.4019 -2.7230 -0.5089
 3790SOL     OW23002   3.553   3.878   7.749 -0.3041 -0.3544 -0.5977
 3790SOL    HW123003   3.520   3.968   7.745  1.9607  0.4640 -0.4730
 3790SOL    HW223004   3.496   3.845   7.819  1.1399  0.8427  1.1221
 3791SOL     OW23005   2.563   0.187   7.790 -0.6501 -0.1099 -0.0055
 3791SOL    HW123006   2.638   0.246   7.789 -1.7716  1.3294  0.1255
 3791SOL    HW223007   2.554   0.167   7.884  0.9409  0.0921  0.1812
 3792SOL     OW23008   4.648   2.333  16.860  1.2837 -0.4358  0.3158
 3792SOL    HW123009   4.662   2.425  16.837 -1.3983  0.3850  1.9435
 3792SOL    HW223010   4.623   2.320  16.768 -2.6131  2.1267  0.9898
 3793SOL     OW23011   2.246   2.512   2.189 -0.2532  0.2055  0.6677
 3793SOL    HW123012   2.159   2.515   2.227 -0.5777  1.7079 -0.2123
 3793SOL    HW223013   2.278   2.593   2.228 -1.9457  1.7155 -1.0685
 3794SOL     OW23014   1.351   1.776   3.362 -0.6295  0.3822  0.3864
 3794SOL    HW123015   1.383   1.686   3.357 -1.7453  0.0213 -0.2603
 3794SOL    HW223016   1.389   1.820   3.286 -2.3527  1.8438  0.3686
 3795SOL     OW23017   1.435   1.898   7.021 -0.2504  0.5242  0.2606
 3795SOL    HW123018   1.479   1.979   7.046 -0.0012  1.3039 -2.8124
 3795SOL    HW223019   1.499   1.834   7.053  0.1905  1.0408  0.4135
 3796SOL     OW23020   3.054   2.092   6.695 -0.1325 -0.2230 -0.4335
 3796SOL    HW123021   3.114   2.107   6.622 -1.3843 -1.3023 -1.6897
 3796SOL    HW223022   3.057   1.997   6.707  1.3669 -0.4732 -2.7401
 3797SOL     OW23023   2.454   1.279  14.687 -0.2831 -0.3279  0.2488
 3797SOL    HW123024   2.516   1.342  14.652 -0.4936  0.1327  0.6946
 3797SOL    HW223025   2.377   1.335  14.684  0.7270  1.1100  1.2761
 3798SOL     OW23026   4.217   4.302   2.412  0.2712 -0.3745  0.0273
 3798SOL    HW123027   4.139   4.260   2.377  0.4227 -1.5549  1.1129
 3798SOL    HW223028   4.210   4.396   2.394  1.8826 -0.5428 -1.4739
 3799SOL     OW23029   3.738   1.613   0.460 -0.3360 -0.0417  0.0942
 3799SOL    HW123030   3.733   1.522   0.431  0.5017 -0.2213  0.5218
 3799SOL    HW223031   3.676   1.659   0.403  1.9289  0.7103 -1.7651
 3800SOL     OW23032   0.351   1.929  10.190  0.3782  0.0102 -0.1917
 3800SOL    HW123033   0.395   1.874  10.255  2.7149  0.9013 -1.0450
 3800SOL    HW223034   0.386   2.011  10.225  2.0874 -0.7548 -0.1189
 3801SOL     OW23035   3.768   3.270   7.528 -0.5393  0.0451  0.1857
 3801SOL    HW123036   3.762   3.174   7.534 -1.5093 -0.0766 -3.0613
 3801SOL    HW223037   3.725   3.295   7.447 -1.1420  0.2937  0.5751
 3802SOL     OW23038   1.209   0.908   2.953  0.3590  0.1990 -0.3505
 3802SOL    HW123039   1.135   0.950   2.997 -0.4287 -1.7463  0.2039
 3802SOL    HW223040   1.269   0.983   2.957  0.1079  0.4721 -2.0699
 3803SOL     OW23041   4.048   2.967   3.285  0.1512  1.0990 -0.0702
 3803SOL    HW123042   3.970   3.013   3.319 -0.2706  1.9794 -2.2424
 3803SOL    HW223043   4.023   2.962   3.193 -1.6129 -2.2415  0.6047
 3804SOL     OW23044   0.350   0.879   9.453 -0.4325  0.3174 -0.5365
 3804SOL    HW123045   0.336   0.812   9.519 -2.0059  1.3055  0.1420
 3804SOL    HW223046   0.446   0.880   9.451 -0.3858 -2.7524  0.3579
 3805SOL     OW23047   3.550   0.710   0.303  0.5508  0.5912 -0.1903
 3805SOL    HW123048   3.540   0.636   0.244 -1.4423 -0.1762  1.0900
 3805SOL    HW223049   3.477   0.686   0.360  1.1377  1.0080  0.7392
 3806SOL     OW23050   0.917   0.940  14.623  0.4942 -0.6823  0.1283
 3806SOL    HW123051   0.986   0.908  14.565  1.4888 -0.6391  1.3000
 3806SOL    HW223052   0.966   0.963  14.702  0.0600 -2.7909  1.0272
 3807SOL     OW23053   1.737   3.629  12.011  0.2287 -0.2738  0.2572
 3807SOL    HW123054   1.645   3.656  12.007 -0.0735 -1.2682  0.4257
 3807SOL    HW223055   1.741   3.588  11.925 -2.2974  0.3147 -0.1252
 3808SOL     OW23056   0.174   0.881  12.303  0.0022  0.0625  0.1533
 3808SOL    HW123057   0.088   0.922  12.293 -0.4901 -0.6320  1.5520
 3808SOL    HW223058   0.198   0.887  12.395  0.9263  2.2625 -0.2329
 3809SOL     OW23059   2.082   2.090   3.686  0.1271  0.5296  1.0715
 3809SOL    HW123060   2.120   2.177   3.670 -0.0736  0.2479 -0.9056
 3809SOL    HW223061   2.152   2.026   3.673  1.2706  1.2580  3.5101
 3810SOL     OW23062   2.166   1.974   1.992 -0.0783  0.0373 -0.2155
 3810SOL    HW123063   2.212   1.925   1.924 -0.3654  2.1139 -1.8804
 3810SOL    HW223064   2.214   2.056   2.001  0.5203 -0.3981  0.6313
 3811SOL     OW23065   1.706   2.255   9.046 -0.2258 -0.2847  0.0000
 3811SOL    HW123066   1.641   2.203   8.999  0.0437  0.4776 -1.2110
 3811SOL    HW223067   1.725   2.188   9.112 -2.3107 -1.2805 -0.3978
 3812SOL     OW23068   0.373   3.985   7.934 -0.0892 -0.0180  0.0130
 3812SOL    HW123069   0.392   3.915   7.996 -0.5235 -1.2137 -1.1785
 3812SOL    HW223070   0.280   3.974   7.913  0.5201 -1.2170 -2.1021
 3813SOL     OW23071   0.295   1.496  13.232 -0.7143 -0.4755  0.4552
 3813SOL    HW123072   0.346   1.493  13.151  1.0454  0.2875  1.5549
 3813SOL    HW223073   0.301   1.591  13.235 -1.2473 -0.4258 -0.1131
 3814SOL     OW23074   4.442   0.559   3.728  0.4529  0.2031 -0.5101
 3814SOL    HW123075   4.375   0.561   3.660  0.1674  1.8822 -0.1762
 3814SOL    HW223076   4.435   0.469   3.760 -0.0324 -0.1713 -1.6736
 3815SOL     OW23077   4.193   4.350  17.005  0.0691  0.0394 -0.4767
 3815SOL    HW123078   4.172   4.444  17.004  0.1991  0.0524 -1.5379
 3815SOL    HW223079   4.146   4.327  17.085 -1.1788  0.8009 -0.9900
 3816SOL     OW23080   2.228   3.703   3.631  0.4577  0.1300 -0.1600
 3816SOL    HW123081   2.295   3.703   3.563  1.8097  1.6932  1.1646
 3816SOL    HW223082   2.161   3.651   3.587 -1.1505  1.6319  0.5030
 3817SOL     OW23083   4.356   0.689  16.843  0.1760 -0.2547  0.1986
 3817SOL    HW123084   4.319   0.777  16.834 -0.6339 -0.4727  1.3453
 3817SOL    HW223085   4.400   0.671  16.760  1.0132 -3.0860  1.2575
 3818SOL     OW23086   2.322   3.931   2.532  0.3344 -0.5416  0.4935
 3818SOL    HW123087   2.320   4.014   2.578 -2.9475 -1.1149  1.3789
 3818SOL    HW223088   2.349   3.952   2.442 -1.4759  0.3967  0.1660
 3819SOL     OW23089   0.087   4.466   8.635  0.3897 -0.6209  0.1623
 3819SOL    HW123090   0.048   4.501   8.555 -1.0802 -0.6753  0.8516
 3819SOL    HW223091   0.027   4.496   8.703 -0.8788  1.3794 -1.8337
 3820SOL     OW23092   1.677   0.019  10.925 -0.3517 -0.3031  0.2568
 3820SOL    HW123093   1.718   4.722  10.846  0.1739 -0.6527  0.6816
 3820SOL    HW223094   1.644   0.105  10.895  0.4836  0.0285  0.2952
 3821SOL     OW23095   2.745   2.009   8.667  0.7595  0.2316  0.0337
 3821SOL    HW123096   2.820   1.982   8.720  0.6118  1.1001  0.6764
 3821SOL    HW223097   2.766   1.955   8.591  0.3838  0.3020 -0.1171
 3822SOL     OW23098   3.800   1.564  13.295  0.0109 -0.1985 -0.2202
 3822SOL    HW123099   3.817   1.492  13.234  1.7117  0.3069 -0.3290
 3822SOL    HW223100   3.888   1.561  13.331 -0.0913  0.9366  0.1023
 3823SOL     OW23101   2.239   0.174   2.737 -0.3214 -0.2017  0.4775
 3823SOL    HW123102   2.182   0.233   2.688 -1.2293 -1.3235  0.1656
 3823SOL    HW223103   2.241   0.098   2.677  0.6278  0.3247 -0.1752
 3824SOL     OW23104   4.357   1.971  10.951  0.2439 -0.0252 -0.2747
 3824SOL    HW123105   4.435   1.925  10.923 -0.3714 -0.5760 -1.0855
 3824SOL    HW223106   4.326   1.932  11.033  0.6053  0.5734  0.1479
 3825SOL     OW23107   2.899   4.329   2.973 -0.2434  0.1663 -0.3262
 3825SOL    HW123108   2.861   4.243   2.994  1.3726 -0.1971  1.1477
 3825SOL    HW223109   2.980   4.302   2.928 -0.2799  0.9680 -0.8821
 3826SOL     OW23110   3.524   3.003   1.660 -0.2767  0.1203  0.5271
 3826SOL    HW123111   3.533   2.941   1.588 -0.9221 -0.8744  1.3031
 3826SOL    HW223112   3.435   2.988   1.693 -0.5546  1.4306  0.3882
 3827SOL     OW23113   4.671   4.068   2.807  0.5040  0.1046  0.4308
 3827SOL    HW123114   4.713   3.997   2.758  1.4312  0.4442  0.7307
 3827SOL    HW223115   4.697   4.142   2.751  1.5495 -1.1538 -0.7701
 3828SOL     OW23116   0.394   0.586   4.198  0.4352 -0.0939  0.0091
 3828SOL    HW123117   0.354   0.565   4.113 -0.7031 -1.1498  0.8158
 3828SOL    HW223118   0.407   0.499   4.235  1.5443 -0.6161 -1.6213
 3829SOL     OW23119   3.402   4.393  12.029  0.4942 -0.1434 -0.2154
 3829SOL    HW123120   3.473   4.451  12.058  0.2032  0.8171 -1.4178
 3829SOL    HW223121   3.361   4.437  11.955 -1.3181 -3.4408 -1.1538
 3830SOL     OW23122   0.218   0.274  10.548  0.0236  0.6155  0.4913
 3830SOL    HW123123   0.284   0.211  10.520 -0.6473  0.8958 -1.7458
 3830SOL    HW223124   0.199   0.317  10.465  0.8823  1.2226  0.6109
 3831SOL     OW23125   4.583   4.081   0.532  0.6199 -0.0958 -0.1046
 3831SOL    HW123126   4.546   4.006   0.579  2.2821 -1.4968 -1.0267
 3831SOL    HW223127   4.600   4.038   0.448 -1.1794  1.1569 -1.1037
 3832SOL     OW23128   3.574   1.982   5.724  0.0420 -0.1968 -0.3179
 3832SOL    HW123129   3.567   1.895   5.684 -1.5466 -0.8309  1.3367
 3832SOL    HW223130   3.652   2.019   5.683 -0.3348 -0.2599 -1.0872
 3833SOL     OW23131   4.143   1.612   0.495  0.5404  0.0433  0.2943
 3833SOL    HW123132   4.078   1.616   0.566 -1.0134 -0.8268 -1.0918
 3833SOL    HW223133   4.087   1.584   0.423 -1.5230  0.8766  1.5566
 3834SOL     OW23134   2.774   2.845  14.113  0.5033  0.0575 -0.3393
 3834SOL    HW123135   2.765   2.838  14.018 -0.0069 -0.6523 -0.2405
 3834SOL    HW223136   2.758   2.757  14.148 -0.1996  0.3905  0.1623
 3835SOL     OW23137   3.208   4.065   3.096 -0.3659 -0.1595 -0.6247
 3835SOL    HW123138   3.282   4.106   3.140 -1.0163  1.6457 -1.2191
 3835SOL    HW223139   3.162   4.139   3.056 -0.7674  0.0969  0.3294
 3836SOL     OW23140   1.708   0.427   2.178 -0.3477  0.1783 -0.4813
 3836SOL    HW123141   1.720   0.402   2.269  0.0996  0.1779 -0.5399
 3836SOL    HW223142   1.641   0.361   2.162  1.2258 -1.2581 -1.1294
 3837SOL     OW23143   0.019   2.561   7.927  0.5385 -0.0834  0.1333
 3837SOL    HW123144   4.714   2.518   7.852 -2.9023  1.3531  1.2387
 3837SOL    HW223145   4.694   2.529   7.992 -1.4311  1.0353 -1.1699
 3838SOL     OW23146   1.476   3.522   3.349 -0.6775 -0.6216  0.4804
 3838SOL    HW123147   1.556   3.564   3.382 -2.3033  3.1513 -0.4767
 3838SOL    HW223148   1.468   3.568   3.266 -0.2071 -1.2265  0.0997
 3839SOL     OW23149   4.082   1.747   6.034 -0.3195 -0.3072  0.4751
 3839SOL    HW123150   4.098   1.681   5.967 -2.0260 -1.5487  1.2762
 3839SOL    HW223151   4.108   1.823   5.982 -1.1913 -0.1572  0.2497
 3840SOL     OW23152   3.524   1.483   2.703 -0.4554  0.5533  0.1282
 3840SOL    HW123153   3.521   1.576   2.727  1.7720  0.1826  1.9140
 3840SOL    HW223154   3.436   1.458   2.732 -0.1889 -0.9260 -0.3665
 3841SOL     OW23155   2.660   2.263   8.598  0.1820  0.8705 -0.2111
 3841SOL    HW123156   2.656   2.168   8.588  1.8724  0.5943  1.9055
 3841SOL    HW223157   2.711   2.273   8.678  0.8257  0.5701 -0.5882
 3842SOL     OW23158   1.524   4.655   7.886  0.1209 -0.2224 -0.0313
 3842SOL    HW123159   1.468   4.586   7.851 -0.0949  0.0343 -0.1923
 3842SOL    HW223160   1.494   4.653   7.977  0.5750  0.7858  0.1410
 3843SOL     OW23161   1.060   3.840   2.191 -0.0294 -0.4303  0.1912
 3843SOL    HW123162   1.026   3.775   2.253 -1.8002  1.3693  1.1263
 3843SOL    HW223163   0.994   3.838   2.122 -1.4667  0.7899  1.5011
 3844SOL     OW23164   2.546   4.044  10.752 -1.0588 -0.3316 -0.0380
 3844SOL    HW123165   2.637   4.044  10.780 -1.4199 -2.1100  1.1614
 3844SOL    HW223166   2.525   3.957  10.786 -1.6898 -0.7825 -1.5941
 3845SOL     OW23167   2.576   2.895  15.903  0.1399  0.1312 -0.0324
 3845SOL    HW123168   2.553   2.846  15.824  1.1228 -0.6038  0.1390
 3845SOL    HW223169   2.503   2.871  15.961 -0.5716  2.3092  0.0048
 3846SOL     OW23170   2.199   1.665   9.091 -0.2050  0.5902  0.6370
 3846SOL    HW123171   2.246   1.743   9.061  0.9547 -0.7826 -1.1507
 3846SOL    HW223172   2.114   1.670   9.048  0.4430 -1.6362 -0.8946
 3847SOL     OW23173   3.038   1.515   3.184  0.3814  0.3045  0.4881
 3847SOL    HW123174   2.972   1.459   3.142 -1.9668  2.2588  1.6264
 3847SOL    HW223175   3.101   1.446   3.206 -1.4902 -1.2358  1.0242
 3848SOL     OW23176   2.009   3.040  17.472 -0.1144  0.0919 -0.5200
 3848SOL    HW123177   1.980   2.984  17.400  0.2766 -0.1185 -0.5102
 3848SOL    HW223178   1.920   3.061  17.500 -0.5281 -0.4770 -1.4098
 3849SOL     OW23179   3.513   3.928   7.083 -0.6944 -0.0863  0.5956
 3849SOL    HW123180   3.425   3.936   7.121 -0.3206  0.8321  1.2960
 3849SOL    HW223181   3.548   3.858   7.138 -0.7785 -0.3262  0.3423
 3850SOL     OW23182   2.152   0.180   6.746  0.0872 -0.6052  0.1824
 3850SOL    HW123183   2.116   0.236   6.677 -1.2049  0.2184  1.5229
 3850SOL    HW223184   2.216   0.234   6.792  0.3202 -2.3877  1.9564
 3851SOL     OW23185   2.461   3.355   1.926  0.0675  0.2559  0.3241
 3851SOL    HW123186   2.394   3.373   1.860 -0.0449 -0.7594  0.1653
 3851SOL    HW223187   2.431   3.394   2.007 -0.8176  0.8856 -0.3107
 3852SOL     OW23188   0.580   1.582  10.184  0.1263  0.1892  0.2265
 3852SOL    HW123189   0.559   1.627  10.102  2.1069  0.2594 -0.2241
 3852SOL    HW223190   0.516   1.617  10.247 -0.5674 -0.4075 -0.1443
 3853SOL     OW23191   4.245   4.085   5.844 -0.4462 -0.6921 -0.4989
 3853SOL    HW123192   4.184   4.156   5.860  1.6242  0.7397  1.0949
 3853SOL    HW223193   4.271   4.059   5.933  0.8118  1.0198 -0.3571
 3854SOL     OW23194   1.663   0.497   9.428  0.2773  0.1691 -0.4260
 3854SOL    HW123195   1.610   0.563   9.384  0.5688 -0.0546 -1.1163
 3854SOL    HW223196   1.749   0.540   9.420 -0.0343  0.7871 -0.4257
 3855SOL     OW23197   1.874   4.111  17.172 -0.2751  0.5959  0.1654
 3855SOL    HW123198   1.960   4.112  17.128 -0.7917  1.1790 -0.8205
 3855SOL    HW223199   1.911   4.077  17.253 -2.4129  1.5954  1.5380
 3856SOL     OW23200   1.804   4.480   7.934  0.1807 -0.0936 -0.3863
 3856SOL    HW123201   1.788   4.531   7.855 -3.3403  0.0768  0.4690
 3856SOL    HW223202   1.899   4.469   7.924  0.6131  1.5738  1.9561
 3857SOL     OW23203   0.988   0.481   9.122 -0.5509  0.3064 -0.3463
 3857SOL    HW123204   1.014   0.391   9.140 -0.7441  0.4763  0.7452
 3857SOL    HW223205   0.907   0.462   9.073  0.8234 -2.1449 -1.6842
 3858SOL     OW23206   2.899   2.199  13.357  0.1500 -0.5424 -0.4124
 3858SOL    HW123207   2.982   2.160  13.386 -0.2658  0.7953  2.6361
 3858SOL    HW223208   2.927   2.289  13.345  2.0968 -0.9553  1.0309
 3859SOL     OW23209   0.504   4.357   2.106 -0.6278 -0.1469  0.1268
 3859SOL    HW123210   0.561   4.395   2.039  3.6820 -1.3918  3.0706
 3859SOL    HW223211   0.526   4.264   2.095  1.7842  0.2562  1.3571
 3860SOL     OW23212   3.075   1.862   7.532 -0.0164  0.2078  0.2771
 3860SOL    HW123213   3.124   1.855   7.614 -0.4503  3.2526  0.7884
 3860SOL    HW223214   3.022   1.938   7.555  0.2837  0.0935  1.3402
 3861SOL     OW23215   4.468   2.957   8.668 -0.3813  0.5844  0.5891
 3861SOL    HW123216   4.378   2.925   8.673 -0.7139  1.3860 -0.2050
 3861SOL    HW223217   4.526   2.885   8.643 -0.8604 -0.0166  1.2010
 3862SOL     OW23218   4.042   1.512   2.082 -0.2118  0.2156  0.3716
 3862SOL    HW123219   4.010   1.435   2.035  0.8020  0.5667 -0.8726
 3862SOL    HW223220   3.979   1.577   2.051  0.6763  0.6826 -0.4443
 3863SOL     OW23221   0.129   3.109   1.183  0.4105  0.0822  0.1640
 3863SOL    HW123222   0.074   3.171   1.231  2.6926  0.7217  1.9566
 3863SOL    HW223223   0.059   3.046   1.168 -0.3745  0.9765  0.1038
 3864SOL     OW23224   0.444   3.337   8.512 -0.3363  0.4746  0.0215
 3864SOL    HW123225   0.526   3.352   8.559 -1.4532  0.8390  1.8777
 3864SOL    HW223226   0.472   3.284   8.438  1.8206 -0.0379  1.2061
 3865SOL     OW23227   3.937   4.533  17.432 -1.1748 -0.1300  0.3182
 3865SOL    HW123228   3.955   4.570  17.519  2.7514  0.4438 -0.7254
 3865SOL    HW223229   3.906   4.616  17.396 -0.1209  0.5051  0.8435
 3866SOL     OW23230   1.290   2.443  17.135  0.0680 -0.3564 -0.2396
 3866SOL    HW123231   1.194   2.443  17.134  0.0863  0.6100 -1.6465
 3866SOL    HW223232   1.302   2.478  17.224  3.4833 -0.4856 -0.6568
 3867SOL     OW23233   2.790   2.493   9.607  0.2557  0.0339 -0.4333
 3867SOL    HW123234   2.843   2.571   9.625 -0.2763  0.6301 -1.4259
 3867SOL    HW223235   2.793   2.493   9.511 -1.4241  4.0038 -0.4993
 3868SOL     OW23236   3.044   3.521   3.687  0.0169  0.4267  0.5078
 3868SOL    HW123237   3.025   3.438   3.644 -4.6141  2.4813 -1.3654
 3868SOL    HW223238   3.139   3.533   3.683  0.1287 -0.1529  1.5847
 3869SOL     OW23239   2.154   1.750  10.684 -0.0106  0.4945  0.2507
 3869SOL    HW123240   2.084   1.807  10.714  0.2131  0.6341  0.5018
 3869SOL    HW223241   2.120   1.662  10.666 -0.8836  1.1894 -1.5031
 3870SOL     OW23242   2.479   4.165   4.063  0.0451 -0.5300 -0.5360
 3870SOL    HW123243   2.417   4.217   4.012 -1.3336 -0.7605  0.9058
 3870SOL    HW223244   2.421   4.137   4.134  1.1843 -0.2811  0.4987
 3871SOL     OW23245   2.325   4.483   4.977  0.0192 -0.3248 -0.1267
 3871SOL    HW123246   2.267   4.417   5.015  0.4799 -0.2248  0.7496
 3871SOL    HW223247   2.339   4.532   5.058  0.7634  0.0309 -0.4695
 3872SOL     OW23248   2.159   3.692  11.156 -0.4160  0.6154 -0.1240
 3872SOL    HW123249   2.207   3.773  11.173 -0.5861  0.6168  0.3625
 3872SOL    HW223250   2.071   3.725  11.170 -0.1687  0.9277  0.6856
 3873SOL     OW23251   4.240   2.904   5.805  0.2147  0.6572 -0.2282
 3873SOL    HW123252   4.256   2.816   5.770 -0.3070  0.8038 -0.8325
 3873SOL    HW223253   4.152   2.884   5.835 -0.7994  1.0481 -2.9770
 3874SOL     OW23254   4.292   1.376   5.477 -0.2726  0.4095 -0.3053
 3874SOL    HW123255   4.310   1.292   5.436  0.3424 -0.9591  2.7579
 3874SOL    HW223256   4.377   1.406   5.509 -0.2635  0.5518 -0.4633
 3875SOL     OW23257   4.351   1.846   8.366  0.1605 -0.4667 -0.5890
 3875SOL    HW123258   4.301   1.766   8.351  0.8022 -0.6638 -1.7180
 3875SOL    HW223259   4.383   1.817   8.452  1.1447  1.6234 -0.2499
 3876SOL     OW23260   1.486   2.903   7.897  0.3972  0.1989 -0.4939
 3876SOL    HW123261   1.514   2.839   7.962  0.4232  1.0584  0.3392
 3876SOL    HW223262   1.504   2.844   7.824 -1.7334 -0.5789 -0.3740
 3877SOL     OW23263   2.921   2.592   5.766  0.1873  0.0778 -0.0989
 3877SOL    HW123264   2.920   2.598   5.671  0.0725 -1.2053 -0.1768
 3877SOL    HW223265   2.970   2.672   5.787  0.4262 -0.3546  0.9944
 3878SOL     OW23266   2.699   4.658   8.195  0.2659 -0.5038  0.1249
 3878SOL    HW123267   2.676   4.726   8.258  0.1850  1.0329 -1.5437
 3878SOL    HW223268   2.782   4.696   8.167  1.2586 -2.7771  0.0459
 3879SOL     OW23269   1.361   3.300  10.367  0.4167 -0.3956 -0.2203
 3879SOL    HW123270   1.451   3.328  10.351  1.8792 -3.8692  2.2011
 3879SOL    HW223271   1.315   3.332  10.289  0.4217 -2.4510 -1.0639
 3880SOL     OW23272   3.935   4.035   5.393  0.6558  0.0449  0.6752
 3880SOL    HW123273   4.020   4.057   5.354  0.1308 -2.2462 -1.7472
 3880SOL    HW223274   3.877   4.100   5.351 -0.3563 -0.7359  0.8594
 3881SOL     OW23275   1.908   3.352   2.324 -0.2711  0.1672 -0.1922
 3881SOL    HW123276   1.831   3.347   2.380 -0.1448 -0.4469 -0.0755
 3881SOL    HW223277   1.896   3.432   2.273  0.0319 -0.5018 -1.3322
 3882SOL     OW23278   3.920   4.321   4.738  0.3634  0.0678  0.5677
 3882SOL    HW123279   3.908   4.395   4.677 -0.1025  1.3350  2.1867
 3882SOL    HW223280   3.878   4.338   4.822  0.2538 -4.9456  1.5173
 3883SOL     OW23281   0.944   3.495   2.068  0.4865 -0.4520  0.1787
 3883SOL    HW123282   1.037   3.510   2.050 -0.2364  1.2144 -2.1993
 3883SOL    HW223283   0.942   3.531   2.157  1.5141 -2.0377  0.8365
 3884SOL     OW23284   0.708   4.546   6.415 -0.2223 -0.4182 -0.4427
 3884SOL    HW123285   0.697   4.632   6.374  0.6597  0.5447  1.3602
 3884SOL    HW223286   0.799   4.569   6.433 -0.7350 -0.0188  1.5836
 3885SOL     OW23287   4.239   0.077   2.800 -0.1965 -0.1349 -0.1109
 3885SOL    HW123288   4.158   0.059   2.847  0.8741  0.4662  1.9880
 3885SOL    HW223289   4.212   0.092   2.710 -0.8243  0.9540  0.2669
 3886SOL     OW23290   0.523   0.021  13.529  0.3101 -0.2012 -0.3270
 3886SOL    HW123291   0.595   0.076  13.497 -0.2397  1.1298  0.7239
 3886SOL    HW223292   0.511   0.045  13.621  1.0988  2.5477 -0.9290
 3887SOL     OW23293   0.373   2.459   4.069 -0.0561  0.0435  0.3685
 3887SOL    HW123294   0.358   2.533   4.127  2.4924 -0.9019  2.2295
 3887SOL    HW223295   0.382   2.504   3.985 -0.8078  0.6090  0.5970
 3888SOL     OW23296   2.404   4.648  15.574  0.1123  0.1146 -0.0337
 3888SOL    HW123297   2.408   4.553  15.582  1.7839  0.2455  0.8499
 3888SOL    HW223298   2.421   4.653  15.480 -1.3382 -0.1011 -0.2942
 3889SOL     OW23299   2.571   2.150   2.481  0.1356  0.9623  0.0965
 3889SOL    HW123300   2.478   2.128   2.477 -0.0826  1.4872  2.2870
 3889SOL    HW223301   2.604   2.084   2.542  0.1538 -0.3247 -1.2961
 3890SOL     OW23302   4.074   1.809   5.000  0.2638 -0.2540 -0.4155
 3890SOL    HW123303   4.119   1.888   5.029 -1.7946  0.4746  0.7612
 3890SOL    HW223304   3.987   1.838   4.973  0.6582  1.4609  0.2060
 3891SOL     OW23305   1.611   3.977  12.543  0.7145  0.5410 -0.1212
 3891SOL    HW123306   1.619   4.064  12.581  1.7734  0.3187  0.1564
 3891SOL    HW223307   1.545   4.008  12.481  3.1442  3.3035 -1.3029
 3892SOL     OW23308   4.216   4.632   5.301 -0.1350  0.2345  0.3508
 3892SOL    HW123309   4.285   4.622   5.366 -0.6076  0.1137  0.8335
 3892SOL    HW223310   4.269   4.618   5.223  1.7188  1.2478  1.4267
 3893SOL     OW23311   3.822   1.820   3.400  0.4537  0.5315 -0.2312
 3893SOL    HW123312   3.778   1.904   3.410  0.5497  0.6054 -0.4259
 3893SOL    HW223313   3.879   1.859   3.334  0.6462 -1.8291 -1.4704
 3894SOL     OW23314   3.003   4.598   1.536 -0.0814  0.1604 -0.2524
 3894SOL    HW123315   3.057   4.538   1.485  2.8190  0.2993  2.6957
 3894SOL    HW223316   2.916   4.587   1.496 -0.4400 -1.7768  1.0972
 3895SOL     OW23317   3.121   2.484   6.987 -0.5027 -0.6521  0.1532
 3895SOL    HW123318   3.215   2.487   6.968 -0.2379 -0.2181  1.5157
 3895SOL    HW223319   3.085   2.541   6.918  0.8222  0.8714  0.7158
 3896SOL     OW23320   4.338   2.690   8.975 -0.0411  0.6478 -0.1386
 3896SOL    HW123321   4.426   2.689   8.938 -0.2013 -1.5218 -0.4421
 3896SOL    HW223322   4.343   2.640   9.057  3.6732  1.5119  0.1672
 3897SOL     OW23323   0.819   0.963   9.018 -0.2054 -0.5081  0.0627
 3897SOL    HW123324   0.777   1.019   9.084 -1.3750 -3.3857  1.7360
 3897SOL    HW223325   0.791   0.882   9.061  0.8265 -1.0222 -0.2299
 3898SOL     OW23326   0.131   2.337   2.362 -0.1327  0.3406  0.1106
 3898SOL    HW123327   0.158   2.375   2.445 -0.4633 -0.3417  0.5363
 3898SOL    HW223328   0.089   2.417   2.330 -0.5795  0.1562  0.2291
 3899SOL     OW23329   4.518   3.906   3.478  0.3653 -0.0712  0.1301
 3899SOL    HW123330   4.429   3.898   3.444  0.7366 -0.4420 -0.7642
 3899SOL    HW223331   4.568   3.888   3.399 -0.5418 -0.2495 -0.4010
 3900SOL     OW23332   2.143   2.369  17.096 -0.2993  0.2045 -0.4667
 3900SOL    HW123333   2.130   2.416  17.014  1.0380 -0.0149 -0.8030
 3900SOL    HW223334   2.054   2.379  17.130  1.1317  2.5045  2.4733
 3901SOL     OW23335   3.679   2.552   7.682 -0.0556 -0.1601 -0.2864
 3901SOL    HW123336   3.754   2.526   7.736 -0.5356  0.0198  0.4582
 3901SOL    HW223337   3.718   2.562   7.595 -1.3700  0.4885 -0.7969
 3902SOL     OW23338   1.591   3.308   6.474  0.1561 -0.1549 -0.0766
 3902SOL    HW123339   1.645   3.384   6.497  1.0886 -1.1570  1.0058
 3902SOL    HW223340   1.590   3.257   6.555 -1.7631  1.6535  1.0509
 3903SOL     OW23341   3.421   2.132   4.964  0.3907  0.1272  0.5207
 3903SOL    HW123342   3.517   2.123   4.966  0.0641 -3.0297  0.9796
 3903SOL    HW223343   3.401   2.042   4.938 -2.6466  1.1128 -0.5865
 3904SOL     OW23344   2.812   3.730  14.935 -0.0877 -0.2572  0.2765
 3904SOL    HW123345   2.840   3.743  15.026 -1.8383  2.0349  0.4750
 3904SOL    HW223346   2.878   3.667  14.906 -1.8152 -2.5719  1.3859
 3905SOL     OW23347   2.045   1.762   8.656  0.8566  0.3994  0.0868
 3905SOL    HW123348   2.044   1.852   8.688  0.2112  0.1788  0.6793
 3905SOL    HW223349   1.962   1.720   8.680  0.5432 -0.6714 -2.7623
 3906SOL     OW23350   1.859   0.058   8.926  0.3301  0.7033  0.5100
 3906SOL    HW123351   1.831   0.099   8.844  0.8363  0.1841  0.0791
 3906SOL    HW223352   1.779   0.046   8.977  0.3543 -0.5137  0.2645
 3907SOL     OW23353   2.638   3.075   6.424 -0.0876 -0.2298  0.4132
 3907SOL    HW123354   2.642   3.032   6.510 -0.1188  0.5701  0.8128
 3907SOL    HW223355   2.725   3.114   6.423  0.0804 -0.5801  1.2507
 3908SOL     OW23356   1.885   1.793  10.764 -0.0445 -0.4259 -0.2287
 3908SOL    HW123357   1.849   1.768  10.679 -2.1248 -3.7958  1.6610
 3908SOL    HW223358   1.822   1.755  10.824  1.3550 -0.1341  1.4284
 3909SOL     OW23359   0.775   1.270   5.994  0.0464  0.8007  0.0050
 3909SOL    HW123360   0.733   1.269   6.080 -0.3488  0.2728 -0.1976
 3909SOL    HW223361   0.735   1.194   5.952  1.6864 -1.4746  2.4989
 3910SOL     OW23362   4.386   1.662   2.801 -0.7402 -0.4288  0.0726
 3910SOL    HW123363   4.455   1.721   2.830 -1.0194 -0.3286  0.5370
 3910SOL    HW223364   4.304   1.710   2.789  0.0529  0.5582 -1.4550
 3911SOL     OW23365   2.931   0.601   8.709 -0.0753  0.0904  0.1486
 3911SOL    HW123366   2.965   0.559   8.630 -2.0086  0.6719 -1.0185
 3911SOL    HW223367   2.986   0.575   8.782 -0.9794  2.3418  1.6000
 3912SOL     OW23368   4.693   3.275   8.678  0.1122 -0.1876 -0.3014
 3912SOL    HW123369   4.603   3.268   8.708 -0.1591  1.9356 -0.6494
 3912SOL    HW223370   4.736   3.243   8.758 -1.8918  0.8477  1.2032
 3913SOL     OW23371   4.121   3.497   4.206 -0.4929  0.1381 -0.6497
 3913SOL    HW123372   4.118   3.404   4.228  0.6784  0.1219 -0.5421
 3913SOL    HW223373   4.182   3.497   4.132  0.5129 -0.0732  0.1823
 3914SOL     OW23374   3.261   3.734   3.209 -0.5353 -0.1120 -0.0283
 3914SOL    HW123375   3.324   3.741   3.138 -0.0702  1.6875  0.5470
 3914SOL    HW223376   3.255   3.642   3.235  0.2257  0.2211  1.3479
 3915SOL     OW23377   1.275   4.261   6.274 -0.7313  0.0319 -0.4546
 3915SOL    HW123378   1.296   4.212   6.353 -0.7745 -0.0572 -0.4980
 3915SOL    HW223379   1.208   4.203   6.237  1.3102 -1.1097 -2.3750
 3916SOL     OW23380   3.227   3.504  13.626  0.9730 -0.1506 -0.6752
 3916SOL    HW123381   3.301   3.562  13.612  1.0633 -0.6816 -2.4238
 3916SOL    HW223382   3.266   3.429  13.671 -0.5635 -1.1392 -0.9693
 3917SOL     OW23383   2.069   2.443   6.600  0.1806  0.1799  0.7468
 3917SOL    HW123384   2.083   2.493   6.520  0.0715  2.0273  1.8836
 3917SOL    HW223385   1.977   2.445   6.627  0.2094 -0.7875  0.9415
 3918SOL     OW23386   0.658   1.738   1.311 -0.1899  0.1536  0.3947
 3918SOL    HW123387   0.724   1.671   1.292  0.4543  0.6358  0.9437
 3918SOL    HW223388   0.694   1.777   1.390 -1.1663  0.6976  0.5734
 3919SOL     OW23389   2.185   2.471  13.353  0.4011  0.4137 -0.5929
 3919SOL    HW123390   2.208   2.556  13.316 -0.1442  0.0934 -1.6486
 3919SOL    HW223391   2.244   2.413  13.306  1.1023  1.4243 -0.9576
 3920SOL     OW23392   0.910   1.519   9.093  0.0918  0.7689 -0.0514
 3920SOL    HW123393   0.853   1.522   9.170  0.7530  2.2053  0.3839
 3920SOL    HW223394   0.932   1.612   9.090  0.8098  0.5427 -1.5056
 3921SOL     OW23395   0.019   4.220   8.089  0.0269  0.4428 -0.3478
 3921SOL    HW123396   0.020   4.174   8.005 -3.7630 -0.6395  0.2225
 3921SOL    HW223397   0.053   4.306   8.062  0.2624 -0.6502 -3.5094
 3922SOL     OW23398   1.136   2.283  14.667 -0.0234  0.2635 -0.0304
 3922SOL    HW123399   1.230   2.277  14.651 -0.2937 -0.5367 -1.2354
 3922SOL    HW223400   1.096   2.254  14.585 -3.0154 -1.5532  2.0769
 3923SOL     OW23401   3.260   1.715  10.657  0.4153 -0.4630  0.0478
 3923SOL    HW123402   3.176   1.758  10.676  0.9079  0.8432 -0.7506
 3923SOL    HW223403   3.291   1.768  10.584  0.7307  0.6581  0.9967
 3924SOL     OW23404   3.359   1.842  15.339 -0.5117  0.4910 -0.4592
 3924SOL    HW123405   3.334   1.760  15.296 -0.3796  0.1146  0.1841
 3924SOL    HW223406   3.283   1.899  15.346  0.4990  1.8048 -0.2293
 3925SOL     OW23407   4.373   2.941   3.727 -0.2083 -0.0999 -0.4034
 3925SOL    HW123408   4.314   2.951   3.652 -1.8485  0.6461  1.0008
 3925SOL    HW223409   4.342   3.019   3.773 -0.0669 -0.6006  0.5285
 3926SOL     OW23410   3.401   1.365   8.160 -0.0762  0.1788 -0.0958
 3926SOL    HW123411   3.408   1.451   8.118  0.5290  0.3511  0.3508
 3926SOL    HW223412   3.312   1.357   8.192 -0.9254  1.8136 -2.0079
 3927SOL     OW23413   2.260   2.405   1.913 -0.1797 -0.2272  0.1019
 3927SOL    HW123414   2.166   2.399   1.926 -0.1303  1.6075  1.2688
 3927SOL    HW223415   2.281   2.475   1.974 -0.2052 -1.4190  1.4631
 3928SOL     OW23416   4.058   2.171   4.781 -0.5155  0.2120  0.3888
 3928SOL    HW123417   4.051   2.078   4.762  0.4953 -0.1940  2.0098
 3928SOL    HW223418   4.035   2.205   4.695 -0.8198  0.0574  0.4096
 3929SOL     OW23419   2.108   3.452   7.560  0.0770  0.0221  0.3545
 3929SOL    HW123420   2.076   3.484   7.476  0.8652 -0.3433 -0.0765
 3929SOL    HW223421   2.052   3.375   7.575 -0.6831  0.7252  1.1811
 3930SOL     OW23422   1.880   0.865   5.262  0.4543 -0.2647  0.0744
 3930SOL    HW123423   1.966   0.825   5.264  0.5956  0.0172 -0.2862
 3930SOL    HW223424   1.864   0.864   5.356  3.8487 -0.2021  0.6290
 3931SOL     OW23425   4.476   1.409   7.546 -0.0843  0.2336  0.0555
 3931SOL    HW123426   4.407   1.375   7.489 -1.0753  4.1185 -1.0376
 3931SOL    HW223427   4.556   1.412   7.494  0.7574 -2.4875  1.1901
 3932SOL     OW23428   1.446   2.600   6.449  0.1617 -0.0307  0.7204
 3932SOL    HW123429   1.508   2.530   6.429 -1.2550 -1.2890  0.7050
 3932SOL    HW223430   1.483   2.674   6.401 -0.8632  0.0709  0.0789
 3933SOL     OW23431   1.009   2.844   8.726 -0.2828 -0.2442 -0.3021
 3933SOL    HW123432   0.989   2.933   8.755 -1.9026 -0.5504 -0.5122
 3933SOL    HW223433   0.930   2.806   8.687  1.0665 -0.3408 -2.9428
 3934SOL     OW23434   0.467   0.342   7.611  0.1971  0.0200  0.2498
 3934SOL    HW123435   0.381   0.362   7.575 -0.2210 -2.6821 -0.2570
 3934SOL    HW223436   0.463   0.252   7.643 -0.1245 -0.3905 -0.9548
 3935SOL     OW23437   0.284   1.653   1.574  0.0840  0.6305  0.4119
 3935SOL    HW123438   0.362   1.622   1.528 -1.1713 -0.1821 -1.1545
 3935SOL    HW223439   0.213   1.604   1.533  2.5637  0.5329 -3.8227
 3936SOL     OW23440   3.501   0.389   3.876  0.0006 -0.0660  0.1709
 3936SOL    HW123441   3.460   0.341   3.947 -0.6297 -0.0295 -0.1661
 3936SOL    HW223442   3.556   0.321   3.838 -1.6773 -0.9668 -0.6319
 3937SOL     OW23443   2.132   0.306   8.899  0.2384  0.2850 -0.6111
 3937SOL    HW123444   2.066   0.366   8.865 -0.5614  0.2813  0.9302
 3937SOL    HW223445   2.102   0.224   8.858  2.0916 -0.3436 -0.7116
 3938SOL     OW23446   2.780   4.371   6.924 -0.0379 -0.3529  0.0128
 3938SOL    HW123447   2.766   4.353   7.017 -1.8461 -1.8526 -0.5479
 3938SOL    HW223448   2.780   4.467   6.921 -1.1687 -0.2882  2.3296
 3939SOL     OW23449   2.146   0.444   8.265  0.1080  0.2687  0.5872
 3939SOL    HW123450   2.221   0.388   8.244  0.2386  0.6535  0.0367
 3939SOL    HW223451   2.066   0.415   8.221 -0.6676  2.0280  0.8296
 3940SOL     OW23452   0.217   2.052  15.303  0.7743 -0.3853  0.1253
 3940SOL    HW123453   0.308   2.024  15.316  0.4163 -1.4582  0.3498
 3940SOL    HW223454   0.216   2.061  15.208 -1.2564 -0.8549  0.1036
 3941SOL     OW23455   0.679   1.262   6.978  0.1859  0.3696  0.2625
 3941SOL    HW123456   0.583   1.263   6.975  0.1836 -0.3332  0.1443
 3941SOL    HW223457   0.687   1.356   6.998  1.0460  0.5193 -0.8076
 3942SOL     OW23458   1.352   1.585   8.392 -0.2700  0.0319  0.0898
 3942SOL    HW123459   1.435   1.550   8.422  0.8875  0.6572 -2.3782
 3942SOL    HW223460   1.376   1.627   8.309 -1.8863  0.3150 -0.2444
 3943SOL     OW23461   2.338   1.117   3.184 -0.2910 -0.9151  0.0926
 3943SOL    HW123462   2.337   1.025   3.159  2.3747 -1.0489  0.5133
 3943SOL    HW223463   2.356   1.163   3.102 -0.1404 -1.3984 -0.1420
 3944SOL     OW23464   0.644   0.924   7.371 -0.7414  0.0850  1.1287
 3944SOL    HW123465   0.693   0.898   7.449 -0.7714 -0.1081  1.0814
 3944SOL    HW223466   0.645   1.017   7.393  1.2618  0.3983 -0.2687
 3945SOL     OW23467   0.377   2.654   8.786  0.1918  0.7430  0.4160
 3945SOL    HW123468   0.423   2.681   8.707  1.0535 -1.4876  0.1340
 3945SOL    HW223469   0.345   2.570   8.753 -0.5095  0.8106  0.9077
 3946SOL     OW23470   0.504   2.950  12.415  0.2541  0.1011 -0.4342
 3946SOL    HW123471   0.569   3.010  12.378 -0.4473  1.0702 -0.0758
 3946SOL    HW223472   0.438   2.938  12.346  0.1954 -1.0517 -0.1714
 3947SOL     OW23473   3.361   3.417   5.734  0.2253  0.1677 -0.4932
 3947SOL    HW123474   3.370   3.349   5.668 -1.5193 -1.5788  1.0675
 3947SOL    HW223475   3.452   3.443   5.749 -0.3235  1.8181  0.0801
 3948SOL     OW23476   3.693   1.170   6.279 -0.6069 -0.2623 -0.1658
 3948SOL    HW123477   3.624   1.111   6.310  0.6236 -0.6649  1.7782
 3948SOL    HW223478   3.674   1.182   6.186  1.0833  1.7287 -0.2598
 3949SOL     OW23479   0.598   1.038   3.877  0.1580  0.6048 -0.5987
 3949SOL    HW123480   0.694   1.037   3.876  0.1781  2.2974  0.1325
 3949SOL    HW223481   0.579   0.944   3.879  1.0116  0.4335 -0.7166
 3950SOL     OW23482   2.758   0.629   8.938  0.0446 -0.6607 -0.3920
 3950SOL    HW123483   2.683   0.581   8.904  0.6195 -0.3342 -2.1347
 3950SOL    HW223484   2.826   0.565   8.915  0.4086 -0.6058  0.5348
 3951SOL     OW23485   2.732   3.087   1.738  0.2296 -0.3148 -0.1424
 3951SOL    HW123486   2.752   3.120   1.825 -1.9378 -0.1898  0.3113
 3951SOL    HW223487   2.820   3.064   1.706  0.9228  1.4923  0.4963
 3952SOL     OW23488   1.602   1.757   7.197 -0.2666  0.2192 -0.0998
 3952SOL    HW123489   1.634   1.717   7.278  0.3590  0.7056 -0.1116
 3952SOL    HW223490   1.511   1.766   7.226 -0.6825  1.2701 -1.7932
 3953SOL     OW23491   2.410   4.200   8.467  0.7014  0.3499 -0.2503
 3953SOL    HW123492   2.476   4.131   8.454 -0.2295 -0.9430  1.8684
 3953SOL    HW223493   2.471   4.260   8.509 -1.4828  2.4804 -0.1223
 3954SOL     OW23494   2.454   1.409   1.659  0.1587  0.2729 -0.3475
 3954SOL    HW123495   2.425   1.470   1.727  0.4953 -1.1442  1.0773
 3954SOL    HW223496   2.366   1.393   1.624 -0.2264 -1.4993  1.4455
 3955SOL     OW23497   0.284   1.229   5.606 -0.1393 -0.8254 -0.3289
 3955SOL    HW123498   0.272   1.232   5.701 -1.5650  0.7556 -0.5568
 3955SOL    HW223499   0.204   1.185   5.577 -2.0770  0.5824  2.8392
 3956SOL     OW23500   3.824   0.042   2.215  0.3351  0.3804  0.1808
 3956SOL    HW123501   3.803   4.686   2.227 -5.1042  1.7541  1.4560
 3956SOL    HW223502   3.849   0.069   2.303  0.0033  2.2138 -0.2936
 3957SOL     OW23503   2.874   1.833   0.210  0.4313 -0.4546 -0.3844
 3957SOL    HW123504   2.847   1.800   0.295  0.0387 -0.3410 -0.4679
 3957SOL    HW223505   2.807   1.790   0.156  1.0350 -3.3042  1.1434
 3958SOL     OW23506   3.416   2.241   8.195 -0.2189 -0.0402 -0.4394
 3958SOL    HW123507   3.367   2.235   8.112 -2.2688  3.0438  0.5403
 3958SOL    HW223508   3.442   2.149   8.200  1.1791  0.5018  1.7545
 3959SOL     OW23509   0.387   1.533   9.989  0.2376  0.4150  0.6395
 3959SOL    HW123510   0.308   1.485  10.014 -0.1202  0.9074  0.4419
 3959SOL    HW223511   0.354   1.623   9.994 -1.2920 -0.0544 -1.1522
 3960SOL     OW23512   1.042   1.683   7.150  0.3473 -0.1417 -0.6633
 3960SOL    HW123513   1.081   1.655   7.067 -0.7327 -0.0069 -1.2176
 3960SOL    HW223514   1.031   1.777   7.137 -2.6243 -0.5968 -1.5079
 3961SOL     OW23515   2.715   2.657  12.341  0.5031 -0.1346  0.6277
 3961SOL    HW123516   2.624   2.667  12.312  0.3585 -0.0179  1.1198
 3961SOL    HW223517   2.726   2.565  12.320  0.2822 -0.2891  1.2087
 3962SOL     OW23518   0.544   0.862  16.122  0.0744 -0.5675 -0.0874
 3962SOL    HW123519   0.514   0.948  16.153 -0.1346 -0.6183 -0.1487
 3962SOL    HW223520   0.639   0.861  16.135  0.1746  0.5501 -0.7152
 3963SOL     OW23521   4.595   4.335   4.507  0.1836  0.1313  0.3121
 3963SOL    HW123522   4.671   4.313   4.454 -0.1456  2.5869 -1.2202
 3963SOL    HW223523   4.571   4.424   4.480  0.9308  0.7842  1.8230
 3964SOL     OW23524   4.470   3.870  15.393  0.2024  0.2417  0.5470
 3964SOL    HW123525   4.561   3.855  15.367  0.4801  2.0148  0.5569
 3964SOL    HW223526   4.420   3.851  15.314  1.4370 -1.0600  0.0726
 3965SOL     OW23527   4.011   3.407   7.399  0.0709 -0.2172 -0.2006
 3965SOL    HW123528   3.970   3.491   7.417  0.5028 -0.5221  2.1331
 3965SOL    HW223529   3.954   3.354   7.454  1.7733  1.8692  3.5558
 3966SOL     OW23530   4.074   4.518   9.868  0.3491 -0.0636 -0.0451
 3966SOL    HW123531   4.166   4.528   9.844  0.1569 -1.7271 -1.5367
 3966SOL    HW223532   4.060   4.551   9.956  1.9568  0.9089 -0.1541
 3967SOL     OW23533   0.466   4.390   2.927 -0.1390  0.4683 -1.1466
 3967SOL    HW123534   0.379   4.349   2.925  0.4558 -0.8578  0.1617
 3967SOL    HW223535   0.515   4.310   2.946 -2.0422 -0.3797  0.2261
 3968SOL     OW23536   1.188   2.650   0.907  0.4215 -0.0834 -0.1929
 3968SOL    HW123537   1.246   2.586   0.867 -0.6515 -0.9540 -0.3503
 3968SOL    HW223538   1.134   2.596   0.965  1.4680  1.3353  2.1115
 3969SOL     OW23539   3.542   0.032  11.361 -0.5759  0.6973 -0.2089
 3969SOL    HW123540   3.535   4.680  11.393 -0.2932  0.9194  0.4682
 3969SOL    HW223541   3.577   0.016  11.273 -0.1759 -2.3486  0.4991
 3970SOL     OW23542   2.612   2.376   9.325 -0.1667  0.1581 -0.4222
 3970SOL    HW123543   2.584   2.335   9.243  2.5441  2.5983 -2.5762
 3970SOL    HW223544   2.656   2.456   9.298 -0.4117  0.8741  1.2966
 3971SOL     OW23545   3.115   1.843   2.834  0.3178  0.4756  0.2830
 3971SOL    HW123546   3.065   1.906   2.886 -1.6605 -0.4605 -0.5218
 3971SOL    HW223547   3.130   1.772   2.897 -1.2992 -1.4984 -1.5777
 3972SOL     OW23548   0.003   1.828   4.443 -1.0378 -0.3647 -0.1241
 3972SOL    HW123549   0.017   1.870   4.358  1.6437 -1.4913 -0.2357
 3972SOL    HW223550   4.667   1.882   4.472 -2.0886 -1.7053 -0.2988
 3973SOL     OW23551   3.500   1.132   5.132  0.3628  0.1777 -0.3748
 3973SOL    HW123552   3.505   1.138   5.227 -0.1646 -2.1760 -0.2014
 3973SOL    HW223553   3.497   1.036   5.127 -1.1310  0.2277 -0.6084
 3974SOL     OW23554   3.916   4.630   1.212  0.2210  0.2777  0.4463
 3974SOL    HW123555   3.865   4.652   1.290  1.0359  1.0423  0.7700
 3974SOL    HW223556   3.963   4.713   1.207  1.6379 -0.7342 -2.7245
 3975SOL     OW23557   1.649   0.369  11.315 -0.2295 -0.0219 -0.0460
 3975SOL    HW123558   1.561   0.334  11.300 -1.0784  2.5162 -1.0187
 3975SOL    HW223559   1.672   0.298  11.376 -3.2363 -0.6524  0.3437
 3976SOL     OW23560   2.585   4.404  11.939  0.4466  0.6945 -0.2355
 3976SOL    HW123561   2.676   4.374  11.937  0.0628 -0.4143 -1.5925
 3976SOL    HW223562   2.583   4.495  11.968  1.0578  0.5424  0.2750
 3977SOL     OW23563   1.412   2.727   4.131 -0.2468 -0.0677 -0.6315
 3977SOL    HW123564   1.348   2.712   4.201  0.5909  1.6179  0.4833
 3977SOL    HW223565   1.355   2.738   4.055 -0.9117 -1.2970 -0.3169
 3978SOL     OW23566   3.505   1.753   2.748 -0.1114 -0.0556  0.1549
 3978SOL    HW123567   3.507   1.845   2.722 -0.7277  0.0474  0.4863
 3978SOL    HW223568   3.413   1.740   2.726 -0.5287  0.4150  1.6213
 3979SOL     OW23569   1.539   1.312   4.347  0.0089 -0.6326  0.5243
 3979SOL    HW123570   1.585   1.282   4.269  2.0732 -0.2175  1.6024
 3979SOL    HW223571   1.558   1.405   4.339 -0.6571 -0.3589  2.1405
 3980SOL     OW23572   2.640   2.658   9.011  0.7864  0.0310  0.0753
 3980SOL    HW123573   2.691   2.627   9.086 -1.9363 -0.0958  1.9095
 3980SOL    HW223574   2.566   2.697   9.058 -2.0575 -2.1462 -2.5896
 3981SOL     OW23575   3.879   0.981   2.967 -0.0490 -0.1518  0.5391
 3981SOL    HW123576   3.907   1.052   3.025  3.0904  0.3514 -1.5499
 3981SOL    HW223577   3.784   0.977   2.978 -0.3656  3.1463 -1.0524
 3982SOL     OW23578   3.681   4.470  10.049  0.5783 -0.3244 -0.2422
 3982SOL    HW123579   3.636   4.543  10.091  1.5322  1.2382 -1.9082
 3982SOL    HW223580   3.613   4.438   9.990 -0.3415 -0.0734  0.6912
 3983SOL     OW23581   0.270   3.878   1.831 -0.1924  0.0306  0.0201
 3983SOL    HW123582   0.182   3.845   1.844 -0.2571  0.7983  1.5328
 3983SOL    HW223583   0.311   3.805   1.785  0.4069 -0.1284  0.8102
 3984SOL     OW23584   4.653   4.157  14.135  0.3752 -0.0002 -0.4350
 3984SOL    HW123585   0.003   4.143  14.099  0.0268 -1.5939 -0.6776
 3984SOL    HW223586   4.624   4.225  14.074 -2.1042  0.7123  1.5306
 3985SOL     OW23587   4.447   3.203  12.780 -0.6672 -0.0747 -0.6006
 3985SOL    HW123588   4.410   3.275  12.729 -0.8727  0.5600  0.4317
 3985SOL    HW223589   4.533   3.241  12.798 -0.3102 -1.0860 -0.1830
 3986SOL     OW23590   2.693   2.085   3.019 -0.0609 -0.0582  0.0188
 3986SOL    HW123591   2.762   2.089   3.085  0.0829 -1.7871 -0.0377
 3986SOL    HW223592   2.748   2.084   2.941 -0.8503 -1.8521 -0.5145
 3987SOL     OW23593   1.854   2.958   0.262 -0.2499  0.0027 -0.0456
 3987SOL    HW123594   1.919   2.909   0.312 -0.5975 -2.3367 -1.9021
 3987SOL    HW223595   1.852   2.909   0.180 -0.0883 -2.7044  1.5775
 3988SOL     OW23596   3.831   0.496   5.421  0.3631  0.0810 -0.7868
 3988SOL    HW123597   3.838   0.539   5.335 -3.2368  2.1654 -0.0337
 3988SOL    HW223598   3.736   0.483   5.429  0.7323 -1.8402  0.3429
 3989SOL     OW23599   1.645   2.822   2.310  0.2703  0.0968  0.5149
 3989SOL    HW123600   1.683   2.754   2.254  2.2468 -0.2948  2.3608
 3989SOL    HW223601   1.560   2.826   2.267  0.7117 -0.7237 -0.4329
 3990SOL     OW23602   3.159   2.281  15.435 -0.3041  0.3376 -0.1335
 3990SOL    HW123603   3.158   2.369  15.474  1.4403 -0.7160  2.3151
 3990SOL    HW223604   3.239   2.270  15.383 -0.4058 -0.1467 -0.1799
 3991SOL     OW23605   1.364   4.435   6.716  0.5004 -0.1867 -0.6193
 3991SOL    HW123606   1.310   4.433   6.795 -2.6757  0.2043 -2.7423
 3991SOL    HW223607   1.448   4.459   6.755  0.9856 -2.8664 -0.0803
 3992SOL     OW23608   1.823   1.485   4.496  0.1047  0.6399  0.3443
 3992SOL    HW123609   1.809   1.437   4.578  1.6955  1.8020  1.2991
 3992SOL    HW223610   1.736   1.525   4.486  0.1193  0.2826 -1.2689
 3993SOL     OW23611   2.654   0.080  14.293  0.8370  0.0508 -0.3598
 3993SOL    HW123612   2.749   0.080  14.293  0.8315 -0.4953 -0.6744
 3993SOL    HW223613   2.642   4.723  14.284 -0.5039  0.0273  1.5790
 3994SOL     OW23614   0.844   2.328  13.660 -0.0118  0.1481  0.0471
 3994SOL    HW123615   0.773   2.349  13.599  1.1768  0.9662 -1.0490
 3994SOL    HW223616   0.836   2.401  13.723  0.0913  0.8541 -0.7593
 3995SOL     OW23617   1.015   0.232   3.461  0.5828  0.1745  0.0778
 3995SOL    HW123618   0.954   0.179   3.410 -0.4534  1.0184  0.4352
 3995SOL    HW223619   0.951   0.287   3.506  0.0366 -1.4909  1.3353
 3996SOL     OW23620   3.257   3.861   3.453  0.6749 -0.0793 -0.4807
 3996SOL    HW123621   3.205   3.940   3.461  0.0809 -0.2630 -2.5734
 3996SOL    HW223622   3.230   3.831   3.366  2.6990  0.8097 -1.4281
 3997SOL     OW23623   0.187   2.563  14.001 -0.4859  0.0337 -0.4657
 3997SOL    HW123624   0.209   2.562  13.908  1.7625 -1.5219  0.0806
 3997SOL    HW223625   0.103   2.518  14.008 -1.0305  1.0489 -0.4343
 3998SOL     OW23626   0.204   2.232   5.611 -0.0454 -0.1492  0.0838
 3998SOL    HW123627   0.213   2.277   5.527 -1.5280  1.0930  0.6153
 3998SOL    HW223628   0.121   2.270   5.638  0.0245  0.1392 -0.1074
 3999SOL     OW23629   3.823   3.120  13.302  0.3444  0.1676  0.3207
 3999SOL    HW123630   3.756   3.115  13.233 -1.2354  1.2261  1.7789
 3999SOL    HW223631   3.763   3.159  13.366  0.2333  0.7086 -0.1127
 4000SOL     OW23632   3.334   3.748   2.652 -0.4660  0.3925 -0.6565
 4000SOL    HW123633   3.314   3.791   2.569 -1.2526  0.0960 -0.6208
 4000SOL    HW223634   3.263   3.684   2.653 -1.1109  1.1175  0.6784
 4001SOL     OW23635   1.207   1.238  10.567 -0.0751 -0.2874  0.5175
 4001SOL    HW123636   1.150   1.208  10.638 -1.0616 -1.1209 -0.6170
 4001SOL    HW223637   1.172   1.326  10.559  0.9655  0.2525  2.0128
 4002SOL     OW23638   4.446   1.596   7.187 -0.7157 -0.3321  0.2334
 4002SOL    HW123639   4.525   1.551   7.215  0.5724  0.7470 -1.5904
 4002SOL    HW223640   4.393   1.525   7.150 -0.2299  0.7819 -2.6296
 4003SOL     OW23641   0.064   1.032   7.957  0.4720 -0.0882  0.2138
 4003SOL    HW123642   0.073   1.025   8.052 -0.3197  5.3582  0.6827
 4003SOL    HW223643   0.056   1.127   7.948  0.4014 -0.0463  0.7066
 4004SOL     OW23644   2.513   4.588  17.680  0.0036  0.1792  0.1394
 4004SOL    HW123645   2.462   4.558   0.007  3.0509  0.3659  2.2940
 4004SOL    HW223646   2.450   4.565  17.611 -0.1059 -1.7777  0.9129
 4005SOL     OW23647   1.061   2.753   5.997  0.3319 -0.4825 -0.3007
 4005SOL    HW123648   0.982   2.710   6.030 -0.9911  0.2064 -2.6221
 4005SOL    HW223649   1.025   2.803   5.924 -0.5335  0.5250  0.7899
 4006SOL     OW23650   0.502   1.422   8.252  0.7366  0.2873 -0.1512
 4006SOL    HW123651   0.512   1.518   8.253  2.6976  0.0974 -1.0012
 4006SOL    HW223652   0.417   1.414   8.209  0.1856  1.4381  0.7110
 4007SOL     OW23653   1.931   4.192   2.687 -0.4430  0.3287 -0.1025
 4007SOL    HW123654   1.968   4.272   2.726  0.2862 -0.6143  1.1359
 4007SOL    HW223655   1.837   4.207   2.698 -0.9123 -1.0172 -2.2474
 4008SOL     OW23656   2.638   2.908  17.717 -0.4856 -0.4236 -0.0620
 4008SOL    HW123657   2.663   2.992  17.678 -0.1221 -1.1907 -1.4404
 4008SOL    HW223658   2.721   2.862  17.727 -1.0242 -1.7866 -2.0842
 4009SOL     OW23659   2.031   0.688   4.497  0.5089 -0.4540  0.0371
 4009SOL    HW123660   2.063   0.748   4.564  0.5732 -1.1403  0.6167
 4009SOL    HW223661   2.019   0.604   4.541 -1.4081  0.0613  0.4932
 4010SOL     OW23662   2.100   2.675   1.127  0.8122  0.3216  0.5158
 4010SOL    HW123663   2.153   2.731   1.069 -1.5098 -0.5148 -2.4565
 4010SOL    HW223664   2.129   2.701   1.214  0.7393  1.2709  0.2600
 4011SOL     OW23665   0.695   2.088   3.260  0.7392  0.6570 -0.1272
 4011SOL    HW123666   0.757   2.160   3.272  0.2283  0.7568  2.0832
 4011SOL    HW223667   0.726   2.024   3.324 -0.3579  0.2499 -0.0017
 4012SOL     OW23668   2.363   2.939   2.714  0.3446  0.0982  0.9823
 4012SOL    HW123669   2.313   2.953   2.634 -1.6459 -1.4619  1.9492
 4012SOL    HW223670   2.420   3.016   2.707 -0.0411  0.2282 -0.6479
 4013SOL     OW23671   4.080   3.148   8.836 -0.1330 -0.4266  0.2427
 4013SOL    HW123672   3.994   3.181   8.809 -0.2787 -1.0535 -0.0850
 4013SOL    HW223673   4.105   3.214   8.900  2.4983 -0.3032 -0.9196
 4014SOL     OW23674   3.897   3.906   9.730  0.7618 -0.0701 -0.8948
 4014SOL    HW123675   3.936   3.992   9.744  1.5753 -0.9107  2.2518
 4014SOL    HW223676   3.803   3.919   9.730  1.0361  1.8703  1.5309
 4015SOL     OW23677   3.630   4.480  12.719  0.3220  0.0047 -0.4265
 4015SOL    HW123678   3.554   4.531  12.750  0.8621  0.2201  0.5726
 4015SOL    HW223679   3.629   4.416  12.790  0.3333  3.3549  2.6258
 4016SOL     OW23680   2.390   0.312   6.189 -0.0256 -0.5353  0.2348
 4016SOL    HW123681   2.315   0.325   6.131  1.5048 -0.9080 -1.8236
 4016SOL    HW223682   2.462   0.299   6.128  1.4730 -1.4801  2.1996
 4017SOL     OW23683   2.095   4.614   4.903 -0.1063  0.5922 -0.2100
 4017SOL    HW123684   2.007   4.597   4.934 -0.1201  2.0693  0.5863
 4017SOL    HW223685   2.129   4.526   4.890 -1.4056  0.0151  0.3627
 4018SOL     OW23686   3.303   4.239   1.206 -0.6769 -0.0475 -0.5654
 4018SOL    HW123687   3.278   4.211   1.119 -2.1201  0.9819 -0.4814
 4018SOL    HW223688   3.394   4.268   1.196  0.0494 -1.7891  0.9049
 4019SOL     OW23689   4.561   0.792  10.720  0.6599  0.0566  0.0801
 4019SOL    HW123690   4.620   0.864  10.740 -0.6081  0.0873  3.7210
 4019SOL    HW223691   4.592   0.731  10.787  1.1638  0.8749  0.5895
 4020SOL     OW23692   1.850   0.838   7.452  0.2163  0.6431 -0.2986
 4020SOL    HW123693   1.923   0.862   7.395  1.5449 -1.4955  0.4925
 4020SOL    HW223694   1.844   0.909   7.515  0.5601 -0.1730  0.6636
 4021SOL     OW23695   0.568   4.137   9.560 -0.3436  0.1734 -0.3542
 4021SOL    HW123696   0.578   4.230   9.583 -3.8564  0.6039 -0.5490
 4021SOL    HW223697   0.484   4.141   9.515 -0.1521 -2.7743 -0.9562
 4022SOL     OW23698   4.417   4.506   8.004  0.5005 -0.1877 -0.2808
 4022SOL    HW123699   4.386   4.417   8.019 -2.5175  0.9750  0.3446
 4022SOL    HW223700   4.351   4.536   7.942 -1.7776 -0.1710  2.1559
 4023SOL     OW23701   1.712   4.065   2.117 -0.0791  0.4877  0.0442
 4023SOL    HW123702   1.748   4.032   2.199  1.2614 -1.2738 -1.2312
 4023SOL    HW223703   1.792   4.107   2.083  0.6871  0.2172  1.5290
 4024SOL     OW23704   3.791   0.251   2.846 -0.1959 -0.1020  0.3126
 4024SOL    HW123705   3.809   0.256   2.940 -0.7041  2.4628  0.2702
 4024SOL    HW223706   3.820   0.341   2.832 -1.6448 -0.0550 -2.2984
 4025SOL     OW23707   2.041   3.432  15.224 -0.9386  0.0116 -0.2244
 4025SOL    HW123708   2.000   3.396  15.146 -2.0409 -0.9899  0.8081
 4025SOL    HW223709   2.089   3.503  15.183 -1.6137  0.8818  0.5029
 4026SOL     OW23710   3.876   4.480   2.272  0.1371  0.2807 -0.2293
 4026SOL    HW123711   3.900   4.389   2.293  2.3380  1.1923  1.1915
 4026SOL    HW223712   3.881   4.524   2.357 -1.0480  1.3959 -0.7410
 4027SOL     OW23713   3.833   1.794   3.869 -0.1348 -0.3173  0.3369
 4027SOL    HW123714   3.783   1.767   3.792  0.3059  2.6119 -0.9934
 4027SOL    HW223715   3.797   1.746   3.943  0.4760  0.9292  1.4395
 4028SOL     OW23716   3.983   1.541  11.878  0.4026 -0.2247 -0.0203
 4028SOL    HW123717   4.043   1.537  11.952  2.0300  0.2736 -1.3346
 4028SOL    HW223718   3.911   1.591  11.918 -1.7169 -1.8698 -1.7785
 4029SOL     OW23719   4.420   3.126   9.033  0.4610 -0.2516  0.7045
 4029SOL    HW123720   4.505   3.084   9.025 -0.3028 -1.5623 -0.7050
 4029SOL    HW223721   4.351   3.066   9.059 -0.5109  0.9331  0.8761
 4030SOL     OW23722   2.485   4.227   5.375 -0.2847  0.5302  0.2500
 4030SOL    HW123723   2.564   4.174   5.362 -0.0700  1.2835 -1.4512
 4030SOL    HW223724   2.422   4.167   5.335  2.0627  0.1091 -2.8716
 4031SOL     OW23725   2.699   2.640   9.349  0.5996  0.4345 -0.2663
 4031SOL    HW123726   2.760   2.696   9.301  0.8903  0.4064  0.0698
 4031SOL    HW223727   2.662   2.706   9.409  0.1957  0.2823 -0.3464
 4032SOL     OW23728   4.682   1.921   6.747 -0.2796  0.3477  0.1155
 4032SOL    HW123729   4.601   1.902   6.794  0.0017 -2.5753 -0.5842
 4032SOL    HW223730   4.679   1.837   6.701  0.2708  1.1632 -1.4156
 4033SOL     OW23731   2.151   2.120   8.655  0.1066 -0.1627 -0.4154
 4033SOL    HW123732   2.227   2.167   8.687  0.7494 -1.2532 -0.3190
 4033SOL    HW223733   2.098   2.197   8.636 -0.6090 -0.8494 -1.1866
 4034SOL     OW23734   4.080   4.414   8.619  0.0734 -0.3678 -0.3424
 4034SOL    HW123735   3.986   4.396   8.629  0.0720 -1.0353 -1.5558
 4034SOL    HW223736   4.112   4.481   8.679  0.2760 -1.4279  0.7263
 4035SOL     OW23737   1.299   4.562   2.880 -0.3813  0.3530  0.7975
 4035SOL    HW123738   1.208   4.534   2.871  0.0781 -0.7779 -0.3685
 4035SOL    HW223739   1.313   4.563   2.974 -0.2203 -2.4921  0.8124
 4036SOL     OW23740   1.840   0.015  17.265  0.0525 -0.2045 -0.0122
 4036SOL    HW123741   1.839   0.016  17.169  0.0011 -0.0305 -0.0104
 4036SOL    HW223742   1.775   4.685  17.286  1.0664 -1.3719 -0.6777
 4037SOL     OW23743   4.187   2.283   3.258 -0.4247  0.2431  0.5005
 4037SOL    HW123744   4.225   2.367   3.283  1.6634 -0.4198 -0.5064
 4037SOL    HW223745   4.166   2.237   3.339  1.1145 -1.2289  0.0605
 4038SOL     OW23746   0.584   4.690   7.298  0.1366 -0.5338  0.4803
 4038SOL    HW123747   0.639   4.630   7.350  0.5511  1.0762  1.8931
 4038SOL    HW223748   0.637   0.029   7.275 -0.9758  0.4869  1.2975
 4039SOL     OW23749   2.662   3.591   4.128  0.2571  0.1054  0.1082
 4039SOL    HW123750   2.628   3.681   4.127 -2.2025 -0.8103  0.2183
 4039SOL    HW223751   2.610   3.552   4.057 -0.5138  0.5416  0.4369
 4040SOL     OW23752   3.454   2.684   3.275 -0.2264 -0.1346 -0.1402
 4040SOL    HW123753   3.443   2.646   3.188  0.6146  2.4180 -1.3755
 4040SOL    HW223754   3.535   2.639   3.301 -0.3246 -0.9328 -1.2654
 4041SOL     OW23755   1.534   3.286   6.056  0.2561 -0.2025  0.7299
 4041SOL    HW123756   1.499   3.197   6.062 -1.6576  0.4759 -0.1437
 4041SOL    HW223757   1.479   3.337   6.117 -0.2205 -1.5491  1.4330
 4042SOL     OW23758   0.056   3.033   5.140 -0.2394 -0.0096  0.8591
 4042SOL    HW123759   0.151   3.043   5.126 -0.8030  0.9696 -2.3660
 4042SOL    HW223760   0.030   3.045   5.048  0.9066 -1.3189  0.3687
 4043SOL     OW23761   1.292   3.487   5.887  0.0996  0.0760 -0.1768
 4043SOL    HW123762   1.356   3.551   5.857 -1.1620  0.4971 -1.9157
 4043SOL    HW223763   1.239   3.529   5.954  0.9443  0.9174 -0.0285
 4044SOL     OW23764   1.893   2.485  14.801 -0.1674 -0.7128 -0.4389
 4044SOL    HW123765   1.975   2.517  14.839 -0.7292 -0.1390  0.3096
 4044SOL    HW223766   1.836   2.562  14.808  2.0741  0.7026  2.3237
 4045SOL     OW23767   0.800   0.016   6.059 -0.4484  0.1862 -0.5292
 4045SOL    HW123768   0.836   4.668   6.035  0.4765  0.7982 -1.3089
 4045SOL    HW223769   0.862   0.082   6.028 -1.8164  0.6120 -2.3477
 4046SOL     OW23770   3.876   0.184   4.021  0.2155 -0.2220  0.0445
 4046SOL    HW123771   3.894   0.129   4.097 -0.6810  1.3561  1.4061
 4046SOL    HW223772   3.867   0.271   4.060 -3.7137 -0.1901 -0.9008
 4047SOL     OW23773   0.868   1.011   2.160  0.1931 -0.0494  0.2023
 4047SOL    HW123774   0.788   1.022   2.109  1.2444  1.1318 -1.1545
 4047SOL    HW223775   0.928   0.996   2.088 -0.8200 -0.8359 -0.4871
 4048SOL     OW23776   2.535   4.626   5.882  0.1645  0.3801 -0.1577
 4048SOL    HW123777   2.510   4.642   5.791  1.7039  1.6666 -0.3574
 4048SOL    HW223778   2.496   4.541   5.902  0.2858  0.3957  0.1511
 4049SOL     OW23779   0.020   3.493   8.529  0.3163  0.0977  0.4118
 4049SOL    HW123780   0.004   3.409   8.572  0.4567  0.1219  0.5143
 4049SOL    HW223781   0.012   3.560   8.597  0.0693  0.8726 -0.3724
 4050SOL     OW23782   4.726   1.996   2.969  0.3349 -0.3440 -0.2183
 4050SOL    HW123783   0.062   1.958   3.019 -1.2707  0.1642  2.5460
 4050SOL    HW223784   4.666   2.013   3.042  0.0957  0.1155 -0.5235
 4051SOL     OW23785   1.513   1.335   7.990 -0.1095 -0.0055  0.0444
 4051SOL    HW123786   1.565   1.261   8.019  0.3446  0.6548  0.9017
 4051SOL    HW223787   1.545   1.351   7.901  0.4755  0.1738  0.2883
 4052SOL     OW23788   2.764   0.519   0.514  0.5402  0.1270  0.6181
 4052SOL    HW123789   2.789   0.487   0.601  0.1846  1.8287  1.3505
 4052SOL    HW223790   2.803   0.606   0.528  1.9753 -0.3512 -0.4474
 4053SOL     OW23791   3.535   2.426   4.039  0.6056 -0.5977  0.5416
 4053SOL    HW123792   3.456   2.441   4.091  1.2135  0.2908  1.2288
 4053SOL    HW223793   3.548   2.505   3.987 -0.4073 -1.4042 -0.9185
 4054SOL     OW23794   2.134   3.868   4.402 -0.3380 -0.2722 -0.2280
 4054SOL    HW123795   2.171   3.786   4.368  0.3632  0.8716 -2.2035
 4054SOL    HW223796   2.115   3.899   4.314  2.3880 -1.6288 -1.3122
 4055SOL     OW23797   3.131   1.810   1.731 -0.0009 -0.7677 -0.2627
 4055SOL    HW123798   3.081   1.733   1.759  1.4302 -0.8458  2.0731
 4055SOL    HW223799   3.216   1.769   1.715 -0.1681 -1.2219  0.0271
 4056SOL     OW23800   4.534   0.220   9.945  0.1559  0.1801  0.5270
 4056SOL    HW123801   4.503   0.311   9.952 -2.3145 -0.7331  1.3233
 4056SOL    HW223802   4.574   0.212  10.032  2.1209 -0.0659 -0.4092
 4057SOL     OW23803   3.380   4.397   7.038 -0.9902  0.6129 -0.3859
 4057SOL    HW123804   3.339   4.315   7.011 -0.9626  0.1320  1.0622
 4057SOL    HW223805   3.412   4.361   7.121 -3.7748 -1.0635 -0.0581
 4058SOL     OW23806   1.628   1.688  13.591  0.6536 -0.4433 -0.0597
 4058SOL    HW123807   1.714   1.730  13.598 -0.9830  3.0933 -1.2556
 4058SOL    HW223808   1.649   1.599  13.622  1.2205 -0.9000 -1.7522
 4059SOL     OW23809   1.351   0.031   1.815 -0.5778 -0.1354 -0.1465
 4059SOL    HW123810   1.392   0.002   1.734  0.9136 -0.5686  0.7591
 4059SOL    HW223811   1.265   0.053   1.779 -1.1094 -2.2650 -0.1362
 4060SOL     OW23812   4.584   4.504   1.594 -0.0571 -0.2078  0.4823
 4060SOL    HW123813   4.531   4.456   1.657  1.6698 -0.6996  1.5627
 4060SOL    HW223814   4.546   4.452   1.523  1.5294 -1.2153  0.3753
 4061SOL     OW23815   1.734   1.065   5.136 -0.1669  0.4176 -0.3369
 4061SOL    HW123816   1.799   1.002   5.168 -1.2983 -0.6341 -0.0828
 4061SOL    HW223817   1.717   1.122   5.210  1.4998  0.5652 -0.0728
 4062SOL     OW23818   4.319   0.343   6.468 -0.2886 -0.0327 -0.0358
 4062SOL    HW123819   4.235   0.308   6.497 -0.2400  0.1871  0.3572
 4062SOL    HW223820   4.331   0.295   6.385 -1.7229 -2.6885  1.2920
 4063SOL     OW23821   4.473   1.948  14.163  0.0664 -0.6974 -0.1055
 4063SOL    HW123822   4.414   1.876  14.182 -4.0633  1.8687 -3.2719
 4063SOL    HW223823   4.409   2.014  14.137  2.8518  0.6292 -3.5313
 4064SOL     OW23824   4.262   1.731   2.527 -0.1478 -0.4302  0.0279
 4064SOL    HW123825   4.180   1.776   2.509  1.1242  1.3044 -1.5315
 4064SOL    HW223826   4.262   1.675   2.449  0.8414 -0.8867  0.3449
 4065SOL     OW23827   3.276   4.092   1.456  0.4855 -0.6223  0.0146
 4065SOL    HW123828   3.195   4.042   1.464 -0.5925  1.2495  0.9191
 4065SOL    HW223829   3.261   4.145   1.378 -2.5485  0.7146  1.5194
 4066SOL     OW23830   3.410   2.386   9.298  0.4342  0.2912 -0.1179
 4066SOL    HW123831   3.349   2.354   9.365  0.1623  0.6457 -0.1977
 4066SOL    HW223832   3.492   2.389   9.349  1.0761  0.2194 -1.1495
 4067SOL     OW23833   2.573   3.276   0.774 -0.3628  0.0696  0.4958
 4067SOL    HW123834   2.544   3.285   0.683 -2.1344  0.7924  1.1361
 4067SOL    HW223835   2.579   3.180   0.778 -1.6101  0.0430  1.5387
 4068SOL     OW23836   0.148   1.004   1.518 -0.2697  0.2476  0.3340
 4068SOL    HW123837   0.095   0.928   1.542  1.4890 -1.3446 -0.7423
 4068SOL    HW223838   0.118   1.027   1.430 -0.5080  2.7634  1.0729
 4069SOL     OW23839   3.116   3.018   3.222  0.0986  0.3179 -0.4210
 4069SOL    HW123840   3.195   2.993   3.269  0.3676  1.4851 -0.2776
 4069SOL    HW223841   3.102   3.107   3.252 -1.8954  0.2318 -1.0732
 4070SOL     OW23842   4.064   2.884   1.080  0.5113 -0.8981  0.8372
 4070SOL    HW123843   4.024   2.883   1.167 -0.0530 -1.8434  0.5662
 4070SOL    HW223844   4.096   2.972   1.059 -1.0852 -0.3670  0.6379
 4071SOL     OW23845   2.221   2.364   8.204  0.2540  0.2657  0.2327
 4071SOL    HW123846   2.166   2.429   8.160  0.9741 -0.5172 -1.8099
 4071SOL    HW223847   2.276   2.413   8.265  3.2832 -0.8607 -1.5862
 4072SOL     OW23848   3.776   1.784   8.397 -0.1462 -0.3139  0.4123
 4072SOL    HW123849   3.795   1.869   8.358 -0.3280 -0.3545  0.2310
 4072SOL    HW223850   3.681   1.783   8.412 -0.3632 -2.0945 -0.9856
 4073SOL     OW23851   4.631   3.923   6.202  0.5013  0.3111 -0.0756
 4073SOL    HW123852   4.667   3.906   6.114 -0.3851  0.2237 -0.4166
 4073SOL    HW223853   4.692   3.872   6.255  0.7282 -0.1899 -0.8056
 4074SOL     OW23854   3.340   1.016   8.575 -0.2296 -0.0875  0.0872
 4074SOL    HW123855   3.251   1.022   8.541 -0.1821  0.4886  0.0548
 4074SOL    HW223856   3.360   1.106   8.601  2.5404  0.4821 -4.0360
 4075SOL     OW23857   1.607   4.115   0.423 -0.4437 -0.1099 -0.0568
 4075SOL    HW123858   1.613   4.167   0.343  0.6431  0.8557  0.6422
 4075SOL    HW223859   1.513   4.122   0.441 -0.3242  2.2386 -0.2378
 4076SOL     OW23860   4.084   1.281   4.137  0.3218 -0.2274  0.3603
 4076SOL    HW123861   4.090   1.196   4.181 -2.2318  0.4342  2.0230
 4076SOL    HW223862   4.175   1.297   4.114  0.8145 -1.6235  1.3243
 4077SOL     OW23863   4.284   4.025   8.669 -0.4794  0.0229 -0.5172
 4077SOL    HW123864   4.235   4.047   8.590  1.8152  0.4850 -1.8036
 4077SOL    HW223865   4.318   3.938   8.647 -0.3545 -0.7365  2.7273
 4078SOL     OW23866   0.520   2.522   5.804 -0.0821 -0.3904  0.1740
 4078SOL    HW123867   0.509   2.458   5.875  2.2007  1.4420  2.1460
 4078SOL    HW223868   0.610   2.550   5.816  0.0538 -1.7277  2.3974
 4079SOL     OW23869   0.205   3.287   2.917 -0.5214 -0.0440  0.5151
 4079SOL    HW123870   0.284   3.319   2.961 -0.9274  0.0783  1.1612
 4079SOL    HW223871   0.178   3.215   2.974  1.6930  0.1843  1.8306
 4080SOL     OW23872   0.131   1.658   9.237  0.3117 -0.3828 -0.1704
 4080SOL    HW123873   0.152   1.579   9.286  1.6731 -0.0405 -0.1831
 4080SOL    HW223874   0.123   1.623   9.148  0.1025  0.0056 -0.3032
 4081SOL     OW23875   2.058   2.714   4.651 -0.0146 -0.0379 -0.0193
 4081SOL    HW123876   2.152   2.710   4.636 -0.3031 -2.1800 -1.3126
 4081SOL    HW223877   2.026   2.769   4.579 -0.9466  0.6706  0.9493
 4082SOL     OW23878   0.791   1.824   2.438  0.4305  0.7265  0.2975
 4082SOL    HW123879   0.779   1.910   2.397 -1.3676  0.5677  0.4959
 4082SOL    HW223880   0.705   1.783   2.433  0.6110  0.0867  2.2034
 4083SOL     OW23881   1.989   2.285  13.253  0.4016  0.0145 -0.1989
 4083SOL    HW123882   1.997   2.330  13.169  0.0299 -0.4898 -0.5094
 4083SOL    HW223883   2.017   2.351  13.316  1.0172  0.8792 -1.3660
 4084SOL     OW23884   4.125   1.892  12.020  0.0147  0.0757  0.2262
 4084SOL    HW123885   4.058   1.935  12.074 -1.2157 -2.3119  0.5940
 4084SOL    HW223886   4.097   1.918  11.932  2.8152  0.3999 -0.5713
 4085SOL     OW23887   2.161   4.713   7.597 -0.2484 -0.1410 -0.2240
 4085SOL    HW123888   2.232   4.648   7.592 -0.5536 -0.5342  0.5225
 4085SOL    HW223889   2.123   4.713   7.685  3.0364  0.3402  1.2351
 4086SOL     OW23890   3.362   0.582   7.814 -0.6710 -0.4543  0.4218
 4086SOL    HW123891   3.420   0.520   7.858 -1.4758 -2.5531 -1.5340
 4086SOL    HW223892   3.310   0.543   7.744 -0.1220 -0.1666 -0.1515
 4087SOL     OW23893   2.715   1.305   4.345 -0.0861 -0.8481  0.0693
 4087SOL    HW123894   2.749   1.380   4.393  1.5764 -0.9767 -0.8784
 4087SOL    HW223895   2.792   1.286   4.290  2.0158  1.0161  2.3368
 4088SOL     OW23896   2.878   4.455  12.016  0.3713 -0.7168 -1.1250
 4088SOL    HW123897   2.925   4.375  12.040 -1.5425 -1.9130 -1.3480
 4088SOL    HW223898   2.956   4.502  11.988  0.3221 -2.2876 -3.9255
 4089SOL     OW23899   1.111   1.686  12.724 -0.2842 -0.5512  0.0008
 4089SOL    HW123900   1.039   1.746  12.706 -0.5198 -1.3863 -1.8977
 4089SOL    HW223901   1.066   1.621  12.778 -1.7262  2.0353  1.9377
 4090SOL     OW23902   4.332   1.773  11.394 -0.8593 -0.5553 -0.0443
 4090SOL    HW123903   4.328   1.842  11.460 -0.1740 -0.4060 -0.1607
 4090SOL    HW223904   4.420   1.740  11.412 -0.1615  0.1131 -2.2630
 4091SOL     OW23905   0.777   0.583   1.816  0.2329 -0.2198 -0.2748
 4091SOL    HW123906   0.748   0.655   1.872 -0.4685 -0.1653 -0.7048
 4091SOL    HW223907   0.826   0.530   1.879 -1.0412 -0.7582  0.2722
 4092SOL     OW23908   4.018   0.853   3.622  0.2596  0.2565 -0.2288
 4092SOL    HW123909   3.934   0.880   3.660 -0.1116 -0.5297 -0.4984
 4092SOL    HW223910   4.017   0.767   3.663  3.3328  0.3516  0.0152
 4093SOL     OW23911   0.829   0.675  10.056  0.4200  0.2414 -0.1193
 4093SOL    HW123912   0.792   0.685  10.144 -1.3541  3.0741 -1.1879
 4093SOL    HW223913   0.904   0.618  10.071  0.8443  0.7418 -0.3330
 4094SOL     OW23914   1.206   2.081  17.583 -0.1480 -0.2002 -0.4801
 4094SOL    HW123915   1.126   2.039  17.552  0.6921 -2.9643  1.0464
 4094SOL    HW223916   1.241   2.127  17.507  0.3379  0.7005  0.2820
 4095SOL     OW23917   0.315   2.240  12.093 -0.5076  0.0659  0.1478
 4095SOL    HW123918   0.246   2.303  12.075 -0.4335 -0.0747 -0.6000
 4095SOL    HW223919   0.291   2.164  12.040 -1.4523  1.1262 -0.9204
 4096SOL     OW23920   3.120   1.948  15.221  0.1385  0.5841 -0.8049
 4096SOL    HW123921   3.052   1.896  15.179 -0.4952  2.3593 -1.9672
 4096SOL    HW223922   3.074   2.023  15.259 -0.2182 -1.0293  1.9726
 4097SOL     OW23923   4.596   2.441   8.940  0.1767  0.5385 -0.1393
 4097SOL    HW123924   4.668   2.386   8.908  2.3560  0.6616  4.4058
 4097SOL    HW223925   4.633   2.529   8.927  0.4378  0.5547  0.6972
 4098SOL     OW23926   1.311   2.594  16.332  0.2992  0.0935  0.3284
 4098SOL    HW123927   1.222   2.565  16.351  0.7535 -1.6032 -0.2016
 4098SOL    HW223928   1.320   2.659  16.402 -2.1899 -0.7641  1.4664
 4099SOL     OW23929   4.422   4.077  11.604  0.0967  0.0929 -0.2037
 4099SOL    HW123930   4.357   4.008  11.597  1.9008 -1.5634 -0.4016
 4099SOL    HW223931   4.475   4.053  11.680  0.3179 -0.3350 -0.4965
 4100SOL     OW23932   4.653   3.284   6.346 -0.5263  0.1973 -0.1895
 4100SOL    HW123933   4.636   3.254   6.436 -1.9615  0.4175 -0.3906
 4100SOL    HW223934   4.646   3.379   6.342  1.6488  0.4411  1.5043
 4101SOL     OW23935   4.384   2.276   9.027  0.0258 -0.5516  0.0475
 4101SOL    HW123936   4.377   2.243   8.938  0.4897 -0.1966 -0.1220
 4101SOL    HW223937   4.448   2.347   9.018  2.7872 -2.8298  1.5552
 4102SOL     OW23938   1.912   3.943   4.557 -0.0482  0.3057 -0.6859
 4102SOL    HW123939   1.990   3.909   4.512 -0.7759 -2.4492  0.0825
 4102SOL    HW223940   1.882   3.862   4.598  0.1945 -0.1190 -1.3350
 4103SOL     OW23941   2.086   2.635   1.672  0.0482 -0.2999  0.2397
 4103SOL    HW123942   2.012   2.683   1.708  0.2412  0.8169 -0.8544
 4103SOL    HW223943   2.053   2.546   1.661  0.6579 -0.4819 -0.1467
 4104SOL     OW23944   3.320   4.418   3.869  0.1992  0.7623  0.1712
 4104SOL    HW123945   3.245   4.429   3.927 -0.2871 -0.8287 -0.1558
 4104SOL    HW223946   3.314   4.510   3.844  0.9327  0.9591  0.7313
 4105SOL     OW23947   1.318   0.955  10.835 -0.2807  0.0766  0.3769
 4105SOL    HW123948   1.350   0.925  10.920 -1.9944 -0.8305  0.6981
 4105SOL    HW223949   1.389   1.002  10.791 -1.2636  1.7275  0.5460
 4106SOL     OW23950   3.926   1.779  13.940 -1.1168  0.0010  0.2225
 4106SOL    HW123951   3.898   1.857  13.989 -1.9268  0.3887 -0.8566
 4106SOL    HW223952   3.975   1.725  14.001 -1.7418 -3.1989 -2.1264
 4107SOL     OW23953   0.372   2.306   2.868  0.2641  0.1080  0.2119
 4107SOL    HW123954   0.337   2.234   2.816 -3.8781  0.7903  2.1119
 4107SOL    HW223955   0.361   2.277   2.958  0.7116  2.9386  1.1917
 4108SOL     OW23956   0.017   0.021   8.243 -0.2043 -0.0570  0.2032
 4108SOL    HW123957   4.674   4.710   8.224 -0.0230 -0.7755  1.2412
 4108SOL    HW223958   0.001   0.102   8.195 -0.5677 -1.6325 -2.2899
 4109SOL     OW23959   1.221   2.124   4.298  0.4745  0.1115 -0.2084
 4109SOL    HW123960   1.167   2.080   4.363  0.3108  2.4214  1.1899
 4109SOL    HW223961   1.162   2.141   4.224  0.6948  1.4749 -0.0611
 4110SOL     OW23962   2.606   2.840   4.699  0.2638  0.4968  0.1209
 4110SOL    HW123963   2.648   2.891   4.630  1.3802  1.0237  1.2045
 4110SOL    HW223964   2.688   2.795   4.720 -0.1521 -0.3945 -0.1381
 4111SOL     OW23965   3.940   2.693   8.216 -0.1654  0.2499  0.6334
 4111SOL    HW123966   3.934   2.675   8.310 -0.6197 -1.1509  0.3300
 4111SOL    HW223967   3.972   2.783   8.217  0.9208 -0.1094 -0.6484
 4112SOL     OW23968   3.118   3.494  15.503  0.3846 -0.3249 -0.0170
 4112SOL    HW123969   3.092   3.456  15.420  0.0043  2.5697 -1.2222
 4112SOL    HW223970   3.173   3.434  15.554 -0.4924 -1.7482 -0.7397
 4113SOL     OW23971   3.538   4.185   7.200 -0.1675  0.0912 -0.0403
 4113SOL    HW123972   3.531   4.102   7.151  2.3753  0.8129 -1.5839
 4113SOL    HW223973   3.529   4.144   7.286  0.9003  0.8496  0.4222
 4114SOL     OW23974   3.903   0.690   1.819 -0.3633 -0.3996 -0.1964
 4114SOL    HW123975   3.983   0.640   1.804 -0.2665 -0.1916 -0.3772
 4114SOL    HW223976   3.875   0.710   1.730 -0.2661  1.4037  0.1700
 4115SOL     OW23977   4.056   2.729   5.531 -0.2746 -0.5031 -0.0664
 4115SOL    HW123978   4.076   2.676   5.609  0.7467  0.5698  0.4032
 4115SOL    HW223979   3.974   2.763   5.566  0.5413  2.5748 -1.2209
 4116SOL     OW23980   2.520   2.033   2.772  1.0244  0.0332  0.0170
 4116SOL    HW123981   2.613   2.053   2.764  0.6526  1.8196  0.1736
 4116SOL    HW223982   2.511   2.101   2.839 -2.2578 -1.4807  1.0816
 4117SOL     OW23983   4.495   2.653   3.338 -0.1343  0.3567  0.0032
 4117SOL    HW123984   4.537   2.617   3.260 -1.4393  1.7235 -1.3432
 4117SOL    HW223985   4.495   2.575   3.394 -0.3264  0.8694  0.7125
 4118SOL     OW23986   2.446   3.414   6.460 -0.3125 -0.1450  0.1783
 4118SOL    HW123987   2.535   3.442   6.483 -0.0327 -0.9436  0.0397
 4118SOL    HW223988   2.400   3.479   6.514 -3.2002 -2.3007  0.3002
 4119SOL     OW23989   0.978   1.036   1.488 -0.1393 -0.0143  0.8157
 4119SOL    HW123990   0.932   1.049   1.405 -0.8911  2.6841  1.6541
 4119SOL    HW223991   0.971   1.123   1.526 -0.5169 -0.9083  2.7861
 4120SOL     OW23992   2.398   4.022  16.989  0.4484  0.3762  0.0326
 4120SOL    HW123993   2.476   3.984  16.949 -0.8128 -1.5170 -0.6766
 4120SOL    HW223994   2.439   4.052  17.069 -1.8428 -0.4867  1.5313
 4121SOL     OW23995   4.034   4.257  13.908 -0.3803 -0.2617 -0.6209
 4121SOL    HW123996   4.011   4.189  13.971  2.3011 -1.3541 -0.7979
 4121SOL    HW223997   4.130   4.248  13.904 -0.4663 -1.8418  0.7684
 4122SOL     OW23998   0.318   0.157   4.887  0.7121 -0.1116  0.1981
 4122SOL    HW123999   0.294   0.142   4.978  1.8642  1.3021  0.7275
 4122SOL    HW224000   0.232   0.191   4.861  1.1069  0.3842 -0.4560
 4123SOL     OW24001   1.271   1.641   4.497  0.1596 -0.7588 -0.1188
 4123SOL    HW124002   1.184   1.636   4.536  0.4262  0.7447  0.6570
 4123SOL    HW224003   1.243   1.651   4.406  1.8987  1.8120 -0.3539
 4124SOL     OW24004   3.037   0.379   6.809 -0.4111 -0.2155  0.3749
 4124SOL    HW124005   3.039   0.464   6.765 -2.5293 -0.7388 -0.7048
 4124SOL    HW224006   3.037   0.412   6.899 -0.1820  2.0728 -0.4448
 4125SOL     OW24007   3.202   0.773   0.156 -0.0455  0.1368 -0.1028
 4125SOL    HW124008   3.128   0.726   0.118  0.2042  0.4137 -0.9397
 4125SOL    HW224009   3.256   0.782   0.078  0.5389  0.3129  0.3235
 4126SOL     OW24010   2.209   1.678  11.738  0.2074  0.5021  0.1871
 4126SOL    HW124011   2.240   1.602  11.787  2.3134  1.5498  0.4956
 4126SOL    HW224012   2.171   1.733  11.806 -0.5985  0.7088 -0.4249
 4127SOL     OW24013   3.600   1.411   8.996  0.6046  0.9028  0.3754
 4127SOL    HW124014   3.683   1.393   9.041  0.6514  1.6634  0.5858
 4127SOL    HW224015   3.532   1.356   9.035  0.7360  1.4661  1.4072
 4128SOL     OW24016   4.337   1.922  11.624 -0.7892  0.1485 -0.2226
 4128SOL    HW124017   4.284   1.844  11.643 -1.0322  0.1717 -0.8253
 4128SOL    HW224018   4.395   1.926  11.700  0.5201 -1.2034 -1.1502
 4129SOL     OW24019   4.106   3.272  14.310 -0.3541 -0.0788  0.0685
 4129SOL    HW124020   4.123   3.343  14.249  0.7193  1.5335  2.2522
 4129SOL    HW224021   4.087   3.319  14.391 -0.2135 -0.1871  0.1659
 4130SOL     OW24022   1.360   1.391  16.479 -0.1771 -0.7088  0.4423
 4130SOL    HW124023   1.309   1.332  16.534 -0.8666  0.3239  0.9114
 4130SOL    HW224024   1.316   1.476  16.487  1.8038  0.2038  1.8315
 4131SOL     OW24025   0.402   4.647   7.104 -0.2229  0.2904 -0.3174
 4131SOL    HW124026   0.463   4.677   7.171 -0.4975 -0.2307  0.1628
 4131SOL    HW224027   0.415   4.705   7.029  2.0946  0.6814  0.3924
 4132SOL     OW24028   2.524   1.116   5.508 -0.2024  0.3878 -0.3739
 4132SOL    HW124029   2.587   1.110   5.435 -0.1087  0.9412 -0.3395
 4132SOL    HW224030   2.456   1.163   5.459 -0.3610  0.5696  0.0245
 4133SOL     OW24031   3.285   4.165   2.432 -0.7532 -0.5083 -0.0709
 4133SOL    HW124032   3.355   4.109   2.465 -1.3072  0.0318  2.0192
 4133SOL    HW224033   3.306   4.176   2.339  2.0503  2.2580  0.9158
 4134SOL     OW24034   0.722   1.381   3.818 -0.0175  0.2000  0.1287
 4134SOL    HW124035   0.782   1.454   3.803 -1.8727  1.5717 -0.6298
 4134SOL    HW224036   0.709   1.370   3.724  1.2108  1.4299 -0.1754
 4135SOL     OW24037   2.732   0.031   5.168 -0.3775  0.1862  0.3482
 4135SOL    HW124038   2.659   0.072   5.214 -0.8588 -0.2600 -0.0281
 4135SOL    HW224039   2.698   0.026   5.079  3.2364 -0.4736 -1.0039
 4136SOL     OW24040   2.938   4.122   5.117  0.0787  0.2742 -0.2161
 4136SOL    HW124041   2.857   4.079   5.089 -0.3182  0.2237  0.9963
 4136SOL    HW224042   2.914   4.178   5.191 -0.5200 -0.4150  0.1065
 4137SOL     OW24043   0.186   1.675  10.462 -0.0296  0.3632 -0.3036
 4137SOL    HW124044   0.110   1.622  10.438  1.0965 -1.7455  0.8103
 4137SOL    HW224045   0.210   1.660  10.554 -3.9844  0.1632  0.7385
 4138SOL     OW24046   3.868   1.962   2.754 -0.2427  1.0777  0.2933
 4138SOL    HW124047   3.950   1.985   2.799  1.1528 -2.4108 -0.5125
 4138SOL    HW224048   3.811   1.986   2.828 -0.2612 -1.0135  0.9568
 4139SOL     OW24049   1.962   2.394   7.943 -0.1824  0.3110 -0.7947
 4139SOL    HW124050   1.989   2.309   7.907 -0.4393  0.3582 -1.1012
 4139SOL    HW224051   1.876   2.367   7.975 -0.3169 -0.5827 -1.9318
 4140SOL     OW24052   2.776   0.175   2.169 -0.7257 -0.2885  0.6670
 4140SOL    HW124053   2.697   0.122   2.160 -1.9648  1.8159 -0.6581
 4140SOL    HW224054   2.743   0.252   2.215  2.2162  0.7318  1.0411
 4141SOL     OW24055   0.927   0.637   5.023 -0.0547 -0.1440 -0.2281
 4141SOL    HW124056   1.000   0.586   5.059 -1.7574 -1.0475  1.9390
 4141SOL    HW224057   0.937   0.719   5.071 -2.3367  0.1690 -0.2954
 4142SOL     OW24058   2.520   2.495  14.300  0.0613 -0.0300 -0.0469
 4142SOL    HW124059   2.465   2.491  14.377 -0.3437 -2.1536 -0.4445
 4142SOL    HW224060   2.448   2.535  14.250  0.0400 -0.2029 -0.1542
 4143SOL     OW24061   1.347   3.086   6.135  0.0066  0.1884  0.3191
 4143SOL    HW124062   1.312   3.072   6.047  0.6567  1.3874 -0.1359
 4143SOL    HW224063   1.292   3.019   6.174  3.1816 -0.9635  2.7659
 4144SOL     OW24064   3.077   3.801   4.655  0.2697 -0.4277  0.5171
 4144SOL    HW124065   3.166   3.802   4.620 -0.4227  0.2789 -1.2076
 4144SOL    HW224066   3.091   3.831   4.745  1.3772 -0.2466  0.2788
 4145SOL     OW24067   1.742   0.684   0.747  0.4675 -0.2383 -0.2218
 4145SOL    HW124068   1.699   0.750   0.801  1.5053 -1.9693  2.7033
 4145SOL    HW224069   1.708   0.685   0.658  1.1986  1.4615 -0.4862
 4146SOL     OW24070   2.483   3.224  12.618 -0.6285 -0.1219 -0.0734
 4146SOL    HW124071   2.412   3.244  12.557 -1.1313  0.2742  0.6278
 4146SOL    HW224072   2.453   3.272  12.695  0.7906 -2.5960  2.0170
 4147SOL     OW24073   2.806   4.180   4.748 -0.2571  0.0678  0.1063
 4147SOL    HW124074   2.819   4.271   4.774 -0.0678 -0.2928  1.2737
 4147SOL    HW224075   2.759   4.191   4.665 -0.9008  1.2452  0.6403
 4148SOL     OW24076   3.854   1.737   6.358 -0.0953  0.2736 -0.0052
 4148SOL    HW124077   3.785   1.759   6.421  0.7678  0.5396  0.8430
 4148SOL    HW224078   3.934   1.779   6.390 -0.0289 -1.3936  2.0189
 4149SOL     OW24079   4.104   1.124   0.494 -0.1286  0.0594  0.0585
 4149SOL    HW124080   4.051   1.045   0.481  0.1673 -0.2471  0.7354
 4149SOL    HW224081   4.152   1.088   0.569  0.9459  0.5409 -0.3928
 4150SOL     OW24082   0.156   1.147  10.183  0.0755 -0.1177 -0.3407
 4150SOL    HW124083   0.071   1.115  10.216  0.0468 -1.0165 -1.2925
 4150SOL    HW224084   0.164   1.095  10.103 -0.4307 -2.0911  0.8769
 4151SOL     OW24085   0.556   1.982   6.409  0.4809  0.4098 -0.4255
 4151SOL    HW124086   0.573   2.076   6.400 -1.3383  0.8336  0.4256
 4151SOL    HW224087   0.472   1.976   6.362  0.8441 -1.9799 -0.7468
 4152SOL     OW24088   0.908   2.189   6.007  0.4590 -0.4353 -0.3506
 4152SOL    HW124089   0.832   2.194   5.948  1.3113  0.9647 -1.3349
 4152SOL    HW224090   0.978   2.157   5.952  0.9535 -1.7377  1.0439
 4153SOL     OW24091   4.052   2.203   1.495  0.3509 -0.1621  0.5409
 4153SOL    HW124092   3.965   2.177   1.466  0.7401 -0.9985  0.1018
 4153SOL    HW224093   4.088   2.116   1.512 -0.3540 -0.7359 -0.9149
 4154SOL     OW24094   0.167   0.237   2.417  0.2937 -0.2391  0.0182
 4154SOL    HW124095   0.202   0.148   2.426 -1.5327 -1.1809 -2.3213
 4154SOL    HW224096   0.075   0.214   2.406  0.3561 -0.0661 -0.8365
 4155SOL     OW24097   4.385   3.027   6.653 -0.4124 -0.5135 -0.8271
 4155SOL    HW124098   4.359   3.078   6.730  2.1321 -0.9375  0.3559
 4155SOL    HW224099   4.478   3.049   6.645 -0.6804  1.8445  2.2357
 4156SOL     OW24100   0.070   0.796   3.451 -0.7189 -0.3148 -0.2920
 4156SOL    HW124101   0.160   0.814   3.479 -1.1261  1.6290 -0.2471
 4156SOL    HW224102   0.074   0.712   3.405 -2.9286 -0.9543  0.7133
 4157SOL     OW24103   0.623   4.524   7.824 -0.5106 -0.8818  0.1588
 4157SOL    HW124104   0.696   4.584   7.839  0.2294 -1.8722  0.5429
 4157SOL    HW224105   0.660   4.475   7.750  0.6187  0.1927  0.0156
 4158SOL     OW24106   2.345   2.474  13.974  0.5491  0.1063  0.4557
 4158SOL    HW124107   2.373   2.403  14.032  1.1879 -1.2996 -1.5573
 4158SOL    HW224108   2.260   2.489  14.014  0.8243 -1.6198  1.6885
 4159SOL     OW24109   4.583   1.567   3.931 -0.2944 -0.9451 -0.2284
 4159SOL    HW124110   4.677   1.582   3.922 -0.4600  0.8171  0.8756
 4159SOL    HW224111   4.556   1.618   4.008  3.2779  1.3044 -0.4670
 4160SOL     OW24112   3.972   1.009  13.055  0.0014 -0.0787 -0.3350
 4160SOL    HW124113   4.046   0.966  13.098 -0.3053  0.1534  0.4229
 4160SOL    HW224114   4.019   1.083  13.015  2.4849 -1.3068  0.2955
 4161SOL     OW24115   0.028   4.481   4.113  0.6452 -0.0204  0.1438
 4161SOL    HW124116   4.724   4.420   4.053 -2.9726  2.9308 -0.4050
 4161SOL    HW224117   4.705   4.551   4.086  0.1231 -1.0442 -1.3020
 4162SOL     OW24118   1.764   3.414   6.246 -0.1310  0.2090 -0.3312
 4162SOL    HW124119   1.801   3.437   6.331  3.5736  1.3385 -2.2807
 4162SOL    HW224120   1.750   3.320   6.258  0.4120  0.7070  4.2737
 4163SOL     OW24121   0.476   3.074   2.778 -0.6947  0.5056 -0.1949
 4163SOL    HW124122   0.475   3.138   2.848  1.4887 -0.8658  1.1235
 4163SOL    HW224123   0.490   2.994   2.830  0.8554  0.5163 -0.5804
 4164SOL     OW24124   0.157   2.218  14.886 -0.2403 -0.5267  0.4372
 4164SOL    HW124125   0.126   2.308  14.871  0.6153 -0.3614 -0.3665
 4164SOL    HW224126   0.128   2.177  14.805  1.6193  3.0681 -2.0926
 4165SOL     OW24127   0.073   1.919   8.567 -0.0811 -0.0945 -0.3871
 4165SOL    HW124128   0.013   1.912   8.641 -0.0372  1.9987 -0.1598
 4165SOL    HW224129   0.023   1.883   8.494 -1.6752 -0.2632  0.7835
 4166SOL     OW24130   0.111   2.804   7.898  0.2710  0.1983 -0.3773
 4166SOL    HW124131   0.042   2.855   7.855 -2.0806 -2.3883  0.2941
 4166SOL    HW224132   0.081   2.713   7.897 -0.0114  0.2689  2.3773
 4167SOL     OW24133   2.195   3.597   4.319  0.3161 -0.0323 -0.0623
 4167SOL    HW124134   2.126   3.617   4.256  1.3156  1.4708 -0.6908
 4167SOL    HW224135   2.269   3.637   4.272 -0.1613 -1.1309 -1.7614
 4168SOL     OW24136   3.679   0.661   2.782  0.4731 -0.3727 -0.4278
 4168SOL    HW124137   3.622   0.721   2.734 -0.4734 -2.8934 -2.4280
 4168SOL    HW224138   3.614   0.592   2.790 -1.1767  1.2927  0.5531
 4169SOL     OW24139   1.066   1.043   9.785 -0.0242 -0.1491 -0.3388
 4169SOL    HW124140   1.035   1.074   9.700 -1.9942  1.7588  1.0481
 4169SOL    HW224141   1.033   0.953   9.785  0.2780 -0.2510 -1.3574
 4170SOL     OW24142   1.562   1.325  17.024 -0.2416 -0.1761  0.5147
 4170SOL    HW124143   1.592   1.252  16.969 -0.3036  0.5889 -0.5203
 4170SOL    HW224144   1.472   1.326  16.992  0.7703 -2.2713 -2.4727
 4171SOL     OW24145   0.105   2.052  10.178 -0.3311 -0.1783  0.1306
 4171SOL    HW124146   0.188   2.005  10.178 -0.4146 -0.3010  1.5975
 4171SOL    HW224147   0.083   2.046  10.271 -1.5414  0.8995 -0.0782
 4172SOL     OW24148   4.129   4.019   2.756  0.1999  0.0857  0.0056
 4172SOL    HW124149   4.221   4.038   2.739 -0.4022  1.8792 -1.3536
 4172SOL    HW224150   4.128   4.055   2.845  0.0548 -3.4106  1.4123
 4173SOL     OW24151   2.008   1.549   5.087  0.2520  0.2583 -0.1083
 4173SOL    HW124152   2.016   1.554   5.182 -0.3556  1.9814 -0.1553
 4173SOL    HW224153   2.072   1.614   5.057  3.1616 -2.2235  0.7593
 4174SOL     OW24154   0.029   4.372   1.278 -0.3388 -0.0452 -0.8828
 4174SOL    HW124155   4.672   4.380   1.296 -0.5265 -2.4398 -0.8701
 4174SOL    HW224156   0.057   4.304   1.338  2.5434  1.5659 -0.4165
 4175SOL     OW24157   4.015   1.087   1.811  0.6397  0.7421  0.9184
 4175SOL    HW124158   4.019   1.067   1.718  4.5232 -2.2936  1.7239
 4175SOL    HW224159   4.109   1.104   1.824  1.1323 -0.5706 -0.9490
 4176SOL     OW24160   2.257   2.048  13.759  0.8382  0.2218 -0.4027
 4176SOL    HW124161   2.282   1.995  13.683 -1.1388  0.6191 -1.3515
 4176SOL    HW224162   2.162   2.062  13.751  0.6312 -0.7055  0.4216
 4177SOL     OW24163   4.192   4.308   7.277  0.1213 -0.2504 -0.3672
 4177SOL    HW124164   4.267   4.363   7.299  1.0842 -0.8927 -1.9809
 4177SOL    HW224165   4.138   4.331   7.352 -0.5985 -1.6831 -0.4435
 4178SOL     OW24166   3.458   0.239   0.323  0.1348  0.1823  0.2394
 4178SOL    HW124167   3.435   0.298   0.252  0.3374  0.6460  0.5571
 4178SOL    HW224168   3.448   0.300   0.396 -0.4502 -0.7612  0.9462
 4179SOL     OW24169   0.164   0.043   6.692  0.2041 -0.4327 -0.6444
 4179SOL    HW124170   0.134   4.724   6.763 -0.6035 -1.3354 -1.6950
 4179SOL    HW224171   0.181   4.716   6.623  0.1291 -0.7393 -0.3765
 4180SOL     OW24172   3.363   2.925   8.370 -0.1501  0.1958 -0.3968
 4180SOL    HW124173   3.284   2.944   8.319 -0.6287  0.2852  0.3797
 4180SOL    HW224174   3.393   2.855   8.312  1.5450 -0.8567  1.7637
 4181SOL     OW24175   2.913   2.593   7.231 -0.1661 -0.2655  0.3350
 4181SOL    HW124176   2.895   2.510   7.188 -0.8730  0.0658  0.0048
 4181SOL    HW224177   2.887   2.658   7.165  1.5012 -0.3383 -0.4048
 4182SOL     OW24178   2.552   3.179   7.828 -0.4010  0.0609 -0.2768
 4182SOL    HW124179   2.532   3.117   7.759 -0.6444  1.2193 -1.2409
 4182SOL    HW224180   2.522   3.263   7.793  0.1135  0.3587 -0.0184
 4183SOL     OW24181   0.974   3.566   3.643  0.2788 -0.0318  0.4212
 4183SOL    HW124182   0.934   3.647   3.612  0.5953 -0.0588 -0.0499
 4183SOL    HW224183   0.949   3.585   3.734  2.4183  0.7726  0.8436
 4184SOL     OW24184   1.347   1.707   7.273 -0.6001  0.1956 -0.4043
 4184SOL    HW124185   1.252   1.706   7.261 -0.9116 -0.2627  2.2137
 4184SOL    HW224186   1.345   1.681   7.365  2.0807 -0.4863 -0.5323
 4185SOL     OW24187   0.042   3.186   5.819 -0.2041 -0.2117 -0.0155
 4185SOL    HW124188   0.129   3.146   5.821  0.7276  1.7839 -0.3704
 4185SOL    HW224189   0.023   3.180   5.912  4.3909  2.2298  1.0553
 4186SOL     OW24190   3.056   2.091  15.628  0.1293 -0.1530  0.0232
 4186SOL    HW124191   2.971   2.120  15.659  0.0691  0.9992 -1.2397
 4186SOL    HW224192   3.067   2.149  15.553  1.8453 -0.1333  0.2854
 4187SOL     OW24193   3.892   3.012   7.507 -0.5406  0.1504 -0.0502
 4187SOL    HW124194   3.829   2.954   7.463  0.8273 -1.5150  0.1988
 4187SOL    HW224195   3.895   2.977   7.595  0.7285  2.7190  0.9288
 4188SOL     OW24196   4.442   3.957  16.271  0.4531  0.2526  0.3864
 4188SOL    HW124197   4.412   3.901  16.199 -0.1338  1.5770 -0.4036
 4188SOL    HW224198   4.495   4.011  16.212 -0.1897  0.0174 -0.4037
 4189SOL     OW24199   2.137   2.521   0.586  0.3452 -0.1156 -0.2864
 4189SOL    HW124200   2.102   2.610   0.585 -1.6451 -0.9178 -1.4520
 4189SOL    HW224201   2.211   2.522   0.526  0.9733  0.4272  0.4969
 4190SOL     OW24202   0.660   3.494   5.077  0.2021 -0.8865 -0.0089
 4190SOL    HW124203   0.660   3.479   4.983  1.5177 -1.8537  0.1450
 4190SOL    HW224204   0.753   3.481   5.091  0.1417  0.1416  1.4399
 4191SOL     OW24205   4.586   1.179   9.194  0.6172 -0.0010 -0.5995
 4191SOL    HW124206   4.586   1.262   9.241  0.5966 -0.3792  0.0718
 4191SOL    HW224207   4.524   1.134   9.252  1.5997  0.8234  1.1004
 4192SOL     OW24208   4.335   3.392  12.607 -0.6170 -0.3534 -0.4596
 4192SOL    HW124209   4.366   3.457  12.544  1.7556 -1.6813 -0.6462
 4192SOL    HW224210   4.242   3.416  12.616  0.1472  3.1074 -1.7352
 4193SOL     OW24211   0.454   1.197   2.452  0.0654  0.4185  0.6346
 4193SOL    HW124212   0.536   1.148   2.447  0.7764  1.6809 -0.0141
 4193SOL    HW224213   0.466   1.248   2.372  0.9397 -1.8399 -0.6710
 4194SOL     OW24214   1.180   0.797  12.356 -0.7786 -0.1665 -0.2335
 4194SOL    HW124215   1.271   0.777  12.379 -1.5133 -2.2041  0.8722
 4194SOL    HW224216   1.191   0.832  12.267 -1.8304 -0.7952 -0.6078
 4195SOL     OW24217   3.104   0.924   5.855 -0.2774 -0.0973  0.5892
 4195SOL    HW124218   3.075   1.012   5.879  1.5901  0.9165 -0.9110
 4195SOL    HW224219   3.080   0.916   5.763 -0.3202 -1.9773  0.7747
 4196SOL     OW24220   2.563   0.266  16.568 -0.7056  1.0024  0.2868
 4196SOL    HW124221   2.559   0.333  16.500 -0.3619  0.7282 -0.0048
 4196SOL    HW224222   2.589   0.320  16.642  1.5351 -1.0350  1.0001
 4197SOL     OW24223   3.856   3.757   3.212  0.4150 -0.0032 -0.2574
 4197SOL    HW124224   3.867   3.666   3.184 -3.0103 -0.1035 -1.2633
 4197SOL    HW224225   3.764   3.771   3.189 -0.4417 -1.6840  1.9782
 4198SOL     OW24226   4.172   0.916  13.205 -0.1102 -0.1585 -0.1780
 4198SOL    HW124227   4.227   0.854  13.156  0.1793  0.1181 -0.2022
 4198SOL    HW224228   4.234   0.987  13.221 -0.7070 -0.0415  1.5444
 4199SOL     OW24229   0.576   2.913  15.251 -0.2696 -0.3174 -0.3422
 4199SOL    HW124230   0.583   2.818  15.242  2.0337 -0.0685 -1.1292
 4199SOL    HW224231   0.633   2.933  15.176 -0.4226  1.7353  0.0846
 4200SOL     OW24232   2.337   3.770  10.285  0.2128 -0.3870  0.0207
 4200SOL    HW124233   2.267   3.709  10.305  1.2093 -1.5232  0.0458
 4200SOL    HW224234   2.411   3.722  10.322  0.2199  1.5070  2.4428
 4201SOL     OW24235   4.502   0.970   7.830  0.1351 -0.2393 -0.8441
 4201SOL    HW124236   4.525   0.993   7.741  0.3844  1.6372 -0.3002
 4201SOL    HW224237   4.411   0.942   7.822  0.2116 -0.9673  0.7404
 4202SOL     OW24238   2.110   3.935   2.002 -0.3746  0.2235  0.0001
 4202SOL    HW124239   2.063   3.964   2.080 -0.7067 -2.5666  0.8539
 4202SOL    HW224240   2.181   3.886   2.043  0.7686 -0.3680 -2.6667
 4203SOL     OW24241   2.072   0.170   7.039  0.0409  0.3737  0.4036
 4203SOL    HW124242   2.118   0.228   6.978 -1.4424  0.9949 -0.1271
 4203SOL    HW224243   2.142   0.129   7.089 -0.2870 -2.3438 -1.3773
 4204SOL     OW24244   4.495   2.929  12.513  0.5119  0.6030  0.2598
 4204SOL    HW124245   4.420   2.951  12.458  0.2543 -0.0477  0.3541
 4204SOL    HW224246   4.562   2.957  12.451  0.7783  0.3054  0.4157
 4205SOL     OW24247   0.699   3.991  10.690 -0.1532 -0.2483  0.1702
 4205SOL    HW124248   0.713   3.933  10.615  3.5777  1.0553 -0.1712
 4205SOL    HW224249   0.772   4.053  10.681 -0.8051  0.6095  0.8152
 4206SOL     OW24250   2.614   4.688   3.328 -0.4289  0.5489 -0.5605
 4206SOL    HW124251   2.575   4.623   3.387  3.2863  0.3996  1.7125
 4206SOL    HW224252   2.578   0.027   3.373 -3.2132 -1.8418  1.2850
 4207SOL     OW24253   4.252   2.870  16.134 -0.1187  0.0871 -0.4667
 4207SOL    HW124254   4.238   2.778  16.158 -2.9719  0.2150 -1.5664
 4207SOL    HW224255   4.178   2.908  16.182  1.1899  1.7455  0.2285
 4208SOL     OW24256   1.046   4.444  11.169 -0.2236  0.0785  0.5315
 4208SOL    HW124257   1.108   4.517  11.172  0.3955 -0.4294  0.2685
 4208SOL    HW224258   1.095   4.376  11.215 -0.5067 -0.2888  0.2927
 4209SOL     OW24259   0.427   0.282  17.292 -0.2983  0.0178 -0.4607
 4209SOL    HW124260   0.349   0.234  17.317  0.2566 -2.4990 -3.5589
 4209SOL    HW224261   0.492   0.238  17.347 -3.1080 -2.4325  0.8890
 4210SOL     OW24262   2.050   2.820   3.903 -0.3974 -0.3731  0.1358
 4210SOL    HW124263   2.102   2.881   3.956  0.5524 -2.3676  1.4886
 4210SOL    HW224264   2.042   2.871   3.823  0.4211 -2.0107 -0.9730
 4211SOL     OW24265   3.740   2.989  11.312 -0.2146  0.0820  0.2209
 4211SOL    HW124266   3.792   2.915  11.282 -1.4177 -1.2711  1.4651
 4211SOL    HW224267   3.784   2.991  11.397 -1.7106  1.5818  0.9554
 4212SOL     OW24268   3.085   0.331  17.484 -0.1878 -0.1475 -0.0993
 4212SOL    HW124269   3.117   0.277  17.556 -0.7489  1.0244  1.0332
 4212SOL    HW224270   3.167   0.369  17.451 -0.6375  1.1846  0.3247
 4213SOL     OW24271   2.798   3.744   0.926 -0.2672  0.3917  0.2815
 4213SOL    HW124272   2.743   3.822   0.932 -0.0522  0.3677  2.4257
 4213SOL    HW224273   2.748   3.690   0.864 -1.2417 -0.9216  2.2181
 4214SOL     OW24274   1.102   1.034  14.331 -0.0131  0.4433  0.4647
 4214SOL    HW124275   1.102   0.945  14.365 -0.8451  0.2916  0.0792
 4214SOL    HW224276   1.040   1.029  14.259 -0.5507  2.2936  0.7851
 4215SOL     OW24277   3.285   0.317   9.081  0.2931 -0.5085 -0.3480
 4215SOL    HW124278   3.227   0.336   9.008 -1.0558 -0.5259  0.7230
 4215SOL    HW224279   3.347   0.256   9.040  1.9154 -0.7811  2.5086
 4216SOL     OW24280   4.623   4.669   7.891 -0.7152  0.0426 -0.1124
 4216SOL    HW124281   4.561   4.610   7.933 -0.9319 -0.7343 -1.5003
 4216SOL    HW224282   4.574   4.729   7.834  1.7826  1.4737 -0.7269
 4217SOL     OW24283   1.975   3.547   7.952 -0.0729  0.1037 -0.1327
 4217SOL    HW124284   1.929   3.610   8.007  2.1707  1.7608 -0.1879
 4217SOL    HW224285   2.010   3.487   8.018 -2.7308  0.9745  2.0668
 4218SOL     OW24286   0.279   2.592  16.539  0.2505 -0.3749 -0.0689
 4218SOL    HW124287   0.269   2.629  16.452 -4.1622 -0.9911  0.1810
 4218SOL    HW224288   0.193   2.589  16.581 -0.4301 -0.9382 -1.5009
 4219SOL     OW24289   4.621   0.615  10.106  0.1990 -0.2496  0.0365
 4219SOL    HW124290   4.666   0.700  10.101 -0.0648 -0.1345 -0.3600
 4219SOL    HW224291   4.577   0.606  10.021  1.3569  0.4434 -0.6382
 4220SOL     OW24292   2.957   2.112   7.531  0.0975  0.5281  0.1792
 4220SOL    HW124293   2.975   2.098   7.438 -0.0555  0.0488  0.2185
 4220SOL    HW224294   2.871   2.154   7.532  0.5193  1.3967 -0.3981
 4221SOL     OW24295   4.229   2.331   5.984  0.2782 -0.7967 -0.0161
 4221SOL    HW124296   4.279   2.317   6.065  1.5608  0.5881 -0.5733
 4221SOL    HW224297   4.142   2.305   6.015 -0.9075 -0.7599 -3.3326
 4222SOL     OW24298   3.678   2.180  14.918 -0.5754  0.9684 -0.5009
 4222SOL    HW124299   3.669   2.102  14.864 -0.5706  0.3951  0.3236
 4222SOL    HW224300   3.602   2.191  14.976 -0.5879  1.6612 -0.6492
 4223SOL     OW24301   4.480   0.049   6.026 -0.4096  0.5613 -0.1306
 4223SOL    HW124302   4.431   4.722   6.077  0.6558 -1.8758 -2.1320
 4223SOL    HW224303   4.425   0.127   6.034  0.9480  1.5166 -0.1209
 4224SOL     OW24304   3.619   4.340   3.143 -0.1500  1.0127 -0.3002
 4224SOL    HW124305   3.701   4.294   3.128  0.2198  1.7606 -0.5530
 4224SOL    HW224306   3.610   4.392   3.063  0.3426  1.3010 -0.1669
 4225SOL     OW24307   0.161   1.305   6.119 -0.2265  0.5318 -0.0792
 4225SOL    HW124308   0.171   1.308   6.214 -0.2973  0.2126 -0.0629
 4225SOL    HW224309   0.082   1.354   6.095  0.4898  1.2600 -0.9502
 4226SOL     OW24310   4.174   0.900   9.547 -0.1373 -0.1411  0.9129
 4226SOL    HW124311   4.150   0.907   9.639 -1.5698 -1.6463  0.6523
 4226SOL    HW224312   4.248   0.842   9.563  0.9040  1.2711  1.3034
 4227SOL     OW24313   1.842   1.688   6.972 -0.2306 -0.7066  0.5668
 4227SOL    HW124314   1.752   1.671   6.944 -0.4199 -1.0967  1.4213
 4227SOL    HW224315   1.817   1.763   7.027  0.8549 -1.2318  1.7692
 4228SOL     OW24316   3.805   3.480   0.913 -0.3039 -0.3605  0.0131
 4228SOL    HW124317   3.776   3.539   0.983 -0.1549 -0.3979  0.1063
 4228SOL    HW224318   3.818   3.401   0.965 -0.3352  0.3755  1.1578
 4229SOL     OW24319   1.982   4.176  11.590  0.0665 -0.2184  0.0398
 4229SOL    HW124320   2.048   4.108  11.578 -1.8056 -1.7214 -1.7178
 4229SOL    HW224321   1.999   4.185  11.683 -0.3151 -0.1503  0.1013
 4230SOL     OW24322   0.695   0.856  17.241 -0.9668 -0.0295  0.6592
 4230SOL    HW124323   0.679   0.950  17.237  1.5415  0.4655  2.1512
 4230SOL    HW224324   0.716   0.830  17.151 -1.2727  0.3592  0.4759
 4231SOL     OW24325   1.875   2.335   3.034  0.3713  0.4244  0.2621
 4231SOL    HW124326   1.880   2.247   2.997  0.6233  0.6105 -0.1442
 4231SOL    HW224327   1.890   2.376   2.949 -0.7711  0.8707  0.2725
 4232SOL     OW24328   3.815   1.103  13.515 -0.0517 -0.0396 -0.0079
 4232SOL    HW124329   3.770   1.036  13.464 -0.9420  2.7462 -2.8439
 4232SOL    HW224330   3.749   1.141  13.572 -0.7040 -0.7257 -0.2922
 4233SOL     OW24331   2.905   2.952   1.308  0.2761 -0.2347 -0.0591
 4233SOL    HW124332   2.967   2.886   1.279  0.7809  0.5990 -0.8720
 4233SOL    HW224333   2.861   2.967   1.224 -3.4749  1.4583  2.1767
 4234SOL     OW24334   1.162   4.205   5.951 -0.1714  0.5168  0.1281
 4234SOL    HW124335   1.101   4.186   5.879 -0.8229  3.8529 -0.1655
 4234SOL    HW224336   1.228   4.259   5.908 -0.0299 -0.2635 -0.6259
 4235SOL     OW24337   1.452   1.267  14.405  0.2028  0.1629  0.1400
 4235SOL    HW124338   1.499   1.234  14.481  2.0378  0.2535 -0.9643
 4235SOL    HW224339   1.367   1.291  14.443  0.0138 -0.6492  0.2155
 4236SOL     OW24340   0.878   1.441   7.494  0.5354 -0.0442  0.4295
 4236SOL    HW124341   0.955   1.387   7.477  1.2980  1.5343 -1.0901
 4236SOL    HW224342   0.873   1.447   7.590  0.7824  2.1501  0.3121
 4237SOL     OW24343   3.773   4.252   7.042  0.1231  0.0938 -1.1582
 4237SOL    HW124344   3.786   4.166   7.001  1.5962  0.5111 -1.5629
 4237SOL    HW224345   3.691   4.241   7.091  1.5917 -1.1065  0.9722
 4238SOL     OW24346   2.959   3.326   9.750  0.0357  0.1242  0.6868
 4238SOL    HW124347   2.879   3.375   9.768 -1.1712 -1.3900 -0.5411
 4238SOL    HW224348   3.027   3.391   9.766  0.1902  0.0042  0.5271
 4239SOL     OW24349   2.922   0.537   4.950  0.0503  0.0430 -0.3965
 4239SOL    HW124350   2.850   0.502   5.002  0.6461 -0.9802 -0.2587
 4239SOL    HW224351   2.945   0.614   5.002 -0.8384 -0.1754  0.3235
 4240SOL     OW24352   2.983   1.280  12.853 -0.1760  0.2310 -0.1591
 4240SOL    HW124353   3.022   1.285  12.940 -0.2472 -0.1743 -0.1062
 4240SOL    HW224354   3.020   1.361  12.818  1.7873 -0.1855  0.9521
 4241SOL     OW24355   4.722   3.573   0.461 -0.0788  0.1488  0.1654
 4241SOL    HW124356   0.020   3.501   0.408 -2.6573 -0.6393 -0.5000
 4241SOL    HW224357   4.728   3.523   0.542 -1.6996 -1.1881 -0.5410
 4242SOL     OW24358   2.188   0.758  14.562 -0.1166  0.2288  0.4313
 4242SOL    HW124359   2.265   0.815  14.565  1.2283 -1.6313  1.2286
 4242SOL    HW224360   2.119   0.819  14.536  2.8618  2.9739 -0.9890
 4243SOL     OW24361   1.797   1.348   5.345  0.1614  0.4199 -0.2433
 4243SOL    HW124362   1.855   1.386   5.279 -1.1497  1.9931 -0.5022
 4243SOL    HW224363   1.850   1.358   5.424  1.7772  2.3309 -1.5590
 4244SOL     OW24364   1.249   0.193   1.474 -0.0460 -0.4018 -0.4985
 4244SOL    HW124365   1.332   0.189   1.520  0.6368  1.3938 -1.5980
 4244SOL    HW224366   1.232   0.287   1.470 -1.3377 -0.6238 -0.2762
 4245SOL     OW24367   0.231   1.214  11.030  0.4043 -0.0087 -0.0066
 4245SOL    HW124368   0.258   1.164  11.107 -1.0921 -0.7748  0.0210
 4245SOL    HW224369   0.240   1.304  11.063  1.8851 -0.7290  1.5809
 4246SOL     OW24370   2.361   2.405   3.896 -0.5272 -0.3825  0.0133
 4246SOL    HW124371   2.318   2.336   3.846  1.0131 -1.6799  0.4748
 4246SOL    HW224372   2.286   2.462   3.912 -2.2342 -2.5178 -0.4064
 4247SOL     OW24373   1.366   2.974   4.782 -0.5638 -0.0619  0.3654
 4247SOL    HW124374   1.442   2.923   4.754  0.0646  0.0518  1.8573
 4247SOL    HW224375   1.353   2.947   4.872 -0.5080  2.8585  1.2441
 4248SOL     OW24376   2.951   1.924  16.412  0.2219  0.0704  0.0205
 4248SOL    HW124377   2.987   1.855  16.357  1.1251  1.5334 -1.2290
 4248SOL    HW224378   3.004   1.929  16.492  1.6607 -2.0489 -0.7877
 4249SOL     OW24379   1.683   1.355  17.462  0.4853  0.0718 -0.2821
 4249SOL    HW124380   1.650   1.290  17.523 -0.4365  1.0913  0.3127
 4249SOL    HW224381   1.769   1.380  17.497  0.0567  0.8041  0.2603
 4250SOL     OW24382   0.776   0.174  17.430 -0.1490  0.6800 -0.9734
 4250SOL    HW124383   0.701   0.180  17.489 -0.1951 -1.0352 -0.8463
 4250SOL    HW224384   0.804   0.264  17.418 -0.5981  0.8775 -0.5285
 4251SOL     OW24385   3.707   3.111   1.847 -0.4045  0.0946  0.0073
 4251SOL    HW124386   3.646   3.053   1.800  1.8576 -1.6128 -0.8319
 4251SOL    HW224387   3.783   3.053   1.848  0.1301  0.7450 -2.7324
 4252SOL     OW24388   0.483   4.571   4.368  0.1302  0.5745  0.3734
 4252SOL    HW124389   0.390   4.550   4.359  0.2613  0.1633 -0.0008
 4252SOL    HW224390   0.516   4.607   4.286  0.0994  0.9809  0.5411
 4253SOL     OW24391   2.514   3.959   7.299  1.1222  0.1258 -0.2872
 4253SOL    HW124392   2.552   3.881   7.260  1.2663 -0.3090  0.7336
 4253SOL    HW224393   2.507   3.997   7.211 -0.7125 -0.2723 -0.3132
 4254SOL     OW24394   2.837   2.526   2.055 -0.4243 -0.4059 -0.1516
 4254SOL    HW124395   2.774   2.478   2.002 -1.6273 -0.5294  1.4361
 4254SOL    HW224396   2.868   2.583   1.984  1.0206 -1.2391 -0.2058
 4255SOL     OW24397   3.683   1.848   8.059  0.0444 -0.6510 -0.0436
 4255SOL    HW124398   3.725   1.933   8.065  1.2648 -1.1945 -0.9480
 4255SOL    HW224399   3.725   1.827   7.976 -1.2796  1.5303 -1.2654
 4256SOL     OW24400   0.668   2.783   7.661 -0.7733  0.0114 -0.5019
 4256SOL    HW124401   0.684   2.701   7.614 -0.8940 -0.0200 -0.4871
 4256SOL    HW224402   0.612   2.835   7.603  0.3646  1.2566 -0.4848
 4257SOL     OW24403   1.888   1.110  13.076 -0.1428 -0.3342 -0.2067
 4257SOL    HW124404   1.825   1.177  13.047  0.8558  1.1169  0.9807
 4257SOL    HW224405   1.856   1.029  13.037  0.5590 -0.1828 -1.1117
 4258SOL     OW24406   0.181   0.884   6.278 -0.1773  0.4174  0.0942
 4258SOL    HW124407   0.133   0.845   6.352 -3.6599 -0.4013 -2.6041
 4258SOL    HW224408   0.106   0.906   6.223  0.2454  1.2428 -0.1478
 4259SOL     OW24409   1.413   1.126   4.104 -0.1314 -0.0702  0.6145
 4259SOL    HW124410   1.470   1.051   4.090  3.1012  2.8215 -1.5604
 4259SOL    HW224411   1.440   1.185   4.034 -0.9714 -1.7367 -1.1195
 4260SOL     OW24412   1.594   3.055   1.583 -0.5329 -0.2608 -0.3580
 4260SOL    HW124413   1.679   3.093   1.607 -0.1604 -1.7929  0.7441
 4260SOL    HW224414   1.588   2.979   1.641  1.4226  0.7642  1.1900
 4261SOL     OW24415   1.984   3.148   3.121  0.1057  0.0287 -0.0514
 4261SOL    HW124416   1.917   3.214   3.105  0.4361  0.9557  2.2846
 4261SOL    HW224417   2.021   3.125   3.036 -0.0953 -1.6340  0.3083
 4262SOL     OW24418   2.387   0.829   6.998  0.1974  0.0905  0.4794
 4262SOL    HW124419   2.340   0.911   7.003  1.3566  0.7136  1.2402
 4262SOL    HW224420   2.333   0.762   7.040 -1.7697 -0.1406 -2.4272
 4263SOL     OW24421   4.121   2.384   2.424 -0.2362  0.4088 -0.2617
 4263SOL    HW124422   4.146   2.476   2.409 -1.0217  0.4820 -1.0776
 4263SOL    HW224423   4.026   2.385   2.434 -0.1385 -0.2760  0.7355
 4264SOL     OW24424   2.905   4.326  12.902  0.1035  0.3073  0.5758
 4264SOL    HW124425   2.889   4.249  12.848 -1.1893  3.3456 -3.3288
 4264SOL    HW224426   2.857   4.398  12.863 -0.0052  0.8719  1.7433
 4265SOL     OW24427   1.858   4.459   2.000 -0.3252  0.0777 -0.0964
 4265SOL    HW124428   1.913   4.502   2.066  2.6012 -0.3461 -2.2255
 4265SOL    HW224429   1.805   4.537   1.987  0.4067  0.1498 -2.5823
 4266SOL     OW24430   3.669   2.354   4.816  0.7602 -0.3896  0.7251
 4266SOL    HW124431   3.747   2.393   4.856  1.7483 -1.2285 -0.4013
 4266SOL    HW224432   3.646   2.279   4.870  1.3281 -0.4827  0.8382
 4267SOL     OW24433   2.062   3.588   6.135 -0.4138 -0.5550  0.0265
 4267SOL    HW124434   2.096   3.604   6.223  0.4992 -1.5673 -0.1441
 4267SOL    HW224435   2.107   3.653   6.082 -2.6492  0.0051 -1.1866
 4268SOL     OW24436   2.067   0.716  13.059  0.2279  0.5291  0.2236
 4268SOL    HW124437   2.100   0.787  13.114  1.6797 -1.5913  2.0526
 4268SOL    HW224438   2.082   0.765  12.978  1.6810 -0.4953 -0.1200
 4269SOL     OW24439   1.816   0.410   3.521 -0.1462 -0.1610  0.3168
 4269SOL    HW124440   1.746   0.346   3.537 -1.3699  0.9252 -0.7114
 4269SOL    HW224441   1.822   0.442   3.611 -0.6045  0.9713 -0.0614
 4270SOL     OW24442   0.647   1.637  11.305 -0.3669 -0.3681  0.1826
 4270SOL    HW124443   0.614   1.554  11.270  1.6048 -0.6686 -0.9630
 4270SOL    HW224444   0.692   1.669  11.227  1.6319 -3.6461  0.0273
 4271SOL     OW24445   2.582   1.077   4.299  0.5328 -0.1122 -0.1182
 4271SOL    HW124446   2.621   1.050   4.216  0.7667  0.6690 -0.2563
 4271SOL    HW224447   2.610   1.168   4.302 -0.7442  0.2771  0.0787
 4272SOL     OW24448   1.168   0.551   6.576  0.0526 -0.4526 -0.5232
 4272SOL    HW124449   1.194   0.466   6.612  0.7025  0.9415  2.2427
 4272SOL    HW224450   1.211   0.560   6.490 -0.5074 -1.8132 -0.9392
 4273SOL     OW24451   4.268   0.715   2.780 -0.4781  0.3336 -0.5762
 4273SOL    HW124452   4.185   0.745   2.743 -1.1481 -1.5900 -0.6161
 4273SOL    HW224453   4.296   0.799   2.818  1.5244  0.7221 -2.8898
 4274SOL     OW24454   0.790   0.867   7.603 -0.2791  0.4136 -0.3458
 4274SOL    HW124455   0.812   0.875   7.695 -0.1279 -0.9738 -0.2561
 4274SOL    HW224456   0.833   0.945   7.568  2.3702 -0.1011  1.7817
 4275SOL     OW24457   0.871   4.290   3.754  0.0324  0.1507  0.3890
 4275SOL    HW124458   0.834   4.202   3.759 -0.4486  0.3344  0.0771
 4275SOL    HW224459   0.797   4.341   3.788 -0.6826 -0.7543  0.2048
 4276SOL     OW24460   1.606   4.273   9.483  0.0845 -0.1104 -0.1660
 4276SOL    HW124461   1.535   4.308   9.537  0.8723 -0.5128  1.1364
 4276SOL    HW224462   1.674   4.326   9.523 -0.9250  0.5993  0.6072
 4277SOL     OW24463   1.301   3.301   8.074 -0.6223 -0.4871 -0.3191
 4277SOL    HW124464   1.358   3.225   8.067 -0.9479 -0.7610  0.0091
 4277SOL    HW224465   1.339   3.349   8.148  0.0717 -0.3105 -0.7923
 4278SOL     OW24466   1.787   4.172   2.989 -0.3169  0.3111  0.2206
 4278SOL    HW124467   1.710   4.175   2.933  2.1608  2.0893 -3.0668
 4278SOL    HW224468   1.743   4.207   3.067 -0.4639  1.7351 -0.5016
 4279SOL     OW24469   3.080   3.185  17.697 -0.6148 -1.0627 -0.3394
 4279SOL    HW124470   2.999   3.136  17.712 -0.3576 -1.1389  0.8184
 4279SOL    HW224471   3.084   3.235   0.030  0.3563 -1.0990 -0.3614
 4280SOL     OW24472   1.481   4.734   2.027  0.0681  0.3963 -0.1857
 4280SOL    HW124473   1.562   4.684   2.015 -0.0551  0.4347 -1.1698
 4280SOL    HW224474   1.432   4.735   1.945  0.7559  1.1328 -0.5924
 4281SOL     OW24475   2.485   3.789   9.021 -0.3657 -0.2071  0.8833
 4281SOL    HW124476   2.545   3.789   8.946 -0.9245 -1.8731  0.4379
 4281SOL    HW224477   2.402   3.805   8.976 -0.7192 -0.6352  1.3770
 4282SOL     OW24478   0.322   0.147   6.380  0.2500  0.4571 -0.4028
 4282SOL    HW124479   0.320   0.243   6.373  2.3604  0.5768  0.6355
 4282SOL    HW224480   0.396   0.145   6.441 -1.6908 -3.7159  1.7685
 4283SOL     OW24481   2.285   3.164  11.185  0.6157 -0.3938 -0.3476
 4283SOL    HW124482   2.273   3.127  11.098  0.5432 -0.4918 -0.2950
 4283SOL    HW224483   2.292   3.087  11.241 -2.2603 -0.5340 -0.1980
 4284SOL     OW24484   0.103   2.609  13.309 -0.0974 -0.2008  0.0021
 4284SOL    HW124485   0.115   2.693  13.354 -0.4090 -0.7614  1.1447
 4284SOL    HW224486   0.010   2.611  13.287 -0.1358  1.4311  0.2886
 4285SOL     OW24487   2.019   1.794   6.190 -0.3879 -0.0467  0.8766
 4285SOL    HW124488   1.990   1.851   6.261  0.0325  0.7206  0.4361
 4285SOL    HW224489   2.100   1.837   6.163 -2.4166  0.3637 -4.5337
 4286SOL     OW24490   1.552   4.451   4.847  0.5568  0.1508 -0.4812
 4286SOL    HW124491   1.555   4.538   4.808  0.7725  0.3288 -0.0611
 4286SOL    HW224492   1.458   4.442   4.863  0.4575  2.4736  0.2691
 4287SOL     OW24493   4.595   0.895   1.637 -0.3700  0.3163  0.1181
 4287SOL    HW124494   4.518   0.886   1.693  0.0909 -2.5773  0.2910
 4287SOL    HW224495   4.560   0.859   1.555 -2.0614  1.5634  0.2916
 4288SOL     OW24496   0.267   1.818   5.988 -0.1422 -0.0499 -0.2684
 4288SOL    HW124497   0.344   1.874   5.987 -0.6179  0.6089 -0.6298
 4288SOL    HW224498   0.230   1.828   5.900 -2.3030  0.0457  0.6421
 4289SOL     OW24499   3.899   2.734  16.599 -0.1799 -0.3010 -0.0720
 4289SOL    HW124500   3.875   2.718  16.508  0.2644 -0.9935 -0.0656
 4289SOL    HW224501   3.841   2.805  16.628  0.2888 -0.3690  1.0267
 4290SOL     OW24502   2.072   2.874  10.765  0.2300 -0.1230 -0.3515
 4290SOL    HW124503   2.097   2.785  10.741 -1.0618 -0.7568  0.6681
 4290SOL    HW224504   2.019   2.901  10.690 -1.1891  0.4223  0.8469
 4291SOL     OW24505   2.827   2.114  10.708  0.1223  0.3348  0.3661
 4291SOL    HW124506   2.847   2.155  10.792  2.9703 -1.4264  0.5487
 4291SOL    HW224507   2.733   2.096  10.715  0.5434 -1.0291  2.4365
 4292SOL     OW24508   2.798   1.821  10.816 -0.2288  0.1567  0.1472
 4292SOL    HW124509   2.750   1.901  10.792  0.1108  0.2785 -0.1181
 4292SOL    HW224510   2.729   1.761  10.787 -0.1926  0.6523 -0.9734
 4293SOL     OW24511   1.895   3.036   0.671 -0.2202  0.0061  0.1352
 4293SOL    HW124512   1.910   3.087   0.751 -0.1230  0.9266 -0.4775
 4293SOL    HW224513   1.808   2.995   0.678  0.1265 -1.1444 -2.4452
 4294SOL     OW24514   4.577   3.697  17.279 -0.1474 -0.0114 -0.7563
 4294SOL    HW124515   4.508   3.636  17.255 -2.0545  1.9839 -0.3986
 4294SOL    HW224516   4.525   3.767  17.318  0.5562 -0.3762  0.8632
 4295SOL     OW24517   4.096   4.306  17.278  0.5267  0.5410 -0.2994
 4295SOL    HW124518   4.109   4.219  17.314  0.8867  0.9454  0.5540
 4295SOL    HW224519   4.001   4.307  17.267  0.2620  0.1666  2.0131
 4296SOL     OW24520   3.321   1.542   4.998 -0.2518  0.6093  0.5807
 4296SOL    HW124521   3.384   1.502   4.938  0.1335  2.9129 -0.5309
 4296SOL    HW224522   3.304   1.606   4.929 -2.8701 -0.3167  0.3468
 4297SOL     OW24523   3.192   3.984   8.159  0.4418 -0.6034  0.3571
 4297SOL    HW124524   3.135   3.910   8.141 -1.4355  0.8987  0.0778
 4297SOL    HW224525   3.127   4.037   8.204 -1.3850 -1.7560 -0.9248
 4298SOL     OW24526   1.138   4.316   7.306 -0.0938  0.1793  0.0037
 4298SOL    HW124527   1.122   4.403   7.342 -4.1616 -0.9285  0.8687
 4298SOL    HW224528   1.231   4.297   7.317  0.0721  0.6234 -0.6810
 4299SOL     OW24529   2.298   1.983   4.488  0.0896 -0.3989  0.0724
 4299SOL    HW124530   2.295   2.047   4.560  0.1612 -0.4634  0.1318
 4299SOL    HW224531   2.303   2.041   4.412  1.0373 -0.7019 -0.0964
 4300SOL     OW24532   1.702   2.040   9.221  0.1674 -0.0821 -1.0419
 4300SOL    HW124533   1.697   1.958   9.170  1.4139 -1.1946  0.6596
 4300SOL    HW224534   1.645   2.010   9.292  2.5113  1.5885  1.5051
 4301SOL     OW24535   2.398   4.331   2.459  0.0298  0.0297  0.4673
 4301SOL    HW124536   2.379   4.289   2.543 -3.1058 -2.4954 -1.5054
 4301SOL    HW224537   2.478   4.380   2.476  0.5579 -0.3137 -1.0635
 4302SOL     OW24538   0.888   1.784   2.680 -0.0202 -0.3992  0.4047
 4302SOL    HW124539   0.861   1.795   2.589 -0.1580  0.7072  0.5767
 4302SOL    HW224540   0.971   1.830   2.685 -1.2523  1.8603 -0.0529
 4303SOL     OW24541   0.601   0.232  10.102  0.9934 -0.5184  0.7125
 4303SOL    HW124542   0.633   0.181  10.176  0.8053 -1.1691  0.3495
 4303SOL    HW224543   0.568   0.310  10.147 -0.5402 -0.6974 -0.0956
 4304SOL     OW24544   2.849   2.795  17.125  0.1824 -0.2314 -0.0147
 4304SOL    HW124545   2.865   2.756  17.040  2.5255  1.8703 -0.5424
 4304SOL    HW224546   2.887   2.732  17.187 -0.8221  0.8465  1.7244
 4305SOL     OW24547   3.582   4.051   5.280  0.4701 -0.2292  0.4099
 4305SOL    HW124548   3.552   4.126   5.331 -0.2080  0.8586 -1.6005
 4305SOL    HW224549   3.518   3.982   5.301  2.2770 -1.4780  1.7630
 4306SOL     OW24550   1.955   1.556   6.727 -0.2433  0.2224  0.9295
 4306SOL    HW124551   1.963   1.576   6.820  0.2410  0.9959  0.7196
 4306SOL    HW224552   2.042   1.525   6.702 -0.0140  1.7124 -0.1416
 4307SOL     OW24553   0.294   3.210   0.091 -0.5579  0.3506 -0.1629
 4307SOL    HW124554   0.200   3.231   0.093 -0.0997  2.2667  0.7046
 4307SOL    HW224555   0.313   3.149   0.020 -1.0620 -0.4246  0.3649
 4308SOL     OW24556   2.990   1.765   0.992  0.4858 -0.5637 -0.0516
 4308SOL    HW124557   3.015   1.704   0.922 -2.0028 -0.7432 -0.8044
 4308SOL    HW224558   2.939   1.711   1.052 -0.1867 -0.1256 -0.2287
 4309SOL     OW24559   4.219   2.794   4.115  0.0172  0.3689  0.3415
 4309SOL    HW124560   4.136   2.777   4.159 -0.0307  0.4827  0.2944
 4309SOL    HW224561   4.274   2.716   4.124 -0.0779  0.4598  1.7690
 4310SOL     OW24562   0.363   2.205   8.022  0.9790  0.2320 -0.4674
 4310SOL    HW124563   0.391   2.251   8.101  0.1243 -0.0896  0.0227
 4310SOL    HW224564   0.318   2.135   8.071 -0.1109  0.2225 -1.4822
 4311SOL     OW24565   4.235   4.501   5.745 -0.3827  0.0029 -0.1510
 4311SOL    HW124566   4.230   4.515   5.651  0.9383 -0.2684 -0.2587
 4311SOL    HW224567   4.295   4.426   5.754 -1.7427 -0.8863  1.7193
 4312SOL     OW24568   1.603   0.853   1.755 -1.2063 -0.3852  0.0998
 4312SOL    HW124569   1.696   0.829   1.744 -0.4887  1.3014  2.6256
 4312SOL    HW224570   1.597   0.904   1.835  1.9144 -0.2757  0.2855
 4313SOL     OW24571   2.416   1.171  16.079  0.0129  0.1307 -0.2465
 4313SOL    HW124572   2.427   1.206  16.167 -0.6532  2.0652 -0.9170
 4313SOL    HW224573   2.508   1.185  16.059  0.1665 -0.3906  0.0955
 4314SOL     OW24574   0.136   2.105  13.104 -0.9365 -0.7037 -0.7443
 4314SOL    HW124575   0.105   2.181  13.154 -0.8598 -1.7855  0.9516
 4314SOL    HW224576   0.118   2.037  13.169 -2.4595  0.8322  0.4427
 4315SOL     OW24577   4.115   3.774  11.144 -0.0350  0.2706 -0.4313
 4315SOL    HW124578   4.184   3.737  11.089  0.3677  1.2458 -0.5881
 4315SOL    HW224579   4.039   3.762  11.087  0.1805  0.2493 -0.7089
 4316SOL     OW24580   3.920   1.661   8.219 -0.0142 -0.1221  0.0931
 4316SOL    HW124581   3.870   1.683   8.298 -1.3237  0.1947 -0.8193
 4316SOL    HW224582   3.865   1.705   8.154  0.7936 -0.2369 -0.6664
 4317SOL     OW24583   1.914   4.159   4.235  0.2126 -0.0350  0.4792
 4317SOL    HW124584   1.990   4.108   4.205  0.3362 -0.8373  2.1865
 4317SOL    HW224585   1.946   4.246   4.212 -0.5327  0.6241  1.9588
 4318SOL     OW24586   1.916   0.115   5.837  0.0449 -0.2438 -0.2988
 4318SOL    HW124587   1.947   0.069   5.759  1.2882  1.7574 -0.9762
 4318SOL    HW224588   1.997   0.140   5.880  0.6780  1.6678 -2.5908
 4319SOL     OW24589   0.658   3.707   7.024  0.2667  0.4278  0.2094
 4319SOL    HW124590   0.589   3.738   7.084  2.9203  3.0501  1.9312
 4319SOL    HW224591   0.675   3.621   7.062  1.2482  0.1379 -0.8857
 4320SOL     OW24592   0.539   1.111  10.033  0.2198 -0.2604  0.4460
 4320SOL    HW124593   0.550   1.206  10.043 -1.1647 -0.1298  0.6588
 4320SOL    HW224594   0.613   1.087   9.977 -2.5312 -0.0829 -3.2324
 4321SOL     OW24595   3.500   4.019  11.360  0.1141 -0.6554  0.3039
 4321SOL    HW124596   3.541   3.953  11.415  0.7474 -1.5681 -1.2718
 4321SOL    HW224597   3.461   3.964  11.293 -0.8168  1.3734 -0.8356
 4322SOL     OW24598   1.684   2.741   2.608 -0.7275  0.4893  0.5784
 4322SOL    HW124599   1.633   2.791   2.544  1.1580 -0.3433 -1.5620
 4322SOL    HW224600   1.735   2.811   2.649  0.5428  0.1744 -0.4637
 4323SOL     OW24601   2.432   2.671   6.974 -0.7026  0.1062 -0.0324
 4323SOL    HW124602   2.428   2.680   7.070 -2.6454  2.1896 -0.2874
 4323SOL    HW224603   2.343   2.700   6.953 -0.8387 -0.8944 -0.8128
 4324SOL     OW24604   3.044   3.759   8.077  0.3166 -0.6821  0.0017
 4324SOL    HW124605   3.037   3.683   8.019 -1.6372 -0.8183  0.4220
 4324SOL    HW224606   2.961   3.801   8.055  0.0411 -0.9238  0.5746
 4325SOL     OW24607   3.211   1.381  13.485 -0.4238 -0.1048 -0.2467
 4325SOL    HW124608   3.137   1.365  13.426 -0.3070  0.5319 -0.5679
 4325SOL    HW224609   3.291   1.374  13.432 -0.8925 -0.0315 -0.9750
 4326SOL     OW24610   4.265   0.729   9.179 -0.4704 -0.3870  0.0314
 4326SOL    HW124611   4.264   0.732   9.084  1.4904 -0.2213  0.0056
 4326SOL    HW224612   4.230   0.817   9.190  1.9856  0.6374 -0.2872
 4327SOL     OW24613   1.710   1.547   6.147  0.0431  0.3838  0.9265
 4327SOL    HW124614   1.691   1.641   6.148 -0.1178  0.3576  0.4363
 4327SOL    HW224615   1.622   1.511   6.145  0.2902 -0.0833 -0.9003
 4328SOL     OW24616   0.236   3.831   9.399 -0.1334 -0.1817  0.1003
 4328SOL    HW124617   0.306   3.897   9.393  1.8855 -2.1942  1.6972
 4328SOL    HW224618   0.276   3.765   9.342 -0.4704 -1.3475  1.2257
 4329SOL     OW24619   3.307   1.728   8.048  0.0435  0.1904 -0.3540
 4329SOL    HW124620   3.263   1.662   7.996  1.7839  0.3335 -2.0186
 4329SOL    HW224621   3.315   1.806   7.992 -0.7121  0.1144 -0.5632
 4330SOL     OW24622   4.098   2.552   3.377 -0.2451 -0.3354  0.1791
 4330SOL    HW124623   4.015   2.572   3.421 -0.1996 -2.0048  0.9987
 4330SOL    HW224624   4.140   2.498   3.444 -0.9031 -2.8778 -1.4564
 4331SOL     OW24625   0.829   2.675   6.543 -0.0894 -0.2636  0.0491
 4331SOL    HW124626   0.803   2.583   6.537  1.2762 -0.6643  0.2598
 4331SOL    HW224627   0.902   2.688   6.482  0.6054  0.4429  1.0175
 4332SOL     OW24628   2.235   2.949  13.244 -0.1064  0.0714  0.0821
 4332SOL    HW124629   2.241   3.028  13.189 -0.0885  1.3643  1.9585
 4332SOL    HW224630   2.244   2.983  13.333  0.3270 -0.4305  0.2276
 4333SOL     OW24631   1.335   2.825   7.411 -0.7225 -0.1006  0.1853
 4333SOL    HW124632   1.410   2.829   7.351 -0.5248  0.6227  0.4811
 4333SOL    HW224633   1.263   2.799   7.354 -2.3522  1.0573  1.7178
 4334SOL     OW24634   1.481   3.715   2.829  0.3898 -0.2179  0.2822
 4334SOL    HW124635   1.541   3.777   2.872 -0.3263 -0.5833  1.7696
 4334SOL    HW224636   1.484   3.749   2.739 -0.2082 -1.4569 -0.2044
 4335SOL     OW24637   1.467   2.127  14.347 -0.8151  0.2016  0.0663
 4335SOL    HW124638   1.528   2.100  14.415 -1.7375 -0.3347  0.6920
 4335SOL    HW224639   1.410   2.185  14.398 -2.0958 -2.1828  1.4073
 4336SOL     OW24640   0.784   2.838   0.765  0.5902 -0.3458  0.1006
 4336SOL    HW124641   0.727   2.839   0.842  0.2917  0.3848 -0.1297
 4336SOL    HW224642   0.828   2.923   0.777 -0.8393  0.4720 -0.4583
 4337SOL     OW24643   2.954   0.548   2.636 -0.0773 -0.3777  0.5108
 4337SOL    HW124644   2.896   0.570   2.709  0.4994 -1.0714  1.1972
 4337SOL    HW224645   2.898   0.482   2.594  1.6792 -0.4675 -1.7117
 4338SOL     OW24646   0.680   0.450   7.742 -1.0386 -0.2418  0.4793
 4338SOL    HW124647   0.700   0.524   7.685 -0.8177 -0.7013 -0.0404
 4338SOL    HW224648   0.589   0.430   7.718 -0.2253 -0.9425 -2.0839
 4339SOL     OW24649   3.015   2.967   8.525  0.1652  0.1508 -0.0801
 4339SOL    HW124650   2.944   3.010   8.571  0.2369  0.3076 -0.1162
 4339SOL    HW224651   3.082   3.019   8.570  0.6944  0.0520 -0.7475
 4340SOL     OW24652   0.288   0.093   2.057 -0.3312  0.5333  0.1554
 4340SOL    HW124653   0.247   0.098   1.970  0.2422 -1.0583 -0.2162
 4340SOL    HW224654   0.275   0.002   2.086  2.2124  0.4924  1.1504
 4341SOL     OW24655   2.189   3.367   6.035  0.0791 -0.3578  0.3131
 4341SOL    HW124656   2.130   3.441   6.052  1.3903  0.1500  2.6069
 4341SOL    HW224657   2.268   3.392   6.082  0.2841 -0.2538 -0.0892
 4342SOL     OW24658   3.474   1.150   4.647 -0.2437 -0.3672  0.1411
 4342SOL    HW124659   3.480   1.199   4.565  0.7662 -1.0954 -0.2141
 4342SOL    HW224660   3.381   1.128   4.648 -0.1250 -0.9033 -1.1622
 4343SOL     OW24661   0.542   1.765   2.356  0.2489 -0.1437 -0.1501
 4343SOL    HW124662   0.545   1.825   2.281  0.4706  0.2610  0.1853
 4343SOL    HW224663   0.469   1.799   2.408  1.1419 -0.3030  1.1991
 4344SOL     OW24664   3.792   3.687  14.863  0.5462  0.5015  0.5341
 4344SOL    HW124665   3.851   3.637  14.919  0.6385 -1.4921 -1.3494
 4344SOL    HW224666   3.741   3.737  14.926  1.6016  0.7976  1.1457
 4345SOL     OW24667   2.162   2.759   6.926  0.7337  0.2813  0.1390
 4345SOL    HW124668   2.106   2.703   6.871  1.1041 -2.0077  2.0825
 4345SOL    HW224669   2.127   2.739   7.013  0.2072  1.0563  0.1046
 4346SOL     OW24670   1.403   4.364  10.412 -0.2241  0.2257 -0.1068
 4346SOL    HW124671   1.415   4.447  10.458 -0.5517  0.3127 -0.1830
 4346SOL    HW224672   1.322   4.360  10.361  0.2932  2.4635 -1.0907
 4347SOL     OW24673   2.126   3.635   1.516  0.0194 -0.5564 -0.1632
 4347SOL    HW124674   2.148   3.727   1.506  3.1532 -1.6222 -3.1747
 4347SOL    HW224675   2.031   3.645   1.523  0.1302  0.3619  0.0460
 4348SOL     OW24676   1.255   1.221   5.321 -0.3064  0.0922  0.0499
 4348SOL    HW124677   1.344   1.231   5.354  0.4397 -0.4785 -1.7551
 4348SOL    HW224678   1.208   1.258   5.395 -3.3547  0.0670 -1.8506
 4349SOL     OW24679   3.453   1.413   8.437  0.3255 -0.0874 -0.1357
 4349SOL    HW124680   3.472   1.437   8.346 -2.7442  1.3918 -0.3924
 4349SOL    HW224681   3.402   1.489   8.462 -0.6302 -0.3800 -1.1520
 4350SOL     OW24682   2.760   4.131   0.763  0.0509 -0.0993 -0.1236
 4350SOL    HW124683   2.704   4.198   0.802  1.1022  0.4800  0.3884
 4350SOL    HW224684   2.697   4.059   0.766 -0.5538  0.4159 -0.6075
 4351SOL     OW24685   1.037   1.296   6.108  0.2480 -0.0276 -0.3319
 4351SOL    HW124686   0.945   1.291   6.084  0.0270  0.5950  0.3569
 4351SOL    HW224687   1.035   1.351   6.186  4.3353 -0.3065  0.0006
 4352SOL     OW24688   3.194   0.767  11.247  0.2085  0.6656 -0.5407
 4352SOL    HW124689   3.240   0.803  11.323 -1.7647  1.7212  0.1724
 4352SOL    HW224690   3.105   0.793  11.269  0.6405 -1.0498  3.3030
 4353SOL     OW24691   0.150   4.180   3.628  0.3242  0.8328  0.1154
 4353SOL    HW124692   0.084   4.185   3.559  1.7044 -2.2445 -1.4651
 4353SOL    HW224693   0.141   4.091   3.663  1.3147  0.1206 -1.3899
 4354SOL     OW24694   0.103   2.241   8.234  0.0658  0.8825  0.5997
 4354SOL    HW124695   0.149   2.253   8.317 -0.5397  2.9790  0.6399
 4354SOL    HW224696   0.125   2.150   8.212  1.0309  0.9480  1.2853
 4355SOL     OW24697   2.411   3.443   0.894 -0.1403  0.5967 -0.3244
 4355SOL    HW124698   2.430   3.397   0.976 -2.3782  1.7221  0.8285
 4355SOL    HW224699   2.460   3.383   0.838  2.4204  1.4933  0.9768
 4356SOL     OW24700   0.842   4.122   9.089 -0.8388 -0.4262 -0.1768
 4356SOL    HW124701   0.860   4.031   9.067 -0.1597 -0.5012  0.6633
 4356SOL    HW224702   0.753   4.111   9.121 -0.2657 -0.5902  1.3983
 4357SOL     OW24703   1.496   0.856   2.357  0.4492  0.0358 -0.7106
 4357SOL    HW124704   1.533   0.770   2.378  2.2666  0.8406 -0.6647
 4357SOL    HW224705   1.438   0.835   2.284 -0.6722  2.9843 -0.6693
 4358SOL     OW24706   0.647   4.195   4.018 -0.5238 -0.7141  0.1731
 4358SOL    HW124707   0.621   4.110   4.053 -0.9594 -1.2500 -1.4341
 4358SOL    HW224708   0.683   4.244   4.092  1.8522  0.8264 -2.0052
 4359SOL     OW24709   0.564   4.453   8.089 -0.2980 -0.1735 -0.2827
 4359SOL    HW124710   0.549   4.487   8.000 -1.7990 -2.5876 -0.9682
 4359SOL    HW224711   0.543   4.364   8.059  0.8887  0.0091 -1.6849
 4360SOL     OW24712   3.371   2.191  12.631  0.3331  0.4873  0.3509
 4360SOL    HW124713   3.377   2.286  12.619  2.3456  0.2165 -0.8224
 4360SOL    HW224714   3.406   2.168  12.545 -2.8523  1.0043 -1.1090
 4361SOL     OW24715   1.669   3.392   1.738 -0.2704 -0.6258  0.4065
 4361SOL    HW124716   1.590   3.378   1.789 -0.0124  1.4002  1.3603
 4361SOL    HW224717   1.685   3.483   1.765 -3.3784 -0.9815  3.4424
 4362SOL     OW24718   0.960   2.226  10.547 -0.5125 -0.0309  0.6716
 4362SOL    HW124719   1.050   2.203  10.569 -0.3171 -0.9182 -1.0906
 4362SOL    HW224720   0.967   2.319  10.526 -2.0618 -0.3174 -1.0781
 4363SOL     OW24721   2.762   0.440   6.281 -0.2386 -0.2029 -0.0471
 4363SOL    HW124722   2.694   0.505   6.262  0.4033  0.2435 -0.8399
 4363SOL    HW224723   2.790   0.476   6.365  0.7911 -0.0072 -0.4717
 4364SOL     OW24724   1.293   2.047  14.139 -0.1826  0.7643  0.0220
 4364SOL    HW124725   1.249   2.114  14.086  1.2348 -0.5484 -2.8141
 4364SOL    HW224726   1.358   2.098  14.187  1.9320 -1.2629 -0.7234
 4365SOL     OW24727   2.467   1.378   6.820  0.2809  0.2206  0.0287
 4365SOL    HW124728   2.416   1.420   6.889 -1.0765  1.2636 -1.6303
 4365SOL    HW224729   2.469   1.287   6.850 -2.6000 -0.1735 -0.9965
 4366SOL     OW24730   2.236   2.559   3.153  0.1867  0.5697 -0.0972
 4366SOL    HW124731   2.172   2.550   3.082 -0.0258  0.8926  0.0478
 4366SOL    HW224732   2.246   2.655   3.153 -0.5896  0.6571 -1.3780
 4367SOL     OW24733   3.370   3.473   9.782 -0.5824  0.6700 -0.3314
 4367SOL    HW124734   3.400   3.474   9.873 -0.7254 -3.3220 -0.2336
 4367SOL    HW224735   3.442   3.527   9.749  1.1730 -2.3642 -1.4603
 4368SOL     OW24736   3.720   0.197   8.486 -0.5726  0.2153 -0.0571
 4368SOL    HW124737   3.755   0.219   8.400  3.0817 -1.0627  1.0877
 4368SOL    HW224738   3.794   0.146   8.520 -0.4308  1.3732  1.3803
 4369SOL     OW24739   2.911   3.577   3.364  0.4428  0.6010 -0.4465
 4369SOL    HW124740   2.987   3.556   3.309  1.4002  1.1898  0.6498
 4369SOL    HW224741   2.834   3.576   3.307 -0.0156  1.5109  0.1634
 4370SOL     OW24742   3.658   4.435  13.211  0.3223  0.1615 -0.3198
 4370SOL    HW124743   3.751   4.424  13.191 -0.0711  0.3912 -2.2392
 4370SOL    HW224744   3.609   4.360  13.178  1.1236  0.3469 -1.9284
 4371SOL     OW24745   0.596   2.492   5.254  0.7447  0.4384 -0.4173
 4371SOL    HW124746   0.525   2.555   5.249 -0.5102 -1.1185 -2.3190
 4371SOL    HW224747   0.670   2.550   5.273  1.8060 -1.4365  1.3436
 4372SOL     OW24748   3.113   3.907   1.618 -0.0705 -0.0315 -0.5699
 4372SOL    HW124749   3.045   3.880   1.556  0.4408  1.0524 -1.5977
 4372SOL    HW224750   3.065   3.960   1.682  2.4797  1.9966 -0.3336
 4373SOL     OW24751   2.951   0.145   3.834  0.6672  0.0429  0.1841
 4373SOL    HW124752   2.966   0.051   3.830  0.7088  0.0718 -0.2471
 4373SOL    HW224753   3.040   0.179   3.846  0.5604  0.5533 -0.5241
 4374SOL     OW24754   2.547   3.976  13.543 -0.2465  0.7074  0.1100
 4374SOL    HW124755   2.513   4.065  13.548 -1.3326  0.1618  2.1556
 4374SOL    HW224756   2.639   3.983  13.515 -0.3191 -0.4316 -0.4341
 4375SOL     OW24757   2.921   2.546   7.778  0.2143  0.0421  0.0045
 4375SOL    HW124758   2.984   2.550   7.706  0.6344 -3.1954  0.1517
 4375SOL    HW224759   2.883   2.633   7.780 -2.4903 -1.1292 -1.2349
 4376SOL     OW24760   3.235   1.020   9.261 -0.3074 -0.5099  0.6972
 4376SOL    HW124761   3.214   0.933   9.227 -0.5625 -0.8797  1.8208
 4376SOL    HW224762   3.170   1.030   9.330  0.2217  0.6186  1.0345
 4377SOL     OW24763   0.685   2.528  16.089 -0.8804 -0.3017 -0.4481
 4377SOL    HW124764   0.719   2.478  16.015  1.6305 -1.4276  1.4870
 4377SOL    HW224765   0.631   2.589  16.038 -1.4515 -1.9454 -1.8166
 4378SOL     OW24766   1.695   3.711   3.271 -0.1250 -0.5094 -0.0772
 4378SOL    HW124767   1.690   3.654   3.195  3.1301 -1.5258  0.4385
 4378SOL    HW224768   1.772   3.761   3.244  1.4102 -2.3166  0.8771
 4379SOL     OW24769   0.902   3.254  13.072 -0.5906  0.0847  0.0617
 4379SOL    HW124770   0.828   3.305  13.107  0.7417  1.7936  0.3932
 4379SOL    HW224771   0.966   3.260  13.143  0.1442 -1.5013 -0.4719
 4380SOL     OW24772   4.240   4.042   1.844  0.6946 -0.4256  0.0349
 4380SOL    HW124773   4.227   4.123   1.894  1.2366 -0.1570 -0.2527
 4380SOL    HW224774   4.162   3.990   1.860  0.1645  0.4977  0.4395
 4381SOL     OW24775   2.833   3.562   5.890  0.0638 -0.0647  0.9543
 4381SOL    HW124776   2.791   3.628   5.944 -0.7358 -0.8638  1.3101
 4381SOL    HW224777   2.911   3.537   5.940 -0.0142  2.4988  2.3263
 4382SOL     OW24778   0.444   2.189   7.412 -0.0535 -0.6464 -0.4062
 4382SOL    HW124779   0.475   2.244   7.484  0.6425 -2.9857  1.0843
 4382SOL    HW224780   0.460   2.099   7.440  1.3656 -0.6530 -1.2234
 4383SOL     OW24781   1.600   3.243   4.473 -0.1015 -0.4759  0.2927
 4383SOL    HW124782   1.638   3.172   4.526 -0.3179 -2.4028 -2.1372
 4383SOL    HW224783   1.506   3.229   4.487  0.3758 -1.9196  2.2038
 4384SOL     OW24784   4.314   4.682   6.849  0.1392  0.2482  0.5224
 4384SOL    HW124785   4.302   4.694   6.755 -0.6153  0.3130  0.6232
 4384SOL    HW224786   4.396   4.731   6.851  0.3404 -0.0612 -0.2891
 4385SOL     OW24787   0.871   3.821   6.871  0.5763 -0.1523 -0.7073
 4385SOL    HW124788   0.924   3.844   6.947 -1.4760 -1.7633  1.2092
 4385SOL    HW224789   0.790   3.795   6.915  1.5321  0.1883  1.2729
 4386SOL     OW24790   2.959   3.312  17.459  0.3409 -0.0044 -0.1647
 4386SOL    HW124791   2.974   3.283  17.549 -2.1983 -0.0254  0.2459
 4386SOL    HW224792   2.954   3.229  17.411  0.5989  0.2413 -0.6147
 4387SOL     OW24793   0.650   3.713  14.687 -0.2192  0.5498 -0.0164
 4387SOL    HW124794   0.710   3.696  14.759 -3.9271 -1.7104  2.5584
 4387SOL    HW224795   0.711   3.730  14.615 -1.7477 -1.1794 -1.7333
 4388SOL     OW24796   1.171   3.277   3.853  0.3240 -0.0148  0.1370
 4388SOL    HW124797   1.178   3.314   3.942 -2.1769  0.1928  0.2542
 4388SOL    HW224798   1.259   3.277   3.817 -0.0487 -0.5305 -0.7560
 4389SOL     OW24799   0.137   4.493   5.292  0.2674 -0.2038  0.3324
 4389SOL    HW124800   0.125   4.531   5.205  2.9079 -0.3122 -0.0662
 4389SOL    HW224801   0.183   4.569   5.328  0.8880 -0.1244 -0.6206
 4390SOL     OW24802   2.232   1.952   6.116 -0.6763  0.5273  0.1090
 4390SOL    HW124803   2.270   2.035   6.145 -1.5464  1.1220 -0.4495
 4390SOL    HW224804   2.260   1.951   6.025  0.1263  1.0267  0.3440
 4391SOL     OW24805   0.874   3.483   9.788 -0.3977 -0.0273  0.6086
 4391SOL    HW124806   0.815   3.452   9.857  0.7467 -2.4778  0.5228
 4391SOL    HW224807   0.922   3.560   9.819 -1.9513  1.1108  0.1625
 4392SOL     OW24808   3.093   3.195   3.822 -0.0509 -0.0333  0.1337
 4392SOL    HW124809   3.174   3.167   3.779  1.3631  0.0743  2.7330
 4392SOL    HW224810   3.126   3.283   3.838  0.2420 -0.6139  2.7502
 4393SOL     OW24811   4.647   2.318   6.207 -0.1526 -0.4109  0.1208
 4393SOL    HW124812   4.671   2.350   6.120 -0.7644 -0.2440  0.0178
 4393SOL    HW224813   4.718   2.253   6.216  1.1725  0.6666 -2.4840
 4394SOL     OW24814   3.860   3.682   1.987  0.0490 -0.4175  0.1469
 4394SOL    HW124815   3.833   3.597   1.953  1.1260 -0.0667 -1.6258
 4394SOL    HW224816   3.785   3.740   2.001  0.7066  0.5948 -0.5214
 4395SOL     OW24817   2.487   0.816   5.017 -0.0863 -0.1939  0.0882
 4395SOL    HW124818   2.496   0.812   5.112  1.9051  1.4982 -0.0234
 4395SOL    HW224819   2.492   0.912   5.011 -2.2315 -0.1188 -0.4977
 4396SOL     OW24820   1.770   0.084   0.380  0.4906 -0.2212 -0.6051
 4396SOL    HW124821   1.680   0.115   0.393  0.0676 -2.5668  2.1435
 4396SOL    HW224822   1.814   0.166   0.358 -1.6863  0.9683 -0.4992
 4397SOL     OW24823   0.289   0.979   0.784  0.2671 -0.1385 -0.1346
 4397SOL    HW124824   0.364   0.998   0.728  0.1371 -2.4430 -1.0623
 4397SOL    HW224825   0.216   1.016   0.733  0.5256  1.9357  0.9736
 4398SOL     OW24826   0.017   2.819   6.072  0.6093  0.6073 -0.5990
 4398SOL    HW124827   4.669   2.832   6.030  0.5148  0.0339 -0.5789
 4398SOL    HW224828   0.015   2.873   6.151 -0.8833 -0.2820 -0.0306
 4399SOL     OW24829   2.482   3.863  10.047 -0.5668 -0.3060 -0.2780
 4399SOL    HW124830   2.402   3.852  10.099  0.3503 -1.5782  0.8656
 4399SOL    HW224831   2.525   3.778  10.056  1.3627  0.3529 -3.1167
 4400SOL     OW24832   4.259   3.006   4.435 -0.1052  0.5381 -0.3499
 4400SOL    HW124833   4.309   3.077   4.476 -0.2727  0.4744 -0.0383
 4400SOL    HW224834   4.298   3.000   4.348 -0.8754 -0.8132 -0.6015
 4401SOL     OW24835   1.507   1.669   7.840  0.1524 -0.2089 -0.1009
 4401SOL    HW124836   1.555   1.752   7.839  2.7386 -1.6928  0.6127
 4401SOL    HW224837   1.571   1.604   7.810  1.7622  1.7428 -0.9296
 4402SOL     OW24838   3.654   0.474   4.507  0.3119  0.1068 -0.0553
 4402SOL    HW124839   3.686   0.401   4.560 -0.6892  1.9337  3.0576
 4402SOL    HW224840   3.559   0.476   4.520  0.1075 -0.3345 -1.5233
 4403SOL     OW24841   3.371   3.347   8.971  0.0517 -0.0742  0.1871
 4403SOL    HW124842   3.406   3.313   8.888 -1.7388  0.7863 -0.9114
 4403SOL    HW224843   3.409   3.282   9.030 -1.3599  0.2106  1.3997
 4404SOL     OW24844   1.068   2.947  17.011  0.4619 -0.1038 -0.0249
 4404SOL    HW124845   0.989   3.002  17.017 -0.9701 -2.3282  1.6102
 4404SOL    HW224846   1.132   3.017  17.018 -1.4074  1.4799  1.2849
 4405SOL     OW24847   2.777   3.732   7.499 -0.3389 -0.1958  0.7158
 4405SOL    HW124848   2.758   3.725   7.405  0.2054  1.4779  0.4842
 4405SOL    HW224849   2.704   3.787   7.526  1.6856  2.3663  0.9627
 4406SOL     OW24850   0.743   0.435   4.734 -0.1000 -0.2305 -0.1148
 4406SOL    HW124851   0.713   0.516   4.774 -1.9660 -1.6343  1.3503
 4406SOL    HW224852   0.661   0.386   4.723  0.3107 -1.0571  0.4690
 4407SOL     OW24853   3.693   3.770   6.443  0.1270  0.2334  0.3109
 4407SOL    HW124854   3.670   3.797   6.354 -0.6653 -0.5500  0.2818
 4407SOL    HW224855   3.663   3.851   6.483  1.6017  0.7381  0.4013
 4408SOL     OW24856   0.036   4.465  14.318 -0.0662  0.3770  0.0127
 4408SOL    HW124857   0.094   4.462  14.394 -0.6193 -0.7703  0.3798
 4408SOL    HW224858   0.068   4.545  14.276 -0.8173  0.3423 -0.6212
 4409SOL     OW24859   3.868   2.147   9.486 -0.3293  0.1312  0.6926
 4409SOL    HW124860   3.947   2.156   9.539  0.7105 -0.1326 -0.8115
 4409SOL    HW224861   3.853   2.053   9.487  0.7647 -0.0326  2.7647
 4410SOL     OW24862   4.091   0.506   2.238 -0.1210  0.1724 -0.1161
 4410SOL    HW124863   4.159   0.474   2.178  0.2802  0.8295 -0.0058
 4410SOL    HW224864   4.015   0.522   2.181  0.6421  1.4811 -0.7678
 4411SOL     OW24865   0.347   0.418  10.775  0.4444  0.1845  0.8157
 4411SOL    HW124866   0.295   0.413  10.695 -0.6074 -0.6000  1.5611
 4411SOL    HW224867   0.414   0.484  10.757  0.2825  0.1727  0.1591
 4412SOL     OW24868   3.769   0.969   7.218 -0.0130  0.1473 -0.0195
 4412SOL    HW124869   3.796   1.061   7.216 -0.4048  0.2816  1.2560
 4412SOL    HW224870   3.843   0.930   7.171 -1.5724 -3.3699  0.4477
 4413SOL     OW24871   0.137   0.322   9.383 -0.2503  0.5504  0.3833
 4413SOL    HW124872   0.064   0.371   9.344 -0.4766 -0.1589 -0.0723
 4413SOL    HW224873   0.099   0.235   9.376 -0.0483  0.4663  0.3329
 4414SOL     OW24874   2.313   3.639   1.882 -0.3116  0.0658 -0.1922
 4414SOL    HW124875   2.221   3.616   1.865 -0.0334 -1.4147  0.2934
 4414SOL    HW224876   2.306   3.694   1.960 -0.9352  0.5327 -0.5760
 4415SOL     OW24877   2.104   2.529  14.105  0.4287 -0.1642 -0.2387
 4415SOL    HW124878   2.134   2.614  14.140  2.4314 -1.3937  1.0853
 4415SOL    HW224879   2.062   2.553  14.023 -3.4038 -2.0052  1.2045
 4416SOL     OW24880   1.761   3.092   4.939  0.6387 -0.0567 -0.3447
 4416SOL    HW124881   1.687   3.032   4.951  0.4447  0.1041 -0.7535
 4416SOL    HW224882   1.828   3.037   4.900  0.3796  0.0919 -0.9978
 4417SOL     OW24883   4.359   1.709   6.127 -0.6949  0.3790 -0.1987
 4417SOL    HW124884   4.272   1.716   6.086  1.0718  1.4621 -3.7255
 4417SOL    HW224885   4.363   1.617   6.155  2.3555  1.2754  2.2477
 4418SOL     OW24886   4.032   1.837   2.387 -0.2121 -0.1697  0.4937
 4418SOL    HW124887   4.004   1.771   2.324  1.5921 -0.4822  0.0388
 4418SOL    HW224888   4.029   1.911   2.325  0.2583 -0.6696 -0.1253
 4419SOL     OW24889   4.460   2.492  11.211  0.1016  0.6396  0.2050
 4419SOL    HW124890   4.413   2.525  11.287  0.2557  0.3042  0.4469
 4419SOL    HW224891   4.446   2.398  11.218  2.1954  0.2609 -0.5256
 4420SOL     OW24892   1.117   1.768   6.674  0.1727  0.4605 -0.3901
 4420SOL    HW124893   1.061   1.844   6.687 -0.8191 -0.2928 -0.3056
 4420SOL    HW224894   1.138   1.739   6.763 -3.0299 -0.9922 -0.1117
 4421SOL     OW24895   2.068   3.018   8.363 -0.2691 -0.1110  0.1892
 4421SOL    HW124896   2.023   2.973   8.434 -1.7178 -0.4303 -0.9318
 4421SOL    HW224897   2.120   2.944   8.333 -3.4434 -1.3879 -2.2467
 4422SOL     OW24898   2.593   2.507  13.887 -0.1648  0.2087 -0.2283
 4422SOL    HW124899   2.583   2.497  13.792  4.1917 -3.0475 -0.2988
 4422SOL    HW224900   2.502   2.532  13.907 -0.3024 -0.1473 -0.4197
 4423SOL     OW24901   3.830   3.879   7.476 -0.1266  0.0613 -0.7075
 4423SOL    HW124902   3.876   3.956   7.444  2.7772 -1.3965 -0.0562
 4423SOL    HW224903   3.844   3.905   7.567 -0.8895  0.4616 -0.7048
 4424SOL     OW24904   3.609   4.342   3.946  0.4293 -0.2331  0.6206
 4424SOL    HW124905   3.680   4.405   3.960  0.7361 -0.8750  2.0561
 4424SOL    HW224906   3.534   4.396   3.919  0.5123  0.2003  1.2467
 4425SOL     OW24907   1.646   2.931  14.547 -0.2403  0.5414 -0.2376
 4425SOL    HW124908   1.611   2.853  14.504  0.2958  1.1833 -1.8292
 4425SOL    HW224909   1.722   2.906  14.599 -0.1551 -0.3715 -0.8067
 4426SOL     OW24910   2.566   3.780   2.504  0.2631  0.1669  0.1904
 4426SOL    HW124911   2.559   3.704   2.562 -2.1847  0.1463 -0.1315
 4426SOL    HW224912   2.487   3.833   2.513  0.2862  0.4154 -1.0919
 4427SOL     OW24913   0.985   4.712   9.504 -0.3067 -0.2404 -0.0179
 4427SOL    HW124914   0.905   4.734   9.457 -0.0151  2.9571  1.0147
 4427SOL    HW224915   0.961   4.638   9.559 -0.5542 -1.4620 -1.7488
 4428SOL     OW24916   0.068   2.696   7.567  0.0301 -0.0699 -0.2536
 4428SOL    HW124917   4.734   2.663   7.622  0.6194 -0.6127  0.1869
 4428SOL    HW224918   0.026   2.688   7.482  1.4196  1.2677 -1.0609
 4429SOL     OW24919   1.507   3.120   3.545  1.2195 -0.5699  0.1492
 4429SOL    HW124920   1.469   3.205   3.523  0.2456 -1.3357 -1.1844
 4429SOL    HW224921   1.462   3.071   3.475  0.1518 -1.5831  1.5359
 4430SOL     OW24922   2.511   4.374   7.469  0.4378 -0.3640  0.4176
 4430SOL    HW124923   2.595   4.329   7.463  0.7312  0.2605 -0.1923
 4430SOL    HW224924   2.452   4.312   7.511 -0.1221  0.0271  0.2043
 4431SOL     OW24925   2.043   1.151   6.459  0.1053 -0.4022 -0.0598
 4431SOL    HW124926   2.089   1.074   6.427  0.2116 -0.3076 -0.1358
 4431SOL    HW224927   2.094   1.187   6.532 -1.2485 -0.0345  0.6940
 4432SOL     OW24928   2.161   0.803   7.739 -0.3275  0.3577  0.2006
 4432SOL    HW124929   2.186   0.854   7.661  0.6999 -2.2160 -1.1588
 4432SOL    HW224930   2.245   0.761   7.756 -0.7968 -0.6587  0.0651
 4433SOL     OW24931   0.546   1.872   7.174 -0.2708  0.0282  0.0400
 4433SOL    HW124932   0.522   1.812   7.103  0.1897  0.9710 -0.9113
 4433SOL    HW224933   0.528   1.957   7.133  4.4964  1.9050  1.8828
 4434SOL     OW24934   3.635   3.476   3.939 -0.1653  0.1258  0.3258
 4434SOL    HW124935   3.616   3.569   3.952 -0.7432 -0.0350  0.6573
 4434SOL    HW224936   3.543   3.453   3.927 -0.5300  0.9670  1.4440
 4435SOL     OW24937   1.043   2.577   7.644 -0.2654 -0.1975  0.3883
 4435SOL    HW124938   1.021   2.664   7.610 -1.7088 -0.5606  0.3880
 4435SOL    HW224939   1.121   2.566   7.591 -1.8071 -1.0231 -1.6960
 4436SOL     OW24940   4.693   1.046   6.924  0.0434  0.3012  0.0755
 4436SOL    HW124941   4.597   1.040   6.922  0.1178 -0.1982 -1.8078
 4436SOL    HW224942   4.713   0.975   6.863  1.1299  0.4271  0.2983
 4437SOL     OW24943   4.363   2.491   7.023 -0.4676  0.5103  0.0690
 4437SOL    HW124944   4.278   2.535   7.032  0.2150  1.9274 -0.3306
 4437SOL    HW224945   4.419   2.557   6.982 -0.6647  0.0574 -0.9335
 4438SOL     OW24946   0.956   1.230   4.177 -0.7387 -0.3818 -0.2378
 4438SOL    HW124947   1.011   1.234   4.255 -0.5538 -2.0788 -0.2767
 4438SOL    HW224948   0.996   1.307   4.135 -2.0202 -1.1338 -2.8171
 4439SOL     OW24949   3.439   4.443  13.668  0.2805  0.3916  0.0663
 4439SOL    HW124950   3.463   4.479  13.583  3.1518 -1.6350  0.0125
 4439SOL    HW224951   3.499   4.372  13.693  3.1343  2.7690  0.0084
 4440SOL     OW24952   3.550   2.536  16.778 -0.5308  0.3581 -0.4770
 4440SOL    HW124953   3.645   2.526  16.784 -0.7950 -1.8960 -0.0125
 4440SOL    HW224954   3.542   2.605  16.844  0.2691 -0.2147  0.2204
 4441SOL     OW24955   2.459   0.047   3.108 -0.0572  0.5881  0.3046
 4441SOL    HW124956   2.540   0.039   3.058 -0.5332 -0.8960 -0.2294
 4441SOL    HW224957   2.491   0.006   3.189 -1.6950 -1.1238  0.0975
 4442SOL     OW24958   1.469   3.543  13.442  0.4820 -0.7822  0.8487
 4442SOL    HW124959   1.438   3.523  13.530 -0.4857 -0.7595  0.5206
 4442SOL    HW224960   1.460   3.452  13.414  2.7066 -0.6120 -0.4084
 4443SOL     OW24961   0.536   3.647   3.409  0.2741  0.2386  0.3631
 4443SOL    HW124962   0.441   3.639   3.406  0.4853 -1.0846 -2.6751
 4443SOL    HW224963   0.542   3.552   3.423  1.1496 -0.1120 -2.4280
 4444SOL     OW24964   3.981   0.479  10.858 -0.1611  0.0411 -0.1958
 4444SOL    HW124965   4.074   0.470  10.842 -0.3437  1.3074 -1.9489
 4444SOL    HW224966   3.976   0.558  10.913  3.4122  1.6780 -2.2547
 4445SOL     OW24967   3.553   1.928  13.047 -0.6909 -0.6964 -0.2659
 4445SOL    HW124968   3.589   1.842  13.025  1.4688  0.0970  0.2385
 4445SOL    HW224969   3.611   1.997  13.014  0.4690 -1.1112  0.9217
 4446SOL     OW24970   3.676   1.293   8.585 -0.3467  0.1048 -0.4259
 4446SOL    HW124971   3.725   1.365   8.626  0.3163 -1.4066  1.4751
 4446SOL    HW224972   3.629   1.336   8.514  2.6552  2.9645 -0.6593
 4447SOL     OW24973   1.214   3.074  15.457  0.1436  0.0412 -0.1070
 4447SOL    HW124974   1.186   3.155  15.500 -3.3558 -1.6192  0.7229
 4447SOL    HW224975   1.261   3.114  15.384 -1.1252 -2.0382 -2.0588
 4448SOL     OW24976   3.637   1.511   1.847  0.1026  0.4020  0.2538
 4448SOL    HW124977   3.661   1.565   1.922 -2.1412  0.9702  0.5682
 4448SOL    HW224978   3.644   1.431   1.899 -1.7945  0.2834  0.3212
 4449SOL     OW24979   0.068   3.709   2.674 -0.5854 -0.6512 -0.0514
 4449SOL    HW124980   4.735   3.769   2.651  0.7863  0.2785 -1.7890
 4449SOL    HW224981   0.030   3.630   2.713 -0.7039  0.0752  1.3046
 4450SOL     OW24982   3.109   3.952   0.990  0.5422 -0.6232 -0.2625
 4450SOL    HW124983   3.066   3.889   0.933  0.8179 -1.6156  0.6376
 4450SOL    HW224984   3.184   3.981   0.937 -0.6620  1.4566 -0.8191
 4451SOL     OW24985   3.246   4.002   5.834 -0.1849  0.5030  0.5244
 4451SOL    HW124986   3.287   4.029   5.752 -3.5733 -0.4056 -1.4589
 4451SOL    HW224987   3.175   3.945   5.805  0.5785  0.9912 -2.3053
 4452SOL     OW24988   2.547   4.379   1.568 -0.1729 -0.1286 -0.1509
 4452SOL    HW124989   2.476   4.330   1.526 -1.0665  1.9707 -1.0877
 4452SOL    HW224990   2.495   4.456   1.589  0.6171  0.3909 -0.0672
 4453SOL     OW24991   1.488   0.974  12.315 -0.1355  0.0501  0.0579
 4453SOL    HW124992   1.472   0.900  12.374 -1.1118  0.3248  0.1259
 4453SOL    HW224993   1.464   0.953  12.225 -2.3178  2.3260  0.1158
 4454SOL     OW24994   0.751   4.300   8.917 -0.2774 -0.3596 -0.0309
 4454SOL    HW124995   0.773   4.248   8.994  0.3537  0.7985  0.5626
 4454SOL    HW224996   0.777   4.240   8.847  0.7338 -1.5252  1.3486
 4455SOL     OW24997   2.944   0.318  13.314  0.1402 -0.4970  0.1082
 4455SOL    HW124998   3.023   0.283  13.356 -0.2467 -0.4591  0.8608
 4455SOL    HW224999   2.877   0.261  13.350 -1.4811  0.6979 -1.0304
 4456SOL     OW25000   4.540   4.372   3.997  0.2601  0.5567 -0.2026
 4456SOL    HW125001   4.508   4.394   3.910 -1.1813  0.1377  0.2234
 4456SOL    HW225002   4.498   4.438   4.053  0.2506 -0.5773  1.1404
 4457SOL     OW25003   4.718   1.414   5.725  0.1719 -0.1908 -0.1396
 4457SOL    HW125004   4.645   1.435   5.666  1.7739 -0.2392 -2.1615
 4457SOL    HW225005   0.051   1.443   5.667 -0.8669  0.6092 -1.0038
 4458SOL     OW25006   1.070   3.969   9.316 -0.0185  0.4361 -0.2712
 4458SOL    HW125007   1.140   4.030   9.339  0.2383  0.0803 -0.0954
 4458SOL    HW225008   1.092   3.961   9.223 -0.6192  2.2056 -0.5577
 4459SOL     OW25009   0.365   0.683   3.588  0.5185 -0.2150  0.1220
 4459SOL    HW125010   0.454   0.696   3.621  1.1881  3.7384 -3.2377
 4459SOL    HW225011   0.385   0.622   3.517 -1.6259 -0.7164 -0.0466
 4460SOL     OW25012   1.082   1.267   7.136  0.5136 -0.9258  0.0478
 4460SOL    HW125013   1.067   1.333   7.205 -1.2101 -1.6147  0.3352
 4460SOL    HW225014   1.169   1.239   7.164  1.3650  0.3027 -1.4139
 4461SOL     OW25015   1.199   0.917   7.501 -0.3445  0.1154  0.0585
 4461SOL    HW125016   1.223   0.896   7.591 -0.7693  0.1821  0.1873
 4461SOL    HW225017   1.275   0.969   7.474  2.0615 -2.3038  2.2147
 4462SOL     OW25018   0.756   1.721   9.512 -0.3516 -0.3801 -0.0832
 4462SOL    HW125019   0.670   1.682   9.493  0.2320 -0.7194 -1.9797
 4462SOL    HW225020   0.781   1.778   9.440 -0.3038 -1.9293 -1.2949
 4463SOL     OW25021   1.843   0.303   5.679  0.0746 -0.1508 -0.7911
 4463SOL    HW125022   1.893   0.252   5.743  0.4501  1.4947  0.2324
 4463SOL    HW225023   1.762   0.254   5.663 -0.8683  0.5828  1.6508
 4464SOL     OW25024   0.138   0.282   9.845 -0.5163  0.4490 -0.6305
 4464SOL    HW125025   0.227   0.314   9.862 -0.5304 -0.8167  1.8932
 4464SOL    HW225026   0.094   0.311   9.925  2.8252  0.7208  1.1507
 4465SOL     OW25027   0.728   1.895   3.467 -0.0663 -0.2865 -0.2329
 4465SOL    HW125028   0.646   1.882   3.515  1.5199 -1.2383  2.1857
 4465SOL    HW225029   0.787   1.896   3.542  1.7528 -1.1122 -1.6397
 4466SOL     OW25030   3.979   3.109   7.867  0.2441  0.4644  0.2410
 4466SOL    HW125031   3.919   3.049   7.823  2.4466 -1.5536  0.0211
 4466SOL    HW225032   3.960   3.106   7.961  0.2755 -1.4983  0.1878
 4467SOL     OW25033   0.848   0.168  12.431 -0.1690 -0.7562 -0.7562
 4467SOL    HW125034   0.901   0.161  12.511 -0.2227 -2.2117 -0.8583
 4467SOL    HW225035   0.840   0.260  12.406 -1.3346 -0.4118  0.8865
 4468SOL     OW25036   2.466   1.605  10.882 -0.0428 -0.3539 -0.0560
 4468SOL    HW125037   2.555   1.599  10.848  0.1843 -2.0404  0.8327
 4468SOL    HW225038   2.432   1.521  10.850  0.1737 -0.3791 -0.2158
 4469SOL     OW25039   3.645   2.260   0.170  0.2038  0.8287  0.5085
 4469SOL    HW125040   3.712   2.326   0.189  2.1685 -1.2044  0.6896
 4469SOL    HW225041   3.619   2.282   0.081 -2.0651  0.1913  1.0183
 4470SOL     OW25042   1.715   4.107   7.096  0.6528 -0.1121  0.3479
 4470SOL    HW125043   1.803   4.144   7.104 -1.2760  4.8072 -1.1598
 4470SOL    HW225044   1.707   4.062   7.180  4.1297 -4.5572 -1.6847
 4471SOL     OW25045   2.820   2.989  15.939 -0.4161  0.1462  0.0489
 4471SOL    HW125046   2.867   2.908  15.958 -0.7942  0.3265  1.6700
 4471SOL    HW225047   2.731   2.959  15.921 -0.0984 -1.4918  1.2718
 4472SOL     OW25048   3.257   1.562   7.347  0.4861 -0.5175  0.4799
 4472SOL    HW125049   3.287   1.589   7.434 -0.9714  0.2426  0.7486
 4472SOL    HW225050   3.318   1.504   7.302 -1.1078 -1.9636  0.2020
 4473SOL     OW25051   2.758   0.748   5.418  0.0230  0.0059  0.0195
 4473SOL    HW125052   2.764   0.698   5.499  2.2228 -0.8204 -0.6462
 4473SOL    HW225053   2.831   0.719   5.362 -0.7633 -0.8357 -0.5619
 4474SOL     OW25054   2.776   2.864   5.448 -0.1559  0.2002 -0.3028
 4474SOL    HW125055   2.805   2.944   5.404 -0.5936  0.9121  0.7026
 4474SOL    HW225056   2.780   2.886   5.541 -2.2581  0.7784 -0.3631
 4475SOL     OW25057   3.962   2.838   1.358  0.4907  0.1502 -0.1648
 4475SOL    HW125058   3.962   2.841   1.454 -0.0563  0.4661 -0.1711
 4475SOL    HW225059   3.976   2.744   1.344 -1.7234 -0.4221  1.3536
 4476SOL     OW25060   4.109   0.013   4.919 -0.8156  0.6769 -0.2417
 4476SOL    HW125061   4.151   0.082   4.969  0.6379  0.7342 -1.5275
 4476SOL    HW225062   4.143   4.677   4.970  1.2008  0.9413 -1.2088
 4477SOL     OW25063   0.686   3.059   3.901 -0.3978  0.2149 -0.4246
 4477SOL    HW125064   0.780   3.044   3.914 -0.0870  1.4191 -1.2587
 4477SOL    HW225065   0.655   2.969   3.903  0.9523 -0.2530 -0.3940
 4478SOL     OW25066   3.807   4.435   5.196  0.4195 -0.1300  0.5318
 4478SOL    HW125067   3.898   4.446   5.222  0.1653  0.4504  1.1854
 4478SOL    HW225068   3.812   4.359   5.138  1.1647 -0.1294  0.5977
 4479SOL     OW25069   3.867   3.004  11.545  0.2632  0.0037  0.1055
 4479SOL    HW125070   3.935   2.948  11.507  0.3507  1.1536 -1.4111
 4479SOL    HW225071   3.909   3.028  11.628 -1.2253 -1.8342  1.3979
 4480SOL     OW25072   4.731   1.525   8.694 -0.9503 -0.2138 -0.2621
 4480SOL    HW125073   4.731   1.542   8.600 -0.7124 -2.1443 -0.6201
 4480SOL    HW225074   4.689   1.439   8.700  1.3986 -1.2513  1.0575
 4481SOL     OW25075   1.158   1.640   1.866  0.4092 -0.1799 -0.0107
 4481SOL    HW125076   1.229   1.577   1.859 -1.5201 -2.3375 -0.3216
 4481SOL    HW225077   1.093   1.606   1.928 -1.0378  2.5235 -0.0472
 4482SOL     OW25078   3.552   1.064   7.022  0.9390 -0.4055 -0.3584
 4482SOL    HW125079   3.588   1.152   7.026  0.3139 -0.2728  2.4814
 4482SOL    HW225080   3.603   1.033   6.947  0.4434  0.4821 -1.0636
 4483SOL     OW25081   2.650   4.241   7.863 -0.5893 -0.4522 -0.1923
 4483SOL    HW125082   2.664   4.217   7.772  1.3681  2.6893 -0.7357
 4483SOL    HW225083   2.585   4.183   7.903 -1.0388 -0.3225 -0.7362
 4484SOL     OW25084   3.803   2.010   4.200 -0.7846 -0.1567  0.4786
 4484SOL    HW125085   3.723   1.957   4.204 -1.4329  0.6660 -1.7506
 4484SOL    HW225086   3.863   1.959   4.255 -0.7296  1.0977  1.5886
 4485SOL     OW25087   1.394   4.478   1.878 -0.6778 -0.5846 -0.1433
 4485SOL    HW125088   1.327   4.429   1.926 -0.9986 -1.7512 -1.8136
 4485SOL    HW225089   1.354   4.565   1.870  2.0844  0.8110  0.9702
 4486SOL     OW25090   4.509   2.421   6.618  0.1347  0.7117 -0.0924
 4486SOL    HW125091   4.567   2.383   6.552 -0.7700 -1.7698  0.5683
 4486SOL    HW225092   4.535   2.513   6.622 -2.5328  1.4112  1.4367
 4487SOL     OW25093   1.896   0.875   3.413  0.1570  0.2027  0.7815
 4487SOL    HW125094   1.972   0.931   3.397 -0.8814  1.3028 -0.2522
 4487SOL    HW225095   1.864   0.845   3.328  2.3941 -0.6649  0.2285
 4488SOL     OW25096   1.648   4.565  17.244 -0.2640 -0.2062 -0.0134
 4488SOL    HW125097   1.574   4.509  17.222 -1.1010  0.5138  0.9409
 4488SOL    HW225098   1.719   4.503  17.262 -0.4973 -0.1374  1.1546
 4489SOL     OW25099   1.232   3.011   0.885  0.0030  0.4425 -0.3760
 4489SOL    HW125100   1.326   2.997   0.893 -0.2034 -0.2566  0.7995
 4489SOL    HW225101   1.214   2.929   0.838 -1.7134  0.6028 -0.0081
 4490SOL     OW25102   1.250   0.205  15.146 -0.4259  0.2335 -0.0277
 4490SOL    HW125103   1.283   0.116  15.163 -2.4007  0.0986  2.9935
 4490SOL    HW225104   1.307   0.217  15.070  0.5971 -1.8465  0.3823
 4491SOL     OW25105   4.120   0.096   2.542 -0.0559 -0.4518 -0.1473
 4491SOL    HW125106   4.166   0.174   2.513  1.8086  0.0734  4.2026
 4491SOL    HW225107   4.029   0.121   2.527  0.4792  0.4209 -1.9447
 4492SOL     OW25108   2.866   3.600   3.881 -0.2203 -0.2647 -0.1820
 4492SOL    HW125109   2.799   3.658   3.845 -1.8176 -0.8992  1.7603
 4492SOL    HW225110   2.934   3.598   3.814 -0.9207  1.8104 -0.9544
 4493SOL     OW25111   4.119   4.165  12.122  0.4563 -0.3100 -0.2773
 4493SOL    HW125112   4.029   4.138  12.102  0.6536 -1.2565  0.0815
 4493SOL    HW225113   4.124   4.116  12.204 -1.3639 -0.2032 -0.0994
 4494SOL     OW25114   0.258   1.294  12.456 -0.7546 -1.0633  0.3575
 4494SOL    HW125115   0.286   1.241  12.381 -1.2416 -0.2078 -0.4265
 4494SOL    HW225116   0.289   1.377  12.422 -1.0630 -0.7109  0.9432
 4495SOL     OW25117   2.634   0.898   1.959 -0.4425  0.0898  0.3643
 4495SOL    HW125118   2.664   0.939   1.878 -1.4731  1.0825  0.4757
 4495SOL    HW225119   2.692   0.822   1.967  1.4521  1.4242 -0.8277
 4496SOL     OW25120   4.613   4.583   4.390 -0.7058  0.6826  0.3907
 4496SOL    HW125121   4.587   4.657   4.444 -0.8913  0.8911  0.0156
 4496SOL    HW225122   4.703   4.610   4.373 -0.3929 -0.0825  0.8318
 4497SOL     OW25123   3.563   3.120  13.207  0.1131 -0.1399  0.7890
 4497SOL    HW125124   3.532   3.139  13.119  2.5250 -1.7086 -0.4078
 4497SOL    HW225125   3.486   3.124  13.263 -0.6680 -2.1302 -0.1312
 4498SOL     OW25126   4.176   1.247   4.893 -0.4022 -0.0723  0.0069
 4498SOL    HW125127   4.131   1.316   4.942 -0.3648  0.6798 -1.0184
 4498SOL    HW225128   4.151   1.168   4.940 -0.4039 -0.0346  0.0697
 4499SOL     OW25129   2.487   2.437  10.322 -0.2044 -0.4209 -0.1826
 4499SOL    HW125130   2.476   2.349  10.287 -0.5757  0.4064 -2.1099
 4499SOL    HW225131   2.413   2.475  10.275  0.5614  1.6232  0.2824
 4500SOL     OW25132   2.532   1.334  16.590 -0.5420  0.4483  0.4395
 4500SOL    HW125133   2.477   1.261  16.560 -0.1810  1.3401 -2.4333
 4500SOL    HW225134   2.614   1.286  16.600 -0.8812 -0.8705 -2.9970
 4501SOL     OW25135   4.418   2.049  16.588 -0.5846 -0.5725  0.2160
 4501SOL    HW125136   4.407   2.132  16.634  1.7260 -0.5476  0.7206
 4501SOL    HW225137   4.411   2.066  16.494 -0.8182  1.1202  0.5335
 4502SOL     OW25138   2.839   1.371   3.071 -0.5035  0.4824  0.1572
 4502SOL    HW125139   2.760   1.424   3.058 -0.6799 -0.2309 -1.7715
 4502SOL    HW225140   2.808   1.298   3.124  0.8698 -0.4862 -0.3889
 4503SOL     OW25141   2.931   2.951  12.601 -0.4478  0.2938 -1.1081
 4503SOL    HW125142   2.983   2.971  12.523  0.2300 -1.0501 -0.9988
 4503SOL    HW225143   2.871   3.026  12.599  1.4768  1.8321 -0.0923
 4504SOL     OW25144   1.397   1.034   8.358 -0.3809  0.3992  0.5007
 4504SOL    HW125145   1.364   1.100   8.297  1.0546 -0.4930 -1.2130
 4504SOL    HW225146   1.342   0.956   8.356 -1.0910  0.8496  2.2093
 4505SOL     OW25147   2.495   0.309   3.996  0.0704  0.0296 -0.2094
 4505SOL    HW125148   2.585   0.325   4.024  0.1508  1.6842 -1.4049
 4505SOL    HW225149   2.459   0.278   4.079  3.2501 -1.1419  0.7310
 4506SOL     OW25150   3.926   0.940   5.847  0.2188  0.1685 -0.0084
 4506SOL    HW125151   3.880   0.913   5.768  0.6520  0.2081 -0.2780
 4506SOL    HW225152   4.005   0.885   5.850 -0.0303 -0.3391 -2.6197
 4507SOL     OW25153   1.929   4.191   1.986  0.5954 -0.7101 -0.6530
 4507SOL    HW125154   2.022   4.209   1.973  0.1804  0.8411 -1.5060
 4507SOL    HW225155   1.904   4.283   1.992 -0.3973 -1.1146  1.3042
 4508SOL     OW25156   3.050   3.266   0.221  0.2634  0.3235  0.4111
 4508SOL    HW125157   3.122   3.228   0.273  0.6182 -0.5816 -0.7565
 4508SOL    HW225158   3.053   3.351   0.265  1.5507 -0.1676  1.2818
 4509SOL     OW25159   2.704   3.138   4.037  0.2417  0.2397 -0.2699
 4509SOL    HW125160   2.689   3.187   4.118 -1.4024  1.2831 -1.1959
 4509SOL    HW225161   2.766   3.192   3.987 -0.1787  0.3793 -0.6480
 4510SOL     OW25162   1.050   2.846   2.448 -0.3845  0.0727 -0.2046
 4510SOL    HW125163   1.053   2.823   2.355  1.0527  0.2413 -0.2120
 4510SOL    HW225164   1.122   2.791   2.481 -1.7337  0.0937  2.6972
 4511SOL     OW25165   2.716   1.483  15.212  0.3289 -0.1010 -0.2447
 4511SOL    HW125166   2.640   1.432  15.184  0.6905 -1.7819  1.8823
 4511SOL    HW225167   2.783   1.432  15.167  0.4962  0.3177 -0.4745
 4512SOL     OW25168   3.772   0.837   3.772 -0.1832  0.7265 -0.1650
 4512SOL    HW125169   3.816   0.838   3.857 -0.3417 -1.1287 -0.0642
 4512SOL    HW225170   3.711   0.764   3.780 -1.2891  1.8891  1.8640
 4513SOL     OW25171   3.854   0.875  14.719 -0.1836  0.1933  0.3431
 4513SOL    HW125172   3.813   0.789  14.707  1.0831 -0.4513  0.5884
 4513SOL    HW225173   3.945   0.853  14.700 -1.1818 -3.6427  0.0208
 4514SOL     OW25174   2.569   2.453   8.093 -0.5127 -0.1791  0.6900
 4514SOL    HW125175   2.590   2.473   8.184  2.3225  2.8098 -0.6488
 4514SOL    HW225176   2.537   2.362   8.091 -2.5314  0.5526  0.2391
 4515SOL     OW25177   3.686   2.108   4.995 -0.0696 -0.6597 -0.1335
 4515SOL    HW125178   3.726   2.025   4.966 -1.4649 -1.3712 -0.0346
 4515SOL    HW225179   3.753   2.145   5.053 -1.3354  2.8459 -0.9684
 4516SOL     OW25180   3.646   2.621   6.624  0.6688 -0.2314  0.2541
 4516SOL    HW125181   3.559   2.600   6.591 -0.5114  0.6454  2.8743
 4516SOL    HW225182   3.634   2.696   6.682 -0.4477 -1.3015  1.3957
 4517SOL     OW25183   3.878   4.059   1.635 -0.0333 -0.2635 -0.1212
 4517SOL    HW125184   3.801   4.012   1.667 -0.8147 -0.4094 -2.2285
 4517SOL    HW225185   3.888   4.123   1.705 -0.1325 -0.5764  0.1783
 4518SOL     OW25186   1.327   3.105   2.177  0.4765  0.0329  0.3390
 4518SOL    HW125187   1.282   3.095   2.093 -0.7113 -1.7201  1.1652
 4518SOL    HW225188   1.269   3.164   2.224 -0.5412 -0.8271  0.1762
 4519SOL     OW25189   0.293   1.572  14.337 -0.3758 -0.1659  0.6554
 4519SOL    HW125190   0.298   1.557  14.431  0.5586 -0.3413  0.5732
 4519SOL    HW225191   0.356   1.502  14.319 -0.2056  0.4076 -1.0203
 4520SOL     OW25192   2.525   2.466   8.838 -0.1701 -0.1561 -0.7917
 4520SOL    HW125193   2.553   2.558   8.835 -0.6161 -0.0121 -0.6083
 4520SOL    HW225194   2.610   2.427   8.857 -0.7827 -2.1407 -2.0615
 4521SOL     OW25195   0.258   2.268   5.199  0.1258 -1.0562  0.3867
 4521SOL    HW125196   0.220   2.356   5.207  1.6396 -0.4119  0.6076
 4521SOL    HW225197   0.217   2.242   5.117 -0.5055 -1.4976  0.8404
 4522SOL     OW25198   3.451   2.426  12.520  0.3975 -0.6640  0.1950
 4522SOL    HW125199   3.472   2.508  12.565 -1.2894  0.3446 -0.8364
 4522SOL    HW225200   3.397   2.457  12.447 -0.8297 -0.1594  1.3137
 4523SOL     OW25201   1.869   2.879   1.539 -0.2840  0.0296  0.1060
 4523SOL    HW125202   1.793   2.879   1.480  0.4235  1.5836 -0.7772
 4523SOL    HW225203   1.936   2.919   1.485 -0.0564  2.1689  1.9997
 4524SOL     OW25204   2.866   2.604   8.848  0.0040  0.1930  0.2280
 4524SOL    HW125205   2.928   2.659   8.896  1.9681 -2.8741  1.1949
 4524SOL    HW225206   2.798   2.603   8.915  0.2009  0.8876  0.4417
 4525SOL     OW25207   2.509   2.649   9.668 -0.3846 -0.3655 -0.3686
 4525SOL    HW125208   2.586   2.612   9.626  0.6444  0.1324  1.0556
 4525SOL    HW225209   2.518   2.608   9.754 -1.2673 -2.8881 -1.5009
 4526SOL     OW25210   0.501   2.838   2.932 -0.1345 -0.5054  0.1905
 4526SOL    HW125211   0.477   2.779   3.004  2.2571 -0.4347  1.0415
 4526SOL    HW225212   0.547   2.907   2.981  0.6170 -1.0016  0.1844
 4527SOL     OW25213   4.015   0.185  15.659  0.2938 -0.2916 -0.3380
 4527SOL    HW125214   3.958   0.247  15.706  0.5701 -0.3758  0.1061
 4527SOL    HW225215   4.073   0.156  15.729 -1.4861  2.2118  2.2041
 4528SOL     OW25216   3.305   3.583   3.571  0.2805 -0.3066 -0.3918
 4528SOL    HW125217   3.387   3.581   3.621  0.2206 -1.3717 -0.3336
 4528SOL    HW225218   3.303   3.676   3.547 -1.3301  0.0321  1.0091
 4529SOL     OW25219   4.234   0.877  10.399 -0.2446 -0.3918 -0.1654
 4529SOL    HW125220   4.196   0.869  10.486 -2.4267 -0.0181 -1.0765
 4529SOL    HW225221   4.217   0.790  10.363 -1.1849 -0.1031 -0.4160
 4530SOL     OW25222   2.960   2.081   0.152  0.0139  0.4248 -0.2858
 4530SOL    HW125223   2.931   2.129   0.230  0.6908  0.6617 -0.1796
 4530SOL    HW225224   2.936   1.992   0.176  0.6479  0.7395  1.5681
 4531SOL     OW25225   2.299   2.306  13.144 -0.2770  0.5980 -0.0691
 4531SOL    HW125226   2.385   2.266  13.157  0.2011  1.3503 -0.9070
 4531SOL    HW225227   2.254   2.241  13.090 -0.8893  0.3436  0.7588
 4532SOL     OW25228   0.764   3.019   7.476  0.1769  0.0169 -0.4524
 4532SOL    HW125229   0.747   3.075   7.400 -1.0534 -0.2347 -0.3535
 4532SOL    HW225230   0.693   2.956   7.460  0.2557 -0.7731  2.3572
 4533SOL     OW25231   3.795   4.521   4.908  0.0935  0.7495  0.3693
 4533SOL    HW125232   3.801   4.497   5.000  2.5723 -0.0297 -0.0007
 4533SOL    HW225233   3.707   4.494   4.880  0.3316  1.9461 -1.5466
 4534SOL     OW25234   4.552   2.716   1.749 -0.2006 -0.0976 -0.0148
 4534SOL    HW125235   4.577   2.672   1.667 -3.7175  1.6803 -2.0200
 4534SOL    HW225236   4.475   2.763   1.719 -0.1439  0.7258  1.1311
 4535SOL     OW25237   0.168   4.421   6.544  0.3442 -0.0783  0.4896
 4535SOL    HW125238   0.248   4.398   6.592 -1.0867  0.2694  3.0845
 4535SOL    HW225239   0.194   4.492   6.485 -0.7539 -0.6718 -0.6919
 4536SOL     OW25240   1.440   3.994   1.407 -0.2780  0.3334  0.1864
 4536SOL    HW125241   1.470   4.072   1.454  2.5381 -0.3944 -0.3918
 4536SOL    HW225242   1.458   3.920   1.465 -1.1888  1.5695  2.0200
 4537SOL     OW25243   0.603   0.126  13.983  0.4020 -0.2228  0.1367
 4537SOL    HW125244   0.659   0.058  13.945  0.2222 -1.5408  2.1979
 4537SOL    HW225245   0.562   0.146  13.899  0.2537  0.5422  0.3943
 4538SOL     OW25246   1.058   3.252   6.583 -0.4328  0.0023 -0.0221
 4538SOL    HW125247   1.150   3.232   6.564 -0.5763  0.3059 -1.0298
 4538SOL    HW225248   1.061   3.276   6.676 -1.0707 -1.5071  0.3918
 4539SOL     OW25249   3.619   3.044   4.581 -0.4953 -0.5191  0.2999
 4539SOL    HW125250   3.629   2.969   4.523 -2.8218 -2.0962  1.9624
 4539SOL    HW225251   3.652   3.023   4.668 -1.6082 -0.0282  0.8464
 4540SOL     OW25252   2.301   0.727  11.937  0.4460 -0.2136  0.1958
 4540SOL    HW125253   2.349   0.754  12.015 -1.4341 -0.2780  1.3647
 4540SOL    HW225254   2.371   0.755  11.879 -0.0236  0.3379 -0.1055
 4541SOL     OW25255   2.351   1.137   6.881  0.8857 -0.2734 -0.0160
 4541SOL    HW125256   2.425   1.079   6.860  0.7658 -0.2686 -0.4469
 4541SOL    HW225257   2.329   1.113   6.971  0.9182 -0.6116 -0.0950
 4542SOL     OW25258   3.909   1.453   3.191  0.6039 -0.7901 -0.4099
 4542SOL    HW125259   3.921   1.484   3.101 -0.8910  0.7816 -0.0658
 4542SOL    HW225260   3.826   1.493   3.217  0.8880  0.3397 -1.2477
 4543SOL     OW25261   4.610   4.388  14.004 -0.1090  0.6150  0.1311
 4543SOL    HW125262   4.626   4.445  13.929  0.1894 -0.1040 -0.3442
 4543SOL    HW225263   4.597   4.456  14.070 -1.8238 -2.0866  2.5601
 4544SOL     OW25264   1.797   2.416   6.089 -0.3386 -0.1455 -0.3706
 4544SOL    HW125265   1.801   2.496   6.037  0.2544  1.1692  1.7245
 4544SOL    HW225266   1.708   2.424   6.123 -1.2882 -2.6722 -2.1954
 4545SOL     OW25267   0.817   3.492   6.189 -0.1614 -0.0721  0.5704
 4545SOL    HW125268   0.815   3.454   6.276  0.9662  1.6139  1.3264
 4545SOL    HW225269   0.744   3.551   6.208 -0.8566 -0.7271 -0.0223
 4546SOL     OW25270   1.452   2.193   4.877  0.3826  0.0649  0.0456
 4546SOL    HW125271   1.532   2.245   4.881  0.7429 -0.6456  2.3186
 4546SOL    HW225272   1.399   2.227   4.805  1.0242 -1.7220 -1.2813
 4547SOL     OW25273   2.664   3.853   3.299 -0.1736  0.2329  0.2015
 4547SOL    HW125274   2.658   3.835   3.205 -0.3376  0.5429  0.1520
 4547SOL    HW225275   2.754   3.877   3.317 -0.1835 -0.0103  0.5922
 4548SOL     OW25276   1.909   1.484   8.297  0.3636 -0.4095  0.1088
 4548SOL    HW125277   1.968   1.510   8.367  1.5418 -1.8799 -0.3242
 4548SOL    HW225278   1.868   1.407   8.337 -1.2305  0.0324 -0.6630
 4549SOL     OW25279   4.076   4.716   2.085  0.5916  0.1539 -0.2201
 4549SOL    HW125280   4.063   0.011   1.995 -0.0723  1.1721  0.2409
 4549SOL    HW225281   4.004   0.020   2.132  1.2166  1.2659 -0.2490
 4550SOL     OW25282   2.347   2.731   4.576 -0.1300  0.5299  0.1023
 4550SOL    HW125283   2.442   2.736   4.562  0.3353  0.5133  3.1670
 4550SOL    HW225284   2.322   2.778   4.497 -1.6741 -0.9860 -0.2842
 4551SOL     OW25285   3.586   4.189   5.930 -0.4601 -0.4169 -0.1723
 4551SOL    HW125286   3.595   4.161   5.838  1.2965  2.0973 -0.7926
 4551SOL    HW225287   3.492   4.182   5.946 -0.4431  0.5361  0.3414
 4552SOL     OW25288   1.223   3.614   2.108  0.0648 -0.7037 -0.0846
 4552SOL    HW125289   1.170   3.692   2.123 -1.9299 -2.2105  0.5711
 4552SOL    HW225290   1.252   3.624   2.017 -0.2128 -2.7029 -0.3797
 4553SOL     OW25291   4.601   3.011   4.352  0.1389  0.4728  0.0107
 4553SOL    HW125292   4.563   2.940   4.404 -3.3593  0.6693 -2.2350
 4553SOL    HW225293   4.674   3.039   4.407  1.6988  0.9257 -2.2875
 4554SOL     OW25294   1.962   3.822   8.452  0.0222 -0.0753  0.4638
 4554SOL    HW125295   1.990   3.873   8.376  1.6539  1.2199  1.9221
 4554SOL    HW225296   1.950   3.897   8.510 -1.3929 -0.1289  0.2289
 4555SOL     OW25297   3.264   2.711  15.647  0.7970  0.3223 -0.8425
 4555SOL    HW125298   3.299   2.787  15.694  2.9441 -0.8682 -0.5120
 4555SOL    HW225299   3.330   2.643  15.655  2.1096  1.8485  1.3075
 4556SOL     OW25300   4.008   2.826  13.671  0.0011 -0.1654  0.1567
 4556SOL    HW125301   3.940   2.872  13.720 -1.8956 -1.7988 -0.9119
 4556SOL    HW225302   4.083   2.885  13.673  0.4487 -0.7692  1.3730
 4557SOL     OW25303   2.607   4.255   5.657 -0.6365  0.3099 -0.1464
 4557SOL    HW125304   2.642   4.293   5.576  0.7799 -0.1213  0.2702
 4557SOL    HW225305   2.632   4.164   5.648 -0.5707  0.2653  0.4575
 4558SOL     OW25306   3.402   4.417   9.359 -0.4746  0.0337  0.4904
 4558SOL    HW125307   3.459   4.492   9.342 -0.9312 -0.1912 -1.9677
 4558SOL    HW225308   3.326   4.458   9.317  0.1152 -0.1815 -0.7807
 4559SOL     OW25309   3.003   4.036   2.396 -0.2177 -0.1341 -0.1605
 4559SOL    HW125310   3.091   4.053   2.430 -0.7994  1.5625  0.5459
 4559SOL    HW225311   2.976   3.965   2.454  0.1183 -0.1214  0.0110
 4560SOL     OW25312   2.993   0.513   3.407  0.1811  0.0432 -0.4972
 4560SOL    HW125313   2.900   0.515   3.430  1.1999  4.0392  3.1540
 4560SOL    HW225314   3.028   0.576   3.470 -0.0452 -0.3373  0.0146
 4561SOL     OW25315   1.770   1.630   5.742 -0.1357  0.4655 -0.0162
 4561SOL    HW125316   1.688   1.669   5.772  0.0814 -0.9065  2.3113
 4561SOL    HW225317   1.826   1.662   5.813 -0.4358  1.0508 -0.0415
 4562SOL     OW25318   1.895   2.078   2.947 -0.3844  0.1698 -0.0044
 4562SOL    HW125319   1.805   2.063   2.919 -0.8957  2.2722  0.4943
 4562SOL    HW225320   1.922   1.997   2.990  2.4874  1.3180  0.3703
 4563SOL     OW25321   0.977   0.809   4.032  0.2755 -0.0058 -0.3198
 4563SOL    HW125322   0.902   0.847   4.077  1.1047 -0.5366  1.5268
 4563SOL    HW225323   1.045   0.876   4.025  2.1975 -1.9130 -0.1301
 4564SOL     OW25324   1.896   2.932   1.900 -0.0515  0.4590 -0.0850
 4564SOL    HW125325   1.966   2.996   1.884  0.3425  0.0167 -0.1385
 4564SOL    HW225326   1.826   2.977   1.854 -0.4978  0.6052  0.7356
 4565SOL     OW25327   0.045   2.975   6.553 -0.1401  1.0061 -0.2238
 4565SOL    HW125328   0.088   2.896   6.586 -1.3378  0.2360 -0.5200
 4565SOL    HW225329   4.717   2.995   6.619  1.2239  1.1272  1.1095
 4566SOL     OW25330   4.267   4.490  12.518  0.1306 -0.2524  0.0469
 4566SOL    HW125331   4.204   4.515  12.450 -0.7565 -2.9184 -0.1232
 4566SOL    HW225332   4.265   4.395  12.509  0.7666 -0.0744 -2.0992
 4567SOL     OW25333   2.553   1.668  15.004 -0.3550 -0.0497  0.1165
 4567SOL    HW125334   2.586   1.584  14.972  2.4238  1.4553 -1.0229
 4567SOL    HW225335   2.545   1.716  14.921  0.7143  0.0098  0.0506
 4568SOL     OW25336   1.799   3.434   8.501 -0.5588  0.2759 -0.0008
 4568SOL    HW125337   1.762   3.371   8.563 -1.3643  0.4229 -0.3283
 4568SOL    HW225338   1.817   3.371   8.430 -0.1130 -0.5202  0.8168
 4569SOL     OW25339   3.878   3.357  12.160  0.1668  0.3484  0.4030
 4569SOL    HW125340   3.842   3.270  12.174  1.8527 -1.0305 -3.9316
 4569SOL    HW225341   3.908   3.350  12.069 -1.3264 -1.8948  0.0978
 4570SOL     OW25342   0.337   1.923  13.239 -0.3124  0.7015 -0.5176
 4570SOL    HW125343   0.330   1.850  13.176 -3.7487  0.2137  0.3983
 4570SOL    HW225344   0.246   1.928  13.268 -0.5518 -0.1874 -1.0945
 4571SOL     OW25345   4.519   1.776   9.554  0.4166  0.3515 -0.2991
 4571SOL    HW125346   4.612   1.752   9.552  0.7680  1.6684  0.4705
 4571SOL    HW225347   4.499   1.771   9.647 -0.9822  0.0524 -0.6113
 4572SOL     OW25348   4.297   3.043   2.248  0.4383 -0.6013  0.0661
 4572SOL    HW125349   4.357   3.102   2.293  0.2620  0.1305 -0.6501
 4572SOL    HW225350   4.221   3.032   2.306  0.6659 -1.4821  0.1939
 4573SOL     OW25351   3.995   0.379  15.469  0.1812  0.1650 -0.1660
 4573SOL    HW125352   3.902   0.388  15.448  0.0877 -0.4489 -0.0039
 4573SOL    HW225353   4.010   0.292  15.506 -1.4868 -0.2575 -0.4841
 4574SOL     OW25354   4.684   3.126   5.423  0.4934 -0.5280 -0.6100
 4574SOL    HW125355   0.037   3.158   5.414  0.0155  1.4186  1.5897
 4574SOL    HW225356   4.679   3.037   5.457 -1.4438  0.7744  2.5923
 4575SOL     OW25357   2.775   3.732   5.015  0.0528  0.0820  0.0777
 4575SOL    HW125358   2.709   3.720   4.947 -0.4452  0.3768  0.4984
 4575SOL    HW225359   2.767   3.827   5.025 -1.9040 -0.2037  1.3257
 4576SOL     OW25360   2.015   2.899   5.300  0.3500 -0.2027 -0.3495
 4576SOL    HW125361   2.102   2.877   5.335  1.0840  0.6221 -1.6790
 4576SOL    HW225362   2.042   2.966   5.238  1.0127 -0.1958 -0.0607
 4577SOL     OW25363   1.185   1.868   5.330 -0.0303  0.0605  0.1276
 4577SOL    HW125364   1.231   1.839   5.251  2.3996  0.6007  1.3484
 4577SOL    HW225365   1.256   1.881   5.392  0.0795 -0.1171  0.0382
 4578SOL     OW25366   0.371   1.759   1.264 -0.5558 -0.0946 -0.1852
 4578SOL    HW125367   0.466   1.759   1.281 -0.5588 -0.3837 -0.1687
 4578SOL    HW225368   0.369   1.681   1.209 -0.8760  0.3623 -0.8182
 4579SOL     OW25369   3.982   0.216   7.861  0.1320 -0.4802 -0.4890
 4579SOL    HW125370   3.949   0.283   7.801 -1.2097 -2.1058 -1.5497
 4579SOL    HW225371   3.907   0.158   7.857 -0.5392  0.2789  1.2634
 4580SOL     OW25372   1.641   4.623   7.061 -0.3378 -0.0073  0.7078
 4580SOL    HW125373   1.587   4.569   7.119  0.7090 -1.5513  0.2518
 4580SOL    HW225374   1.710   4.656   7.117  1.2512 -0.7385 -0.8174
 4581SOL     OW25375   3.514   3.386   2.319 -0.0736 -0.1001  0.2785
 4581SOL    HW125376   3.500   3.448   2.248 -3.7062 -0.2606  0.8548
 4581SOL    HW225377   3.422   3.379   2.344  0.3506  0.7224  2.0299
 4582SOL     OW25378   4.735   1.877  13.022 -0.2904  0.3139  0.5180
 4582SOL    HW125379   0.047   1.832  12.953 -1.3654 -0.4876  0.2719
 4582SOL    HW225380   0.019   1.969  13.006  1.7508  0.1385  2.2680
 4583SOL     OW25381   3.678   4.421  17.347 -0.3042 -0.0061 -0.2903
 4583SOL    HW125382   3.737   4.461  17.411  0.7114  0.2960 -1.4214
 4583SOL    HW225383   3.744   4.397  17.282 -1.9937  0.2164 -2.0981
 4584SOL     OW25384   0.341   2.788   2.150 -1.0075 -0.3769  0.6572
 4584SOL    HW125385   0.338   2.699   2.184 -1.1506 -0.8407 -0.5647
 4584SOL    HW225386   0.428   2.827   2.162 -1.9033  1.8150 -0.0578
 4585SOL     OW25387   2.069   3.112   5.983 -0.1470  0.1281 -0.8295
 4585SOL    HW125388   2.097   3.191   6.030  1.4804 -0.0037 -1.5602
 4585SOL    HW225389   2.002   3.087   6.046 -0.8276  0.1844 -1.5367
 4586SOL     OW25390   3.623   0.907  12.866  0.0233  0.1027  0.0091
 4586SOL    HW125391   3.566   0.967  12.817  2.9997  1.2503 -2.0393
 4586SOL    HW225392   3.592   0.822  12.834  0.7907 -0.2812  0.2837
 4587SOL     OW25393   3.152   3.491   2.621 -0.5017  0.7959 -0.5345
 4587SOL    HW125394   3.072   3.523   2.577 -0.9424 -0.0506 -0.3481
 4587SOL    HW225395   3.187   3.447   2.544  1.1504  0.3841  0.4711
 4588SOL     OW25396   3.597   3.898  14.361  0.0183  0.2553 -0.2049
 4588SOL    HW125397   3.529   3.873  14.424  1.3867 -0.9840  0.7573
 4588SOL    HW225398   3.675   3.876  14.411  0.4911 -0.7115 -1.3668
 4589SOL     OW25399   4.067   4.274   9.010 -0.4464 -0.1483 -0.1913
 4589SOL    HW125400   4.027   4.194   8.976 -1.9797  0.0408  1.1744
 4589SOL    HW225401   4.155   4.269   8.973 -0.6507 -0.0679 -0.6856
 4590SOL     OW25402   2.948   1.080   6.315 -0.3910 -0.4003 -0.3211
 4590SOL    HW125403   2.927   0.994   6.280  1.0225 -0.4019 -1.1824
 4590SOL    HW225404   2.924   1.132   6.237 -1.2909  3.4131  2.4975
 4591SOL     OW25405   1.596   2.988   7.624 -0.2833  0.5340 -0.0957
 4591SOL    HW125406   1.637   3.070   7.651 -1.1834  1.3231 -1.0860
 4591SOL    HW225407   1.516   2.979   7.677 -0.5014 -0.7568 -0.6382
 4592SOL     OW25408   3.221   2.005   2.645 -0.1784  0.5944  0.8973
 4592SOL    HW125409   3.304   2.026   2.688 -0.2913 -1.3360  2.0776
 4592SOL    HW225410   3.180   1.941   2.703 -0.4969  1.2190  1.3596
 4593SOL     OW25411   1.649   0.198   5.923 -0.6517 -0.5685 -0.0082
 4593SOL    HW125412   1.575   0.138   5.923 -0.0742 -1.3026  0.7445
 4593SOL    HW225413   1.723   0.145   5.893 -1.5376 -0.9168 -1.5796
 4594SOL     OW25414   3.322   4.351  15.440 -0.3364 -0.1927  0.4349
 4594SOL    HW125415   3.297   4.272  15.393  0.1139  0.0961 -0.3013
 4594SOL    HW225416   3.233   4.380  15.460 -0.3823  1.1594 -1.7161
 4595SOL     OW25417   3.279   2.427   7.962 -0.1640  0.0821 -0.0737
 4595SOL    HW125418   3.271   2.520   7.943 -2.9905 -0.1424 -0.0511
 4595SOL    HW225419   3.368   2.416   7.930  0.5314  0.5822  1.6883
 4596SOL     OW25420   4.547   0.211   4.854 -0.7017  0.2433  0.1122
 4596SOL    HW125421   4.466   0.179   4.814 -0.6242 -1.2369  1.1380
 4596SOL    HW225422   4.518   0.280   4.914  0.9373  1.5671 -0.6300
 4597SOL     OW25423   2.628   2.840  11.603  0.5211 -0.4155  0.3616
 4597SOL    HW125424   2.649   2.933  11.590  0.8688 -0.4485  0.7028
 4597SOL    HW225425   2.652   2.838  11.695 -0.1853 -4.2450  0.4524
 4598SOL     OW25426   0.862   4.456   0.016  0.2889 -0.2115  0.6987
 4598SOL    HW125427   0.811   4.384  17.727  0.6978  0.3270 -0.9062
 4598SOL    HW225428   0.798   4.506   0.066  0.6484 -0.1771  1.1255
 4599SOL     OW25429   3.724   4.674   8.365 -0.1404 -0.0634  0.3478
 4599SOL    HW125430   3.685   0.020   8.391  1.9333  1.3990 -1.1678
 4599SOL    HW225431   3.712   4.627   8.447  3.1891 -0.2545  0.7487
 4600SOL     OW25432   2.154   0.640   3.127  0.5101 -0.2331  0.6882
 4600SOL    HW125433   2.214   0.569   3.105 -0.1542 -0.5464 -0.0977
 4600SOL    HW225434   2.121   0.623   3.215  0.6862 -2.1860  0.3557
 4601SOL     OW25435   2.475   1.725   5.269 -0.7529 -0.3596 -0.6475
 4601SOL    HW125436   2.455   1.632   5.265  0.8917 -0.7858  0.9716
 4601SOL    HW225437   2.473   1.733   5.364  0.3656 -1.0978 -0.5566
 4602SOL     OW25438   0.850   1.670   2.931 -0.0468  0.1356  0.2540
 4602SOL    HW125439   0.756   1.686   2.930 -0.0534 -0.0051 -3.2066
 4602SOL    HW225440   0.864   1.686   2.838  0.8896 -0.8587  0.2114
 4603SOL     OW25441   3.588   3.555   5.695  0.4751 -0.1816 -0.2128
 4603SOL    HW125442   3.574   3.647   5.673 -0.5361 -0.7363 -1.8974
 4603SOL    HW225443   3.651   3.517   5.633  0.8879 -1.2312  0.8410
 4604SOL     OW25444   3.310   2.525  11.325  0.1826 -0.1391 -0.3932
 4604SOL    HW125445   3.291   2.613  11.357  0.8314  0.6999 -2.2999
 4604SOL    HW225446   3.276   2.531  11.235 -0.8634  0.8740  0.0700
 4605SOL     OW25447   1.472   2.007   7.372 -0.3287 -0.1890  0.5595
 4605SOL    HW125448   1.408   2.037   7.308  0.9473  1.8359  0.2090
 4605SOL    HW225449   1.434   1.925   7.401 -1.8479  0.7085  1.1038
 4606SOL     OW25450   2.414   1.026   2.057  0.0363  0.2264 -1.3944
 4606SOL    HW125451   2.477   0.957   2.035  0.2542  0.0667 -0.2488
 4606SOL    HW225452   2.326   0.987   2.057  0.4098 -0.5945  0.3852
 4607SOL     OW25453   3.724   2.039   8.950  0.3888 -0.8303  0.2167
 4607SOL    HW125454   3.769   2.031   8.866  2.4931  1.6882  1.0857
 4607SOL    HW225455   3.722   2.134   8.959 -0.3236 -0.7033 -1.3261
 4608SOL     OW25456   3.267   4.212  10.010  0.3370 -0.7503 -0.7108
 4608SOL    HW125457   3.308   4.214  10.097 -3.0040  1.6208  0.8244
 4608SOL    HW225458   3.333   4.273   9.978 -0.2563  0.6130  0.6149
 4609SOL     OW25459   3.627   1.969  15.162 -0.4015 -0.3690  0.0488
 4609SOL    HW125460   3.532   1.976  15.154 -0.1047  1.9578 -1.2863
 4609SOL    HW225461   3.660   1.946  15.075  3.5032  0.1649  1.3905
 4610SOL     OW25462   0.818   3.742   8.754 -0.8757 -0.6518 -0.6503
 4610SOL    HW125463   0.909   3.755   8.729 -0.4661 -2.9348 -0.2879
 4610SOL    HW225464   0.782   3.797   8.684  0.1698 -0.0664 -0.7267
 4611SOL     OW25465   3.599   1.618   7.331  0.1780  0.0747 -0.5956
 4611SOL    HW125466   3.639   1.696   7.370 -0.9502 -0.1841  1.0585
 4611SOL    HW225467   3.623   1.549   7.393  2.0769  1.6851  0.4505
 4612SOL     OW25468   3.676   0.410   9.207  0.4493  0.4150  0.1544
 4612SOL    HW125469   3.620   0.389   9.133  0.6813 -2.8472  0.8678
 4612SOL    HW225470   3.701   0.500   9.189  0.0734 -0.0543 -2.6176
 4613SOL     OW25471   1.867   1.013   1.045  0.1411  0.3389 -0.1762
 4613SOL    HW125472   1.885   1.013   1.140 -3.1741 -1.3359  0.4629
 4613SOL    HW225473   1.832   1.101   1.035  0.4005  0.4713  0.0734
 4614SOL     OW25474   2.050   0.329   4.915 -0.2022 -0.2357  0.0940
 4614SOL    HW125475   1.986   0.263   4.940  0.4978 -1.3962 -1.1676
 4614SOL    HW225476   2.071   0.366   5.001 -1.9408  0.8052  0.0602
 4615SOL     OW25477   1.946   2.178   7.322  0.1954 -0.2358  0.4398
 4615SOL    HW125478   2.010   2.149   7.258 -0.9883 -0.2271 -0.7547
 4615SOL    HW225479   1.915   2.251   7.267 -1.8936  0.1812  2.1560
 4616SOL     OW25480   1.107   4.187   1.335  0.4209  0.0586  0.1548
 4616SOL    HW125481   1.073   4.209   1.248 -0.4707  0.6458  0.6508
 4616SOL    HW225482   1.132   4.270   1.375  2.7315 -0.1220 -0.9217
 4617SOL     OW25483   4.025   4.394   3.295  0.0961  0.8373 -0.4259
 4617SOL    HW125484   4.118   4.414   3.296 -0.0469  1.4823  0.0903
 4617SOL    HW225485   3.994   4.472   3.341 -0.3726 -0.8437  2.1202
 4618SOL     OW25486   0.519   2.845   4.446 -0.0694 -0.1951  0.5240
 4618SOL    HW125487   0.611   2.853   4.474  0.2852  3.0323 -1.5032
 4618SOL    HW225488   0.470   2.821   4.525 -0.4129  3.8000  1.5225
 4619SOL     OW25489   1.198   1.190  14.531  0.3047 -0.1266 -0.1354
 4619SOL    HW125490   1.106   1.215  14.529  0.7615  1.4806 -1.7067
 4619SOL    HW225491   1.199   1.130  14.456  1.5687 -1.0745  0.6357
 4620SOL     OW25492   4.370   0.689   7.725  0.5765  0.3617 -0.8150
 4620SOL    HW125493   4.288   0.669   7.681  0.8451  0.6963 -1.4678
 4620SOL    HW225494   4.357   0.771   7.773  1.1469  0.5689 -1.0152
 4621SOL     OW25495   0.707   1.487  10.906 -0.4453 -0.5300 -0.3434
 4621SOL    HW125496   0.701   1.496  10.811 -0.3819  1.5077 -0.1597
 4621SOL    HW225497   0.694   1.577  10.937 -0.3204 -0.0461 -1.7050
 4622SOL     OW25498   2.063   3.295  16.533  0.8588  0.2659  0.5240
 4622SOL    HW125499   2.055   3.346  16.614  3.7481 -1.6775  2.0362
 4622SOL    HW225500   2.012   3.345  16.469  0.2189 -0.5247  0.4135
 4623SOL     OW25501   4.653   3.956   7.086 -0.2397 -0.3627  0.5968
 4623SOL    HW125502   4.691   3.872   7.062 -1.3709 -0.5355 -0.5655
 4623SOL    HW225503   4.726   4.017   7.073 -0.7767 -0.0871 -1.1577
 4624SOL     OW25504   2.540   2.073   3.275 -0.1021 -0.1513  0.4658
 4624SOL    HW125505   2.539   2.165   3.251 -0.8114 -0.6926 -1.5747
 4624SOL    HW225506   2.586   2.047   3.195  0.9297 -1.2676  1.4189
 4625SOL     OW25507   0.951   2.345   0.587 -0.0997  0.5296  0.1965
 4625SOL    HW125508   0.893   2.421   0.601 -2.8389 -1.4718 -0.2302
 4625SOL    HW225509   0.901   2.299   0.520 -1.6045 -0.4444  1.9673
 4626SOL     OW25510   2.758   1.482  14.874  0.2018 -0.2596  0.0198
 4626SOL    HW125511   2.810   1.458  14.797 -1.1801 -3.3843  0.0728
 4626SOL    HW225512   2.801   1.429  14.941 -1.7942 -0.6434  0.9821
 4627SOL     OW25513   4.133   3.072   8.416 -0.4848  0.2398  0.6595
 4627SOL    HW125514   4.227   3.079   8.403 -0.1286 -1.2230  2.3632
 4627SOL    HW225515   4.123   3.051   8.509 -0.2003  1.3451  0.9356
 4628SOL     OW25516   4.455   4.589   4.124 -0.6820 -0.1924  0.0960
 4628SOL    HW125517   4.509   4.591   4.203 -3.4037 -0.7019  1.9714
 4628SOL    HW225518   4.392   4.660   4.134  0.5388  0.8374  0.5584
 4629SOL     OW25519   1.246   2.018   8.939 -0.1373  0.1674 -0.2497
 4629SOL    HW125520   1.279   1.932   8.913  0.2950  0.9927 -2.4044
 4629SOL    HW225521   1.157   2.000   8.968 -0.2231 -0.4277 -0.8969
 4630SOL     OW25522   1.519   1.882   0.710 -0.4505 -0.1339 -0.0761
 4630SOL    HW125523   1.613   1.872   0.723 -0.4935 -1.9038 -1.2820
 4630SOL    HW225524   1.511   1.909   0.619  2.7203  3.2471  0.6066
 4631SOL     OW25525   3.264   1.577   0.883  0.0222 -0.5041 -0.3836
 4631SOL    HW125526   3.349   1.620   0.872  1.2345 -2.7387  0.1200
 4631SOL    HW225527   3.249   1.575   0.978 -0.0069 -0.1639 -0.3819
 4632SOL     OW25528   2.566   2.106   6.851 -0.1042 -0.4157  0.5094
 4632SOL    HW125529   2.589   2.188   6.808  0.1112  0.8214  3.0329
 4632SOL    HW225530   2.653   2.072   6.873 -0.6833 -1.8267  0.6278
 4633SOL     OW25531   2.761   0.830   2.934 -0.6256 -0.3463  0.2723
 4633SOL    HW125532   2.734   0.827   3.026 -0.7159  0.7305  0.2807
 4633SOL    HW225533   2.854   0.848   2.947 -0.7103 -1.3134  2.2491
 4634SOL     OW25534   0.010   3.461   0.728 -0.0406  0.4114 -0.0361
 4634SOL    HW125535   0.055   3.385   0.692 -0.8833  0.0538 -0.3173
 4634SOL    HW225536   0.065   3.462   0.806  1.9780 -1.2668 -1.4433
 4635SOL     OW25537   1.541   2.108   8.869  0.4343  0.0465 -0.1450
 4635SOL    HW125538   1.446   2.101   8.865  0.6480 -2.2370 -0.9187
 4635SOL    HW225539   1.554   2.155   8.787  1.4705 -2.3605 -1.3387
 4636SOL     OW25540   0.600   1.539   2.143 -0.5167 -0.1306 -0.0391
 4636SOL    HW125541   0.599   1.585   2.059  2.6735  2.0699  1.1392
 4636SOL    HW225542   0.574   1.609   2.203 -2.1868  1.6059 -2.7720
 4637SOL     OW25543   0.084   4.218   7.628  0.2062  0.2658 -0.0186
 4637SOL    HW125544   0.041   4.205   7.712 -1.6078 -0.4039 -1.0434
 4637SOL    HW225545   0.071   4.313   7.624 -0.2951  0.2930  2.5331
 4638SOL     OW25546   0.716   3.132   7.196  0.2269  0.2650 -0.2357
 4638SOL    HW125547   0.803   3.094   7.184 -0.9687 -2.0841 -1.3431
 4638SOL    HW225548   0.676   3.132   7.109 -1.4617  1.3499  0.5356
 4639SOL     OW25549   4.411   2.113   7.575 -0.6181  0.2076  0.3879
 4639SOL    HW125550   4.453   2.123   7.660 -0.6026  1.5198  0.2391
 4639SOL    HW225551   4.333   2.060   7.590 -1.6372  1.7301  0.4899
 4640SOL     OW25552   4.098   0.089   7.377  0.0416  0.2987 -0.2316
 4640SOL    HW125553   4.060   0.001   7.370 -1.5804  1.2117 -2.6497
 4640SOL    HW225554   4.087   0.134   7.293 -2.1763  0.9810  0.4465
 4641SOL     OW25555   3.881   0.775  13.276 -0.1013 -0.1834  0.1339
 4641SOL    HW125556   3.862   0.846  13.214 -1.2251 -0.6251 -0.0255
 4641SOL    HW225557   3.934   0.716  13.223  0.0296  2.3518 -2.5625
 4642SOL     OW25558   1.408   1.764   5.577 -0.0425 -0.1330 -0.1095
 4642SOL    HW125559   1.495   1.787   5.612  0.6941 -0.1838 -1.9348
 4642SOL    HW225560   1.407   1.670   5.590  0.7122 -0.1578 -0.2290
 4643SOL     OW25561   3.161   4.457  10.917 -0.2988 -0.4566 -0.5039
 4643SOL    HW125562   3.121   4.487  10.836  0.3131  1.6481 -0.0315
 4643SOL    HW225563   3.222   4.390  10.886  0.4402  0.7107 -1.5618
 4644SOL     OW25564   1.596   3.511   3.868  0.4069 -0.0568  0.1528
 4644SOL    HW125565   1.664   3.481   3.807  1.7410  0.1335  1.5646
 4644SOL    HW225566   1.629   3.485   3.954  0.0516 -1.6513 -0.1810
 4645SOL     OW25567   1.362   1.478   5.572 -0.3486 -0.2420  0.3219
 4645SOL    HW125568   1.428   1.437   5.516  1.3111  0.4524  1.7701
 4645SOL    HW225569   1.293   1.479   5.506 -0.3298 -0.8767  0.2885
 4646SOL     OW25570   3.660   3.396   8.603 -0.6239 -0.4994  0.2093
 4646SOL    HW125571   3.715   3.431   8.532  1.2771  0.6303  2.2310
 4646SOL    HW225572   3.578   3.438   8.577 -0.5550 -1.3142 -1.3773
 4647SOL     OW25573   0.290   3.265   6.012  0.8335  0.6089 -0.4823
 4647SOL    HW125574   0.318   3.289   6.100 -3.2486  0.2789  0.9404
 4647SOL    HW225575   0.259   3.176   6.024 -1.8151  1.5545 -0.1874
 4648SOL     OW25576   4.101   2.342   5.420 -0.0509 -0.4864 -0.2391
 4648SOL    HW125577   4.114   2.417   5.362 -0.2815 -0.7142 -0.5881
 4648SOL    HW225578   4.028   2.370   5.475  1.2739 -0.7092  1.6514
 4649SOL     OW25579   3.065   0.994   2.116  0.4027  0.2349 -0.0645
 4649SOL    HW125580   3.116   0.996   2.035  1.8843  1.1686  0.8789
 4649SOL    HW225581   3.130   1.016   2.183  1.1356 -0.6818 -0.4625
 4650SOL     OW25582   4.588   2.619  10.987 -0.0878  0.6959 -0.2371
 4650SOL    HW125583   4.565   2.577  11.070  3.6410 -0.3880  0.2753
 4650SOL    HW225584   4.570   2.554  10.919  2.1459 -0.1102 -0.0844
 4651SOL     OW25585   3.765   0.063  12.685 -0.2427  0.2277 -0.1109
 4651SOL    HW125586   3.808   0.026  12.762  0.7278 -0.2258 -0.8717
 4651SOL    HW225587   3.685   0.096  12.727  0.4960  0.0246  1.4230
 4652SOL     OW25588   1.455   0.268   1.854 -0.0862 -0.7155 -0.1322
 4652SOL    HW125589   1.432   0.175   1.856 -0.3313 -0.5908  2.1269
 4652SOL    HW225590   1.482   0.292   1.942  1.5269  0.4858 -0.9413
 4653SOL     OW25591   2.717   3.385  14.295  0.0009  0.2554  0.9388
 4653SOL    HW125592   2.748   3.425  14.377 -0.9426  0.2760  1.2899
 4653SOL    HW225593   2.651   3.450  14.271  1.3199  0.9621 -0.6901
 4654SOL     OW25594   2.565   1.005  10.030 -0.0677 -0.3176 -0.8843
 4654SOL    HW125595   2.476   1.037  10.042  0.2826 -0.1728  1.3522
 4654SOL    HW225596   2.564   0.925  10.083  4.0435 -0.1081 -0.4843
 4655SOL     OW25597   2.287   1.220  13.373  0.2032  0.2958  0.0425
 4655SOL    HW125598   2.274   1.304  13.418  1.2006  1.6884 -2.2241
 4655SOL    HW225599   2.205   1.209  13.326 -0.2104  0.4165  0.7347
 4656SOL     OW25600   0.185   4.491   1.098  0.0093  0.0671 -0.3496
 4656SOL    HW125601   0.129   4.432   1.149  1.0632 -1.2136 -0.6644
 4656SOL    HW225602   0.157   4.467   1.010  1.7325 -0.0532 -0.8770
 4657SOL     OW25603   2.878   1.798   8.232  0.4281 -0.1631 -0.2649
 4657SOL    HW125604   2.872   1.841   8.317  2.0748  2.1403 -1.3113
 4657SOL    HW225605   2.893   1.872   8.173 -1.0463 -0.0559 -0.4984
 4658SOL     OW25606   0.921   2.110   6.841 -0.0466 -0.5027 -0.3079
 4658SOL    HW125607   0.866   2.098   6.919 -0.3398 -0.5361 -0.5224
 4658SOL    HW225608   0.978   2.035   6.857  0.0408 -0.5154 -0.6806
 4659SOL     OW25609   0.188   3.613   6.568 -0.4100  0.1743  0.4099
 4659SOL    HW125610   0.274   3.615   6.526 -0.8294  2.1559 -0.3125
 4659SOL    HW225611   0.118   3.644   6.510 -1.0977 -0.6021  0.8221
 4660SOL     OW25612   0.010   2.583   2.306  0.5386  0.6197  0.0850
 4660SOL    HW125613   4.684   2.543   2.365  0.0234 -0.7342 -1.3876
 4660SOL    HW225614   4.714   2.673   2.302 -1.3696 -0.1509 -1.2389
 4661SOL     OW25615   4.242   2.168   9.894  0.1553  0.6397 -0.3919
 4661SOL    HW125616   4.306   2.234   9.921 -0.8697  1.0662  0.9878
 4661SOL    HW225617   4.171   2.197   9.950  1.9135  1.6524  1.2971
 4662SOL     OW25618   4.540   2.978   9.993  0.2606  0.0237 -0.9720
 4662SOL    HW125619   4.539   2.956  10.087 -1.0837  0.6888 -0.8314
 4662SOL    HW225620   4.449   3.008   9.993 -0.0813 -1.0077  0.0819
 4663SOL     OW25621   2.525   1.171  14.045 -0.0316 -0.5814  0.2816
 4663SOL    HW125622   2.468   1.102  14.013  0.8041 -0.6675 -1.0269
 4663SOL    HW225623   2.583   1.126  14.107  0.5151  0.0059  0.2007
 4664SOL     OW25624   3.126   4.255   4.937 -0.2718  0.0370  0.0850
 4664SOL    HW125625   3.208   4.258   4.987  1.2127 -1.2999 -2.2445
 4664SOL    HW225626   3.077   4.210   5.005 -0.5358  0.0824 -0.0778
 4665SOL     OW25627   0.496   0.236   3.996 -0.6701 -0.3155  0.6470
 4665SOL    HW125628   0.582   0.195   4.009 -0.0355  0.5944 -0.7036
 4665SOL    HW225629   0.497   0.262   3.905  2.0021 -0.0924  0.7247
 4666SOL     OW25630   2.388   3.463   2.181 -0.0622 -0.7235  0.1142
 4666SOL    HW125631   2.301   3.502   2.188  0.3085  0.3260 -1.1951
 4666SOL    HW225632   2.439   3.542   2.197  0.9487 -1.0108 -1.6891
 4667SOL     OW25633   2.655   0.314   0.327  0.0055  0.2057 -0.5610
 4667SOL    HW125634   2.697   0.396   0.354  0.6253  0.6311 -2.7930
 4667SOL    HW225635   2.591   0.300   0.397  0.0120 -0.5762 -0.7107
 4668SOL     OW25636   4.498   2.909   5.147  0.4282 -0.5384 -0.1370
 4668SOL    HW125637   4.583   2.953   5.138  1.4405 -2.5720 -0.3725
 4668SOL    HW225638   4.514   2.842   5.213 -0.9945 -0.3551  0.4082
 4669SOL     OW25639   2.707   2.946   6.661  0.1094  0.1495 -0.0860
 4669SOL    HW125640   2.672   2.900   6.737  0.6022 -0.8560 -0.4705
 4669SOL    HW225641   2.798   2.962   6.688 -0.3572  1.8256  0.4731
 4670SOL     OW25642   2.585   2.412   2.011 -0.6437 -0.1740  0.0426
 4670SOL    HW125643   2.595   2.436   2.103  2.0705  0.5729 -0.4492
 4670SOL    HW225644   2.502   2.364   1.999 -1.1298  0.4805  0.7671
 4671SOL     OW25645   2.711   4.085   5.352  0.0182 -0.3996  0.2529
 4671SOL    HW125646   2.773   4.144   5.394  2.5434 -2.3099 -0.7857
 4671SOL    HW225647   2.748   3.997   5.359  1.5479  0.4246  2.3300
 4672SOL     OW25648   3.966   0.630   5.768  0.0392  0.9457 -0.1266
 4672SOL    HW125649   4.047   0.665   5.805  1.0565 -0.8420 -0.5982
 4672SOL    HW225650   3.958   0.683   5.688  0.5851  2.1015  0.5877
 4673SOL     OW25651   3.988   2.893  17.313  0.0929 -0.1151  0.0734
 4673SOL    HW125652   4.073   2.894  17.357  1.2176  0.4370 -2.0992
 4673SOL    HW225653   3.929   2.938  17.373  0.7520 -0.3185  0.8732
 4674SOL     OW25654   3.938   2.530   2.201 -0.0258  0.5341  0.1811
 4674SOL    HW125655   3.850   2.536   2.163 -0.6039 -4.6509  0.7304
 4674SOL    HW225656   3.967   2.448   2.162 -0.7262 -0.4934  1.8116
 4675SOL     OW25657   2.645   1.681  13.510 -0.1277 -0.4731 -0.6518
 4675SOL    HW125658   2.712   1.625  13.550  0.5241  1.7728  1.3762
 4675SOL    HW225659   2.685   1.691  13.424  1.4439 -1.1942 -0.0026
 4676SOL     OW25660   0.994   4.722   4.552 -0.3795 -0.1898  0.5380
 4676SOL    HW125661   1.063   0.023   4.606  0.4214  1.5919 -1.7294
 4676SOL    HW225662   0.988   4.636   4.592  3.3029 -1.6387 -2.0801
 4677SOL     OW25663   1.779   3.024   9.989  0.3451  0.1852  0.1023
 4677SOL    HW125664   1.711   3.048  10.051  0.3018  1.6981 -0.5269
 4677SOL    HW225665   1.830   2.960  10.039  0.7005  0.8979  0.6336
 4678SOL     OW25666   1.748   4.218   5.131  0.1296 -0.1393  0.5115
 4678SOL    HW125667   1.672   4.166   5.105  1.1844 -1.8470  0.8232
 4678SOL    HW225668   1.814   4.157   5.096  0.7158  1.0625 -0.4849
 4679SOL     OW25669   3.745   2.940  16.662  0.0890 -0.0846 -0.3828
 4679SOL    HW125670   3.650   2.932  16.651 -0.2146  1.8265  0.8815
 4679SOL    HW225671   3.758   3.028  16.626 -0.8165  0.7557  1.3155
 4680SOL     OW25672   1.346   1.754  13.830 -0.0304 -0.0868  0.3236
 4680SOL    HW125673   1.293   1.700  13.771  1.2384 -0.9560 -0.0065
 4680SOL    HW225674   1.276   1.762  13.894  0.4382 -0.2322  0.8497
 4681SOL     OW25675   2.805   1.603   5.672  0.0089 -0.0083 -0.2325
 4681SOL    HW125676   2.770   1.523   5.632 -1.0447 -1.1033  2.8807
 4681SOL    HW225677   2.887   1.607   5.623 -0.7265 -0.2227 -1.4839
 4682SOL     OW25678   1.106   1.912   7.440 -0.1140 -0.0188  0.0773
 4682SOL    HW125679   1.062   1.862   7.508  0.7842  0.0170  0.6833
 4682SOL    HW225680   1.195   1.914   7.476 -0.0036 -0.7219 -0.1534
 4683SOL     OW25681   1.396   4.328  15.225 -0.0902  0.2080 -0.4639
 4683SOL    HW125682   1.476   4.286  15.193 -0.0159  0.8858 -1.1666
 4683SOL    HW225683   1.365   4.367  15.143 -0.5368  1.2333  0.2075
 4684SOL     OW25684   0.453   2.137  13.367  0.7262  0.7558 -0.3210
 4684SOL    HW125685   0.389   2.087  13.315  1.1570 -0.0498 -0.0822
 4684SOL    HW225686   0.400   2.190  13.426 -0.3863  1.1310 -1.6586
 4685SOL     OW25687   3.868   0.920   6.956 -0.1565  0.6078 -0.3082
 4685SOL    HW125688   3.832   0.956   6.875 -0.7834  0.7474  0.0328
 4685SOL    HW225689   3.948   0.877   6.923 -1.5557 -3.5310  1.6533
 4686SOL     OW25690   1.747   3.411   7.394 -0.2675  0.6076  0.3452
 4686SOL    HW125691   1.690   3.400   7.319 -0.9785  0.8112  0.8627
 4686SOL    HW225692   1.696   3.467   7.452 -0.9869  0.7713 -0.4548
 4687SOL     OW25693   2.586   2.383  16.733  0.5944 -0.0850 -0.4039
 4687SOL    HW125694   2.655   2.359  16.671  0.7829 -2.2392  0.6237
 4687SOL    HW225695   2.587   2.309  16.793  1.1363 -0.1367 -0.4768
 4688SOL     OW25696   0.123   3.627  16.038 -0.4842  0.0310 -0.2366
 4688SOL    HW125697   0.167   3.711  16.023  0.3734 -0.5878 -1.1472
 4688SOL    HW225698   0.038   3.652  16.002  0.0928  2.1018 -0.1477
 4689SOL     OW25699   0.779   0.082  12.948  0.2105  0.2271 -0.3074
 4689SOL    HW125700   0.864   0.080  12.904  0.3404  0.8141 -0.0841
 4689SOL    HW225701   0.737   4.735  12.933  2.5388 -0.5794 -2.2620
 4690SOL     OW25702   1.790   0.074  16.146 -0.1587  0.3575  0.3300
 4690SOL    HW125703   1.850   0.103  16.077  1.3232 -0.5604  1.2155
 4690SOL    HW225704   1.824   4.725  16.171  1.1787  0.5374 -0.8449
 4691SOL     OW25705   3.356   0.014   3.872 -0.4908  0.2483 -0.5445
 4691SOL    HW125706   3.341   4.719   3.783  1.7179 -0.0309 -0.8260
 4691SOL    HW225707   3.446   0.047   3.868  1.1415 -3.9546  1.6708
 4692SOL     OW25708   2.286   1.407  10.728 -0.3745 -0.1231 -0.0949
 4692SOL    HW125709   2.241   1.361  10.657  2.0822 -2.3367 -0.2286
 4692SOL    HW225710   2.306   1.340  10.794  2.8015 -0.2228 -1.1649
 4693SOL     OW25711   4.065   1.086   4.497 -0.0258 -0.1464 -0.0531
 4693SOL    HW125712   4.127   1.018   4.522 -0.2324 -0.2895  0.0783
 4693SOL    HW225713   4.037   1.035   4.421 -1.2428  1.0400 -0.3895
 4694SOL     OW25714   0.034   1.767   5.191  0.0518 -0.0034 -0.4209
 4694SOL    HW125715   0.029   1.709   5.116  1.5701 -0.4367 -0.1915
 4694SOL    HW225716   0.104   1.825   5.161 -0.9047 -0.0698 -2.7828
 4695SOL     OW25717   4.431   3.687   5.844 -0.1187  0.3293  0.5231
 4695SOL    HW125718   4.473   3.755   5.896 -2.0128  0.6914  1.5595
 4695SOL    HW225719   4.450   3.615   5.905  2.8045  0.7941  0.1625
 4696SOL     OW25720   1.823   0.977   4.370 -0.1782  0.0128 -0.0737
 4696SOL    HW125721   1.821   1.072   4.363  1.3432 -0.0094 -0.7124
 4696SOL    HW225722   1.918   0.968   4.362 -0.3285 -2.7184  1.0243
 4697SOL     OW25723   3.016   3.276   5.816 -0.0428  0.1409 -0.3036
 4697SOL    HW125724   3.056   3.229   5.888 -0.8837  0.6225  0.4736
 4697SOL    HW225725   3.020   3.368   5.840  0.8832  0.3182 -1.1369
 4698SOL     OW25726   1.189   1.524   9.230  0.6139  0.2393  0.1523
 4698SOL    HW125727   1.109   1.473   9.245  1.6007 -1.2185  0.4402
 4698SOL    HW225728   1.155   1.613   9.236 -0.7773 -0.1727 -1.6218
 4699SOL     OW25729   2.401   3.816  12.739 -0.3398  0.7023 -0.5535
 4699SOL    HW125730   2.378   3.741  12.684 -1.2848  0.9696 -0.5316
 4699SOL    HW225731   2.348   3.800  12.817 -2.1175  1.5787 -1.5773
 4700SOL     OW25732   0.580   3.603  10.266  0.4823 -0.0252  0.3139
 4700SOL    HW125733   0.561   3.675  10.327 -0.5831  0.7313 -0.9024
 4700SOL    HW225734   0.607   3.660  10.194  1.5995 -0.9612 -0.0073
 4701SOL     OW25735   0.177   1.279  16.112 -0.2418  0.1680  0.4333
 4701SOL    HW125736   0.087   1.300  16.134  0.0408 -0.6911  2.4169
 4701SOL    HW225737   0.188   1.190  16.145  1.2434 -0.5277 -1.8928
 4702SOL     OW25738   4.076   1.714  17.114  0.1075  0.1141  0.2984
 4702SOL    HW125739   4.131   1.665  17.175 -1.7416 -0.5710  1.4223
 4702SOL    HW225740   4.123   1.699  17.033  0.5929  0.0535  0.5911
 4703SOL     OW25741   0.583   1.227   2.946 -0.1627 -0.2475 -0.0488
 4703SOL    HW125742   0.654   1.165   2.963  0.1645  0.5537  1.4160
 4703SOL    HW225743   0.628   1.305   2.978 -0.2767  0.0644 -0.6275
 4704SOL     OW25744   2.638   0.961   9.081 -0.4472 -0.4053  0.1036
 4704SOL    HW125745   2.592   0.931   9.159  0.1774 -0.6595  0.3646
 4704SOL    HW225746   2.724   0.923   9.096  0.0338  1.3344  1.6595
 4705SOL     OW25747   2.355   2.971  17.693 -0.0417  0.3035 -0.1599
 4705SOL    HW125748   2.304   2.925  17.627 -0.9135  3.5371 -1.7570
 4705SOL    HW225749   2.446   2.942  17.679 -0.0194  0.9320 -1.3459
 4706SOL     OW25750   3.829   4.210   5.045  0.1744  0.3446 -0.7483
 4706SOL    HW125751   3.795   4.121   5.055  0.7233  0.2397  0.2029
 4706SOL    HW225752   3.924   4.210   5.032 -0.2343  0.6593 -3.6024
 4707SOL     OW25753   1.873   2.841   5.741 -0.2127  0.0009 -0.0084
 4707SOL    HW125754   1.890   2.862   5.649 -1.3271 -1.3698 -0.5170
 4707SOL    HW225755   1.961   2.835   5.778 -0.9692  3.1120  2.3454
 4708SOL     OW25756   2.096   1.194   1.978  0.0768  0.2765 -0.6747
 4708SOL    HW125757   2.107   1.099   1.974 -2.6247 -0.0427 -0.6725
 4708SOL    HW225758   2.095   1.211   1.883  0.3773  2.8289 -0.2178
 4709SOL     OW25759   3.490   2.715   3.913  0.0900 -0.1148  0.1660
 4709SOL    HW125760   3.515   2.804   3.890  0.5333 -0.4834 -0.8094
 4709SOL    HW225761   3.449   2.737   3.996  1.2902  1.1845  0.4273
 4710SOL     OW25762   0.370   2.762   7.852 -0.5227  0.2539 -0.2103
 4710SOL    HW125763   0.344   2.746   7.761  0.1753 -2.0074 -0.0104
 4710SOL    HW225764   0.283   2.785   7.884 -0.5071 -3.1427  2.2605
 4711SOL     OW25765   1.929   0.476  15.898  0.2585  0.1285  0.1760
 4711SOL    HW125766   1.917   0.558  15.850  0.3943  0.0745  0.0506
 4711SOL    HW225767   1.922   0.508  15.988  0.7220 -1.5847  0.8190
 4712SOL     OW25768   4.146   2.620   6.371 -0.1809  0.3642 -0.0074
 4712SOL    HW125769   4.206   2.644   6.441 -0.8777  3.7823 -0.5519
 4712SOL    HW225770   4.074   2.682   6.385 -0.9390 -0.6434  0.6180
 4713SOL     OW25771   3.204   4.616   3.092 -0.2379 -0.0438  0.4420
 4713SOL    HW125772   3.155   4.552   3.041 -0.2085 -1.7575  2.5298
 4713SOL    HW225773   3.161   4.606   3.177 -3.3888 -1.7911 -1.3639
 4714SOL     OW25774   0.297   2.989  11.643  0.3125  0.2847  0.5404
 4714SOL    HW125775   0.374   2.979  11.588 -1.8082  1.7366 -2.6622
 4714SOL    HW225776   0.308   3.079  11.674 -0.3309  1.0175 -1.4012
 4715SOL     OW25777   3.872   2.755   5.085 -0.0641 -0.2973  0.1109
 4715SOL    HW125778   3.793   2.796   5.051  1.1768  0.5701 -1.7050
 4715SOL    HW225779   3.941   2.797   5.034 -0.0686 -1.0417 -0.4987
 4716SOL     OW25780   2.567   2.020   4.751 -0.5136  0.0825 -0.2718
 4716SOL    HW125781   2.602   2.065   4.828 -0.3852 -1.9772  0.8807
 4716SOL    HW225782   2.655   2.040   4.718 -0.4830 -0.0528 -0.2724
 4717SOL     OW25783   4.436   4.431   9.033 -0.2368 -0.3957  0.1568
 4717SOL    HW125784   4.380   4.388   8.969 -0.9179  1.0986 -0.2483
 4717SOL    HW225785   4.370   4.487   9.073 -0.9821  0.8401 -2.8083
 4718SOL     OW25786   3.832   1.864   5.242  0.4542 -0.4906 -0.6738
 4718SOL    HW125787   3.910   1.911   5.273 -1.1247 -1.1299  4.2014
 4718SOL    HW225788   3.847   1.772   5.265  1.9790  0.0514  0.5679
 4719SOL     OW25789   4.218   3.402   5.896  0.3493  0.1382 -0.7336
 4719SOL    HW125790   4.240   3.446   5.814 -0.1799  0.0288 -0.9341
 4719SOL    HW225791   4.165   3.468   5.942 -1.2721 -2.1119  0.6181
 4720SOL     OW25792   1.660   2.652  14.732 -0.5865  0.0086  0.0528
 4720SOL    HW125793   1.580   2.605  14.757 -0.4147 -0.5154 -0.3929
 4720SOL    HW225794   1.654   2.641  14.637  1.2046 -0.7483  0.0261
 4721SOL     OW25795   3.441   3.883  12.275  0.7618 -0.3163  0.0011
 4721SOL    HW125796   3.402   3.896  12.361  1.4976 -0.3860  0.3388
 4721SOL    HW225797   3.478   3.797  12.292 -1.4259 -1.5360 -1.4437
 4722SOL     OW25798   3.291   1.387  16.490  0.1883 -0.4058  0.1232
 4722SOL    HW125799   3.217   1.447  16.501 -0.3762 -0.9545 -0.6712
 4722SOL    HW225800   3.340   1.398  16.408 -0.7035 -0.6472 -0.4448
 4723SOL     OW25801   4.290   0.603   7.290 -0.1043 -0.7254  0.4285
 4723SOL    HW125802   4.344   0.660   7.344  1.4725 -2.6047  0.8502
 4723SOL    HW225803   4.207   0.650   7.297  0.1017 -0.2180 -0.5024
 4724SOL     OW25804   1.494   3.285   5.130 -0.4871  0.3625 -0.2410
 4724SOL    HW125805   1.501   3.339   5.209  2.8580 -3.2385  1.9277
 4724SOL    HW225806   1.411   3.239   5.142  0.4022 -0.3420  3.1377
 4725SOL     OW25807   1.984   3.429   7.063  0.0322 -0.1242 -0.2320
 4725SOL    HW125808   1.952   3.374   7.134  0.5752 -0.8878 -0.5728
 4725SOL    HW225809   1.960   3.511   7.107  1.4238  0.1338  0.0601
 4726SOL     OW25810   0.204   1.951   1.327  0.1963 -0.1771  0.2873
 4726SOL    HW125811   0.249   1.867   1.320 -0.1281 -0.4290  1.2607
 4726SOL    HW225812   0.113   1.922   1.327 -0.1396  0.8820 -0.1570
 4727SOL     OW25813   2.165   0.416   6.003 -0.2057 -0.7112  0.2006
 4727SOL    HW125814   2.226   0.416   5.929 -1.0127 -0.4871 -0.4675
 4727SOL    HW225815   2.206   0.488   6.051 -0.1369 -0.4904 -0.1824
 4728SOL     OW25816   4.436   4.613   9.513  0.4928  0.1713  0.3847
 4728SOL    HW125817   4.357   4.604   9.460  0.1625 -0.8449  1.0486
 4728SOL    HW225818   4.416   4.564   9.593 -0.2974 -1.0428 -0.5544
 4729SOL     OW25819   1.616   2.459   8.894 -0.8755  0.2639  0.6481
 4729SOL    HW125820   1.644   2.392   8.957 -0.2464 -1.4625 -1.4901
 4729SOL    HW225821   1.681   2.526   8.917  1.1816 -1.5054 -0.0910
 4730SOL     OW25822   3.514   0.965  11.856 -0.1771 -0.1769 -0.1517
 4730SOL    HW125823   3.521   0.910  11.934 -1.0638 -0.8779 -0.5653
 4730SOL    HW225824   3.601   0.951  11.818 -0.2908 -1.0802 -0.0958
 4731SOL     OW25825   3.149   4.413   1.395 -0.2585 -0.2080  0.0730
 4731SOL    HW125826   3.095   4.333   1.399  1.3829 -1.2878  0.6683
 4731SOL    HW225827   3.192   4.401   1.310  1.2775 -0.2503  0.8578
 4732SOL     OW25828   0.350   3.688   2.101 -0.0487  0.3136  0.5735
 4732SOL    HW125829   0.309   3.651   2.023  1.0556 -1.4967  0.8422
 4732SOL    HW225830   0.288   3.673   2.173 -1.1188  4.2523  0.4723
 4733SOL     OW25831   4.016   3.141  13.998 -0.2809  0.0321  0.0758
 4733SOL    HW125832   4.056   3.140  13.911 -0.8314  1.3452 -0.1937
 4733SOL    HW225833   4.074   3.212  14.027  1.8246 -2.3873  1.7684
 4734SOL     OW25834   2.060   2.626   7.812  0.4065  0.2676  1.0283
 4734SOL    HW125835   2.002   2.557   7.844 -3.6515  2.9169 -0.5250
 4734SOL    HW225836   2.143   2.582   7.793  1.4505  1.5813  2.5452
 4735SOL     OW25837   0.113   3.366   8.170  0.4782  0.4623  0.2064
 4735SOL    HW125838   0.127   3.340   8.079 -1.2608 -0.7537  0.2841
 4735SOL    HW225839   0.198   3.383   8.211  2.9716 -0.8197 -4.3654
 4736SOL     OW25840   4.293   4.564   5.053 -0.0987  0.7807  0.1775
 4736SOL    HW125841   4.377   4.611   5.053 -0.4487  1.4266  2.5952
 4736SOL    HW225842   4.322   4.473   5.052 -0.2842  0.7384 -1.0541
 4737SOL     OW25843   1.804   1.069   2.789 -0.0918 -0.0624  0.2564
 4737SOL    HW125844   1.787   1.088   2.882 -0.0361 -1.3734  0.5308
 4737SOL    HW225845   1.795   1.159   2.758  0.0524  0.1220  0.7497
 4738SOL     OW25846   0.411   3.682   8.645  0.2785  0.5153  0.1709
 4738SOL    HW125847   0.359   3.761   8.634 -1.1646 -0.3164  0.9958
 4738SOL    HW225848   0.454   3.655   8.564  1.8117  1.6349  0.6071
 4739SOL     OW25849   4.566   1.933   5.278  0.3475 -0.0997 -0.5701
 4739SOL    HW125850   4.632   2.001   5.260  1.3529 -1.7700 -3.1627
 4739SOL    HW225851   4.612   1.861   5.235  1.2656  1.5907 -2.4474
 4740SOL     OW25852   1.394   2.160  10.870  0.2761 -0.0987  0.1573
 4740SOL    HW125853   1.466   2.217  10.897 -0.4813  1.0920 -0.3409
 4740SOL    HW225854   1.438   2.075  10.869 -2.5935 -1.5786 -1.0339
 4741SOL     OW25855   1.611   3.871   6.981 -0.5051  0.0721 -0.2653
 4741SOL    HW125856   1.638   3.951   7.027 -1.8131  1.0264 -1.1545
 4741SOL    HW225857   1.683   3.872   6.918 -0.2170  0.7781  0.0836
 4742SOL     OW25858   0.024   3.955  16.263 -0.4608  0.4404  0.7271
 4742SOL    HW125859   4.710   3.994  16.192  1.5681  1.9825  0.0955
 4742SOL    HW225860   0.076   4.031  16.292  0.8086 -0.7372  1.5312
 4743SOL     OW25861   2.964   1.221   4.207  0.2963  0.1313  0.2909
 4743SOL    HW125862   2.984   1.183   4.121 -2.3039  1.4895 -0.9267
 4743SOL    HW225863   3.011   1.164   4.267  1.4833 -1.5324 -2.2186
 4744SOL     OW25864   3.557   2.474  11.873  0.1306  0.0009  0.0113
 4744SOL    HW125865   3.645   2.463  11.839  0.0986 -0.8295  0.1769
 4744SOL    HW225866   3.540   2.399  11.931  1.8807 -0.2017  0.2410
 4745SOL     OW25867   1.672   0.870   3.577 -0.4283  0.5932 -0.2600
 4745SOL    HW125868   1.624   0.811   3.520  1.1484  0.8251 -1.8564
 4745SOL    HW225869   1.744   0.890   3.517  0.1787 -0.5300  0.0916
 4746SOL     OW25870   2.307   4.050   5.236 -0.2386  0.3404 -0.1077
 4746SOL    HW125871   2.332   3.983   5.173 -1.8861  1.5652 -2.0644
 4746SOL    HW225872   2.311   3.999   5.317 -0.2520 -0.5184 -0.6533
 4747SOL     OW25873   2.209   3.926  10.478 -0.7051  0.0690 -0.4263
 4747SOL    HW125874   2.174   3.837  10.482 -2.7057  0.7756 -2.3178
 4747SOL    HW225875   2.269   3.921  10.404  1.2044  1.4557  1.0177
 4748SOL     OW25876   0.907   3.890   1.901  0.2219 -0.0113  0.3111
 4748SOL    HW125877   0.888   3.977   1.867 -0.9332 -0.1741  0.5551
 4748SOL    HW225878   0.818   3.856   1.902  0.4466 -0.5707  1.2673
 4749SOL     OW25879   2.962   1.836   2.611  0.2468  0.3657 -0.1932
 4749SOL    HW125880   2.948   1.741   2.614  0.2577  0.3616 -0.2740
 4749SOL    HW225881   3.042   1.835   2.664  0.6824 -1.8618 -0.8898
 4750SOL     OW25882   0.581   1.587   5.305  0.0315  0.1417 -0.0374
 4750SOL    HW125883   0.595   1.496   5.279  1.1175 -0.0258  1.1632
 4750SOL    HW225884   0.648   1.593   5.372 -1.1370  3.1028  0.8681
 4751SOL     OW25885   4.290   4.257   8.841  0.1494 -0.1628 -0.0420
 4751SOL    HW125886   4.234   4.194   8.796 -1.3989  1.4457 -0.3570
 4751SOL    HW225887   4.374   4.214   8.827  0.2780  0.2667 -0.5882
 4752SOL     OW25888   1.625   1.779   8.087  0.1855  0.2070 -0.5427
 4752SOL    HW125889   1.702   1.724   8.069 -0.1209 -0.0218 -1.1748
 4752SOL    HW225890   1.622   1.837   8.011  0.1136 -0.4160 -1.0202
 4753SOL     OW25891   0.488   2.161  15.295  0.1045 -0.2983 -0.0960
 4753SOL    HW125892   0.489   2.157  15.390 -1.3570  0.1219 -0.0651
 4753SOL    HW225893   0.576   2.129  15.275  1.8351  2.3734  3.3516
 4754SOL     OW25894   0.123   2.143  11.368 -0.2910  0.4656 -0.3408
 4754SOL    HW125895   0.093   2.228  11.336 -0.2244  1.2889  1.7695
 4754SOL    HW225896   0.216   2.149  11.344 -0.1085 -1.1286 -0.0023
 4755SOL     OW25897   0.307   1.434   1.765 -0.1591  0.3124 -0.0777
 4755SOL    HW125898   0.241   1.431   1.696 -1.3956 -2.3928  1.2072
 4755SOL    HW225899   0.363   1.505   1.735  2.1610 -1.0313  1.1046
 4756SOL     OW25900   0.666   0.047   6.318 -0.3341  0.6863  0.3474
 4756SOL    HW125901   0.681   0.128   6.366  1.5893  1.1141 -0.9725
 4756SOL    HW225902   0.696   0.078   6.232 -0.9365 -2.5167 -1.0235
 4757SOL     OW25903   2.581   2.967   1.531  0.1502  0.4406  0.3523
 4757SOL    HW125904   2.502   2.959   1.583  0.5564 -0.5546  0.8136
 4757SOL    HW225905   2.630   3.016   1.597  2.8817 -0.6182 -0.8893
 4758SOL     OW25906   3.383   0.109   5.460 -0.1790 -0.3147  0.1021
 4758SOL    HW125907   3.459   0.051   5.466 -0.2036 -0.6540 -2.9670
 4758SOL    HW225908   3.408   0.181   5.518 -0.1804 -0.6460  0.5119
 4759SOL     OW25909   1.361   0.816   0.340 -0.2963 -0.7423 -0.1742
 4759SOL    HW125910   1.342   0.908   0.323  0.5486 -0.3744  0.8906
 4759SOL    HW225911   1.351   0.822   0.435  1.5950  1.4135 -0.1224
 4760SOL     OW25912   1.031   2.156   5.420 -0.1374  0.0454 -0.3405
 4760SOL    HW125913   0.971   2.150   5.495 -1.1601  0.5876 -1.1153
 4760SOL    HW225914   1.121   2.141   5.448  0.1748 -0.0621 -1.3958
 4761SOL     OW25915   0.101   1.019   7.252 -0.2936 -0.7079  0.6444
 4761SOL    HW125916   0.087   1.087   7.318 -2.7867  1.3452 -1.9787
 4761SOL    HW225917   0.137   1.070   7.180  0.2057 -0.8315  0.8117
 4762SOL     OW25918   3.721   2.798   3.244 -0.2009 -0.1344  0.2410
 4762SOL    HW125919   3.766   2.819   3.163 -1.3914  2.4301  0.2422
 4762SOL    HW225920   3.720   2.884   3.287 -1.1371 -0.1867  0.3249
 4763SOL     OW25921   2.605   4.644   7.115 -0.1219 -0.3806 -0.7349
 4763SOL    HW125922   2.685   4.630   7.064 -0.0072  1.5257 -1.0521
 4763SOL    HW225923   2.629   4.599   7.196  2.2985  0.5600 -0.9533
 4764SOL     OW25924   3.571   2.148  14.443  0.2625 -0.2326 -0.1197
 4764SOL    HW125925   3.622   2.218  14.484  0.8771  0.0698 -1.3625
 4764SOL    HW225926   3.525   2.202  14.378 -1.2423 -2.1003 -0.5880
 4765SOL     OW25927   2.154   3.964   1.740 -0.0515  0.0398  0.3532
 4765SOL    HW125928   2.245   3.990   1.726 -0.0979 -0.6726 -1.2615
 4765SOL    HW225929   2.144   3.957   1.835  0.4390  0.3127  0.4243
 4766SOL     OW25930   4.227   1.288   7.796  0.1336  0.0568  0.2687
 4766SOL    HW125931   4.168   1.280   7.871 -1.4632  2.1544 -0.7741
 4766SOL    HW225932   4.199   1.215   7.741  0.2422  0.5731 -0.4732
 4767SOL     OW25933   4.323   0.102   4.138 -0.4636  0.3637  0.0474
 4767SOL    HW125934   4.372   0.184   4.147 -2.8845  1.6441  1.5455
 4767SOL    HW225935   4.257   0.115   4.206  0.0514 -0.6628  0.7357
 4768SOL     OW25936   0.876   0.736   9.165 -0.6117 -0.4268 -1.1364
 4768SOL    HW125937   0.824   0.656   9.163 -0.5771 -0.4758  0.4206
 4768SOL    HW225938   0.951   0.691   9.127  2.3963  1.1506  2.9292
 4769SOL     OW25939   1.738   1.515   2.398  0.4293 -0.1747 -0.7422
 4769SOL    HW125940   1.719   1.572   2.323 -1.3421 -0.8381 -0.8069
 4769SOL    HW225941   1.695   1.434   2.372  0.2449  0.0955 -1.2813
 4770SOL     OW25942   2.287   3.929  11.150  1.1637 -0.5248  0.0764
 4770SOL    HW125943   2.251   4.015  11.170 -0.5117 -1.0761 -0.5124
 4770SOL    HW225944   2.344   3.916  11.226 -2.9552 -2.4437  2.8470
 4771SOL     OW25945   3.095   3.401   4.341  0.2982  0.2439  0.3136
 4771SOL    HW125946   3.029   3.404   4.410  0.4276 -0.3165  0.4625
 4771SOL    HW225947   3.068   3.471   4.281 -0.2881 -1.6498 -1.6447
 4772SOL     OW25948   0.207   2.306   9.548 -0.0226  0.5426  0.0167
 4772SOL    HW125949   0.153   2.231   9.521  0.6709  0.4454 -1.0988
 4772SOL    HW225950   0.179   2.364   9.477  1.9583  2.0400  0.4623
 4773SOL     OW25951   2.490   1.355   7.934  0.2778 -0.1287 -0.2963
 4773SOL    HW125952   2.500   1.442   7.971  1.7905 -0.0750 -0.8300
 4773SOL    HW225953   2.420   1.313   7.985 -0.5590  0.8967 -0.5960
 4774SOL     OW25954   0.586   0.117   3.044 -0.2969 -0.6788  0.0055
 4774SOL    HW125955   0.612   0.197   2.999 -1.7416 -0.1327  0.1604
 4774SOL    HW225956   0.506   0.148   3.085  0.8489 -1.8919  3.1537
 4775SOL     OW25957   0.908   3.549   8.084  0.2053 -0.2716  0.3259
 4775SOL    HW125958   0.949   3.477   8.036  0.5492  0.0483  0.1352
 4775SOL    HW225959   0.822   3.513   8.103 -0.1438  1.0049  1.2237
 4776SOL     OW25960   1.199   4.026   3.693 -0.2461 -0.7228 -0.4258
 4776SOL    HW125961   1.224   4.054   3.605 -1.0046  0.5816 -0.2262
 4776SOL    HW225962   1.117   3.981   3.674 -0.2400 -1.0110  0.2234
 4777SOL     OW25963   0.469   3.446  13.920  1.1357 -0.3243  0.3200
 4777SOL    HW125964   0.551   3.432  13.968  1.6705  3.0763  0.3669
 4777SOL    HW225965   0.499   3.426  13.832  1.1061 -1.2971  0.5223
 4778SOL     OW25966   3.904   4.051  12.390  0.2626 -0.8095  0.7800
 4778SOL    HW125967   3.885   3.964  12.426  2.8096 -1.5303  0.3869
 4778SOL    HW225968   3.817   4.075  12.361  0.1675 -1.4420  0.5408
 4779SOL     OW25969   2.700   1.708   5.075 -0.1124  0.0746  0.2666
 4779SOL    HW125970   2.626   1.688   5.132 -0.5247  0.1908 -0.2234
 4779SOL    HW225971   2.666   1.728   4.988 -0.9118  0.6559  0.7166
 4780SOL     OW25972   1.968   0.338   5.432 -0.6558  0.1830 -0.0178
 4780SOL    HW125973   1.887   0.370   5.393 -0.7583 -0.7601 -0.5802
 4780SOL    HW225974   1.941   0.314   5.520 -0.2497 -0.7647 -0.1529
 4781SOL     OW25975   0.612   4.247   7.479 -0.2738 -0.0848 -0.3391
 4781SOL    HW125976   0.652   4.188   7.543 -2.1035 -2.7632 -1.6120
 4781SOL    HW225977   0.518   4.244   7.497 -0.0640 -0.2907  0.7280
 4782SOL     OW25978   1.055   1.954   4.435 -0.7437  0.2698  0.3238
 4782SOL    HW125979   1.074   1.916   4.521 -1.2850 -1.8136 -0.4757
 4782SOL    HW225980   0.960   1.949   4.435 -0.6723 -1.0945  1.5564
 4783SOL     OW25981   3.687   3.393   5.212 -0.0091  0.4600  0.3364
 4783SOL    HW125982   3.673   3.308   5.172  1.3740  0.9807 -1.2086
 4783SOL    HW225983   3.758   3.429   5.160  0.0971  0.3491  0.4058
 4784SOL     OW25984   3.014   0.675   5.321  0.0920  0.0823 -0.0286
 4784SOL    HW125985   3.074   0.615   5.276 -1.2462 -1.6172  0.4547
 4784SOL    HW225986   3.007   0.750   5.261 -1.3978  0.3338  0.4557
 4785SOL     OW25987   1.161   4.643   8.858  0.1806 -0.4914 -0.1307
 4785SOL    HW125988   1.239   4.631   8.913 -0.3598 -0.4601  0.6448
 4785SOL    HW225989   1.127   4.554   8.860 -0.6799 -0.1857 -1.2620
 4786SOL     OW25990   2.170   2.912  15.022  0.6381  0.2492 -1.2731
 4786SOL    HW125991   2.210   2.878  15.102 -0.2191 -0.2117 -1.0436
 4786SOL    HW225992   2.156   2.998  15.063  0.8362 -0.9475  1.2912
 4787SOL     OW25993   2.081   3.033   2.669  0.1255  0.3857 -0.2949
 4787SOL    HW125994   2.131   3.056   2.591 -1.7079  0.4973 -1.4463
 4787SOL    HW225995   2.080   2.939   2.651 -1.7703  0.8636 -2.7994
 4788SOL     OW25996   2.778   4.328   9.830  0.0388 -0.3391 -0.0117
 4788SOL    HW125997   2.853   4.271   9.814 -0.4804 -1.0497  0.0483
 4788SOL    HW225998   2.801   4.402   9.774 -0.8981 -0.3373 -0.3890
 4789SOL     OW25999   1.196   1.111  17.090  0.3181 -0.1372 -0.4299
 4789SOL    HW126000   1.167   1.113  17.181 -0.8043  1.0265 -0.8113
 4789SOL    HW226001   1.278   1.062  17.090  0.6747  0.4688 -0.4553
 4790SOL     OW26002   4.353   3.099   3.310  0.3305 -0.0702  0.1827
 4790SOL    HW126003   4.407   3.026   3.341  0.1198 -0.5107 -0.5015
 4790SOL    HW226004   4.267   3.059   3.305  0.2853 -0.0342  0.6953
 4791SOL     OW26005   3.029   3.161   9.534 -0.3603  0.1901  0.3480
 4791SOL    HW126006   2.988   3.205   9.609  0.5895  1.1154  0.3117
 4791SOL    HW226007   3.096   3.226   9.517 -0.5786  0.7570  1.6542
 4792SOL     OW26008   0.507   1.277   5.819  0.0288  0.2719 -0.2085
 4792SOL    HW126009   0.490   1.366   5.786 -1.0783 -0.0334 -0.4612
 4792SOL    HW226010   0.480   1.293   5.909 -1.0391 -2.6338 -0.0295
 4793SOL     OW26011   3.548   0.851  17.052  0.1698 -0.0887  0.1702
 4793SOL    HW126012   3.508   0.909  16.987  1.3362  0.2963 -0.2056
 4793SOL    HW226013   3.554   0.907  17.130 -1.1179 -0.2645  0.3839
 4794SOL     OW26014   3.678   2.305   5.262 -0.3329 -0.5215  0.5179
 4794SOL    HW126015   3.593   2.345   5.247 -1.0167 -1.8064  0.9318
 4794SOL    HW226016   3.654   2.218   5.295 -0.6459 -1.0924 -1.2364
 4795SOL     OW26017   2.531   3.010   0.707  0.5776 -0.6107 -0.5081
 4795SOL    HW126018   2.548   2.942   0.772 -0.9435  1.1758  1.7722
 4795SOL    HW226019   2.499   2.965   0.629  1.4628  1.9100 -2.2960
 4796SOL     OW26020   1.966   2.851   9.349  0.0635  0.0429 -0.1746
 4796SOL    HW126021   1.996   2.853   9.440 -2.8725  1.2654  0.7934
 4796SOL    HW226022   2.043   2.890   9.307 -0.3512  1.1907  0.1163
 4797SOL     OW26023   1.562   0.608   6.993 -0.2869 -0.0526  0.1823
 4797SOL    HW126024   1.621   0.652   7.054 -0.9182  0.5331  0.3583
 4797SOL    HW226025   1.614   0.558   6.930  0.5424  0.4971  0.4225
 4798SOL     OW26026   3.653   3.276   6.471 -0.2566 -0.4590 -0.1187
 4798SOL    HW126027   3.662   3.350   6.530  0.1563  0.6154 -1.5282
 4798SOL    HW226028   3.568   3.301   6.434 -0.1204  1.1598  0.6942
 4799SOL     OW26029   1.824   1.947   2.700  0.5780  0.2569  0.1663
 4799SOL    HW126030   1.917   1.925   2.703  1.1155  2.6609  1.1415
 4799SOL    HW226031   1.778   1.879   2.650 -2.1935  1.0006  1.7257
 4800SOL     OW26032   1.880   0.966   9.889  0.0443  0.3157 -0.4671
 4800SOL    HW126033   1.861   1.043   9.942 -2.9450  0.4853 -1.8104
 4800SOL    HW226034   1.816   0.899   9.913 -0.8214  0.8874 -1.2147
 4801SOL     OW26035   1.470   1.352   2.400  0.0428  0.0622 -0.2411
 4801SOL    HW126036   1.448   1.264   2.370 -0.1845  0.6879 -1.9096
 4801SOL    HW226037   1.485   1.342   2.494 -3.4745  3.4849  0.7435
 4802SOL     OW26038   1.852   0.044   4.702  0.4011 -0.0362  0.4481
 4802SOL    HW126039   1.791   0.038   4.775  0.1997 -0.4483  0.2474
 4802SOL    HW226040   1.845   4.690   4.674  0.1068  0.2666 -0.4487
 4803SOL     OW26041   4.666   2.198   3.574  0.4054  0.1077 -0.2064
 4803SOL    HW126042   4.579   2.234   3.590  0.2073  0.4145 -1.9120
 4803SOL    HW226043   4.692   2.261   3.507  0.0600 -0.5512 -0.9622
 4804SOL     OW26044   1.623   4.103   6.293  1.1611  0.1823 -0.2060
 4804SOL    HW126045   1.572   4.093   6.213  0.9536 -2.1216  0.2044
 4804SOL    HW226046   1.667   4.018   6.300  2.7358  0.9526 -0.8683
 4805SOL     OW26047   2.745   2.480  10.131  0.3774  0.4498  0.7128
 4805SOL    HW126048   2.835   2.495  10.158 -0.1820  0.6751  2.4551
 4805SOL    HW226049   2.758   2.398  10.083 -2.4839  0.7231 -0.5210
 4806SOL     OW26050   2.723   0.618   5.894 -0.3527  0.6227  0.3017
 4806SOL    HW126051   2.657   0.558   5.859  0.7480 -0.1753 -0.4166
 4806SOL    HW226052   2.688   0.705   5.876  1.4603  1.3210  0.1838
 4807SOL     OW26053   1.574   0.379   3.266 -0.6307 -0.2700 -0.9978
 4807SOL    HW126054   1.587   0.347   3.177 -1.6509 -1.0521 -0.8654
 4807SOL    HW226055   1.586   0.293   3.306  0.4988 -0.0310 -0.8261
 4808SOL     OW26056   1.362   1.459   7.660  0.3636 -0.3795 -0.4400
 4808SOL    HW126057   1.309   1.481   7.736  1.0124 -1.8214  0.4223
 4808SOL    HW226058   1.340   1.541   7.616 -1.0004 -0.6103 -0.1805
 4809SOL     OW26059   4.117   2.055   8.563  0.2777  0.2633 -0.3131
 4809SOL    HW126060   4.104   2.028   8.472  2.7107 -1.9573  0.0240
 4809SOL    HW226061   4.095   2.148   8.559  0.4161  0.3497  1.0786
 4810SOL     OW26062   3.841   4.703   3.796 -0.6596  0.3495  0.4759
 4810SOL    HW126063   3.916   4.648   3.774 -1.3039 -0.8476  1.3031
 4810SOL    HW226064   3.872   0.031   3.860  0.7401  1.6299 -1.4776
 4811SOL     OW26065   3.566   2.291  11.180  0.2669  0.1121 -0.5457
 4811SOL    HW126066   3.611   2.206  11.182  0.2352  0.0998 -0.3488
 4811SOL    HW226067   3.540   2.299  11.272 -0.8630 -0.3571 -0.8253
 4812SOL     OW26068   1.056   3.353   6.839  0.1812  0.0392 -0.0618
 4812SOL    HW126069   1.064   3.366   6.933  1.4078 -2.8633  0.2351
 4812SOL    HW226070   1.064   3.446   6.817 -0.3809  0.1890  0.3795
 4813SOL     OW26071   2.090   1.173   5.518  0.4444  0.0540  0.5564
 4813SOL    HW126072   2.012   1.119   5.503  0.5323 -0.2984  1.3533
 4813SOL    HW226073   2.065   1.210   5.603  0.0362  2.0867 -0.4421
 4814SOL     OW26074   2.996   4.535  16.820 -0.4592 -0.5112  0.4167
 4814SOL    HW126075   3.033   4.548  16.908  1.2467 -0.1235 -0.3734
 4814SOL    HW226076   2.935   4.466  16.847 -0.6034  0.4482  2.6083
 4815SOL     OW26077   0.563   3.915   6.064 -0.0583 -0.3845 -0.0235
 4815SOL    HW126078   0.527   3.998   6.093 -0.0970 -0.5483  0.3952
 4815SOL    HW226079   0.656   3.925   6.044 -0.3077  1.7763 -0.1227
 4816SOL     OW26080   1.490   0.605   4.878 -0.7494 -0.5113  0.2327
 4816SOL    HW126081   1.460   0.605   4.787 -2.1250  3.1823  0.6785
 4816SOL    HW226082   1.545   0.682   4.891  1.2031 -1.8629 -0.1854
 4817SOL     OW26083   2.139   0.424   2.557  0.0109  0.3778 -0.3421
 4817SOL    HW126084   2.047   0.444   2.573  0.1234 -0.4139  1.2752
 4817SOL    HW226085   2.182   0.452   2.638 -1.1851 -1.2806  0.8867
 4818SOL     OW26086   2.647   1.364  11.665 -0.1274  1.1417  0.6292
 4818SOL    HW126087   2.697   1.413  11.598 -0.9650  0.5464 -0.4300
 4818SOL    HW226088   2.594   1.302  11.616  0.7240  1.5539 -0.8472
 4819SOL     OW26089   2.758   1.146  14.242 -0.2364 -0.1412 -0.4022
 4819SOL    HW126090   2.771   1.079  14.310 -0.2790  0.5511  0.2918
 4819SOL    HW226091   2.815   1.109  14.175  0.0611 -0.0835 -0.1825
 4820SOL     OW26092   0.266   3.657   8.865 -0.7671 -0.3873  0.3448
 4820SOL    HW126093   0.345   3.646   8.812 -0.8916 -0.6649  0.2181
 4820SOL    HW226094   0.314   3.712   8.927  0.5064 -2.4293  1.1773
 4821SOL     OW26095   0.754   1.993   3.730 -0.1672 -0.2597  0.4088
 4821SOL    HW126096   0.778   2.021   3.818  0.1693 -0.3500  0.3443
 4821SOL    HW226097   0.774   2.077   3.689 -1.0110 -1.0426 -1.6206
 4822SOL     OW26098   1.087   1.075   9.072  0.0578 -0.3685 -0.2469
 4822SOL    HW126099   1.018   1.015   9.044  0.6553 -0.8747 -0.6389
 4822SOL    HW226100   1.142   1.086   8.995 -0.0175 -1.0306 -0.3941
 4823SOL     OW26101   0.242   2.732   6.394  0.0596  0.5528 -0.1097
 4823SOL    HW126102   0.189   2.757   6.470 -0.4851  1.7471 -0.8816
 4823SOL    HW226103   0.316   2.792   6.402  1.2939 -0.9240 -0.4409
 4824SOL     OW26104   0.861   2.585   5.585 -0.0696  0.2762 -0.0533
 4824SOL    HW126105   0.820   2.593   5.671 -1.2410  0.9690 -0.6771
 4824SOL    HW226106   0.909   2.504   5.600 -0.7569  0.0470  0.8831
 4825SOL     OW26107   4.653   3.739  11.272 -0.0736  0.0604 -0.2086
 4825SOL    HW126108   4.715   3.809  11.292  0.9721 -0.8924 -0.1507
 4825SOL    HW226109   4.567   3.780  11.284  1.4900  3.4345 -0.4151
 4826SOL     OW26110   0.561   0.997   9.189  0.0674  0.1717  0.1389
 4826SOL    HW126111   0.561   0.951   9.273 -0.8853  1.2791  0.7479
 4826SOL    HW226112   0.595   1.081   9.219  0.3458 -0.3276  1.2141
 4827SOL     OW26113   2.598   3.094   1.290  0.2383  0.3053 -0.0230
 4827SOL    HW126114   2.618   3.042   1.368 -0.0245 -1.4528 -1.1130
 4827SOL    HW226115   2.619   3.178   1.330 -2.9207  0.0471  2.1252
 4828SOL     OW26116   1.878   3.237   8.353 -0.1859  0.2088  0.4738
 4828SOL    HW126117   1.880   3.197   8.440 -1.1931  2.1176  1.3863
 4828SOL    HW226118   1.924   3.167   8.307  0.8765  0.6601  0.8507
 4829SOL     OW26119   4.693   2.924   1.132 -0.4064 -0.7174  0.1296
 4829SOL    HW126120   4.729   2.858   1.072  3.3635  1.0202  0.5198
 4829SOL    HW226121   4.610   2.935   1.086  0.0055 -0.6432 -0.5925
 4830SOL     OW26122   2.518   4.548   2.811 -0.0408  0.4726  0.3520
 4830SOL    HW126123   2.602   4.563   2.854  1.1244  3.2112 -2.9576
 4830SOL    HW226124   2.556   4.542   2.724  0.5968 -4.1211  0.9501
 4831SOL     OW26125   1.814   3.017   2.319  0.4324 -0.1625 -0.1614
 4831SOL    HW126126   1.737   3.059   2.357  1.4149  1.2603  0.2458
 4831SOL    HW226127   1.769   2.933   2.308  0.7832 -0.4631  0.7669
 4832SOL     OW26128   4.079   2.436  11.701  0.6036 -0.1919  0.5831
 4832SOL    HW126129   4.138   2.497  11.747  2.5719 -0.9117 -1.0164
 4832SOL    HW226130   4.104   2.437  11.609 -1.0466  1.2182  0.1489
 4833SOL     OW26131   2.904   1.410   7.968 -0.1108 -0.4262 -0.1716
 4833SOL    HW126132   2.892   1.318   7.991 -1.6422  1.1522  5.4558
 4833SOL    HW226133   2.909   1.456   8.052 -0.3095 -2.9788  1.2564
 4834SOL     OW26134   2.968   2.383   2.818 -0.2760  0.0602 -0.0380
 4834SOL    HW126135   3.030   2.452   2.795 -0.3130  0.4704  1.0761
 4834SOL    HW226136   2.915   2.411   2.892 -0.8910  0.0193 -0.4682
 4835SOL     OW26137   1.739   2.891  15.723 -0.0296 -0.9241  0.3846
 4835SOL    HW126138   1.705   2.915  15.809  0.3167 -1.2268  0.6050
 4835SOL    HW226139   1.833   2.907  15.725  0.0861 -1.6293  0.6155
 4836SOL     OW26140   2.349   0.599   3.869  0.4404 -0.8088 -0.3890
 4836SOL    HW126141   2.317   0.570   3.783  0.7440 -2.0287 -0.0944
 4836SOL    HW226142   2.269   0.604   3.922 -0.2440 -2.2167 -1.2650
 4837SOL     OW26143   1.878   1.319   9.486 -0.3100 -0.1490 -0.1412
 4837SOL    HW126144   1.972   1.302   9.486 -0.4768 -1.1385  1.9311
 4837SOL    HW226145   1.863   1.383   9.556  0.5557 -2.8155  2.5261
 4838SOL     OW26146   2.888   3.418   2.796  0.1625 -0.6259  0.0243
 4838SOL    HW126147   2.940   3.397   2.873  0.1645 -1.9646 -0.3400
 4838SOL    HW226148   2.937   3.360   2.737  1.7508  1.8453 -1.0903
 4839SOL     OW26149   4.351   0.437   2.633 -0.2200 -0.4547  0.5229
 4839SOL    HW126150   4.368   0.522   2.594 -0.5180  0.4245  2.3058
 4839SOL    HW226151   4.364   0.452   2.727 -2.5754 -0.0549  0.7900
 4840SOL     OW26152   3.644   1.712  13.470 -0.6494  0.1675  0.5857
 4840SOL    HW126153   3.616   1.666  13.549 -3.3643  2.1047  0.7558
 4840SOL    HW226154   3.672   1.641  13.412  2.0352  3.2395 -1.9458
 4841SOL     OW26155   0.821   0.842  16.126 -0.6463 -0.0788 -0.3167
 4841SOL    HW126156   0.910   0.875  16.138 -1.0903  1.6607 -1.7610
 4841SOL    HW226157   0.839   0.798  16.043 -0.1537  0.7432 -0.6489
 4842SOL     OW26158   1.450   3.900  11.573 -0.3069 -0.8285  0.0932
 4842SOL    HW126159   1.533   3.894  11.620 -0.3111 -2.7523 -0.1506
 4842SOL    HW226160   1.476   3.923  11.484  0.3643 -0.0461  0.4942
 4843SOL     OW26161   1.611   3.999   5.348 -0.6119  0.1057 -0.1053
 4843SOL    HW126162   1.546   4.018   5.280 -1.1439 -0.6931  0.1810
 4843SOL    HW226163   1.578   3.916   5.382 -0.5975  0.2310  0.2135
 4844SOL     OW26164   0.010   1.176   7.455 -0.3197  0.6392 -0.4018
 4844SOL    HW126165   0.091   1.162   7.505 -0.4702 -0.7800 -0.5490
 4844SOL    HW226166   0.000   1.271   7.447 -1.3906  0.3593 -2.3622
 4845SOL     OW26167   1.902   3.664   7.219  0.7323 -0.3640  0.2038
 4845SOL    HW126168   1.887   3.758   7.212 -2.4551 -0.7342  2.0146
 4845SOL    HW226169   1.843   3.644   7.292  1.4157  0.9146  1.0961
 4846SOL     OW26170   3.019   2.933   2.771 -0.3256 -0.2929 -0.2716
 4846SOL    HW126171   2.996   2.842   2.790 -2.4869  0.2196 -0.3921
 4846SOL    HW226172   3.079   2.922   2.698  0.0523 -0.5681  0.0835
 4847SOL     OW26173   2.985   1.766  11.030  0.4085  0.3390  0.1954
 4847SOL    HW126174   3.052   1.715  10.984 -0.4092 -0.0321 -0.5845
 4847SOL    HW226175   2.915   1.769  10.965  0.1784 -0.5532  0.4042
 4848SOL     OW26176   0.947   3.627   8.470  0.2798  0.3421 -0.4066
 4848SOL    HW126177   0.925   3.681   8.395  1.9968 -0.0305 -1.1777
 4848SOL    HW226178   1.012   3.677   8.519  0.0546  1.1174 -0.9043
 4849SOL     OW26179   2.937   2.500  14.993 -0.0753  0.4396  0.1206
 4849SOL    HW126180   2.932   2.506  14.898 -2.4277 -0.6320  0.1916
 4849SOL    HW226181   2.857   2.450  15.007 -0.0185  0.6573  1.2447
 4850SOL     OW26182   1.527   0.215   2.150 -0.0541  0.5772  0.2693
 4850SOL    HW126183   1.564   0.169   2.225  0.5730  2.1466  0.9141
 4850SOL    HW226184   1.495   0.141   2.099  0.1044  0.4721  0.3214
 4851SOL     OW26185   1.620   3.305   8.691 -0.0229  0.4364  0.2639
 4851SOL    HW126186   1.554   3.372   8.706 -0.8495 -0.8581  2.3751
 4851SOL    HW226187   1.569   3.227   8.668  0.9653  0.1201 -0.8581
 4852SOL     OW26188   1.570   2.959   5.410 -0.3330  0.3215 -0.1905
 4852SOL    HW126189   1.631   2.891   5.437  1.6288  1.7543 -1.0674
 4852SOL    HW226190   1.582   3.005   5.493 -1.4751 -0.5788  0.4752
 4853SOL     OW26191   2.923   4.140   8.056  0.2022  0.8695 -0.4801
 4853SOL    HW126192   2.833   4.115   8.077  0.0472 -1.2581 -3.5927
 4853SOL    HW226193   2.951   4.144   8.148 -0.2022 -1.0390 -0.2642
 4854SOL     OW26194   1.394   4.241   2.769  0.4694 -0.2935  0.4880
 4854SOL    HW126195   1.382   4.223   2.676  3.2286  0.0214  0.0770
 4854SOL    HW226196   1.453   4.316   2.775  0.2746 -0.3935  4.1101
 4855SOL     OW26197   1.217   3.822  14.855  0.5445 -0.2260 -0.3519
 4855SOL    HW126198   1.181   3.910  14.850  1.2687  0.0301 -1.1311
 4855SOL    HW226199   1.135   3.778  14.834  0.3261 -0.5123  1.0757
 4856SOL     OW26200   4.583   2.210   7.226  0.1320  0.0949 -0.2737
 4856SOL    HW126201   4.574   2.208   7.130 -1.6235 -0.3756 -0.1015
 4856SOL    HW226202   4.489   2.214   7.246  0.2112 -0.2534  0.1520
 4857SOL     OW26203   0.612   4.403   5.928 -0.4668  0.1562 -0.0945
 4857SOL    HW126204   0.648   4.447   5.850 -1.0120  2.4706  0.9554
 4857SOL    HW226205   0.528   4.445   5.946  0.2662  0.9582  1.4969
 4858SOL     OW26206   0.359   3.330  12.710  0.3202  0.0369  0.3461
 4858SOL    HW126207   0.430   3.387  12.740 -1.6997  3.3171 -1.2041
 4858SOL    HW226208   0.407   3.255  12.673 -0.8932 -0.7734  0.4195
 4859SOL     OW26209   4.390   1.992   9.762  0.0724  0.1651  0.5001
 4859SOL    HW126210   4.348   1.910   9.787 -3.1774  2.4628  2.6294
 4859SOL    HW226211   4.335   2.057   9.806  0.4917  1.4897 -0.9369
 4860SOL     OW26212   2.610   1.631   8.738  0.4082 -0.6030  0.5356
 4860SOL    HW126213   2.529   1.581   8.738  1.7274 -2.7732 -1.0513
 4860SOL    HW226214   2.607   1.675   8.823 -1.8151  1.1425 -0.4430
 4861SOL     OW26215   0.140   0.798   7.848  0.8822  0.3970  0.0485
 4861SOL    HW126216   0.052   0.762   7.846  1.0142  0.0626  0.2550
 4861SOL    HW226217   0.121   0.887   7.877  1.0403  0.7443 -0.9133
 4862SOL     OW26218   3.199   3.437   8.330 -0.1255 -0.0486  0.0980
 4862SOL    HW126219   3.190   3.454   8.423  0.9378  0.3618  0.1224
 4862SOL    HW226220   3.277   3.383   8.314  1.2003  1.6437  0.9268
 4863SOL     OW26221   1.697   1.821  14.392 -0.0484 -0.4525 -0.4405
 4863SOL    HW126222   1.617   1.770  14.375  0.3808 -1.2875  0.0089
 4863SOL    HW226223   1.729   1.844  14.305  1.0627 -0.7557 -0.1068
 4864SOL     OW26224   1.213   3.293   0.347 -0.0972  0.1814  1.1670
 4864SOL    HW126225   1.285   3.294   0.410  0.6046  1.1970  0.3487
 4864SOL    HW226226   1.248   3.231   0.284  1.0360  0.3033  1.6689
 4865SOL     OW26227   0.057   3.052   2.339  0.7574 -0.4097 -0.5893
 4865SOL    HW126228   4.729   2.986   2.317  1.1502 -0.9895 -0.0395
 4865SOL    HW226229   0.128   3.003   2.381 -0.1344 -1.8971 -0.8090
 4866SOL     OW26230   0.482   3.214   2.043  0.7304  0.3274  0.3293
 4866SOL    HW126231   0.402   3.173   2.075  0.0577  1.5339  0.2019
 4866SOL    HW226232   0.511   3.142   1.988  2.0147 -0.9876  2.7183
 4867SOL     OW26233   4.497   2.405   9.672  0.6351 -0.8478  0.2537
 4867SOL    HW126234   4.506   2.316   9.639  2.3385  0.4818 -2.8133
 4867SOL    HW226235   4.577   2.416   9.724  1.2626 -0.3171 -0.8447
 4868SOL     OW26236   2.361   1.620   3.825 -0.0321 -0.2500  0.8450
 4868SOL    HW126237   2.346   1.713   3.843 -1.9647 -0.1291 -1.4503
 4868SOL    HW226238   2.409   1.599   3.905  2.0209 -0.9731 -0.5568
 4869SOL     OW26239   4.603   3.894   8.845 -0.3045  0.1210  0.0671
 4869SOL    HW126240   4.564   3.887   8.932 -1.0122 -0.7473 -0.3214
 4869SOL    HW226241   4.581   3.984   8.822  1.1379  0.3024 -0.6070
 4870SOL     OW26242   4.645   3.014   8.179 -0.0056  0.2218  0.1712
 4870SOL    HW126243   4.672   3.090   8.231  0.2820  1.2329 -1.4504
 4870SOL    HW226244   4.563   3.054   8.148 -0.2521  0.1845  0.7619
 4871SOL     OW26245   0.086   4.193   8.600  0.3204 -0.2196 -0.0177
 4871SOL    HW126246   0.086   4.289   8.603  1.1531 -0.2534  1.0528
 4871SOL    HW226247   0.172   4.187   8.559  1.1031  4.3683  0.9751
 4872SOL     OW26248   3.991   4.069   4.682  0.0123  0.6679  0.6497
 4872SOL    HW126249   3.972   4.161   4.702 -0.2912  0.5579  0.8933
 4872SOL    HW226250   4.061   4.054   4.746  1.8080  2.4626 -0.8961
 4873SOL     OW26251   2.258   0.727   9.040 -0.1631  0.0901 -0.0631
 4873SOL    HW126252   2.291   0.639   9.056 -0.7600 -0.2353 -0.6324
 4873SOL    HW226253   2.336   0.783   9.043 -1.2381  1.6285 -1.4326
 4874SOL     OW26254   4.286   1.829   4.327  0.5112 -0.1029  0.0519
 4874SOL    HW126255   4.227   1.756   4.349  1.5018 -0.9227 -0.0142
 4874SOL    HW226256   4.282   1.899   4.391  0.2364 -0.5390  0.5162
 4875SOL     OW26257   3.047   2.619  11.116 -0.3802  0.1786  0.2575
 4875SOL    HW126258   3.099   2.686  11.071  0.2681  0.3668  1.2718
 4875SOL    HW226259   2.973   2.606  11.057  0.5789  2.1622 -1.3997
 4876SOL     OW26260   1.532   1.811  10.481  0.4065 -0.3582 -0.1059
 4876SOL    HW126261   1.613   1.761  10.493  1.6464  1.4586 -0.7890
 4876SOL    HW226262   1.495   1.796  10.568 -1.6354  1.0099 -0.7256
 4877SOL     OW26263   3.480   4.153   4.979 -0.3632  0.0115 -0.6794
 4877SOL    HW126264   3.449   4.202   5.055 -0.4754 -2.3050  0.7754
 4877SOL    HW226265   3.477   4.060   5.001  1.1167 -0.2179 -1.4069
 4878SOL     OW26266   0.355   2.562   2.834  0.4285  0.7791 -0.2841
 4878SOL    HW126267   0.445   2.574   2.802  1.2309 -0.0427  1.6345
 4878SOL    HW226268   0.357   2.472   2.867 -0.0776  0.5057 -1.0054
 4879SOL     OW26269   0.479   1.697  12.040  0.5176  0.7879 -0.2238
 4879SOL    HW126270   0.510   1.609  12.015  1.2804  1.3403 -1.2129
 4879SOL    HW226271   0.486   1.748  11.959 -2.9002  1.5802 -0.0183
 4880SOL     OW26272   3.799   2.431   5.495 -0.1262 -0.6531  0.1641
 4880SOL    HW126273   3.745   2.508   5.477  0.4947  0.0696  1.4677
 4880SOL    HW226274   3.771   2.386   5.415 -3.2355  0.4649  0.5905
 4881SOL     OW26275   3.201   1.825   9.268 -0.6816 -0.1130 -0.4383
 4881SOL    HW126276   3.129   1.786   9.317  1.6034 -1.1657  2.0353
 4881SOL    HW226277   3.267   1.851   9.332 -2.1663  0.3119  0.9061
 4882SOL     OW26278   0.413   4.102   8.225 -0.0840  0.2220 -0.0437
 4882SOL    HW126279   0.483   4.145   8.177  0.4741  1.3464  1.7528
 4882SOL    HW226280   0.449   4.013   8.222  0.9352  0.5504  2.4574
 4883SOL     OW26281   1.915   2.048   3.488 -0.4263 -0.2928  0.5890
 4883SOL    HW126282   1.939   2.049   3.581  1.5762 -1.1723  0.0832
 4883SOL    HW226283   1.979   1.980   3.467 -0.6770 -0.8034  1.4808
 4884SOL     OW26284   0.376   3.287   0.562  0.0309 -0.2860 -0.0276
 4884SOL    HW126285   0.453   3.335   0.592 -0.8046  0.9954  0.0661
 4884SOL    HW226286   0.419   3.231   0.496 -1.4158  0.6337 -1.7376
 4885SOL     OW26287   0.650   1.767   3.812 -0.1503 -0.5466 -0.4832
 4885SOL    HW126288   0.697   1.849   3.795  1.6244 -1.6032 -0.6258
 4885SOL    HW226289   0.582   1.777   3.746 -1.6628  2.4433  1.5069
 4886SOL     OW26290   2.532   1.510   5.830  0.1167 -0.3231 -0.1240
 4886SOL    HW126291   2.562   1.434   5.780  0.5583  0.4824 -1.0780
 4886SOL    HW226292   2.443   1.523   5.796  0.4139  3.7545  0.7132
 4887SOL     OW26293   1.350   3.798   4.644  0.2409  0.0760 -0.5998
 4887SOL    HW126294   1.317   3.782   4.556  1.2304 -0.8067 -0.8103
 4887SOL    HW226295   1.441   3.813   4.621  0.5176  0.6717  0.8975
 4888SOL     OW26296   2.157   1.996   2.518  0.1284  0.2792  0.2459
 4888SOL    HW126297   2.209   2.041   2.452 -1.7406  1.4582 -0.4258
 4888SOL    HW226298   2.170   1.902   2.500 -3.2534 -0.2740  0.6862
 4889SOL     OW26299   1.901   2.718   6.470 -0.3424 -0.1669 -0.5329
 4889SOL    HW126300   1.827   2.778   6.465  0.4502  0.8258 -0.3645
 4889SOL    HW226301   1.869   2.654   6.406 -0.2145 -1.0719  0.3118
 4890SOL     OW26302   3.427   2.676  13.046  0.0794  0.5018  0.0923
 4890SOL    HW126303   3.435   2.582  13.066  0.5135  0.5320  0.0574
 4890SOL    HW226304   3.413   2.671  12.952 -0.9605 -1.0771  0.3159
 4891SOL     OW26305   2.904   1.427   1.971 -0.3507 -0.0747 -0.6642
 4891SOL    HW126306   2.920   1.459   2.059 -0.4070 -0.2689 -0.5834
 4891SOL    HW226307   2.894   1.333   1.984 -1.6156  0.4541  2.2114
 4892SOL     OW26308   0.349   1.584   6.363 -0.2959 -0.0615  0.0941
 4892SOL    HW126309   0.434   1.627   6.358  0.1160 -0.4355  3.5794
 4892SOL    HW226310   0.301   1.608   6.283  0.6423 -0.7683 -0.6701
 4893SOL     OW26311   0.434   0.246   8.825  0.2801 -0.3831  0.0710
 4893SOL    HW126312   0.390   0.254   8.740  1.2694  1.0117 -0.3063
 4893SOL    HW226313   0.517   0.291   8.810 -0.8981  2.2888  1.5776
 4894SOL     OW26314   1.951   0.525   4.265  0.1352  0.1478 -0.3751
 4894SOL    HW126315   1.926   0.593   4.328  0.1593 -0.0715 -0.1299
 4894SOL    HW226316   1.872   0.471   4.263  0.4130 -0.1966 -1.8451
 4895SOL     OW26317   1.539   3.366   4.094 -0.2179 -0.0707  0.1729
 4895SOL    HW126318   1.549   3.276   4.125 -2.1598  0.0149  1.0969
 4895SOL    HW226319   1.443   3.372   4.100 -0.2875 -2.9992  2.0576
 4896SOL     OW26320   1.667   1.033   8.325 -0.1773  0.4380 -0.6072
 4896SOL    HW126321   1.592   1.079   8.362 -0.4180 -1.5299  1.3550
 4896SOL    HW226322   1.730   1.048   8.396 -2.3324  0.0828  1.3606
 4897SOL     OW26323   0.254   0.899  10.929 -0.8519 -0.0325  0.5399
 4897SOL    HW126324   0.251   0.870  11.020 -2.9087  0.5226  0.6377
 4897SOL    HW226325   0.309   0.978  10.931 -0.6178 -0.1998  0.6989
 4898SOL     OW26326   1.543   1.422   5.402  0.2269 -0.5042 -0.1201
 4898SOL    HW126327   1.530   1.498   5.345 -1.1725 -2.5674 -2.5621
 4898SOL    HW226328   1.636   1.405   5.386  0.7105  1.1342  0.9744
 4899SOL     OW26329   1.883   2.826   4.840 -0.0959 -0.4959 -0.2205
 4899SOL    HW126330   1.946   2.785   4.781  0.1472 -0.2162 -0.1538
 4899SOL    HW226331   1.854   2.754   4.896 -0.1500 -0.7574 -0.5834
 4900SOL     OW26332   4.405   1.889   6.603  0.6015  0.3299 -0.0380
 4900SOL    HW126333   4.386   1.907   6.695  0.3650  4.1849 -0.8483
 4900SOL    HW226334   4.342   1.818   6.592  0.3579  0.2460  1.9346
 4901SOL     OW26335   1.275   3.413   4.102 -0.1467  0.1324  0.2971
 4901SOL    HW126336   1.280   3.425   4.197  1.3976  0.2024  0.2059
 4901SOL    HW226337   1.297   3.498   4.064 -0.8164 -0.4292 -1.3519
 4902SOL     OW26338   0.825   3.890   5.425  0.1697  0.3248 -0.0844
 4902SOL    HW126339   0.890   3.856   5.486 -0.3222 -1.3774 -0.5166
 4902SOL    HW226340   0.877   3.957   5.381  2.0465 -1.5798 -0.7602
 4903SOL     OW26341   2.154   4.257   1.651 -0.1315  0.2974  0.0753
 4903SOL    HW126342   2.210   4.183   1.675  1.4459  0.9467 -1.6194
 4903SOL    HW226343   2.161   4.302   1.735 -0.4699 -1.8981  1.2775
 4904SOL     OW26344   1.330   1.735   5.134 -0.1239 -0.0636  0.5458
 4904SOL    HW126345   1.298   1.687   5.058  0.1920 -0.4544  0.6603
 4904SOL    HW226346   1.421   1.706   5.142 -0.1226 -0.7436 -1.7449
 4905SOL     OW26347   0.503   0.083  13.040 -0.2252  0.3450  0.2858
 4905SOL    HW126348   0.449   0.106  12.965 -1.0851  0.0329  0.8042
 4905SOL    HW226349   0.591   0.114  13.018  0.6182 -0.8551  1.9275
 4906SOL     OW26350   0.455   1.990  12.562 -0.1589 -0.4195  0.1188
 4906SOL    HW126351   0.393   2.022  12.627  0.7547 -0.4368  0.9975
 4906SOL    HW226352   0.406   2.017  12.484  0.6042  3.2681  0.9363
 4907SOL     OW26353   2.711   3.716   3.037 -0.0793  0.5058  0.4557
 4907SOL    HW126354   2.680   3.639   2.990 -0.4596  0.2862  1.0595
 4907SOL    HW226355   2.803   3.696   3.024 -0.2370 -0.5746  1.0221
 4908SOL     OW26356   3.353   1.295   8.676  0.5272 -0.6590 -0.6593
 4908SOL    HW126357   3.381   1.331   8.592  3.0218 -0.5138  0.2341
 4908SOL    HW226358   3.291   1.359   8.712  2.1523  0.0983  0.7526
 4909SOL     OW26359   3.752   1.158   4.672  0.1881  0.4377 -0.0182
 4909SOL    HW126360   3.657   1.151   4.664  0.2172  0.7692 -0.6678
 4909SOL    HW226361   3.758   1.199   4.759 -2.0649  0.3714  0.1703
 4910SOL     OW26362   3.293   4.290  10.717 -1.0896 -0.0401 -0.3924
 4910SOL    HW126363   3.382   4.259  10.697 -1.4661 -1.4411  0.1183
 4910SOL    HW226364   3.253   4.274  10.632  1.8059 -0.8175 -1.6232
 4911SOL     OW26365   3.699   1.369   5.488 -0.0225  0.1255  0.3372
 4911SOL    HW126366   3.772   1.429   5.469 -0.8203  0.5673 -1.2643
 4911SOL    HW226367   3.663   1.414   5.565 -0.4570  0.1059  0.1443
 4912SOL     OW26368   0.879   1.163   6.407  0.2386  0.1462  0.0906
 4912SOL    HW126369   0.849   1.077   6.439  1.9739 -0.9532 -1.2208
 4912SOL    HW226370   0.800   1.216   6.418 -0.4042 -0.6172 -0.7997
 4913SOL     OW26371   2.066   0.810  10.407 -0.7658  0.0624  0.0551
 4913SOL    HW126372   2.079   0.718  10.427  2.1910  0.5693  0.3476
 4913SOL    HW226373   1.984   0.827  10.453 -2.7196  1.0031 -3.7130
 4914SOL     OW26374   0.978   4.734   1.935  0.2251  0.7942  0.2838
 4914SOL    HW126375   0.909   0.028   1.994  0.1681  2.1476 -0.5093
 4914SOL    HW226376   1.027   4.685   2.000  2.1584  0.5925 -1.3525
 4915SOL     OW26377   3.781   2.372   8.897 -0.2479 -0.0603 -0.0801
 4915SOL    HW126378   3.875   2.383   8.886 -0.1112 -0.7393  0.4941
 4915SOL    HW226379   3.762   2.443   8.959  2.0382 -0.1528  0.7113
 4916SOL     OW26380   3.192   1.700   6.520 -0.2268 -0.5529  0.4074
 4916SOL    HW126381   3.217   1.627   6.576 -3.7187 -1.0130  1.3379
 4916SOL    HW226382   3.237   1.775   6.559  1.5426 -0.9353 -0.8769
 4917SOL     OW26383   1.064   1.246   4.848  0.1403  0.2183 -0.5239
 4917SOL    HW126384   1.140   1.207   4.892  1.2477  2.2357 -0.6400
 4917SOL    HW226385   1.087   1.248   4.755 -0.5410  2.8772 -0.6190
 4918SOL     OW26386   3.871   1.601   5.497 -0.3765  0.2806 -0.2630
 4918SOL    HW126387   3.931   1.556   5.556 -2.5480  0.3477  1.9849
 4918SOL    HW226388   3.937   1.623   5.431 -0.0811 -1.6884 -0.6277
 4919SOL     OW26389   2.066   3.353   6.449  0.4880  0.0718 -0.6103
 4919SOL    HW126390   2.147   3.361   6.499  0.4543 -1.5150 -0.3064
 4919SOL    HW226391   2.080   3.402   6.368 -0.2486 -0.6041 -1.1444
 4920SOL     OW26392   3.730   1.059   6.780  0.4308 -0.4587 -0.4108
 4920SOL    HW126393   3.760   1.082   6.692 -3.2403 -2.0395 -2.0845
 4920SOL    HW226394   3.696   0.971   6.763  1.4639 -1.1619  1.2726
 4921SOL     OW26395   2.074   3.532  13.024 -0.1439  0.1913 -0.7484
 4921SOL    HW126396   2.050   3.458  12.970  1.1359 -1.3708  0.8186
 4921SOL    HW226397   2.139   3.498  13.085 -0.4922  1.6235  0.4390
 4922SOL     OW26398   0.752   3.388  10.023  0.0193 -0.2841  0.0688
 4922SOL    HW126399   0.840   3.407  10.057  0.5761 -1.1715 -0.8746
 4922SOL    HW226400   0.713   3.340  10.096  0.4538  0.4206  0.7764
 4923SOL     OW26401   4.237   2.314   0.753 -0.0621  0.1648 -0.1764
 4923SOL    HW126402   4.215   2.283   0.665  1.6873  0.5100 -0.7282
 4923SOL    HW226403   4.256   2.407   0.742 -0.5146  0.0202 -2.1399
 4924SOL     OW26404   1.695   1.102  16.573 -0.4370 -0.1245 -0.2484
 4924SOL    HW126405   1.732   1.047  16.504 -1.8694 -0.8849 -0.3977
 4924SOL    HW226406   1.680   1.186  16.528  1.9512  0.9803  1.0275
 4925SOL     OW26407   2.952   0.098  14.571 -0.2176 -0.3203 -0.5677
 4925SOL    HW126408   2.978   0.041  14.499  1.7978 -0.5151  0.3103
 4925SOL    HW226409   2.877   0.050  14.606 -0.1942 -0.4605 -0.7078
 4926SOL     OW26410   1.159   3.411   9.639 -0.2511  0.6334 -0.1190
 4926SOL    HW126411   1.226   3.408   9.571  0.9420 -1.3175  1.1620
 4926SOL    HW226412   1.165   3.503   9.666  0.2691  0.8902 -1.1325
 4927SOL     OW26413   0.711   0.580   3.581  0.4106 -0.1859  0.2927
 4927SOL    HW126414   0.798   0.590   3.620  0.2237  0.1528  0.6258
 4927SOL    HW226415   0.741   0.551   3.495  0.5841 -0.4322  0.4350
 4928SOL     OW26416   1.687   2.753   3.651 -0.1386  0.8874  0.1629
 4928SOL    HW126417   1.678   2.833   3.703 -1.4797  1.3001 -0.7204
 4928SOL    HW226418   1.729   2.694   3.714  1.8014 -0.6284 -2.5774
 4929SOL     OW26419   1.690   4.579   2.237 -0.5863  0.0753 -0.4226
 4929SOL    HW126420   1.784   4.593   2.229 -0.9681  1.7335 -1.7922
 4929SOL    HW226421   1.651   4.660   2.269  0.5555 -0.2236  1.7892
 4930SOL     OW26422   1.170   1.342   8.454  0.1845 -0.4094 -0.1007
 4930SOL    HW126423   1.193   1.404   8.384 -0.9596 -1.4448 -1.4022
 4930SOL    HW226424   1.249   1.334   8.508 -0.5252  0.4327  1.0658
 4931SOL     OW26425   0.736   0.223   7.202  0.2491 -0.0597 -0.2308
 4931SOL    HW126426   0.696   0.257   7.121  1.9683  0.6970 -0.7781
 4931SOL    HW226427   0.764   0.310   7.231  1.8823  0.3437 -2.9076
 4932SOL     OW26428   3.970   1.541  15.064  0.0996  0.2485  0.2289
 4932SOL    HW126429   3.930   1.589  14.992 -0.9846 -2.4455 -0.9638
 4932SOL    HW226430   4.052   1.516  15.020 -0.4115  0.7311 -0.9950
 4933SOL     OW26431   1.311   2.799  14.561 -0.0339  0.4379  0.2356
 4933SOL    HW126432   1.228   2.754  14.548 -0.0724  0.0998  1.6519
 4933SOL    HW226433   1.291   2.863  14.629 -0.2689  0.0121  0.5645
 4934SOL     OW26434   4.715   0.501   8.979  0.3109 -0.2046  0.1511
 4934SOL    HW126435   0.055   0.474   9.029  0.1309  0.1018  0.5959
 4934SOL    HW226436   4.705   0.423   8.924 -0.6034  1.3596 -1.9225
 4935SOL     OW26437   1.610   3.410   0.360  0.4758 -0.1493 -0.3376
 4935SOL    HW126438   1.544   3.357   0.404  0.1252 -1.8194 -2.9194
 4935SOL    HW226439   1.677   3.351   0.327 -1.0332 -0.6720 -2.4474
 4936SOL     OW26440   1.937   4.258   5.357 -0.0785  0.6141  0.3740
 4936SOL    HW126441   1.876   4.278   5.286  0.8606  2.2260  0.0294
 4936SOL    HW226442   1.955   4.165   5.341  0.6193  0.9397 -0.6739
 4937SOL     OW26443   2.397   3.394   7.695  0.4548 -0.0325  0.1200
 4937SOL    HW126444   2.305   3.413   7.674  0.5435  0.7007  0.3845
 4937SOL    HW226445   2.440   3.479   7.686 -1.4532  0.8460 -0.6630
 4938SOL     OW26446   1.481   0.243   5.301 -0.2880 -0.1433  0.3651
 4938SOL    HW126447   1.419   0.310   5.327 -0.7753  0.3202 -1.9782
 4938SOL    HW226448   1.509   0.280   5.217 -2.6873  0.8494  0.0129
 4939SOL     OW26449   0.550   1.655   9.080  0.2213  0.0696  0.1596
 4939SOL    HW126450   0.606   1.659   9.003 -0.9822 -1.8922 -0.8222
 4939SOL    HW226451   0.478   1.709   9.046  2.1986  2.7901  0.3002
 4940SOL     OW26452   3.649   2.842   2.607 -0.6404 -0.1333  0.0038
 4940SOL    HW126453   3.587   2.774   2.633 -0.1877  0.3973  2.5007
 4940SOL    HW226454   3.665   2.886   2.691  0.0863 -0.1223 -0.1429
 4941SOL     OW26455   2.121   2.421  14.378 -0.0411  0.3668  0.0006
 4941SOL    HW126456   2.070   2.490  14.337 -1.0085  0.2352  0.9888
 4941SOL    HW226457   2.161   2.387  14.298 -1.5933 -1.5571  0.0275
 4942SOL     OW26458   0.280   0.548   8.693 -0.6676 -0.0734 -0.0966
 4942SOL    HW126459   0.279   0.452   8.693  0.6231 -0.0860  0.4836
 4942SOL    HW226460   0.195   0.567   8.654  0.0366  0.0906 -1.5551
 4943SOL     OW26461   1.815   1.277   3.968 -0.9219 -0.0893 -0.3009
 4943SOL    HW126462   1.904   1.312   3.962 -0.5264 -1.3452 -1.6599
 4943SOL    HW226463   1.840   1.187   3.949 -0.9201  0.1143 -1.2824
 4944SOL     OW26464   4.084   0.735   6.877  0.3251 -0.1551 -0.7656
 4944SOL    HW126465   4.144   0.735   6.802  0.5233 -1.1378 -0.6084
 4944SOL    HW226466   4.116   0.812   6.924 -0.2782  0.3067 -1.1016
 4945SOL     OW26467   0.155   1.902   3.944  0.3239  0.2826  0.4578
 4945SOL    HW126468   0.110   1.974   3.899 -0.4480  0.3523  1.3471
 4945SOL    HW226469   0.162   1.927   4.036  2.7820  3.1411 -0.4911
 4946SOL     OW26470   0.334   1.269   2.872 -0.2126 -1.0369  0.3156
 4946SOL    HW126471   0.426   1.271   2.899 -0.2530  0.4302  0.3345
 4946SOL    HW226472   0.350   1.209   2.799  0.3883  2.9329 -2.8799
 4947SOL     OW26473   1.104   0.576   8.790 -0.0508 -0.3291  0.2077
 4947SOL    HW126474   1.039   0.631   8.746  0.4319  0.7112  0.8021
 4947SOL    HW226475   1.175   0.569   8.726 -1.9663  2.2213 -2.1788
 4948SOL     OW26476   2.942   4.629   3.560 -0.1478 -0.5293 -1.4874
 4948SOL    HW126477   2.923   4.607   3.652 -0.2102 -1.0296 -1.6203
 4948SOL    HW226478   2.923   4.723   3.552  0.0801 -0.2520  1.0222
 4949SOL     OW26479   4.574   4.330   5.194  0.3426  0.0659  0.1900
 4949SOL    HW126480   4.492   4.318   5.147 -0.0753  1.0428  0.6746
 4949SOL    HW226481   4.573   4.424   5.180 -0.1443 -0.1656 -1.2660
 4950SOL     OW26482   3.516   0.143  12.882 -0.0449  0.7087 -0.3190
 4950SOL    HW126483   3.464   0.114  12.808  1.5586 -0.1026 -1.1241
 4950SOL    HW226484   3.539   0.068  12.937 -0.2523  2.3085  1.9890
 4951SOL     OW26485   3.087   2.232   3.661 -0.0535 -0.0195  0.1597
 4951SOL    HW126486   3.150   2.187   3.604  0.8988  0.8360  0.5462
 4951SOL    HW226487   3.142   2.304   3.692  0.7750 -0.5611 -0.0531
 4952SOL     OW26488   2.467   3.756   1.192 -0.6274  0.4582 -0.2189
 4952SOL    HW126489   2.509   3.689   1.246  1.0418  2.0093  0.4133
 4952SOL    HW226490   2.539   3.819   1.185  0.1065 -0.3372  0.0855
 4953SOL     OW26491   4.067   1.824   9.265  0.2859 -0.0226  0.5545
 4953SOL    HW126492   3.999   1.868   9.214  1.8280 -0.7218 -2.1529
 4953SOL    HW226493   4.099   1.902   9.308  0.5860 -0.2906  0.8146
 4954SOL     OW26494   4.329   4.156  11.321 -0.1188 -0.0476  0.5038
 4954SOL    HW126495   4.352   4.124  11.408  1.7874  0.3636  0.1400
 4954SOL    HW226496   4.404   4.209  11.293  0.1463 -0.2156  0.8930
 4955SOL     OW26497   2.331   2.482  14.500 -0.1269  0.0886 -0.2692
 4955SOL    HW126498   2.255   2.455  14.447  0.4053  0.2868 -1.1428
 4955SOL    HW226499   2.290   2.547  14.558 -0.0863 -1.3481  1.3460
 4956SOL     OW26500   0.904   1.515  11.481  0.7226 -0.4725 -0.6461
 4956SOL    HW126501   0.857   1.463  11.546  1.1135 -3.7498 -3.0045
 4956SOL    HW226502   0.994   1.513  11.513  1.1666  1.1849 -1.7419
 4957SOL     OW26503   3.780   3.743  14.210  0.0179 -0.4835  0.4113
 4957SOL    HW126504   3.770   3.692  14.291  2.6255  0.6983  1.4870
 4957SOL    HW226505   3.720   3.815  14.229 -1.7385 -1.9833  0.5695
 4958SOL     OW26506   4.516   4.354   1.366  0.4048  0.3390 -0.4147
 4958SOL    HW126507   4.483   4.332   1.279  0.8611 -2.1066  0.0154
 4958SOL    HW226508   4.439   4.322   1.413 -0.9654  2.7595 -1.0200
 4959SOL     OW26509   0.432   3.811   8.152 -0.0334 -0.5912 -0.0939
 4959SOL    HW126510   0.477   3.751   8.211 -1.1933 -1.0114  0.3763
 4959SOL    HW226511   0.353   3.758   8.139 -1.4785  1.4269  0.4274
 4960SOL     OW26512   4.709   0.060   2.352 -0.1505 -0.4014 -0.4968
 4960SOL    HW126513   4.723   4.708   2.319  1.3716 -0.4745  0.3594
 4960SOL    HW226514   4.704   0.049   2.447 -1.9793 -1.0307 -0.6640
 4961SOL     OW26515   2.893   4.119   2.137  0.3665  0.6712  0.3172
 4961SOL    HW126516   2.929   4.097   2.223  3.0914 -0.3630 -1.0854
 4961SOL    HW226517   2.836   4.046   2.115 -0.0417  1.4678 -1.2359
 4962SOL     OW26518   0.625   1.479   7.355 -0.0393  0.6629 -0.4744
 4962SOL    HW126519   0.713   1.473   7.391 -0.6952  4.4570  1.7077
 4962SOL    HW226520   0.576   1.486   7.437  1.6953 -0.3694  0.6328
 4963SOL     OW26521   4.111   3.883   4.890  0.0436  0.3186  0.3690
 4963SOL    HW126522   4.071   3.810   4.844  0.4451 -0.0241  0.5712
 4963SOL    HW226523   4.204   3.863   4.883 -0.3054 -0.9672 -0.4716
 4964SOL     OW26524   4.658   0.879   8.349  1.5387 -0.4327 -0.2744
 4964SOL    HW126525   4.719   0.937   8.396  2.1036  0.0128 -1.5425
 4964SOL    HW226526   4.627   0.939   8.281 -1.4078 -0.1284  1.3263
 4965SOL     OW26527   2.059   2.603   5.783  0.2888 -0.2842  0.1407
 4965SOL    HW126528   2.097   2.679   5.827  0.1681  0.2578 -0.6978
 4965SOL    HW226529   2.114   2.597   5.705 -1.7997  1.0321 -1.4251
 4966SOL     OW26530   2.721   2.591  14.132  0.0576 -0.0055 -0.4936
 4966SOL    HW126531   2.673   2.560  14.209 -1.0849 -2.1297 -2.0479
 4966SOL    HW226532   2.657   2.559  14.069  0.4318  0.2689 -1.0057
 4967SOL     OW26533   2.736   3.912   2.783 -0.1955 -0.1820  0.0559
 4967SOL    HW126534   2.662   3.958   2.744  0.5787  1.0776  0.0916
 4967SOL    HW226535   2.707   3.821   2.782  0.1611 -0.2965 -0.0443
 4968SOL     OW26536   1.829   4.116   4.733  0.3123  0.1754  0.4621
 4968SOL    HW126537   1.866   4.041   4.687  2.2343  0.8106  0.9484
 4968SOL    HW226538   1.861   4.099   4.822  1.8294  2.8574  0.4613
 4969SOL     OW26539   2.850   4.417   3.227  0.2248 -0.3046 -0.8441
 4969SOL    HW126540   2.895   4.383   3.149  1.6371 -0.4241  0.0086
 4969SOL    HW226541   2.877   4.509   3.226 -0.4979 -0.1099 -2.6934
 4970SOL     OW26542   2.919   1.826   5.169  0.0542 -0.5217  0.5901
 4970SOL    HW126543   2.840   1.785   5.135 -0.8719  0.8485  1.1192
 4970SOL    HW226544   2.894   1.918   5.174 -0.4685 -0.7317  1.7458
 4971SOL     OW26545   4.102   0.860  10.648 -0.4435  0.6037  0.3300
 4971SOL    HW126546   4.047   0.782  10.642  0.7637 -0.1442 -1.2509
 4971SOL    HW226547   4.166   0.834  10.714 -2.2762 -1.5707  1.2252
 4972SOL     OW26548   0.705   2.602   2.152  0.0870 -0.3135  0.2284
 4972SOL    HW126549   0.651   2.668   2.197 -1.4603 -0.3478 -1.5998
 4972SOL    HW226550   0.679   2.516   2.185 -1.0269 -0.7052 -1.7110
 4973SOL     OW26551   0.830   0.900  11.366  0.3381  0.0208  0.6388
 4973SOL    HW126552   0.804   0.915  11.275  0.3832 -0.1158  0.6045
 4973SOL    HW226553   0.861   0.810  11.362 -0.1781  0.0471 -3.6843
 4974SOL     OW26554   2.302   2.988  10.965  0.3624  0.9270 -0.3915
 4974SOL    HW126555   2.215   2.972  11.002  2.4559  1.0036  4.6031
 4974SOL    HW226556   2.323   2.897  10.942 -0.0189  1.2645 -2.0353
 4975SOL     OW26557   3.490   2.105  10.398  0.5928 -0.2927  0.8262
 4975SOL    HW126558   3.535   2.108  10.483  1.5140  1.6964  0.2719
 4975SOL    HW226559   3.414   2.158  10.422  1.2943  2.1754 -2.4222
 4976SOL     OW26560   1.670   3.243   7.735  0.1701  0.2959 -0.3813
 4976SOL    HW126561   1.658   3.267   7.827 -1.7605  0.3133 -0.6446
 4976SOL    HW226562   1.653   3.327   7.693 -2.4492 -0.9531 -1.8671
 4977SOL     OW26563   0.514   4.260  15.338 -0.2900 -0.2417 -0.2054
 4977SOL    HW126564   0.486   4.261  15.246 -0.7124 -2.8404 -0.0938
 4977SOL    HW226565   0.522   4.353  15.362 -1.0063 -0.3216  0.3434
 4978SOL     OW26566   4.307   0.775  10.824  0.3291 -0.0248 -0.1805
 4978SOL    HW126567   4.310   0.856  10.875  0.7038 -0.5062  0.5625
 4978SOL    HW226568   4.400   0.768  10.803  0.1437  1.2684 -1.4536
 4979SOL     OW26569   2.238   3.729  12.952 -0.7751  0.4691  0.5655
 4979SOL    HW126570   2.188   3.771  13.023 -0.9139  0.6530  0.3623
 4979SOL    HW226571   2.211   3.638  12.958  1.1712 -0.3028 -2.3594
 4980SOL     OW26572   0.217   3.131   2.121  0.1677  0.6354  0.2958
 4980SOL    HW126573   0.180   3.219   2.111 -0.2596  0.2385 -1.6382
 4980SOL    HW226574   0.165   3.109   2.198  1.1807 -0.7348  0.5810
 4981SOL     OW26575   3.320   3.937   9.439 -0.7402  0.0227  0.7923
 4981SOL    HW126576   3.388   3.892   9.389 -1.7150 -0.4218 -0.1367
 4981SOL    HW226577   3.296   4.009   9.380  0.8321  0.2256  0.4024
 4982SOL     OW26578   1.566   3.960   3.348 -0.3881  0.1138 -0.2143
 4982SOL    HW126579   1.476   3.928   3.346 -0.9981  1.7879 -0.0516
 4982SOL    HW226580   1.608   3.878   3.322  0.7174  0.1361  1.4878
 4983SOL     OW26581   3.653   0.793   6.724  0.2414 -0.7764  0.3295
 4983SOL    HW126582   3.646   0.713   6.775  2.0640  0.5028  2.6141
 4983SOL    HW226583   3.680   0.770   6.635 -0.5923  3.3572 -0.9939
 4984SOL     OW26584   3.743   1.217   4.953 -0.4895 -0.3181  0.6374
 4984SOL    HW126585   3.828   1.179   4.974 -0.5746  0.1016  1.7291
 4984SOL    HW226586   3.693   1.197   5.032 -0.5165  1.8784  1.1799
 4985SOL     OW26587   2.522   3.541   5.645 -0.4061 -0.2398 -0.1148
 4985SOL    HW126588   2.520   3.634   5.622  1.7410 -0.6329 -1.9521
 4985SOL    HW226589   2.461   3.509   5.579 -1.2933 -0.2349  0.7140
 4986SOL     OW26590   3.082   0.307  12.833  0.4383 -0.2611  0.0098
 4986SOL    HW126591   3.159   0.342  12.879  0.3268  0.4893 -0.3758
 4986SOL    HW226592   3.050   0.247  12.900  0.4578  2.1325  2.1985
 4987SOL     OW26593   3.416   2.128   4.594 -0.2624  0.1210 -0.0609
 4987SOL    HW126594   3.396   2.203   4.539  2.5135  1.4687  0.8003
 4987SOL    HW226595   3.359   2.141   4.670  1.3535  2.4225  0.7583
 4988SOL     OW26596   0.205   0.174   7.232 -0.4409  0.5778 -0.4733
 4988SOL    HW126597   0.293   0.143   7.254 -0.3707  2.0737  1.3902
 4988SOL    HW226598   0.210   0.177   7.136 -0.7060  1.9961 -0.4487
 4989SOL     OW26599   4.321   2.760   4.991 -0.2131 -0.1311 -0.9426
 4989SOL    HW126600   4.370   2.693   4.943 -1.2791 -1.3462 -0.3279
 4989SOL    HW226601   4.400   2.801   5.027 -0.2817  0.2717 -1.2516
 4990SOL     OW26602   2.047   2.718  14.875  0.6106 -0.3220 -0.2156
 4990SOL    HW126603   1.960   2.755  14.889  0.6181  0.4207 -2.1443
 4990SOL    HW226604   2.091   2.776  14.938 -1.5225 -1.1280  2.0220
 4991SOL     OW26605   2.125   3.099  13.676  0.4713 -0.4286 -0.8944
 4991SOL    HW126606   2.068   3.131  13.746  0.3145 -0.6247 -0.9320
 4991SOL    HW226607   2.062   3.125  13.609  1.5563  2.2554 -0.8571
 4992SOL     OW26608   1.460   0.849   0.654  0.2154  0.1177 -0.4553
 4992SOL    HW126609   1.403   0.826   0.727  1.0125 -2.3987 -0.6168
 4992SOL    HW226610   1.495   0.934   0.682 -0.6739  0.3645 -0.1093
 4993SOL     OW26611   1.423   2.440   7.142 -0.3432  0.4716  0.1839
 4993SOL    HW126612   1.420   2.529   7.108 -3.2122 -0.0987 -1.0175
 4993SOL    HW226613   1.485   2.462   7.212 -0.6000 -0.2016  0.6284
 4994SOL     OW26614   1.613   2.428  10.599 -0.0409 -0.8876 -0.2872
 4994SOL    HW126615   1.637   2.520  10.588 -0.4159 -0.7113  0.3643
 4994SOL    HW226616   1.687   2.399  10.651  0.6473  1.7555  0.1929
 4995SOL     OW26617   2.140   4.713   5.369 -0.1952  0.5053 -0.3514
 4995SOL    HW126618   2.077   4.643   5.386  0.0289  1.0014  2.5971
 4995SOL    HW226619   2.119   0.024   5.449  0.6704 -2.0908  1.4264
 4996SOL     OW26620   0.393   1.522   3.923  0.1262  0.3371  0.3178
 4996SOL    HW126621   0.397   1.427   3.924  3.3310  0.4454  0.4409
 4996SOL    HW226622   0.407   1.545   3.831 -1.6214  3.1122  0.7510
 4997SOL     OW26623   3.716   1.248  15.467 -0.0034 -0.7867 -0.6618
 4997SOL    HW126624   3.749   1.163  15.438 -0.1699 -0.5436 -1.5557
 4997SOL    HW226625   3.806   1.277  15.485 -1.2484  3.9240 -2.1604
 4998SOL     OW26626   3.991   4.612   2.557  0.1642 -0.3270  0.0492
 4998SOL    HW126627   3.917   4.648   2.604  0.0079  0.0526 -0.4792
 4998SOL    HW226628   4.040   4.695   2.557 -1.0061  0.3826 -3.2501
 4999SOL     OW26629   3.341   2.028  15.734  0.3045 -0.3150 -0.2099
 4999SOL    HW126630   3.395   2.031  15.655  1.1620  1.9283  0.4834
 4999SOL    HW226631   3.260   2.057  15.692  0.7507 -0.0955 -0.9235
 5000SOL     OW26632   3.883   4.494  13.977 -0.1483  0.4981  0.5597
 5000SOL    HW126633   3.796   4.491  13.938 -0.1092 -1.1676  0.5837
 5000SOL    HW226634   3.908   4.404  13.997 -1.0124  0.0543 -0.3293
 5001SOL     OW26635   3.385   0.331   4.111  0.1829 -0.2895  0.4257
 5001SOL    HW126636   3.419   0.412   4.149  3.4584 -0.4565 -2.1548
 5001SOL    HW226637   3.295   0.337   4.142  0.0666  0.1843  0.0046
 5002SOL     OW26638   2.971   2.839  11.581 -0.3727  0.3093  0.3753
 5002SOL    HW126639   2.997   2.750  11.602  0.6205  0.4807 -0.1315
 5002SOL    HW226640   2.945   2.836  11.489  0.4952  4.5456 -0.0140
 5003SOL     OW26641   0.739   4.196   7.052 -0.0978  0.5568 -0.3682
 5003SOL    HW126642   0.690   4.129   7.100  0.9934  0.5030  0.6898
 5003SOL    HW226643   0.677   4.208   6.981 -1.8438  0.0150  1.0768
 5004SOL     OW26644   1.229   3.120  14.730  0.3281  0.4450  0.2306
 5004SOL    HW126645   1.206   3.212  14.732 -0.1042  0.3800 -2.2201
 5004SOL    HW226646   1.170   3.072  14.789 -0.6521  0.1219 -1.0180
 5005SOL     OW26647   1.029   3.264   4.193 -0.2251  0.1398  0.2866
 5005SOL    HW126648   1.059   3.182   4.153  1.1838  1.3715 -1.1953
 5005SOL    HW226649   1.113   3.308   4.205  0.3087 -0.7654 -0.1599
 5006SOL     OW26650   3.233   4.310   5.858  0.2858  0.2733  0.0951
 5006SOL    HW126651   3.169   4.316   5.929  0.5506 -0.6494  0.4173
 5006SOL    HW226652   3.213   4.223   5.825  0.9610  0.1810 -0.0686
 5007SOL     OW26653   4.208   3.833   9.270 -0.2560  0.4013  0.3073
 5007SOL    HW126654   4.145   3.764   9.289 -0.6244  0.7099  0.1996
 5007SOL    HW226655   4.260   3.831   9.351  2.1778  1.5160 -1.2192
 5008SOL     OW26656   2.246   3.871   8.882  0.3718  0.0629  0.2363
 5008SOL    HW126657   2.185   3.914   8.942  2.4760  1.4638  1.3725
 5008SOL    HW226658   2.224   3.907   8.796  1.7242 -2.1972 -1.0469
 5009SOL     OW26659   2.588   2.531  15.789 -0.1899 -0.2693  0.2843
 5009SOL    HW126660   2.496   2.507  15.778  0.0666 -1.9090  1.6860
 5009SOL    HW226661   2.610   2.522  15.882 -3.1890  2.0597  1.2188
 5010SOL     OW26662   2.274   1.397   2.046 -0.4328 -0.6089 -0.1870
 5010SOL    HW126663   2.357   1.361   2.015  0.2502  0.8139  0.0062
 5010SOL    HW226664   2.217   1.323   2.022 -0.4397 -0.8727  0.6636
 5011SOL     OW26665   0.286   1.139   9.521 -0.4115 -0.0738  0.3603
 5011SOL    HW126666   0.303   1.045   9.507  1.9328  0.7047 -2.1216
 5011SOL    HW226667   0.331   1.150   9.605  0.7120  3.6900 -0.7285
 5012SOL     OW26668   1.624   1.369   7.580 -0.1161  0.4967 -0.3701
 5012SOL    HW126669   1.663   1.395   7.663 -0.1813  4.9787 -1.7876
 5012SOL    HW226670   1.532   1.388   7.601 -0.2165  0.7064 -1.0233
 5013SOL     OW26671   3.209   0.427  12.629  0.3196 -0.0561 -0.4537
 5013SOL    HW126672   3.211   0.356  12.566 -0.3465  0.3996 -0.9794
 5013SOL    HW226673   3.164   0.380  12.699  2.9211 -1.6407  0.1598
 5014SOL     OW26674   2.081   0.871   4.687  0.4089  0.0445 -0.0291
 5014SOL    HW126675   2.050   0.824   4.765  2.1722 -0.4964  0.3338
 5014SOL    HW226676   2.086   0.959   4.725 -0.6567 -0.1819  0.6453
 5015SOL     OW26677   2.489   0.039   7.588 -0.3264 -0.1413 -0.0293
 5015SOL    HW126678   2.521   0.101   7.654 -0.3874 -0.1019 -0.0376
 5015SOL    HW226679   2.494   4.687   7.622  1.4788 -0.2453 -0.5346
 5016SOL     OW26680   3.659   3.281  10.478  0.5834 -0.2892 -0.0170
 5016SOL    HW126681   3.645   3.205  10.535  0.9513  0.1518  0.6529
 5016SOL    HW226682   3.597   3.244  10.415 -0.5090  0.7023  0.4834
 5017SOL     OW26683   3.517   3.281   9.216  0.1050  0.0653  0.3492
 5017SOL    HW126684   3.453   3.216   9.246  0.0692 -0.0437  0.0320
 5017SOL    HW226685   3.524   3.348   9.284 -1.0211  1.5431 -0.9813
 5018SOL     OW26686   1.979   0.719  15.773 -0.3326  0.1754 -0.4119
 5018SOL    HW126687   2.037   0.784  15.812 -0.6583  2.0985 -3.1307
 5018SOL    HW226688   2.025   0.716  15.689  1.2471 -0.4925  0.4773
 5019SOL     OW26689   1.190   4.316   1.977 -0.0952 -0.1956 -0.8657
 5019SOL    HW126690   1.141   4.294   1.898 -0.1060  0.2100 -0.9753
 5019SOL    HW226691   1.124   4.319   2.046 -0.1232  2.1995 -0.9947
 5020SOL     OW26692   2.629   3.795   8.758  0.3403 -0.2511 -0.7143
 5020SOL    HW126693   2.632   3.717   8.703 -0.0413 -1.6334  1.2330
 5020SOL    HW226694   2.713   3.836   8.739 -0.9355  2.2276 -1.0963
 5021SOL     OW26695   2.818   4.179   8.850  0.5290  0.5430 -0.0484
 5021SOL    HW126696   2.806   4.262   8.805  0.1329  0.2362 -0.5106
 5021SOL    HW226697   2.888   4.198   8.913  1.7761 -0.2070 -1.2020
 5022SOL     OW26698   0.280   1.020   9.967  0.0724  0.2102  0.2646
 5022SOL    HW126699   0.370   1.042   9.988  0.2285  2.2024 -2.4595
 5022SOL    HW226700   0.277   0.927   9.991 -2.4594 -0.1626 -1.3757
 5023SOL     OW26701   4.234   3.852   1.630  0.0346  0.2725  0.2580
 5023SOL    HW126702   4.279   3.786   1.681  0.5824 -0.4458 -1.1629
 5023SOL    HW226703   4.235   3.929   1.687 -2.0740 -0.0405  0.7079
 5024SOL     OW26704   1.890   2.841   8.527  0.0097  0.3570 -0.1699
 5024SOL    HW126705   1.957   2.772   8.526 -1.8254 -1.3670 -3.2024
 5024SOL    HW226706   1.805   2.799   8.514  0.3229 -0.1838 -0.4933
 5025SOL     OW26707   4.526   1.776  10.867 -0.9837 -0.4213 -0.0099
 5025SOL    HW126708   4.460   1.738  10.809  0.8603 -3.9909  0.1865
 5025SOL    HW226709   4.600   1.774  10.806 -1.7242  1.1282 -0.9746
 5026SOL     OW26710   3.710   3.582  17.109  0.2998  0.2000 -0.0816
 5026SOL    HW126711   3.617   3.559  17.103  0.2792 -0.0875  1.2543
 5026SOL    HW226712   3.716   3.650  17.176  1.0554  0.3299 -0.2902
 5027SOL     OW26713   3.833   2.848   2.996 -0.7469  0.1072  0.0199
 5027SOL    HW126714   3.822   2.764   2.952  0.3266  0.1159 -0.2624
 5027SOL    HW226715   3.773   2.902   2.945 -0.9608 -1.5213 -1.4642
 5028SOL     OW26716   0.271   1.628   8.006 -0.7775 -0.2749  0.0397
 5028SOL    HW126717   0.304   1.687   7.938  2.6240  0.4726  2.3604
 5028SOL    HW226718   0.337   1.635   8.074  0.1159 -0.9018 -0.7717
 5029SOL     OW26719   3.076   3.020   6.106  1.0224 -0.3913 -0.3951
 5029SOL    HW126720   3.001   2.976   6.147 -1.7438  4.8003  0.0982
 5029SOL    HW226721   3.051   3.113   6.106  1.2828 -0.3369 -3.0395
 5030SOL     OW26722   4.680   2.962   1.837  0.1139  0.1126  0.6061
 5030SOL    HW126723   4.652   2.872   1.821  1.8427 -0.3630  0.2860
 5030SOL    HW226724   0.021   2.949   1.890 -0.1308 -0.3713  0.8427
 5031SOL     OW26725   2.236   0.862   4.942 -0.1355  0.3932 -0.0628
 5031SOL    HW126726   2.306   0.828   4.999 -1.1831 -1.2113  0.2677
 5031SOL    HW226727   2.297   0.873   4.869 -1.3794  2.2477 -0.8300
 5032SOL     OW26728   0.284   3.855   9.822  0.6774 -0.2804 -0.0181
 5032SOL    HW126729   0.267   3.927   9.883 -0.3104  0.9915 -1.7907
 5032SOL    HW226730   0.374   3.884   9.807  0.8906 -0.7268  0.3894
 5033SOL     OW26731   0.981   3.463  10.124 -0.0963  0.0648 -0.0288
 5033SOL    HW126732   0.985   3.451  10.219  1.9823 -1.2370 -0.2718
 5033SOL    HW226733   0.963   3.557  10.125  1.3328  0.3615 -1.2376
 5034SOL     OW26734   3.123   3.716  13.770  0.1314 -0.0150  0.2566
 5034SOL    HW126735   3.129   3.632  13.725 -0.9203  0.3134 -0.5044
 5034SOL    HW226736   3.215   3.739  13.759  0.2133 -0.8406 -0.7917
 5035SOL     OW26737   0.154   2.036  13.658 -0.3408 -0.7284 -0.3904
 5035SOL    HW126738   0.211   1.977  13.609  0.1565 -0.1946 -0.4400
 5035SOL    HW226739   0.178   2.114  13.609 -0.5248 -0.8888 -0.7415
 5036SOL     OW26740   2.387   2.606   5.793  0.0043  0.3911  0.4330
 5036SOL    HW126741   2.410   2.579   5.882  0.6878 -2.2127 -0.5238
 5036SOL    HW226742   2.415   2.697   5.794 -0.0828  0.4178  0.4979
 5037SOL     OW26743   4.185   1.548   7.734  0.3038 -0.3263  0.1240
 5037SOL    HW126744   4.249   1.572   7.668 -0.3622  0.3649 -0.2730
 5037SOL    HW226745   4.191   1.452   7.740  3.7189 -0.2658 -2.3962
 5038SOL     OW26746   1.182   0.928   9.338 -0.5350  0.2402 -0.6195
 5038SOL    HW126747   1.153   0.951   9.249 -1.2813 -1.1123 -0.7297
 5038SOL    HW226748   1.176   0.833   9.333  1.6062  0.1179 -0.8447
 5039SOL     OW26749   3.285   2.640   1.200 -0.3111  0.3324  0.0093
 5039SOL    HW126750   3.198   2.676   1.181 -0.7672 -0.4729  0.5922
 5039SOL    HW226751   3.330   2.643   1.116  1.2875  0.4607  0.8713
 5040SOL     OW26752   2.985   2.096   4.934  0.0208  0.0146 -0.7528
 5040SOL    HW126753   2.925   2.154   4.982  1.1270  0.9871 -0.5321
 5040SOL    HW226754   3.056   2.155   4.911 -1.6356  2.1934 -0.3009
 5041SOL     OW26755   2.983   2.586  11.702  0.0164 -0.2771 -0.8072
 5041SOL    HW126756   2.955   2.599  11.793 -1.0600 -0.3663 -1.1248
 5041SOL    HW226757   2.897   2.588  11.660 -0.9047  1.9229  1.1715
 5042SOL     OW26758   0.574   4.022   3.598  0.3629  0.0732  0.3579
 5042SOL    HW126759   0.643   3.958   3.579  0.1197 -0.2597  0.5936
 5042SOL    HW226760   0.612   4.089   3.542 -0.1801  1.3884  1.5682
 5043SOL     OW26761   1.868   2.739  13.961 -0.7110  0.2665  1.1617
 5043SOL    HW126762   1.936   2.705  13.904 -0.3017  0.3294  1.6078
 5043SOL    HW226763   1.843   2.821  13.919 -1.1359 -0.8414 -0.6963
 5044SOL     OW26764   3.315   2.787   6.959  0.4494  0.1515  0.4097
 5044SOL    HW126765   3.234   2.822   6.922  1.0767 -0.8661 -1.9051
 5044SOL    HW226766   3.332   2.858   7.021 -1.6359  3.1941 -2.5144
 5045SOL     OW26767   4.282   2.656   2.328 -0.0493  0.4875 -0.0425
 5045SOL    HW126768   4.284   2.709   2.248 -3.0867  0.0441 -0.4374
 5045SOL    HW226769   4.325   2.577   2.295 -0.8515 -0.1624  0.4494
 5046SOL     OW26770   1.704   2.672   5.176  0.4092  0.3564  0.3025
 5046SOL    HW126771   1.663   2.757   5.158 -0.2641 -0.1684 -0.6268
 5046SOL    HW226772   1.673   2.661   5.266 -1.9089 -3.7576 -0.9901
 5047SOL     OW26773   4.058   4.252   7.731  0.4195 -0.2455  0.3798
 5047SOL    HW126774   4.052   4.304   7.811 -1.7399  2.2256 -1.3709
 5047SOL    HW226775   4.047   4.160   7.755  0.9331  0.1228  2.0127
 5048SOL     OW26776   1.741   3.680   8.419 -0.2678 -0.3555  0.0577
 5048SOL    HW126777   1.817   3.737   8.429  0.1927 -1.1472  1.1057
 5048SOL    HW226778   1.762   3.604   8.474  0.1294  1.6418  2.6529
 5049SOL     OW26779   3.946   1.098   5.080  0.1722 -0.2531 -0.3630
 5049SOL    HW126780   3.885   1.032   5.113 -0.5089 -0.0427 -1.1985
 5049SOL    HW226781   4.018   1.046   5.044  2.7100  1.3303  2.4271
 5050SOL     OW26782   0.785   2.891   6.162 -0.1396  0.3479  0.3510
 5050SOL    HW126783   0.730   2.964   6.192 -2.8963 -0.8476 -1.7957
 5050SOL    HW226784   0.770   2.824   6.229  2.3674 -0.9977 -0.4471
 5051SOL     OW26785   0.205   4.221   0.823  0.8313 -0.2723  1.2613
 5051SOL    HW126786   0.161   4.144   0.787 -1.1064  2.1103 -1.5309
 5051SOL    HW226787   0.128   4.279   0.822  0.1509 -1.1804  0.3530
 5052SOL     OW26788   0.731   0.347  14.185 -0.0599 -0.3030 -0.0026
 5052SOL    HW126789   0.741   0.269  14.240  2.1441 -0.1806 -0.2460
 5052SOL    HW226790   0.694   0.313  14.103 -2.6184  2.2566  0.0857
 5053SOL     OW26791   4.292   2.498  15.059 -0.0656  0.1055  0.2029
 5053SOL    HW126792   4.266   2.433  15.125  0.6865 -0.1254  0.2648
 5053SOL    HW226793   4.386   2.497  15.077  0.6858 -0.3821 -3.8795
 5054SOL     OW26794   0.131   3.429   0.978 -0.1335 -0.1894  0.2471
 5054SOL    HW126795   0.203   3.486   1.004  0.6594  0.1291 -2.7332
 5054SOL    HW226796   0.161   3.345   1.012 -1.1967 -0.3750  0.7383
 5055SOL     OW26797   1.899   3.704   4.659 -0.2563 -0.5940 -0.2934
 5055SOL    HW126798   1.859   3.619   4.679 -0.8838 -0.6383 -1.7140
 5055SOL    HW226799   1.993   3.688   4.667 -0.2464  0.4172  1.4741
 5056SOL     OW26800   2.139   4.106   4.567 -0.2604 -0.0860  0.0641
 5056SOL    HW126801   2.191   4.033   4.534  0.2178 -0.2517  1.1686
 5056SOL    HW226802   2.048   4.076   4.571 -1.1492  2.4304 -1.2944
 5057SOL     OW26803   3.184   0.069   3.454  0.0056  0.0465  0.6392
 5057SOL    HW126804   3.114   0.132   3.438  0.7338  0.4413 -1.0643
 5057SOL    HW226805   3.158   4.737   3.394  1.3356  0.6029 -0.6092
 5058SOL     OW26806   1.152   3.863   4.169 -0.0544 -0.1438  0.3572
 5058SOL    HW126807   1.177   3.901   4.085 -1.0001  0.1931  0.2370
 5058SOL    HW226808   1.090   3.931   4.194  2.3841  2.1039  0.2819
 5059SOL     OW26809   4.558   2.118   2.642 -0.7619  0.4120  0.1968
 5059SOL    HW126810   4.561   2.142   2.550 -0.6428 -0.3519 -0.0006
 5059SOL    HW226811   4.627   2.169   2.686  0.4422 -0.8217 -0.2434
 5060SOL     OW26812   0.147   4.077   8.283  0.4323 -0.1194  0.0244
 5060SOL    HW126813   0.115   4.161   8.249  0.5610  0.2403  0.8091
 5060SOL    HW226814   0.240   4.084   8.261  0.2730  0.3600 -0.5190
 5061SOL     OW26815   1.759   1.580   3.539  0.4156  0.5556  0.0380
 5061SOL    HW126816   1.771   1.502   3.593  0.2114  0.9446  0.6464
 5061SOL    HW226817   1.722   1.642   3.602 -1.0060 -0.2334 -0.0229
 5062SOL     OW26818   1.259   2.314   2.782 -0.8838  0.3722  0.1335
 5062SOL    HW126819   1.273   2.322   2.876  0.9151 -1.0297 -0.0067
 5062SOL    HW226820   1.346   2.299   2.745 -0.4820 -0.5737  1.4675
 5063SOL     OW26821   1.018   1.726   7.717  0.4192  0.7752  0.4674
 5063SOL    HW126822   0.999   1.638   7.749 -1.0060  0.5487 -0.9487
 5063SOL    HW226823   1.102   1.742   7.758  0.6100  0.9777 -0.0025
 5064SOL     OW26824   4.452   4.345   2.546 -0.3903 -0.6136  0.7622
 5064SOL    HW126825   4.375   4.325   2.494  1.1618 -1.2114 -1.3189
 5064SOL    HW226826   4.462   4.438   2.524  1.0228 -0.9021  0.1866
 5065SOL     OW26827   0.640   2.305   2.502 -0.4346  0.4288 -0.0792
 5065SOL    HW126828   0.724   2.259   2.510 -0.0057  1.5327  1.6977
 5065SOL    HW226829   0.652   2.341   2.413 -0.4677 -0.5347 -0.4726
 5066SOL     OW26830   4.634   1.334   3.136 -0.9268 -0.5485  0.2158
 5066SOL    HW126831   4.550   1.379   3.150  0.1163  1.6071 -0.4868
 5066SOL    HW226832   4.603   1.278   3.064  1.2834  0.4077 -1.4715
 5067SOL     OW26833   1.653   1.394   9.322 -0.0598 -0.5991  0.6125
 5067SOL    HW126834   1.736   1.373   9.364 -0.1590 -1.3204  0.4549
 5067SOL    HW226835   1.664   1.363   9.232  0.6331 -2.1999  1.2572
 5068SOL     OW26836   4.549   2.449   4.013  0.3048 -0.2877 -0.1060
 5068SOL    HW126837   4.642   2.446   3.995  0.2920  2.0488 -0.5104
 5068SOL    HW226838   4.531   2.541   3.997 -1.4201 -0.5414  0.3385
 5069SOL     OW26839   2.783   3.024   5.660 -0.1379  0.7878  0.2015
 5069SOL    HW126840   2.755   3.110   5.627  1.4747  1.1929 -0.1621
 5069SOL    HW226841   2.726   3.011   5.735 -0.1794  1.5607  0.3055
 5070SOL     OW26842   2.186   1.498   1.664  0.4655  0.0394  0.0486
 5070SOL    HW126843   2.104   1.529   1.704  1.2426 -2.0930  3.3259
 5070SOL    HW226844   2.184   1.545   1.581 -1.3040 -1.6839 -0.9026
 5071SOL     OW26845   2.730   3.957   1.213 -0.1056 -0.1774  0.1805
 5071SOL    HW126846   2.783   3.877   1.217 -0.7954 -0.6371  0.1115
 5071SOL    HW226847   2.791   4.021   1.176 -1.3758  0.0108 -1.5555
 5072SOL     OW26848   3.714   4.334  11.898 -0.4499 -0.4070 -0.1085
 5072SOL    HW126849   3.766   4.404  11.938 -0.3929 -0.3283 -0.3163
 5072SOL    HW226850   3.659   4.395  11.848 -0.3795 -0.0120  0.2928
 5073SOL     OW26851   2.572   4.486   5.315  0.2307  0.3265  0.0910
 5073SOL    HW126852   2.550   4.402   5.355 -0.9311  0.4451 -0.2987
 5073SOL    HW226853   2.490   4.514   5.276 -0.2226 -1.9383 -0.5589
 5074SOL     OW26854   4.358   2.826   3.132  0.3596 -0.1004 -0.1885
 5074SOL    HW126855   4.385   2.777   3.209 -2.2132  0.0781  0.8101
 5074SOL    HW226856   4.298   2.760   3.098  0.8144 -0.7099  0.1978
 5075SOL     OW26857   4.101   3.509   2.384 -0.2991 -0.5404  0.2396
 5075SOL    HW126858   4.099   3.479   2.293 -2.8903 -1.2700  0.5206
 5075SOL    HW226859   4.172   3.457   2.420 -0.4533 -0.5950  0.4667
 5076SOL     OW26860   2.927   0.974   7.754 -0.2215  0.0571 -0.0738
 5076SOL    HW126861   2.851   1.029   7.734 -0.5694 -0.9771 -1.5471
 5076SOL    HW226862   2.935   0.998   7.847 -0.1493 -0.4171  0.0424
 5077SOL     OW26863   2.869   1.515  13.545 -0.0166  0.4246  0.0544
 5077SOL    HW126864   2.814   1.438  13.533 -0.2576  0.2260  2.4098
 5077SOL    HW226865   2.927   1.502  13.470 -0.1950  0.3219 -0.0672
 5078SOL     OW26866   2.569   4.407  13.441  0.0087  0.0125 -0.2901
 5078SOL    HW126867   2.546   4.389  13.350 -0.2033  0.1571 -0.2643
 5078SOL    HW226868   2.511   4.340  13.476  0.3424 -0.6231 -0.9486
 5079SOL     OW26869   3.068   1.576   5.594  0.6517 -0.6427 -0.3002
 5079SOL    HW126870   3.025   1.499   5.631  1.7231 -0.3126  1.6261
 5079SOL    HW226871   3.073   1.556   5.501 -0.4194 -0.7813 -0.3238
 5080SOL     OW26872   3.336   0.703   4.077 -0.5715  0.1670 -0.1962
 5080SOL    HW126873   3.407   0.724   4.137  0.5967  1.1967 -1.9592
 5080SOL    HW226874   3.326   0.785   4.029  2.0086 -0.0026 -1.0054
 5081SOL     OW26875   3.879   3.279   0.716  0.2386 -0.4241 -0.6542
 5081SOL    HW126876   3.851   3.369   0.730  0.5717 -0.6421  1.3758
 5081SOL    HW226877   3.943   3.264   0.785 -0.2902  3.2340  0.6253
 5082SOL     OW26878   1.061   4.360   4.169 -0.4823 -0.3813 -0.1553
 5082SOL    HW126879   0.967   4.346   4.187  0.1803 -0.7348  3.0596
 5082SOL    HW226880   1.054   4.433   4.107  0.2569 -0.3173 -0.1591
 5083SOL     OW26881   4.609   2.158  17.237  0.1941 -0.2136  0.6142
 5083SOL    HW126882   4.631   2.138  17.328 -1.2492 -1.8959  0.5961
 5083SOL    HW226883   4.576   2.247  17.244 -0.2221 -0.3530  0.4644
 5084SOL     OW26884   1.381   0.440   7.582 -0.4161 -0.1954  0.2197
 5084SOL    HW126885   1.451   0.438   7.517 -0.8714 -1.2956 -0.2328
 5084SOL    HW226886   1.398   0.363   7.636  0.5925  1.3108  2.0374
 5085SOL     OW26887   1.100   4.470   8.253  0.1873 -0.2003 -0.1944
 5085SOL    HW126888   1.066   4.519   8.328  1.2585 -0.1609  0.2753
 5085SOL    HW226889   1.159   4.532   8.209 -0.7659  0.4478 -0.5555
 5086SOL     OW26890   3.344   0.359   9.965 -0.4169  0.0635 -0.3830
 5086SOL    HW126891   3.275   0.413  10.004  1.2098  1.5803  0.3885
 5086SOL    HW226892   3.395   0.425   9.919  0.6654  0.5924  1.5982
 5087SOL     OW26893   3.890   3.188   9.695 -0.0465 -0.3428 -0.7181
 5087SOL    HW126894   3.963   3.215   9.638  1.7511  1.5705  2.4643
 5087SOL    HW226895   3.923   3.114   9.747 -0.9092 -0.9198 -1.0052
 5088SOL     OW26896   0.154   1.555   5.562  0.0098  0.0819 -0.4318
 5088SOL    HW126897   0.099   1.609   5.505  0.8466 -0.8485 -2.1005
 5088SOL    HW226898   0.171   1.628   5.623 -0.4310 -1.2356  1.2844
 5089SOL     OW26899   3.027   3.815   0.572 -0.1657 -0.0663  0.5831
 5089SOL    HW126900   3.031   3.899   0.617  1.6177  0.8023 -1.1959
 5089SOL    HW226901   2.939   3.815   0.532 -1.4262  0.3536  3.3839
 5090SOL     OW26902   3.669   1.875  15.902  0.6856  0.1649  0.2852
 5090SOL    HW126903   3.612   1.811  15.859 -0.7239  2.1879 -0.8426
 5090SOL    HW226904   3.755   1.835  15.885  1.0393  0.3481  1.6416
 5091SOL     OW26905   3.035   3.859  17.482  0.7210 -0.2737  0.2146
 5091SOL    HW126906   3.004   3.778  17.441  0.8835  0.5712 -1.6114
 5091SOL    HW226907   3.109   3.877  17.424 -1.0937 -1.3853 -2.4301
 5092SOL     OW26908   2.182   3.228   7.219  0.3852 -0.3586 -0.3340
 5092SOL    HW126909   2.093   3.238   7.255 -0.0631 -2.3986 -0.8922
 5092SOL    HW226910   2.166   3.228   7.124  1.0273  1.1128 -0.4450
 5093SOL     OW26911   1.105   0.520   3.351 -0.0509  0.0667 -0.5672
 5093SOL    HW126912   1.181   0.484   3.397  0.1265 -2.2935 -2.6807
 5093SOL    HW226913   1.133   0.610   3.340  1.0487 -0.1066  0.7047
 5094SOL     OW26914   1.397   0.959   7.240  0.3776 -0.8691 -0.2839
 5094SOL    HW126915   1.381   0.911   7.159 -2.7518 -4.0062  2.1773
 5094SOL    HW226916   1.435   0.890   7.295 -0.5147  0.4841  2.0497
 5095SOL     OW26917   2.632   3.807  13.719 -0.0012 -0.2315  0.4906
 5095SOL    HW126918   2.582   3.872  13.669 -1.6258 -3.2813 -1.8525
 5095SOL    HW226919   2.721   3.825  13.690  0.9215 -0.5010  3.1971
 5096SOL     OW26920   1.867   3.551   9.454 -0.1128 -0.4273 -0.5162
 5096SOL    HW126921   1.878   3.569   9.547  1.0116 -0.5371 -0.6288
 5096SOL    HW226922   1.955   3.566   9.420  0.9076 -0.8695  1.9081
 5097SOL     OW26923   1.497   3.704  12.584 -0.1206 -0.4815 -0.2943
 5097SOL    HW126924   1.520   3.791  12.550 -0.1251 -1.0130 -1.6284
 5097SOL    HW226925   1.560   3.703  12.656  2.2914 -1.4822 -2.4222
 5098SOL     OW26926   1.228   0.765   6.848  0.3055 -0.3970 -0.1508
 5098SOL    HW126927   1.218   0.821   6.925  0.2871  0.0303 -0.4603
 5098SOL    HW226928   1.309   0.716   6.865  1.7920  1.7154 -1.1123
 5099SOL     OW26929   1.978   1.977   4.360  0.1975 -0.0679 -0.2188
 5099SOL    HW126930   2.002   1.914   4.292  1.3165  2.4860 -2.2067
 5099SOL    HW226931   1.932   1.933   4.431 -1.2269  1.0855 -0.4440
 5100SOL     OW26932   2.786   1.579   7.178 -0.8851 -0.1188  0.2634
 5100SOL    HW126933   2.763   1.580   7.271  2.3340  0.9567  1.0237
 5100SOL    HW226934   2.697   1.563   7.147 -1.2823 -0.6541  1.6638
 5101SOL     OW26935   2.446   1.913   7.764  0.4899  0.1716  0.1654
 5101SOL    HW126936   2.495   1.894   7.683 -0.8019 -0.6829 -0.4217
 5101SOL    HW226937   2.515   1.894   7.828 -2.0094 -2.1946  2.1198
 5102SOL     OW26938   1.020   0.487   2.325 -0.2427  0.2452 -0.9819
 5102SOL    HW126939   1.115   0.495   2.315 -0.1850 -0.3882 -0.9681
 5102SOL    HW226940   1.011   0.552   2.395  0.2249 -0.2233 -0.4816
 5103SOL     OW26941   3.598   3.391   4.734 -0.5982  0.7115  0.0074
 5103SOL    HW126942   3.552   3.471   4.758 -1.5254  0.9611 -2.5414
 5103SOL    HW226943   3.636   3.414   4.649 -2.3951 -2.5628 -1.6862
 5104SOL     OW26944   0.661   0.366   8.796 -0.2868 -0.3636 -0.2503
 5104SOL    HW126945   0.667   0.423   8.719 -2.3501 -1.3096 -1.1005
 5104SOL    HW226946   0.712   0.288   8.775  2.1725  0.9334  0.8677
 5105SOL     OW26947   0.597   0.949  10.246  0.1777 -0.1526 -0.2640
 5105SOL    HW126948   0.571   1.003  10.171  0.4099 -0.8206 -0.8378
 5105SOL    HW226949   0.560   1.003  10.315 -1.2738 -0.0891 -1.0820
 5106SOL     OW26950   1.349   3.733   8.840 -0.2642 -0.1775 -0.0740
 5106SOL    HW126951   1.403   3.658   8.816  1.2141  0.2718  1.8226
 5106SOL    HW226952   1.371   3.737   8.933 -0.3898  1.1502 -0.1008
 5107SOL     OW26953   3.061   1.056   2.384  0.5580 -0.8295  0.1537
 5107SOL    HW126954   3.007   0.994   2.336  1.1155  0.5197 -2.2126
 5107SOL    HW226955   2.998   1.128   2.373  1.2922 -0.1420  0.4724
 5108SOL     OW26956   4.071   4.557   3.715  0.0699  0.2407  0.0206
 5108SOL    HW126957   4.165   4.570   3.718 -0.0502  1.2918 -0.7296
 5108SOL    HW226958   4.061   4.499   3.790 -0.4623 -1.7300 -1.5507
 5109SOL     OW26959   1.177   3.881   3.117  0.4862 -0.1084  0.4025
 5109SOL    HW126960   1.189   3.973   3.140  0.0904  0.6978 -2.5993
 5109SOL    HW226961   1.119   3.849   3.187  1.8745 -1.8177  0.7564
 5110SOL     OW26962   1.364   3.998   4.842  0.2944  0.0745  0.2290
 5110SOL    HW126963   1.372   3.939   4.767 -0.3309  2.1518 -1.4727
 5110SOL    HW226964   1.319   3.945   4.908  1.2105 -0.8585  0.1024
 5111SOL     OW26965   0.755   3.172   8.561 -0.1467 -0.1555 -0.0602
 5111SOL    HW126966   0.673   3.219   8.570 -0.0501 -0.2098  1.1044
 5111SOL    HW226967   0.823   3.217   8.610 -1.5380  3.1002 -1.1479
 5112SOL     OW26968   1.585   1.655   5.230  0.0578  0.1407  0.0663
 5112SOL    HW126969   1.658   1.714   5.247 -0.3219  0.8497 -0.7860
 5112SOL    HW226970   1.613   1.602   5.156 -0.5273  2.4759 -1.8268
 5113SOL     OW26971   2.170   3.788   6.971  0.0661  0.5466  0.2394
 5113SOL    HW126972   2.163   3.697   6.941  0.4246  0.0777  1.5709
 5113SOL    HW226973   2.213   3.827   6.895  0.9442 -1.4591 -0.3116
 5114SOL     OW26974   0.805   4.181   2.371  0.8500 -0.3002 -0.5501
 5114SOL    HW126975   0.769   4.093   2.360  0.1727 -0.1898  0.8234
 5114SOL    HW226976   0.886   4.169   2.420  0.1187 -3.3187 -0.0963
 5115SOL     OW26977   4.438   2.182   0.294 -0.3399 -0.5369  0.5535
 5115SOL    HW126978   4.391   2.103   0.269 -1.3741 -0.2409  1.5790
 5115SOL    HW226979   4.511   2.186   0.232 -0.8388  2.4111  0.1841
 5116SOL     OW26980   1.861   3.934   3.852 -1.0442  0.1165 -0.6834
 5116SOL    HW126981   1.918   3.996   3.807 -1.0839  0.1389 -0.7033
 5116SOL    HW226982   1.817   3.893   3.778  1.9386  0.1942 -2.5061
 5117SOL     OW26983   1.506   2.914   1.821  0.2759  0.1014 -0.2972
 5117SOL    HW126984   1.561   2.845   1.858 -0.3893  0.3331  1.1484
 5117SOL    HW226985   1.421   2.870   1.831  1.2278 -1.4249  1.0483
 5118SOL     OW26986   0.525   3.140   3.048  1.2967  0.0136 -0.1779
 5118SOL    HW126987   0.453   3.172   3.103  1.4362  0.0147  0.0011
 5118SOL    HW226988   0.606   3.182   3.074  0.2750  2.1795 -0.4768
 5119SOL     OW26989   0.125   0.015   8.505 -0.0724 -0.0445  0.2907
 5119SOL    HW126990   0.082   0.020   8.420 -2.6799 -1.4292  1.5205
 5119SOL    HW226991   0.047   0.017   8.560 -0.0011  2.0820  0.3233
 5120SOL     OW26992   4.139   1.607   4.055  0.4811 -0.0595  0.5668
 5120SOL    HW126993   4.108   1.697   4.041  0.1516 -0.0751  1.1905
 5120SOL    HW226994   4.066   1.564   4.011 -1.1475  1.9255  1.2944
 5121SOL     OW26995   2.802   2.449   2.477  0.0345 -0.4137 -0.2470
 5121SOL    HW126996   2.791   2.516   2.544  1.1644 -0.4332 -0.0270
 5121SOL    HW226997   2.867   2.389   2.514 -0.3208  0.1062  1.2355
 5122SOL     OW26998   0.742   0.139   5.698 -0.1027  0.6585  0.2152
 5122SOL    HW126999   0.768   0.181   5.779 -1.1381  2.7054 -0.5321
 5122SOL    HW227000   0.683   0.073   5.734  2.3831 -2.6877 -1.7795
 5123SOL     OW27001   3.820   3.998   4.249 -0.6263  0.5271  0.1524
 5123SOL    HW127002   3.863   3.942   4.184 -1.6402  1.7544 -1.5931
 5123SOL    HW227003   3.880   3.968   4.318  0.0631 -1.2273 -1.2100
 5124SOL     OW27004   2.686   1.412  12.462  0.2738  0.0032 -0.1918
 5124SOL    HW127005   2.730   1.360  12.529 -1.6904 -3.7639 -1.8309
 5124SOL    HW227006   2.739   1.381  12.389  0.6956 -0.0681  0.1470
 5125SOL     OW27007   2.754   4.445   5.810  0.4663  0.3756  0.2880
 5125SOL    HW127008   2.845   4.423   5.789  0.5145  0.4184  0.4505
 5125SOL    HW227009   2.710   4.366   5.780 -1.4695  1.1851  0.9698
 5126SOL     OW27010   2.654   3.465   2.933  0.4096 -0.0311 -0.4437
 5126SOL    HW127011   2.720   3.451   2.865  0.2947  2.1732 -1.0022
 5126SOL    HW227012   2.591   3.394   2.922 -0.0182  0.3752 -0.6376
 5127SOL     OW27013   0.055   4.507  17.253  0.8196  0.4931 -0.0069
 5127SOL    HW127014   0.101   4.587  17.226  0.5521  0.3205 -0.9956
 5127SOL    HW227015   4.718   4.504  17.192  0.8448 -0.7401  0.0217
 5128SOL     OW27016   2.543   3.838   4.350  0.5440  0.5666  0.6313
 5128SOL    HW127017   2.478   3.804   4.288  2.0919  0.4265 -0.9072
 5128SOL    HW227018   2.519   3.799   4.434 -0.8509  1.8006  0.8095
 5129SOL     OW27019   1.574   1.109  10.010  0.2455  0.9277 -0.1762
 5129SOL    HW127020   1.484   1.139  10.019 -0.6877 -1.4306 -1.8136
 5129SOL    HW227021   1.618   1.180   9.964  0.8962 -0.1110 -1.1576
 5130SOL     OW27022   4.286   2.871   5.485 -0.4542  0.1252  0.0798
 5130SOL    HW127023   4.239   2.800   5.530  1.0548  0.0166  1.4761
 5130SOL    HW227024   4.346   2.818   5.432  2.9724  1.8139  2.2891
 5131SOL     OW27025   4.434   1.391   9.622  0.4279 -0.0303  0.4885
 5131SOL    HW127026   4.500   1.459   9.604  0.3534 -0.3412 -0.9724
 5131SOL    HW227027   4.427   1.387   9.717  1.2645 -1.2339  0.4988
 5132SOL     OW27028   2.554   4.338   8.646 -0.7272 -0.1186  0.2394
 5132SOL    HW127029   2.503   4.291   8.711  1.3673 -0.1759  1.8550
 5132SOL    HW227030   2.625   4.368   8.704  2.1358 -1.8058 -2.3870
 5133SOL     OW27031   0.357   2.644   4.258  0.3071  0.4579  0.5391
 5133SOL    HW127032   0.418   2.680   4.322  0.6741  0.8942 -0.0576
 5133SOL    HW227033   0.289   2.712   4.262 -0.5355 -0.1653 -3.1944
 5134SOL     OW27034   4.431   4.107  15.899  0.7040 -0.3169  0.5674
 5134SOL    HW127035   4.414   4.200  15.912  0.2006 -0.4531  0.8664
 5134SOL    HW227036   4.413   4.103  15.805 -1.6192  0.5958  0.9976
 5135SOL     OW27037   2.194   2.466  15.187 -0.2774  0.0481  0.6063
 5135SOL    HW127038   2.157   2.385  15.221  0.1068 -0.8374 -1.1070
 5135SOL    HW227039   2.246   2.428  15.116 -0.1543  0.8900  0.2434
 5136SOL     OW27040   1.006   3.991  10.113  0.1277  0.0627  0.2634
 5136SOL    HW127041   0.976   4.028  10.196  0.6223 -0.3221  0.6123
 5136SOL    HW227042   1.097   3.963  10.126  0.5307  1.1247 -0.2637
 5137SOL     OW27043   4.025   4.244   1.467 -0.1856  0.6076  0.0769
 5137SOL    HW127044   4.113   4.226   1.498  0.4936  0.9052 -1.6443
 5137SOL    HW227045   3.989   4.159   1.493 -0.5933  0.3913 -1.1858
 5138SOL     OW27046   2.835   2.131   3.299 -0.3691  0.0820  0.0725
 5138SOL    HW127047   2.906   2.068   3.315 -0.0346  0.5690  0.5465
 5138SOL    HW227048   2.830   2.175   3.385  3.1942  1.3426 -0.3465
 5139SOL     OW27049   2.235   2.681  13.175  0.6192  0.3118 -0.1306
 5139SOL    HW127050   2.231   2.769  13.211 -1.6692  0.7166 -1.3894
 5139SOL    HW227051   2.284   2.705  13.096  1.1416 -0.2000  0.0380
 5140SOL     OW27052   1.885   3.670   2.614 -0.2339  0.1166  0.7578
 5140SOL    HW127053   1.961   3.726   2.627  0.6566 -1.6387  3.1188
 5140SOL    HW227054   1.880   3.641   2.705 -3.0889  0.4944  0.7154
 5141SOL     OW27055   3.597   3.410   9.455  0.2575  0.2964  0.0960
 5141SOL    HW127056   3.620   3.467   9.528 -0.0129  0.3249  0.1586
 5141SOL    HW227057   3.637   3.328   9.484 -1.8250 -0.6471  0.3678
 5142SOL     OW27058   2.518   4.557   4.058 -0.0146  0.2265  0.2743
 5142SOL    HW127059   2.427   4.547   4.087  0.4639 -3.6987  0.3216
 5142SOL    HW227060   2.551   4.630   4.110  1.0228  0.5454 -0.8292
 5143SOL     OW27061   3.428   0.019  16.609  0.4808  0.0262 -0.2861
 5143SOL    HW127062   3.369   0.021  16.534 -0.2212  0.6594  0.2688
 5143SOL    HW227063   3.394   0.081  16.674  0.5146  1.7795 -1.9286
 5144SOL     OW27064   2.723   3.289   4.461 -0.2347  0.1784 -0.6303
 5144SOL    HW127065   2.799   3.316   4.513 -0.5649  0.0894 -0.0978
 5144SOL    HW227066   2.719   3.197   4.488 -2.9201 -0.0729 -1.9413
 5145SOL     OW27067   1.269   1.344  14.735  0.4072  0.1689  0.2108
 5145SOL    HW127068   1.184   1.355  14.779  0.5575  0.5613  0.4014
 5145SOL    HW227069   1.246   1.289  14.660  0.7742  3.7511 -2.5084
 5146SOL     OW27070   2.396   0.616   3.513 -0.0251 -0.1433  0.1504
 5146SOL    HW127071   2.371   0.708   3.522  1.7538  0.5200 -1.6039
 5146SOL    HW227072   2.443   0.610   3.596 -0.0419 -1.5919  0.0620
 5147SOL     OW27073   1.875   2.059   5.778  0.8399  0.6035  0.0156
 5147SOL    HW127074   1.786   2.092   5.771 -0.0792 -2.1021 -1.0832
 5147SOL    HW227075   1.909   2.100   5.857 -2.9628  0.5879  1.6336
 5148SOL     OW27076   2.754   3.178  12.592 -0.2186  0.2784  0.2824
 5148SOL    HW127077   2.663   3.206  12.582 -0.8983 -1.2169  2.5846
 5148SOL    HW227078   2.791   3.247  12.648 -0.5128  1.1860 -0.6306
 5149SOL     OW27079   2.774   0.473   0.807  0.3797  0.4925  0.6643
 5149SOL    HW127080   2.843   0.530   0.840  1.1478 -0.9727  1.6198
 5149SOL    HW227081   2.800   0.387   0.841 -0.8043 -0.5956 -1.1219
 5150SOL     OW27082   3.377   4.349   9.654 -0.5052 -0.0420 -0.1973
 5150SOL    HW127083   3.452   4.309   9.610 -0.3760 -0.9225  0.8275
 5150SOL    HW227084   3.375   4.427   9.598  0.4850 -1.8947 -2.8513
 5151SOL     OW27085   0.350   3.106   7.364  0.2846 -0.2640 -0.6054
 5151SOL    HW127086   0.413   3.163   7.410 -2.5732  2.2483  0.1845
 5151SOL    HW227087   0.348   3.152   7.280  0.7721 -0.8996 -0.9634
 5152SOL     OW27088   3.403   2.299   5.435 -0.2514 -0.4806  0.0219
 5152SOL    HW127089   3.446   2.216   5.415  2.4201  1.2296 -1.4568
 5152SOL    HW227090   3.329   2.268   5.487 -1.5982  0.7770 -1.1082
 5153SOL     OW27091   2.363   0.235   5.557  0.1834 -0.2704  0.1464
 5153SOL    HW127092   2.426   0.275   5.616 -2.1689  1.7194  1.3211
 5153SOL    HW227093   2.337   0.157   5.605 -2.9642 -0.5259 -1.9416
 5154SOL     OW27094   1.032   3.133   7.773 -0.0192  0.0288 -0.1114
 5154SOL    HW127095   1.022   3.189   7.850  0.2583  0.1150 -0.1385
 5154SOL    HW227096   1.047   3.200   7.706  2.8647 -1.3592 -0.8646
 5155SOL     OW27097   2.666   2.435  10.796  0.0876  0.4189  0.3178
 5155SOL    HW127098   2.575   2.455  10.817  0.4987  2.9134 -0.2382
 5155SOL    HW227099   2.647   2.379  10.720 -3.1943  0.5328  1.0707
 5156SOL     OW27100   2.614   2.282  16.313  0.3335  0.1643  0.2227
 5156SOL    HW127101   2.665   2.225  16.371  0.2347 -2.3844 -2.1906
 5156SOL    HW227102   2.537   2.227  16.297  0.7821 -1.0271  2.1455
 5157SOL     OW27103   4.531   4.544  12.609  0.6667  0.1793 -0.1691
 5157SOL    HW127104   4.436   4.545  12.593  0.8187  0.5436 -1.0343
 5157SOL    HW227105   4.537   4.526  12.703 -0.6648  1.7451  0.2186
 5158SOL     OW27106   0.063   4.588   5.020  0.2447 -0.1908 -0.3350
 5158SOL    HW127107   0.112   4.579   4.938 -1.3066  1.1100 -1.4166
 5158SOL    HW227108   0.078   4.682   5.034  1.3878 -0.3634 -0.4794
 5159SOL     OW27109   2.571   3.930   0.774 -0.2651 -0.2607  0.2335
 5159SOL    HW127110   2.492   3.984   0.780 -0.3011 -0.2370 -0.3962
 5159SOL    HW227111   2.539   3.846   0.808  1.0180 -0.7388  0.2567
 5160SOL     OW27112   0.011   0.907   2.355  0.0614 -0.7076  0.0923
 5160SOL    HW127113   0.076   0.978   2.350 -1.4671  0.6808 -0.0975
 5160SOL    HW227114   0.022   0.886   2.447 -0.1057 -0.6211  0.1323
 5161SOL     OW27115   2.658   2.626  10.362  0.2648  0.1817 -0.3704
 5161SOL    HW127116   2.689   2.627  10.271  2.3511  0.5952  0.3517
 5161SOL    HW227117   2.590   2.560  10.349  1.6529 -1.3412  0.0281
 5162SOL     OW27118   1.805   2.184   1.142 -0.2015 -0.7360  0.0724
 5162SOL    HW127119   1.844   2.204   1.056  0.2242  2.1204  0.9388
 5162SOL    HW227120   1.800   2.089   1.136  1.1719 -0.7949 -0.1857
 5163SOL     OW27121   3.288   1.268   1.804  0.1968 -0.7057  0.0618
 5163SOL    HW127122   3.283   1.278   1.899  0.9818 -0.2154  0.0573
 5163SOL    HW227123   3.367   1.314   1.775 -1.1331  0.2394 -2.0561
 5164SOL     OW27124   3.829   0.574   8.874  0.4687  0.0177 -0.2599
 5164SOL    HW127125   3.884   0.632   8.926 -0.0727  0.3576 -0.0718
 5164SOL    HW227126   3.795   0.639   8.812  2.2984 -0.3650 -1.6697
 5165SOL     OW27127   1.652   0.807   8.599  0.2360 -0.0646  0.6663
 5165SOL    HW127128   1.566   0.787   8.562 -0.5550  1.0672  1.8696
 5165SOL    HW227129   1.689   0.725   8.632  0.2555 -1.3604 -2.5612
 5166SOL     OW27130   0.120   3.290   3.228 -0.3176  0.0450 -0.6608
 5166SOL    HW127131   0.183   3.219   3.234  1.0677  1.3901  0.9427
 5166SOL    HW227132   0.038   3.240   3.230 -0.0147 -0.3724  1.5077
 5167SOL     OW27133   2.500   2.901   3.752 -0.6472  0.2550  0.2081
 5167SOL    HW127134   2.451   2.907   3.834  0.3639  0.9208  0.7637
 5167SOL    HW227135   2.501   2.990   3.718  1.7222 -0.9527 -2.9553
 5168SOL     OW27136   0.576   0.523   6.268  0.5438  0.2044 -0.6381
 5168SOL    HW127137   0.517   0.570   6.209  0.3602 -1.3144 -1.6548
 5168SOL    HW227138   0.657   0.565   6.238  0.4835  0.9436  0.2547
 5169SOL     OW27139   0.428   2.522   6.387  0.5614 -0.3906  0.5184
 5169SOL    HW127140   0.371   2.497   6.460 -4.2842  1.5186 -2.6321
 5169SOL    HW227141   0.387   2.603   6.358  1.2733 -0.8585 -1.8156
 5170SOL     OW27142   3.892   1.776   8.964 -0.4338  0.0290 -0.6085
 5170SOL    HW127143   3.936   1.691   8.958 -0.3401 -0.0573  1.2963
 5170SOL    HW227144   3.824   1.771   8.897 -3.3812  0.0347  2.3699
 5171SOL     OW27145   1.842   0.710  13.268  0.3919  0.0250 -0.2368
 5171SOL    HW127146   1.931   0.747  13.269  0.8159 -0.9258 -1.3998
 5171SOL    HW227147   1.836   0.666  13.183  0.7637  0.0540 -0.2800
 5172SOL     OW27148   4.697   0.427  11.240 -0.3308 -0.2217 -0.4285
 5172SOL    HW127149   4.640   0.398  11.311  1.2155 -1.8827  0.1404
 5172SOL    HW227150   4.708   0.351  11.182  3.9106 -0.3320  0.5451
 5173SOL     OW27151   1.840   2.636   3.851  0.4340  0.6089 -0.0259
 5173SOL    HW127152   1.770   2.612   3.911 -0.9036  1.3848 -1.2950
 5173SOL    HW227153   1.890   2.705   3.895  0.6442  1.8294 -2.1779
 5174SOL     OW27154   0.140   2.917   9.023 -0.5885  0.2701 -0.0378
 5174SOL    HW127155   0.165   2.954   8.938  1.1447  0.7772  0.6950
 5174SOL    HW227156   0.224   2.912   9.069 -1.2783  1.9840  1.3931
 5175SOL     OW27157   4.578   3.672  16.931 -0.0564  1.0637 -0.3506
 5175SOL    HW127158   4.528   3.749  16.906 -1.7094 -0.4554 -1.6914
 5175SOL    HW227159   4.640   3.705  16.996 -1.5223 -1.4572  2.2930
 5176SOL     OW27160   1.278   1.481  12.602  0.3210 -0.1034  0.3953
 5176SOL    HW127161   1.359   1.469  12.651  0.6708  0.5118 -0.0431
 5176SOL    HW227162   1.230   1.540  12.660 -2.2477 -1.1212 -0.6944
 5177SOL     OW27163   1.136   4.435   1.429 -0.4047  0.9502  0.5159
 5177SOL    HW127164   1.045   4.421   1.403  1.0259 -2.0595 -2.7752
 5177SOL    HW227165   1.133   4.531   1.440 -0.4241  1.1551 -1.4298
 5178SOL     OW27166   4.276   3.229   7.639  0.2036  0.0506  0.3901
 5178SOL    HW127167   4.262   3.202   7.548 -0.4608 -1.7117  1.0201
 5178SOL    HW227168   4.199   3.282   7.659  1.3106  2.3789 -1.5045
 5179SOL     OW27169   3.998   3.294   7.677 -0.2693 -0.4699  0.6785
 5179SOL    HW127170   4.004   3.231   7.749 -0.4317 -0.4054  0.7487
 5179SOL    HW227171   3.912   3.280   7.637  0.9500 -1.6741 -1.5205
 5180SOL     OW27172   2.268   2.863   5.409  0.8531  0.6867  0.3245
 5180SOL    HW127173   2.350   2.864   5.360  0.2936 -1.1678 -0.6240
 5180SOL    HW227174   2.289   2.909   5.491  2.4064 -0.3134  0.4960
 5181SOL     OW27175   1.696   3.369   2.500 -0.0478  0.1691 -0.2651
 5181SOL    HW127176   1.641   3.292   2.485  2.4205 -1.9662  1.6754
 5181SOL    HW227177   1.655   3.441   2.453 -0.5922 -0.6248 -1.0042
 5182SOL     OW27178   4.261   1.760  17.409  0.3775  0.0232  0.1204
 5182SOL    HW127179   4.343   1.738  17.453 -1.6421 -2.3031  2.7009
 5182SOL    HW227180   4.274   1.737  17.317 -1.0499 -0.7824  0.1267
 5183SOL     OW27181   4.274   4.499  12.850 -0.4737 -0.0251  0.7930
 5183SOL    HW127182   4.254   4.460  12.765  1.1014  1.5199 -0.2725
 5183SOL    HW227183   4.244   4.423  12.902  0.9600  0.6807  2.6735
 5184SOL     OW27184   4.442   0.704   3.980 -0.2176  0.4268  0.2004
 5184SOL    HW127185   4.452   0.691   3.886 -1.8298 -1.6100  0.2865
 5184SOL    HW227186   4.527   0.745   3.993 -1.0095  2.8111 -2.3451
 5185SOL     OW27187   0.639   3.072  16.432  0.3371 -0.1003  0.0565
 5185SOL    HW127188   0.561   3.097  16.383 -0.0818  0.7028  1.1537
 5185SOL    HW227189   0.712   3.081  16.370 -2.4611 -0.2218 -3.2244
 5186SOL     OW27190   3.782   1.095   5.469  0.3315 -0.0250  0.4839
 5186SOL    HW127191   3.741   1.179   5.490  1.3031  0.7857 -0.8590
 5186SOL    HW227192   3.858   1.116   5.414 -0.3834  1.6175  0.1114
 5187SOL     OW27193   3.338   4.561   8.288  0.6110 -0.0774 -0.2392
 5187SOL    HW127194   3.296   4.586   8.206  0.9114 -1.0620 -0.6968
 5187SOL    HW227195   3.312   4.636   8.342  0.5263  0.4073 -0.9661
 5188SOL     OW27196   3.566   3.650   9.731 -0.8438 -0.1561 -0.2391
 5188SOL    HW127197   3.640   3.590   9.727 -0.0851  0.7098  0.7232
 5188SOL    HW227198   3.564   3.665   9.825  1.7012  1.7343 -0.4817
 5189SOL     OW27199   0.847   0.761   8.112 -0.3576  0.6523  0.1456
 5189SOL    HW127200   0.897   0.685   8.084 -1.6988 -0.1059 -0.2125
 5189SOL    HW227201   0.893   0.833   8.069 -1.1782  0.6845 -0.6852
 5190SOL     OW27202   1.994   3.252   5.592 -1.1088  0.3815 -1.1487
 5190SOL    HW127203   1.926   3.207   5.542 -0.0551  0.3078 -2.5394
 5190SOL    HW227204   2.034   3.178   5.638 -2.0103 -0.2765 -1.4285
 5191SOL     OW27205   3.986   0.977   9.360  0.3046 -0.1500  0.7367
 5191SOL    HW127206   4.042   0.908   9.397  0.1402 -0.5473  0.2317
 5191SOL    HW227207   4.040   0.987   9.282  1.4297  0.2330  1.5430
 5192SOL     OW27208   4.609   3.676   1.186 -0.4576 -0.4367 -0.0919
 5192SOL    HW127209   4.574   3.627   1.112  1.8191  0.1207 -1.5418
 5192SOL    HW227210   4.683   3.720   1.145 -1.0185  1.4324  0.9076
 5193SOL     OW27211   3.676   3.809  14.623 -0.4968 -0.3733  0.0366
 5193SOL    HW127212   3.726   3.793  14.703  2.2180 -0.1236 -1.6114
 5193SOL    HW227213   3.601   3.751  14.635  0.2731 -1.3020  0.4039
 5194SOL     OW27214   2.616   1.106   9.691 -0.0186  0.2613 -0.3463
 5194SOL    HW127215   2.700   1.132   9.726  1.1795 -0.9784 -2.2793
 5194SOL    HW227216   2.645   1.083   9.603  1.7553 -1.4291  0.6992
 5195SOL     OW27217   1.539   0.171  14.428 -0.2699  0.1378 -0.0949
 5195SOL    HW127218   1.604   0.232  14.465 -2.0560  1.3849  0.9960
 5195SOL    HW227219   1.509   0.144  14.515 -1.0586  0.1649 -0.3635
 5196SOL     OW27220   0.209   0.650   9.201  0.8066 -0.0653  0.1042
 5196SOL    HW127221   0.201   0.555   9.194  0.8286 -0.1167  0.8729
 5196SOL    HW227222   0.281   0.657   9.139 -0.2607 -1.3955 -1.2975
 5197SOL     OW27223   3.981   3.820   4.098  0.2775 -0.3558 -0.3328
 5197SOL    HW127224   4.071   3.837   4.128  1.1941 -0.2850 -3.1424
 5197SOL    HW227225   3.957   3.744   4.151  0.3647 -0.2704 -0.1666
 5198SOL     OW27226   1.090   0.885  11.900  0.5914 -0.0186 -0.1938
 5198SOL    HW127227   1.010   0.837  11.919 -0.5636  2.3162  0.8444
 5198SOL    HW227228   1.108   0.826  11.827  1.5403  0.4160 -0.3106
 5199SOL     OW27229   3.546   3.920   8.627 -0.2494  0.2168 -0.0081
 5199SOL    HW127230   3.538   3.852   8.561  2.2450 -0.9929  0.9407
 5199SOL    HW227231   3.591   3.989   8.577 -0.4406 -0.6912 -1.4257
 5200SOL     OW27232   4.377   1.869   8.907 -0.2130 -0.4428 -0.1649
 5200SOL    HW127233   4.326   1.933   8.956  1.2808  0.7047 -0.0935
 5200SOL    HW227234   4.381   1.793   8.965  2.1166  0.9826  1.5190
 5201SOL     OW27235   0.281   0.884   6.029  0.5564  0.0198 -0.3871
 5201SOL    HW127236   0.376   0.880   6.044  0.6062  0.2615 -0.6416
 5201SOL    HW227237   0.248   0.889   6.119 -0.0725  1.0689 -0.6845
 5202SOL     OW27238   2.187   3.156   3.465 -0.0128 -0.2728  0.6728
 5202SOL    HW127239   2.093   3.141   3.451 -0.3907  1.0641  1.7150
 5202SOL    HW227240   2.228   3.141   3.380  1.0419 -0.6975  1.2684
 5203SOL     OW27241   4.041   4.287  17.567 -0.3569 -0.4971  0.0846
 5203SOL    HW127242   3.952   4.293  17.601 -1.6281 -0.0262 -3.3659
 5203SOL    HW227243   4.029   4.353  17.498  0.5944 -0.8063 -0.3747
 5204SOL     OW27244   3.786   3.202  16.502 -0.4775  0.1101 -0.5366
 5204SOL    HW127245   3.761   3.294  16.499  0.3867  0.2947 -1.7354
 5204SOL    HW227246   3.871   3.190  16.460  0.5738 -0.3494  1.6991
 5205SOL     OW27247   3.329   0.433  17.474  0.2258 -0.3115  0.0698
 5205SOL    HW127248   3.392   0.378  17.521  0.5523 -0.2872 -0.3393
 5205SOL    HW227249   3.395   0.468  17.414 -0.7417  0.9081 -0.2695
 5206SOL     OW27250   4.692   2.022   7.523  0.0271  0.2152 -0.5447
 5206SOL    HW127251   4.695   1.944   7.467  1.5839  0.1935 -0.4482
 5206SOL    HW227252   4.637   2.082   7.473  1.7236  1.9691 -0.3358
 5207SOL     OW27253   0.469   2.109   5.617 -0.1591 -0.0680 -0.2105
 5207SOL    HW127254   0.387   2.149   5.647 -1.2429 -2.9274  0.6800
 5207SOL    HW227255   0.485   2.142   5.529  2.2386  2.0512  1.0237
 5208SOL     OW27256   3.145   0.734   7.869  0.0421 -0.0108 -0.0467
 5208SOL    HW127257   3.232   0.697   7.861  0.4701  1.1679 -0.8838
 5208SOL    HW227258   3.145   0.803   7.801 -1.8921 -1.7684 -1.8219
 5209SOL     OW27259   0.421   0.343   3.756  0.4942 -0.8731  0.8032
 5209SOL    HW127260   0.488   0.353   3.688 -0.7286  1.4294 -0.0313
 5209SOL    HW227261   0.345   0.374   3.707  1.3106  0.0214  0.1089
 5210SOL     OW27262   0.168   3.319   7.899 -0.2649 -0.5407 -0.7918
 5210SOL    HW127263   0.223   3.255   7.854  0.7729  0.7168 -1.3321
 5210SOL    HW227264   0.086   3.293   7.859 -1.3018  0.2413  0.8101
 5211SOL     OW27265   2.280   4.188  13.272  0.4714 -0.4681  0.1373
 5211SOL    HW127266   2.354   4.229  13.227 -1.2011  2.0762 -0.2741
 5211SOL    HW227267   2.236   4.148  13.196  0.0601  0.3443 -0.0561
 5212SOL     OW27268   2.071   3.958   4.092 -0.3074  0.2547  0.6214
 5212SOL    HW127269   2.132   3.900   4.046  1.8853  3.7336 -0.8219
 5212SOL    HW227270   1.993   3.953   4.036  0.5446  1.6829 -0.6889
 5213SOL     OW27271   0.273   1.380   7.223  0.1420 -0.2327 -0.1118
 5213SOL    HW127272   0.242   1.321   7.153 -0.4814 -0.5854  0.4647
 5213SOL    HW227273   0.283   1.315   7.292  0.5396  1.7499  1.6764
 5214SOL     OW27274   4.216   3.983   8.290 -0.0772 -0.2107  0.1212
 5214SOL    HW127275   4.141   4.042   8.293 -1.0053 -1.5044  2.4179
 5214SOL    HW227276   4.284   4.043   8.261  0.4090 -0.4848  0.6769
 5215SOL     OW27277   2.914   2.404   4.260 -0.2945 -0.5700 -0.5054
 5215SOL    HW127278   2.955   2.317   4.257 -0.1052 -0.4616 -0.9867
 5215SOL    HW227279   2.840   2.381   4.317 -1.4489 -0.0105 -1.7913
 5216SOL     OW27280   3.030   0.388   6.170  0.3091  0.1848 -0.1389
 5216SOL    HW127281   2.947   0.393   6.217 -0.1095 -0.9641 -0.7476
 5216SOL    HW227282   3.030   0.465   6.112 -0.0134  0.5445  0.3381
 5217SOL     OW27283   2.897   2.136  15.332 -0.4370 -0.2778  0.0900
 5217SOL    HW127284   2.898   2.227  15.362  1.6330 -0.2730  0.0371
 5217SOL    HW227285   2.890   2.154  15.238 -1.5475 -0.7766  0.0785
 5218SOL     OW27286   2.794   1.072   5.833  0.5019  0.3296  0.0980
 5218SOL    HW127287   2.884   1.087   5.864  0.5581  0.2818 -0.0408
 5218SOL    HW227288   2.760   1.159   5.811  2.0642  1.7093  3.1252
 5219SOL     OW27289   2.981   0.605   5.989 -0.2787 -0.1766 -0.1359
 5219SOL    HW127290   3.021   0.652   5.916  3.3162 -0.3555  1.7609
 5219SOL    HW227291   2.890   0.588   5.964  0.3061 -0.2773 -2.2584
 5220SOL     OW27292   2.764   1.319   6.415 -0.1696  0.4127  0.3739
 5220SOL    HW127293   2.788   1.229   6.391 -0.0642  0.6478 -0.4035
 5220SOL    HW227294   2.690   1.343   6.360 -1.8852  0.3602  2.6372
 5221SOL     OW27295   3.903   3.658   0.243  0.2226  0.4577 -0.8926
 5221SOL    HW127296   3.906   3.564   0.260  0.7979  0.4774 -0.8701
 5221SOL    HW227297   3.898   3.664   0.147  3.0238  1.9944 -0.9654
 5222SOL     OW27298   2.357   3.753   4.169 -0.1795 -0.1516 -0.2724
 5222SOL    HW127299   2.436   3.791   4.131  1.2449 -1.5331  1.3075
 5222SOL    HW227300   2.304   3.775   4.092 -0.8223 -0.5707  0.0582
 5223SOL     OW27301   3.439   3.181   9.761 -0.3639 -0.3135  0.4286
 5223SOL    HW127302   3.351   3.198   9.794  0.6950  1.4716  2.3183
 5223SOL    HW227303   3.496   3.193   9.837  0.2451  0.1349 -0.0939
 5224SOL     OW27304   1.958   1.700   7.494 -0.6516  0.0606  0.0521
 5224SOL    HW127305   2.007   1.769   7.539 -0.2607  0.3428 -0.8014
 5224SOL    HW227306   2.007   1.703   7.411 -0.1496  0.3184  0.3559
 5225SOL     OW27307   4.174   1.232   8.745  0.0373  0.3744  0.7157
 5225SOL    HW127308   4.133   1.226   8.659  4.0434 -1.1390 -1.0674
 5225SOL    HW227309   4.203   1.323   8.741  1.7245 -0.1675  0.7640
 5226SOL     OW27310   3.191   4.063   8.539 -0.7447  0.3760  0.2678
 5226SOL    HW127311   3.168   4.069   8.632  1.0847 -2.1246  0.8730
 5226SOL    HW227312   3.248   4.136   8.517 -1.1299  0.6915  0.3013
 5227SOL     OW27313   3.403   0.710   4.799  0.8868  0.4739  0.4371
 5227SOL    HW127314   3.378   0.648   4.867 -2.0873 -1.3484 -2.2980
 5227SOL    HW227315   3.379   0.655   4.724 -0.2764  0.9598  0.4607
 5228SOL     OW27316   0.113   2.505   5.218  0.2112  0.5724  0.2692
 5228SOL    HW127317   0.097   2.510   5.124  0.6448 -0.5335  0.1368
 5228SOL    HW227318   0.084   2.593   5.242  2.0080  1.4563 -0.7482
 5229SOL     OW27319   4.489   3.440   7.960 -0.3129  0.4244 -0.3656
 5229SOL    HW127320   4.539   3.506   8.007 -0.3204  0.6816 -0.7215
 5229SOL    HW227321   4.496   3.457   7.866  1.1549  0.2604 -0.2757
 5230SOL     OW27322   4.270   2.139  11.465  0.2063 -0.1356  0.0977
 5230SOL    HW127323   4.179   2.115  11.449  0.6422  0.2412 -2.9953
 5230SOL    HW227324   4.304   2.077  11.528  1.2474  0.1499 -0.1687
 5231SOL     OW27325   1.635   1.092  16.856  0.1861  0.2986  0.3768
 5231SOL    HW127326   1.659   1.087  16.764  2.0891 -1.6665  0.9669
 5231SOL    HW227327   1.543   1.068  16.840  0.4951  0.1325 -1.1490
 5232SOL     OW27328   0.660   1.678   5.048  0.6049  0.3013  0.4032
 5232SOL    HW127329   0.644   1.639   5.134 -0.9433  0.6455  0.2814
 5232SOL    HW227330   0.647   1.772   5.064 -2.9559  0.1008 -1.2664
 5233SOL     OW27331   1.872   2.130  14.657  0.4691  0.8210 -0.0107
 5233SOL    HW127332   1.844   2.139  14.748 -1.6340  0.6449 -0.6321
 5233SOL    HW227333   1.960   2.167  14.659 -0.1276  2.2036  0.2714
 5234SOL     OW27334   1.425   0.690   3.614 -0.4237 -0.4418 -0.7349
 5234SOL    HW127335   1.498   0.752   3.613  0.4612 -1.4636  0.5268
 5234SOL    HW227336   1.362   0.729   3.674  0.1839 -0.0285 -0.3640
 5235SOL     OW27337   2.289   3.188   4.448  0.0476  0.8351  0.1570
 5235SOL    HW127338   2.216   3.127   4.462  0.9350 -0.8338 -2.5615
 5235SOL    HW227339   2.243   3.249   4.391 -0.3719  1.0215  0.6890
 5236SOL     OW27340   0.540   4.241   6.878 -0.1727 -0.0062  0.4874
 5236SOL    HW127341   0.591   4.321   6.864 -1.4175  0.9491  1.4377
 5236SOL    HW227342   0.468   4.270   6.935 -1.2992 -1.4125 -0.2333
 5237SOL     OW27343   1.692   3.493   4.483  0.2048 -0.3328  0.4958
 5237SOL    HW127344   1.668   3.401   4.466 -0.2587 -0.4201  1.6674
 5237SOL    HW227345   1.693   3.529   4.394 -0.4770  0.9623  1.0164
 5238SOL     OW27346   2.901   0.856   6.107 -0.7558 -0.1643  0.2177
 5238SOL    HW127347   2.948   0.914   6.046 -0.6525  0.4437  0.8741
 5238SOL    HW227348   2.939   0.771   6.085 -4.9977 -1.9659 -0.1352
 5239SOL     OW27349   1.718   3.169   5.894 -0.5295  0.4391  0.2061
 5239SOL    HW127350   1.784   3.237   5.879  1.0741 -1.2090 -0.2930
 5239SOL    HW227351   1.675   3.197   5.975  0.9634  0.5435  0.9576
 5240SOL     OW27352   2.669   3.016   4.506 -0.1988  0.0908  0.5378
 5240SOL    HW127353   2.736   2.979   4.448 -0.8339 -0.4479  0.1484
 5240SOL    HW227354   2.605   3.030   4.436 -0.7785  1.5090  1.3646
 5241SOL     OW27355   0.693   0.523   1.546 -0.3669  0.0066  0.3983
 5241SOL    HW127356   0.599   0.507   1.548 -0.2923 -0.8059 -2.9883
 5241SOL    HW227357   0.727   0.534   1.635 -0.2673  0.6868  0.2733
 5242SOL     OW27358   4.406   1.921   6.870  0.1731 -0.4730  0.2004
 5242SOL    HW127359   4.370   1.931   6.959 -0.7498 -1.8784 -0.0117
 5242SOL    HW227360   4.461   1.999   6.872 -0.7925  0.2180 -0.2162
 5243SOL     OW27361   3.880   0.361   6.905  0.0802  0.3864 -0.4736
 5243SOL    HW127362   3.959   0.399   6.944 -0.3873  2.1366 -1.2453
 5243SOL    HW227363   3.875   0.275   6.948  0.4692  0.8247  0.4591
 5244SOL     OW27364   4.164   3.824   2.469 -0.5806  0.1293 -0.3468
 5244SOL    HW127365   4.121   3.910   2.473  1.0172  0.9364 -0.7012
 5244SOL    HW227366   4.115   3.790   2.394 -1.4323 -1.1600  0.7967
 5245SOL     OW27367   0.684   0.102   9.525  0.3331 -0.2307  0.0614
 5245SOL    HW127368   0.715   0.128   9.612  2.5351 -1.0925 -0.4765
 5245SOL    HW227369   0.706   0.175   9.468 -0.3211  0.2690  0.4484
 5246SOL     OW27370   4.139   0.992   8.116 -0.0231 -0.4318 -0.0056
 5246SOL    HW127371   4.093   1.071   8.144 -3.0439 -1.8091 -1.1365
 5246SOL    HW227372   4.104   0.978   8.028  2.3294 -0.6564 -0.9086
 5247SOL     OW27373   2.244   2.306   7.645  0.1743  0.3321  0.4534
 5247SOL    HW127374   2.281   2.395   7.646  2.4015 -0.5685 -1.0011
 5247SOL    HW227375   2.317   2.263   7.601 -2.2982 -1.1855 -2.1188
 5248SOL     OW27376   2.574   2.510   7.546  0.5644 -0.0208  0.4970
 5248SOL    HW127377   2.662   2.546   7.535 -0.4551  1.8483 -1.4159
 5248SOL    HW227378   2.598   2.417   7.546  2.4479  0.4538 -0.0471
 5249SOL     OW27379   1.248   1.660   3.723  0.2630  0.3396  0.2159
 5249SOL    HW127380   1.271   1.751   3.701  2.6860  0.4024  3.0733
 5249SOL    HW227381   1.173   1.676   3.781 -0.2413 -0.8533 -0.1235
 5250SOL     OW27382   0.918   0.681   8.617  0.3902 -0.2348 -0.6415
 5250SOL    HW127383   0.925   0.772   8.646  0.1138 -0.2962 -0.3798
 5250SOL    HW227384   0.953   0.682   8.528  0.6080 -3.5910 -0.5982
 5251SOL     OW27385   3.385   0.049  12.684  0.0117 -0.3639 -0.2103
 5251SOL    HW127386   3.389   0.127  12.629  0.8412  1.8027  2.9325
 5251SOL    HW227387   3.316   4.734  12.643 -2.9895  1.5151  2.4112
 5252SOL     OW27388   1.584   3.240  11.330  0.1227 -0.8798 -0.4761
 5252SOL    HW127389   1.621   3.160  11.367 -2.5138 -1.3821  1.1317
 5252SOL    HW227390   1.661   3.297  11.339  0.0342 -1.0116  1.0570
 5253SOL     OW27391   3.768   1.381   6.724 -0.0866  0.4438  0.4150
 5253SOL    HW127392   3.728   1.468   6.727 -1.4500 -0.0986 -1.9381
 5253SOL    HW227393   3.707   1.353   6.655 -0.4780  0.8610  0.5929
 5254SOL     OW27394   2.332   4.298  15.230  0.4773 -0.2683  0.5958
 5254SOL    HW127395   2.344   4.228  15.294  1.6615  0.7757  1.5217
 5254SOL    HW227396   2.252   4.265  15.190 -0.9045  2.0888  1.4080
 5255SOL     OW27397   1.360   1.649   1.649  0.4396  0.1092  0.6919
 5255SOL    HW127398   1.322   1.588   1.586  0.6016 -0.1185  0.8159
 5255SOL    HW227399   1.278   1.686   1.682  0.4891  0.1172  0.8042
 5256SOL     OW27400   4.612   1.796  11.133 -0.3054  0.6392 -0.0657
 5256SOL    HW127401   4.566   1.715  11.152 -1.7336  1.4390 -0.1482
 5256SOL    HW227402   4.596   1.792  11.039  0.4522  3.4614 -0.3136
 5257SOL     OW27403   4.587   1.487   3.520  0.5424  0.1228 -0.1224
 5257SOL    HW127404   4.675   1.523   3.508  1.6449 -2.1441  0.9790
 5257SOL    HW227405   4.575   1.463   3.428  0.0362  1.6669 -0.4506
 5258SOL     OW27406   4.386   3.825  16.029  0.2767 -0.1196  0.7456
 5258SOL    HW127407   4.384   3.911  15.989 -1.4525 -0.8998 -0.8575
 5258SOL    HW227408   4.304   3.784  16.000  0.7917 -0.9693  0.4898
 5259SOL     OW27409   1.580   1.419   2.155  0.0929 -0.5254 -0.0133
 5259SOL    HW127410   1.537   1.395   2.237 -0.2553  1.3885  0.3579
 5259SOL    HW227411   1.656   1.362   2.148 -0.6909 -1.6849  0.8909
 5260SOL     OW27412   0.383   3.173   0.900  0.3736 -0.3471  0.2115
 5260SOL    HW127413   0.297   3.131   0.907  0.4782 -0.4524  0.8797
 5260SOL    HW227414   0.410   3.131   0.818  0.6806 -1.4629  0.8973
 5261SOL     OW27415   1.527   3.676   2.087 -0.7624  0.4087 -0.0629
 5261SOL    HW127416   1.546   3.757   2.041  0.8296  0.1850  0.1807
 5261SOL    HW227417   1.476   3.633   2.018 -1.3557  0.8969  0.0719
 5262SOL     OW27418   2.866   2.006   3.998  0.0193  0.0413  0.7231
 5262SOL    HW127419   2.874   2.099   4.018 -0.5397 -0.0406  1.3182
 5262SOL    HW227420   2.843   2.010   3.905  0.9038 -0.7154  0.4712
 5263SOL     OW27421   0.830   2.930   2.894 -1.0581  0.0643  0.3144
 5263SOL    HW127422   0.869   2.961   2.976  1.8057  1.7129 -1.6976
 5263SOL    HW227423   0.847   2.835   2.892 -1.0876  0.1259 -2.5398
 5264SOL     OW27424   0.956   0.938   7.833  0.1162 -0.1223 -0.1754
 5264SOL    HW127425   0.992   0.945   7.922 -1.6118  0.0158  0.5181
 5264SOL    HW227426   1.031   0.900   7.788  1.0905  0.1193  1.2433
 5265SOL     OW27427   0.843   3.419   0.967 -0.3218 -0.1774 -0.5321
 5265SOL    HW127428   0.901   3.425   1.042 -1.2661 -0.2301  0.2016
 5265SOL    HW227429   0.769   3.382   1.015  1.8626 -4.1538 -0.1751
 5266SOL     OW27430   1.484   2.461  14.846 -0.2251 -0.1666 -0.4359
 5266SOL    HW127431   1.541   2.512  14.903 -2.1752 -0.8915  2.1422
 5266SOL    HW227432   1.452   2.402  14.913 -0.4997 -0.8540 -1.1697
 5267SOL     OW27433   2.290   3.173   2.085 -0.2449  0.2574  0.0312
 5267SOL    HW127434   2.201   3.168   2.121 -0.3987  1.6933 -0.1351
 5267SOL    HW227435   2.307   3.265   2.109 -0.9242 -0.0526  1.7099
 5268SOL     OW27436   2.353   0.293  12.233  0.4710  0.3247 -0.4019
 5268SOL    HW127437   2.344   0.305  12.327 -3.1892 -5.9712  0.0469
 5268SOL    HW227438   2.428   0.348  12.211  1.1657  0.7591  3.0965
 5269SOL     OW27439   2.881   1.149   9.760 -0.3269 -0.2386  0.6471
 5269SOL    HW127440   2.874   1.133   9.854  0.4215 -1.0242  0.5637
 5269SOL    HW227441   2.973   1.131   9.744 -0.5593 -1.5961  0.8636
 5270SOL     OW27442   3.402   4.308   1.638  0.4536  0.0220  0.2118
 5270SOL    HW127443   3.420   4.279   1.548  0.9517  0.7601  0.0674
 5270SOL    HW227444   3.345   4.383   1.623 -1.8750 -1.3604  2.2261
 5271SOL     OW27445   2.006   0.704   8.628  0.7487 -0.4754  0.1799
 5271SOL    HW127446   1.938   0.644   8.597 -0.4423  1.6168 -1.2577
 5271SOL    HW227447   2.020   0.676   8.719  1.7080  0.7895  0.4148
 5272SOL     OW27448   2.319   2.571   7.669  0.4798 -0.7279 -0.1449
 5272SOL    HW127449   2.294   2.655   7.631  0.3061 -0.2696  0.9762
 5272SOL    HW227450   2.406   2.553   7.634  0.6955 -1.2811  0.6585
 5273SOL     OW27451   2.860   3.763   5.601 -0.4982 -0.2909 -0.7651
 5273SOL    HW127452   2.831   3.679   5.638 -0.9762  0.5156  0.6854
 5273SOL    HW227453   2.816   3.758   5.516  1.0008  2.2092 -1.6961
 5274SOL     OW27454   1.558   3.944   7.597  0.5225  0.5948  0.3420
 5274SOL    HW127455   1.527   4.011   7.658 -0.5229  0.1648  0.2727
 5274SOL    HW227456   1.620   3.903   7.658  1.5842 -0.6102 -1.5473
 5275SOL     OW27457   2.392   4.260  17.450 -0.5091 -0.5238  0.2927
 5275SOL    HW127458   2.470   4.279  17.503 -1.3535 -0.0294  1.3527
 5275SOL    HW227459   2.330   4.327  17.480 -1.4241 -0.8127 -0.9539
 5276SOL     OW27460   4.529   0.973   5.501  0.4820  0.0671  0.2068
 5276SOL    HW127461   4.562   1.029   5.571 -2.0210  0.3758  1.1168
 5276SOL    HW227462   4.435   0.961   5.516 -0.0880  2.8683 -1.2549
 5277SOL     OW27463   0.843   2.940   1.806 -0.3686  0.0364  0.1530
 5277SOL    HW127464   0.767   2.922   1.862  0.0028  0.5751  0.8303
 5277SOL    HW227465   0.878   3.017   1.851 -0.1497 -0.7408  1.3320
 5278SOL     OW27466   3.229   1.712  13.264  0.0241  0.1265  0.1128
 5278SOL    HW127467   3.270   1.799  13.265 -0.7413  0.4900 -0.4748
 5278SOL    HW227468   3.286   1.675  13.332 -1.9188  0.3209  1.8282
 5279SOL     OW27469   2.776   2.203  15.986 -0.0175  0.3528  0.0751
 5279SOL    HW127470   2.828   2.197  16.066 -0.1030  0.2247  0.1197
 5279SOL    HW227471   2.759   2.110  15.977 -0.9512  0.5164  0.1491
 5280SOL     OW27472   1.671   1.319  12.677  0.1683  0.3534 -0.0112
 5280SOL    HW127473   1.612   1.390  12.703  0.8878  0.8579  0.2127
 5280SOL    HW227474   1.709   1.360  12.599  1.0437 -0.1518  0.1594
 5281SOL     OW27475   0.847   2.437  16.603  0.5470 -0.1291  0.4014
 5281SOL    HW127476   0.783   2.384  16.650 -0.6093  0.3409 -0.6632
 5281SOL    HW227477   0.836   2.525  16.638 -3.4659 -0.0478 -1.0432
 5282SOL     OW27478   2.242   1.792   1.776 -0.2542 -0.0742  0.2310
 5282SOL    HW127479   2.307   1.780   1.706 -1.2429 -0.1158 -0.6922
 5282SOL    HW227480   2.170   1.747   1.731 -0.1391  0.0920 -0.1193
 5283SOL     OW27481   1.723   0.483   3.799  0.2568  0.0356 -0.5422
 5283SOL    HW127482   1.672   0.564   3.801  0.9566  0.4666 -0.0186
 5283SOL    HW227483   1.661   0.413   3.822 -0.4864  0.1984 -2.0410
 5284SOL     OW27484   3.011   3.431   8.117  0.2099 -0.2447  0.0952
 5284SOL    HW127485   2.968   3.346   8.120  1.1403 -0.6882  0.8530
 5284SOL    HW227486   3.079   3.411   8.182  1.5880 -0.1494 -1.3212
 5285SOL     OW27487   3.019   4.296   6.029  0.2697 -0.2903 -0.2667
 5285SOL    HW127488   3.025   4.381   6.074  4.6385  0.4858 -2.2849
 5285SOL    HW227489   2.928   4.282   6.053  0.2370 -0.1613 -0.3139
 5286SOL     OW27490   3.235   0.220   2.799  0.2681  0.2546 -0.0398
 5286SOL    HW127491   3.329   0.220   2.816  0.3559 -1.4668 -0.6118
 5286SOL    HW227492   3.241   0.250   2.709  1.9254  2.6321  0.8546
 5287SOL     OW27493   1.932   2.791  10.082  0.0071  0.1425  0.3284
 5287SOL    HW127494   1.877   2.740  10.141 -0.6874 -0.6897 -1.0279
 5287SOL    HW227495   1.924   2.733  10.006  0.5045 -1.3819  1.4331
 5288SOL     OW27496   3.800   1.692  17.178 -0.2612 -0.1931 -0.7123
 5288SOL    HW127497   3.895   1.689  17.166 -0.0465 -0.4287  1.1135
 5288SOL    HW227498   3.795   1.782  17.208 -2.5704 -0.3379 -0.7227
 5289SOL     OW27499   0.310   0.569   3.935  0.0353  0.0669  0.0154
 5289SOL    HW127500   0.246   0.591   3.867 -1.8072 -4.8589  0.1024
 5289SOL    HW227501   0.326   0.480   3.901 -0.6496 -0.4000  0.9320
 5290SOL     OW27502   0.274   2.009   2.031  0.5273 -0.3875  0.7715
 5290SOL    HW127503   0.262   2.092   1.985  0.0864 -0.7013  0.3280
 5290SOL    HW227504   0.247   1.947   1.963  2.5619  0.8342 -1.1308
 5291SOL     OW27505   0.256   2.828   6.884 -0.2673  0.2943 -0.2991
 5291SOL    HW127506   0.338   2.866   6.915  0.1570 -0.8756  0.0090
 5291SOL    HW227507   0.191   2.831   6.955  0.0574  1.0053 -0.0366
 5292SOL     OW27508   2.038   4.368   2.251  0.5786  0.6687  0.2188
 5292SOL    HW127509   2.036   4.422   2.330  0.0530  0.0506  0.6240
 5292SOL    HW227510   1.958   4.318   2.266  1.2534 -0.0225  1.4866
 5293SOL     OW27511   0.713   4.091  10.286  0.0781 -0.0605  0.3309
 5293SOL    HW127512   0.735   4.180  10.257  1.6250 -1.0245 -1.4798
 5293SOL    HW227513   0.675   4.053  10.207 -0.2149 -0.1360  0.5087
 5294SOL     OW27514   1.499   2.948   0.901  0.5212 -0.2262  0.1681
 5294SOL    HW127515   1.495   2.874   0.961 -1.1215  0.1797  0.5619
 5294SOL    HW227516   1.570   2.995   0.945  0.8641 -1.2886  0.7511
 5295SOL     OW27517   1.369   4.159  17.158 -0.3333  0.1497  0.2713
 5295SOL    HW127518   1.461   4.166  17.132 -0.8904 -3.0211 -2.4999
 5295SOL    HW227519   1.322   4.217  17.098 -0.1443 -0.4818 -0.4849
 5296SOL     OW27520   3.276   0.510   3.584  0.1451 -0.4098  0.1447
 5296SOL    HW127521   3.363   0.472   3.594  0.5832  0.6153  0.2652
 5296SOL    HW227522   3.247   0.519   3.675  1.3719 -0.0422  0.4969
 5297SOL     OW27523   4.461   4.632   0.553 -0.0781 -0.2854  0.0589
 5297SOL    HW127524   4.412   4.714   0.555  0.7847  0.1863  1.9309
 5297SOL    HW227525   4.419   4.577   0.620 -0.2748 -0.1960  0.0075
 5298SOL     OW27526   0.994   2.758  12.025  0.0163 -0.0716  0.3078
 5298SOL    HW127527   1.024   2.842  11.992 -1.8542  0.6225  0.3815
 5298SOL    HW227528   0.916   2.781  12.077 -1.1158 -1.2914 -0.8419
 5299SOL     OW27529   0.887   0.521   2.080 -0.6426  0.2158  0.9037
 5299SOL    HW127530   0.810   0.466   2.095 -0.7448 -0.0503 -0.6284
 5299SOL    HW227531   0.929   0.508   2.165 -1.0628 -1.1317  0.8981
 5300SOL     OW27532   4.631   1.291  10.085 -0.2626  0.0478  0.3061
 5300SOL    HW127533   4.660   1.236  10.157 -2.3444 -1.9658 -0.3819
 5300SOL    HW227534   4.537   1.302  10.101  0.5419  3.1674  2.7660
 5301SOL     OW27535   0.340   3.069   6.717 -0.2095  0.0537 -0.0469
 5301SOL    HW127536   0.414   3.106   6.765 -1.1509  0.9283  0.7161
 5301SOL    HW227537   0.280   3.045   6.787  0.6217  0.4678  0.8017
 5302SOL     OW27538   4.233   3.057   4.137 -0.3334 -0.2782  0.3629
 5302SOL    HW127539   4.267   3.074   4.049  3.1402  0.0540  1.7809
 5302SOL    HW227540   4.223   2.962   4.135  2.5605 -0.5124 -2.4869
 5303SOL     OW27541   2.297   0.905  14.094 -0.3011 -0.1331 -0.0281
 5303SOL    HW127542   2.321   0.930  14.183 -0.5532 -0.6076  0.1744
 5303SOL    HW227543   2.231   0.837  14.103  2.1776 -2.2493  2.1075
 5304SOL     OW27544   3.531   2.895  16.001 -0.7687  0.9891  0.3255
 5304SOL    HW127545   3.491   2.824  16.050  2.5461 -0.9077  0.2807
 5304SOL    HW227546   3.587   2.852  15.937 -3.4593 -0.2245 -1.1940
 5305SOL     OW27547   1.082   1.572   3.466  0.4537  1.0164 -0.0000
 5305SOL    HW127548   1.044   1.563   3.378 -1.4433 -1.7639  1.1166
 5305SOL    HW227549   1.072   1.666   3.483 -0.5358  1.1209 -1.1633
 5306SOL     OW27550   2.738   1.417  13.130 -0.2077 -0.0903 -0.4339
 5306SOL    HW127551   2.720   1.455  13.044  0.6396  1.1666 -0.0563
 5306SOL    HW227552   2.754   1.325  13.107  0.1255 -0.4787  1.3458
 5307SOL     OW27553   0.723   2.135   5.789 -0.7264 -0.0064  0.2677
 5307SOL    HW127554   0.712   2.043   5.767  0.9672 -0.6089  1.9478
 5307SOL    HW227555   0.635   2.165   5.765 -0.2600 -0.8521 -2.4318
 5308SOL     OW27556   0.656   2.292   1.807 -0.5549  0.0297  0.5111
 5308SOL    HW127557   0.613   2.307   1.722 -2.0077 -1.6416  0.9693
 5308SOL    HW227558   0.680   2.381   1.832 -0.9427  0.3596 -0.2760
 5309SOL     OW27559   0.988   4.158  15.972  0.4078 -0.1513  0.3745
 5309SOL    HW127560   0.954   4.077  16.010 -1.9391  1.3081  1.3194
 5309SOL    HW227561   0.910   4.212  15.981  2.3784  2.5315  1.2701
 5310SOL     OW27562   1.673   1.554   6.446  0.2689  0.0897 -0.5899
 5310SOL    HW127563   1.716   1.482   6.400  0.2522  0.1887 -0.7603
 5310SOL    HW227564   1.583   1.555   6.411  0.2556 -1.3777 -0.5945
 5311SOL     OW27565   2.782   4.044  11.424  0.8886  0.2319  0.6005
 5311SOL    HW127566   2.723   4.119  11.422  1.2648  0.4678 -1.2613
 5311SOL    HW227567   2.774   4.003  11.338  0.6245  1.2869  0.1279
 5312SOL     OW27568   3.070   4.388  13.117  0.2171 -0.6757 -0.2459
 5312SOL    HW127569   3.154   4.414  13.079 -0.7985 -1.3618 -2.9384
 5312SOL    HW227570   3.017   4.377  13.038  1.3009  0.7413 -1.1693
 5313SOL     OW27571   1.814   3.128   5.447  0.6774 -0.2732  0.1107
 5313SOL    HW127572   1.788   3.036   5.438 -2.4396  0.9818 -3.6737
 5313SOL    HW227573   1.832   3.150   5.356  0.6679 -1.4655 -0.1891
 5314SOL     OW27574   3.100   2.904   8.286 -0.4010 -1.0426 -0.4752
 5314SOL    HW127575   3.056   2.929   8.368  1.6257  0.1952  0.2585
 5314SOL    HW227576   3.104   2.809   8.292  0.3720 -1.0971 -1.9799
 5315SOL     OW27577   3.468   0.273   7.342  0.2394  0.8897 -0.2795
 5315SOL    HW127578   3.438   0.353   7.300 -0.7858  0.5931 -0.1122
 5315SOL    HW227579   3.475   0.217   7.264  1.3860  0.2977  0.2437
 5316SOL     OW27580   3.324   2.433   8.339  0.0344 -0.1258 -0.1312
 5316SOL    HW127581   3.340   2.352   8.290  0.8462  0.2242 -0.4500
 5316SOL    HW227582   3.398   2.450   8.397  0.7885 -0.6906 -0.9297
 5317SOL     OW27583   2.062   2.796   0.403 -0.2737 -0.2381  0.0872
 5317SOL    HW127584   2.117   2.773   0.328  2.9943  2.6504  1.5807
 5317SOL    HW227585   1.990   2.740   0.376  0.9368 -1.6227 -0.2942
 5318SOL     OW27586   1.947   0.977  14.053  0.0272 -0.1854 -0.0930
 5318SOL    HW127587   1.866   0.989  14.004  0.4565 -0.3987 -0.8568
 5318SOL    HW227588   1.981   1.067  14.051  3.3235 -1.4348 -1.5202
 5319SOL     OW27589   1.916   0.014   1.511 -0.2319 -0.2270  0.3720
 5319SOL    HW127590   1.925   0.002   1.416 -0.4098 -0.5476  0.3938
 5319SOL    HW227591   1.888   4.667   1.546 -0.1440  0.1971  1.4441
 5320SOL     OW27592   0.423   3.226   5.753  0.0036  0.2320 -0.1743
 5320SOL    HW127593   0.375   3.146   5.728 -1.4731  0.9313  0.4122
 5320SOL    HW227594   0.377   3.243   5.836 -0.3340 -2.3642  0.1983
 5321SOL     OW27595   3.307   4.182   0.944 -0.6856 -0.1346 -0.4226
 5321SOL    HW127596   3.287   4.213   0.855 -0.0778  0.7750 -0.2403
 5321SOL    HW227597   3.395   4.148   0.928 -0.9633 -1.5048  0.9247
 5322SOL     OW27598   3.327   1.639   6.287 -0.4180 -0.3043 -0.0463
 5322SOL    HW127599   3.290   1.698   6.221  0.3382  1.7441  1.3592
 5322SOL    HW227600   3.277   1.664   6.365 -1.3741 -1.1496 -0.3890
 5323SOL     OW27601   1.256   2.711  12.501  0.2988 -0.4030  0.3632
 5323SOL    HW127602   1.328   2.725  12.439 -0.5445 -0.1658 -0.5687
 5323SOL    HW227603   1.295   2.646  12.559 -0.3477  1.0053  2.3572
 5324SOL     OW27604   3.191   0.318   4.626  0.2084 -0.0378  0.5129
 5324SOL    HW127605   3.194   0.367   4.708  0.0879 -0.4331  0.7521
 5324SOL    HW227606   3.125   0.251   4.640  1.9583 -1.7588  0.6195
 5325SOL     OW27607   4.363   3.961  17.041  0.3345 -0.1485  0.0934
 5325SOL    HW127608   4.375   3.930  16.951  0.9137  0.8725 -0.1735
 5325SOL    HW227609   4.270   3.940  17.052  0.6884 -1.9886 -0.4621
 5326SOL     OW27610   4.075   3.360  13.543  0.6910  0.1848  0.4699
 5326SOL    HW127611   4.109   3.324  13.461 -2.6069 -2.0233  0.0580
 5326SOL    HW227612   4.098   3.453  13.534  0.2007  0.0968 -1.7770
 5327SOL     OW27613   3.990   4.023   2.507 -0.4199 -0.0932  0.4509
 5327SOL    HW127614   3.939   3.958   2.556 -0.2525 -1.5719 -1.3453
 5327SOL    HW227615   4.039   4.053   2.583  0.1911  0.8663 -0.3286
 5328SOL     OW27616   4.428   1.267   4.819  0.1468 -0.1251 -0.2747
 5328SOL    HW127617   4.433   1.200   4.751 -0.9175  0.1838 -0.6598
 5328SOL    HW227618   4.338   1.250   4.849  0.2629  0.0896  0.1895
 5329SOL     OW27619   4.249   1.678   6.565 -0.3030  0.0881  0.1422
 5329SOL    HW127620   4.230   1.678   6.471 -1.5271  2.1349  0.3913
 5329SOL    HW227621   4.163   1.666   6.606  0.1983 -0.2585  1.0881
 5330SOL     OW27622   0.093   0.890   6.726  0.4006  0.1363 -0.2096
 5330SOL    HW127623   0.161   0.847   6.778 -0.2737 -2.5093 -1.5098
 5330SOL    HW227624   0.120   0.982   6.728  4.6477 -1.1597  1.4029
 5331SOL     OW27625   0.776   0.231   6.502 -0.0821 -0.2586 -0.2883
 5331SOL    HW127626   0.822   0.162   6.550  1.5054  0.2617 -1.0526
 5331SOL    HW227627   0.781   0.306   6.560 -1.0711  0.5658 -1.2827
 5332SOL     OW27628   3.830   1.830   6.087  0.5120 -0.2517  0.0737
 5332SOL    HW127629   3.844   1.788   6.172 -0.2035  1.7986  1.1950
 5332SOL    HW227630   3.915   1.816   6.044  1.2654  0.8675  1.1837
 5333SOL     OW27631   3.022   4.310   6.619  0.1136 -0.1101  0.0487
 5333SOL    HW127632   2.945   4.359   6.588  0.1428 -0.2846 -0.3019
 5333SOL    HW227633   2.982   4.231   6.657  0.0742  1.0600  2.4093
 5334SOL     OW27634   0.974   2.829   7.502 -0.0213 -0.6267 -0.3830
 5334SOL    HW127635   1.028   2.848   7.425  0.5010  0.5702  0.2759
 5334SOL    HW227636   0.913   2.901   7.492  0.3881 -0.5753 -2.4606
 5335SOL     OW27637   3.701   1.640   6.703  0.4253 -0.0779  0.5651
 5335SOL    HW127638   3.735   1.705   6.764 -0.0938 -1.1333  1.9842
 5335SOL    HW227639   3.684   1.697   6.628 -1.8827 -0.0718  1.0639
 5336SOL     OW27640   3.025   2.665   2.693 -0.0018 -0.1137  0.2416
 5336SOL    HW127641   3.036   2.703   2.606 -0.8198 -1.1615 -0.3117
 5336SOL    HW227642   2.934   2.638   2.682  0.1683 -0.4458 -0.3387
 5337SOL     OW27643   1.328   3.236   5.430  0.0305  0.2463 -0.1172
 5337SOL    HW127644   1.271   3.200   5.362  1.1043 -1.8672  0.0895
 5337SOL    HW227645   1.276   3.201   5.503 -0.2288 -0.7647 -0.7756
 5338SOL     OW27646   2.781   2.879   4.003 -0.0300 -0.3936  0.2077
 5338SOL    HW127647   2.839   2.893   3.929  0.0590 -2.3424 -0.0845
 5338SOL    HW227648   2.731   2.961   4.010 -1.7185 -1.5676  1.9003
 5339SOL     OW27649   1.589   3.765   4.573  0.3029  0.0675 -0.1210
 5339SOL    HW127650   1.616   3.674   4.574  0.5590  0.1433 -0.4852
 5339SOL    HW227651   1.635   3.812   4.504 -0.8938 -1.5802 -2.0260
 5340SOL     OW27652   0.408   0.497   7.174 -0.3213  0.4502 -0.1455
 5340SOL    HW127653   0.355   0.555   7.228  0.3621  0.1001  0.9026
 5340SOL    HW227654   0.480   0.477   7.234  1.0257 -1.2760 -2.3389
 5341SOL     OW27655   0.826   1.332  11.732 -0.1197 -0.2277  0.3722
 5341SOL    HW127656   0.823   1.253  11.787  0.2412 -0.6400 -0.1951
 5341SOL    HW227657   0.816   1.297  11.643 -1.3829  2.7328 -0.6556
 5342SOL     OW27658   1.420   1.436   6.883  0.1394  0.0583  0.4306
 5342SOL    HW127659   1.461   1.430   6.969  0.4736  0.3817  0.2892
 5342SOL    HW227660   1.467   1.512   6.848 -1.0122  1.3800  1.7868
 5343SOL     OW27661   2.442   1.642   9.225 -0.2378 -0.1735 -0.2591
 5343SOL    HW127662   2.354   1.638   9.187 -0.0876 -0.7938 -0.5311
 5343SOL    HW227663   2.487   1.710   9.175  0.1051  0.3965  0.8209
 5344SOL     OW27664   0.383   1.767   7.802  0.6135  0.2700 -0.3852
 5344SOL    HW127665   0.325   1.838   7.778 -1.2068 -0.4466  1.8762
 5344SOL    HW227666   0.472   1.804   7.801  1.1289 -0.9710 -1.0421
 5345SOL     OW27667   3.061   1.542   2.538  0.1766  0.1578 -0.0183
 5345SOL    HW127668   3.062   1.542   2.442 -0.5227 -0.3562 -0.0285
 5345SOL    HW227669   3.008   1.464   2.556 -1.2779  1.0850 -0.2405
 5346SOL     OW27670   3.245   3.874   4.425 -0.3225 -0.1201 -0.2553
 5346SOL    HW127671   3.303   3.800   4.440 -0.2978  0.2420  1.4895
 5346SOL    HW227672   3.177   3.828   4.375 -1.1742 -0.8440  1.5734
 5347SOL     OW27673   2.353   0.977  14.685 -0.4241  0.5550  0.1822
 5347SOL    HW127674   2.425   0.958  14.625 -0.0530 -0.3758  0.9215
 5347SOL    HW227675   2.353   1.072  14.698 -3.9213  0.3705  1.4491
 5348SOL     OW27676   0.178   2.917   1.945 -0.7753 -0.6743 -0.0863
 5348SOL    HW127677   0.201   2.869   2.024  2.8783 -0.5642 -1.0989
 5348SOL    HW227678   0.189   3.005   1.981 -0.8185  0.1683 -2.1260
 5349SOL     OW27679   0.359   1.064   8.962 -0.8044  0.9813 -0.8660
 5349SOL    HW127680   0.401   1.035   9.043 -1.0982  0.6035 -0.8482
 5349SOL    HW227681   0.415   1.141   8.953  1.7899 -0.8195 -0.2603
 5350SOL     OW27682   4.570   0.250  10.469  0.7681 -0.0536 -0.1205
 5350SOL    HW127683   4.504   0.206  10.523  1.2702  1.2312  1.5301
 5350SOL    HW227684   4.543   0.342  10.466  1.2555  0.1254  1.4058
 5351SOL     OW27685   2.908   1.340  15.064  0.0195 -0.0987 -0.0352
 5351SOL    HW127686   3.002   1.354  15.067 -0.1480  1.2325 -0.7351
 5351SOL    HW227687   2.901   1.265  15.123  0.3430  1.3316  1.8013
 5352SOL     OW27688   2.473   4.137   1.206  0.0104 -0.6325  0.3102
 5352SOL    HW127689   2.449   4.182   1.125  4.2097  0.6697 -0.1978
 5352SOL    HW227690   2.552   4.088   1.183 -0.1080 -0.4436 -0.4816
 5353SOL     OW27691   0.350   4.556   2.742  0.3677  0.9179  0.5652
 5353SOL    HW127692   0.312   4.487   2.687  3.1909  0.2322 -0.4931
 5353SOL    HW227693   0.411   4.497   2.785  1.5258  2.5767  1.1979
 5354SOL     OW27694   3.468   4.588   2.782 -0.4985 -0.2263  0.3570
 5354SOL    HW127695   3.472   4.496   2.756 -4.1304 -0.4107  0.4787
 5354SOL    HW227696   3.436   4.579   2.872 -0.4162  1.7312  0.5720
 5355SOL     OW27697   2.059   0.944   8.323 -0.4836 -0.4290  0.4516
 5355SOL    HW127698   1.968   0.972   8.321 -0.1376  0.5997 -0.7678
 5355SOL    HW227699   2.106   1.012   8.274 -3.4564  0.8950 -0.5279
 5356SOL     OW27700   3.385   3.439   4.112  0.4783 -0.3324  0.2798
 5356SOL    HW127701   3.456   3.472   4.167  0.8062 -0.7730  0.1253
 5356SOL    HW227702   3.373   3.364   4.170  1.7589  0.1020  1.1103
 5357SOL     OW27703   4.465   2.320   8.493 -0.2264 -0.4842 -0.2394
 5357SOL    HW127704   4.544   2.358   8.533  1.0445 -2.4989 -0.8418
 5357SOL    HW227705   4.487   2.235   8.456 -1.1242 -0.6762 -0.3161
 5358SOL     OW27706   3.892   3.911   9.130 -0.0302 -0.1213  0.2377
 5358SOL    HW127707   3.980   3.935   9.101 -0.2532  0.1933 -0.1728
 5358SOL    HW227708   3.874   3.832   9.079  2.5296  0.2444 -1.2448
 5359SOL     OW27709   4.685   3.775   3.286  0.1784 -0.2191  0.5627
 5359SOL    HW127710   4.642   3.698   3.323 -2.2277  1.8196  2.0773
 5359SOL    HW227711   0.037   3.745   3.299 -0.2080 -0.6520  2.2352
 5360SOL     OW27712   1.820   0.215   8.690  0.0577  0.5574  0.9179
 5360SOL    HW127713   1.882   0.267   8.640  0.8646 -0.6771  0.6325
 5360SOL    HW227714   1.743   0.209   8.633  0.4499  0.8098  0.3705
 5361SOL     OW27715   4.335   0.891   1.758 -0.5140 -0.3708 -0.4101
 5361SOL    HW127716   4.371   0.862   1.842 -1.7463 -0.9572 -0.0860
 5361SOL    HW227717   4.321   0.981   1.788 -0.2642 -0.6072  0.4069
 5362SOL     OW27718   0.654   3.409   4.537 -0.5090  0.0658 -0.1002
 5362SOL    HW127719   0.659   3.482   4.475  1.9943 -0.5249 -0.5677
 5362SOL    HW227720   0.612   3.339   4.486  0.6813  1.4193 -2.9261
 5363SOL     OW27721   1.504   2.438   3.843 -0.2141 -0.1548  0.3710
 5363SOL    HW127722   1.417   2.423   3.881 -1.2365  2.3773 -0.9978
 5363SOL    HW227723   1.550   2.455   3.926  0.9658  0.6158 -0.4448
 5364SOL     OW27724   2.058   2.926  11.026 -1.0839 -0.2210  0.1968
 5364SOL    HW127725   1.963   2.940  11.028 -1.0412 -0.3073  3.0685
 5364SOL    HW227726   2.062   2.921  10.930 -2.1417 -0.9567  0.1920
 5365SOL     OW27727   2.455   2.728   8.542 -0.3755  0.1584 -0.1902
 5365SOL    HW127728   2.418   2.782   8.612  1.9084 -0.5166  1.5170
 5365SOL    HW227729   2.539   2.702   8.579  0.8014  1.4111 -1.9677
 5366SOL     OW27730   2.149   4.200   5.679 -0.0893 -0.7631  0.1391
 5366SOL    HW127731   2.145   4.114   5.638 -0.0852  0.1785 -1.8397
 5366SOL    HW227732   2.054   4.213   5.674  0.0731  0.7487  0.9527
 5367SOL     OW27733   0.238   4.720   5.404 -0.3419 -0.0347 -0.4320
 5367SOL    HW127734   0.225   0.073   5.431 -0.2978 -0.4835  1.1084
 5367SOL    HW227735   0.314   4.692   5.456  0.0826 -2.5283 -2.3670
 5368SOL     OW27736   3.985   3.611   6.959 -0.4076  0.2363  0.5800
 5368SOL    HW127737   4.054   3.548   6.940 -2.0136 -1.6319  0.9193
 5368SOL    HW227738   3.974   3.613   7.054 -0.2306  0.6928  0.5916
 5369SOL     OW27739   1.065   0.433   8.322  0.5618  0.3910 -0.2334
 5369SOL    HW127740   1.063   0.528   8.316 -3.7766  0.4588  2.0917
 5369SOL    HW227741   1.109   0.421   8.406  0.7662 -0.5800 -0.4763
 5370SOL     OW27742   1.948   3.433   9.067  0.3474 -0.4417 -0.0303
 5370SOL    HW127743   1.863   3.464   9.101  1.7636  1.7711  1.4741
 5370SOL    HW227744   1.959   3.505   9.005 -0.4214  0.6707  1.1046
 5371SOL     OW27745   1.354   4.216   6.530 -0.3215  0.1132  0.0396
 5371SOL    HW127746   1.327   4.288   6.588  1.2674  2.0856 -1.6516
 5371SOL    HW227747   1.447   4.236   6.541 -0.4325 -0.8816  2.8535
 5372SOL     OW27748   4.446   2.920   4.760 -0.3607 -0.1273  0.6670
 5372SOL    HW127749   4.448   2.924   4.664 -0.8180 -1.4529  0.5999
 5372SOL    HW227750   4.367   2.870   4.778  0.1626 -0.8440  0.9505
 5373SOL     OW27751   3.765   2.374   2.601 -0.4484  0.6897  0.2680
 5373SOL    HW127752   3.810   2.457   2.582  1.8573 -0.8164 -0.7654
 5373SOL    HW227753   3.836   2.312   2.615  2.4870  3.8092 -0.8544
 5374SOL     OW27754   4.097   4.060   2.169 -0.3357  0.3367  0.4659
 5374SOL    HW127755   4.191   4.056   2.156 -0.1840  0.7473  1.4350
 5374SOL    HW227756   4.077   3.966   2.171 -0.7663  0.3641 -1.9691
 5375SOL     OW27757   0.544   1.968   4.286  0.4359 -1.1580 -0.5138
 5375SOL    HW127758   0.488   2.045   4.295 -0.2110 -1.5561 -1.1460
 5375SOL    HW227759   0.483   1.899   4.262  1.3579 -1.6952 -1.3015
 5376SOL     OW27760   4.060   4.538  12.370  0.0581 -0.4327  0.0497
 5376SOL    HW127761   3.968   4.534  12.395  0.4618  0.7239  1.6800
 5376SOL    HW227762   4.066   4.537  12.274  1.2340  0.0080  0.1182
 5377SOL     OW27763   4.655   1.843   2.062  0.3256  0.1305 -0.0294
 5377SOL    HW127764   4.706   1.883   2.132 -1.1655  1.1669  0.4733
 5377SOL    HW227765   4.572   1.814   2.100  0.3715  0.7470  0.5327
 5378SOL     OW27766   3.006   1.978   8.730  0.8327 -0.5826  0.4155
 5378SOL    HW127767   3.067   1.966   8.657  2.6242  2.5798  1.3609
 5378SOL    HW227768   3.044   2.058   8.767 -0.3045 -0.4430  1.2907
 5379SOL     OW27769   1.909   4.388  16.650 -0.7414 -0.2848  0.1916
 5379SOL    HW127770   1.937   4.437  16.573  1.1972  1.0489  1.7616
 5379SOL    HW227771   1.962   4.309  16.646  0.2290  0.4909 -2.2320
 5380SOL     OW27772   0.316   0.722  10.661 -0.2048 -0.0860  0.5845
 5380SOL    HW127773   0.297   0.764  10.745 -1.1495 -1.0490  0.8610
 5380SOL    HW227774   0.240   0.663  10.656  0.6144 -0.8468 -2.7361
 5381SOL     OW27775   3.140   3.048   4.385 -0.1781  0.0663 -0.6256
 5381SOL    HW127776   3.050   3.023   4.402 -0.0082 -0.0497  0.0948
 5381SOL    HW227777   3.185   2.983   4.439  0.3786  2.1129  1.4031
 5382SOL     OW27778   1.181   3.876  11.444  0.2256  0.0268 -0.1398
 5382SOL    HW127779   1.259   3.869  11.499  0.0249 -2.7750 -0.2304
 5382SOL    HW227780   1.137   3.933  11.508  1.5002 -1.2221  1.8344
 5383SOL     OW27781   0.706   0.168   2.535  0.3987  0.8010 -0.2033
 5383SOL    HW127782   0.639   0.133   2.594 -0.8366  1.4009 -1.2441
 5383SOL    HW227783   0.658   0.208   2.462  0.2943  2.8844  1.0249
 5384SOL     OW27784   1.897   0.483   8.860  0.2812 -0.1356 -0.4479
 5384SOL    HW127785   1.824   0.466   8.920 -0.4208  1.6210 -0.8122
 5384SOL    HW227786   1.941   0.544   8.919 -0.8351 -0.2920  0.5487
 5385SOL     OW27787   2.900   1.402   1.514  0.0787  0.1305  0.6362
 5385SOL    HW127788   2.971   1.345   1.542 -1.4519 -1.4319  1.3379
 5385SOL    HW227789   2.890   1.378   1.421  0.4516  0.3177  0.5506
 5386SOL     OW27790   3.386   1.365   5.220  0.1903 -0.3240 -0.0924
 5386SOL    HW127791   3.412   1.285   5.172  2.8989  0.6166 -0.1943
 5386SOL    HW227792   3.338   1.398   5.144 -2.3297 -2.5303  0.5265
 5387SOL     OW27793   3.880   0.338   3.119 -0.3305 -0.3297 -0.6981
 5387SOL    HW127794   3.941   0.408   3.144 -0.5583 -0.4949  0.3140
 5387SOL    HW227795   3.941   0.265   3.125 -1.4553 -1.1886  0.2711
 5388SOL     OW27796   0.906   1.018  12.192  0.3456 -0.5007  0.2874
 5388SOL    HW127797   0.935   0.998  12.281 -0.0823  0.2635  0.5920
 5388SOL    HW227798   0.961   1.092  12.166  1.5045 -1.8270 -1.0434
 5389SOL     OW27799   2.882   0.243   4.729  0.0180  0.3526 -0.3284
 5389SOL    HW127800   2.841   0.164   4.693 -0.1049 -1.1650  3.1796
 5389SOL    HW227801   2.926   0.204   4.804  0.0188 -0.8436 -0.9540
 5390SOL     OW27802   3.641   0.375   1.779  0.2078  0.5215 -0.0642
 5390SOL    HW127803   3.568   0.436   1.788  0.8407  1.1590  0.7636
 5390SOL    HW227804   3.625   0.325   1.859  1.1236  0.3168 -0.0042
 5391SOL     OW27805   4.701   0.936   2.878 -0.4700  0.0577 -0.1867
 5391SOL    HW127806   0.037   0.982   2.918 -0.1499 -0.8441  0.2672
 5391SOL    HW227807   4.627   0.985   2.915 -0.6249  0.0942 -0.5372
 5392SOL     OW27808   4.566   3.636  16.424  0.1328  0.0263  0.2820
 5392SOL    HW127809   4.607   3.550  16.430 -0.9018 -0.3147  2.8210
 5392SOL    HW227810   4.519   3.630  16.341  0.1413 -1.7146  0.4037
 5393SOL     OW27811   1.341   3.093   6.814 -0.2237  0.2371 -0.0346
 5393SOL    HW127812   1.313   3.117   6.725 -2.1489  0.5358  0.6472
 5393SOL    HW227813   1.285   3.156   6.860 -2.2615 -0.6270 -1.3648
 5394SOL     OW27814   1.821   2.816   5.471  0.3821 -0.1121  0.3279
 5394SOL    HW127815   1.865   2.867   5.403  0.0865 -0.9824 -0.5186
 5394SOL    HW227816   1.859   2.728   5.468 -0.2143 -0.4272  1.9479
 5395SOL     OW27817   4.166   1.551   5.855  0.0862  0.4417  0.3632
 5395SOL    HW127818   4.258   1.540   5.828  0.1466 -0.4480  0.9032
 5395SOL    HW227819   4.121   1.501   5.788  0.6127  1.4569 -0.7435
 5396SOL     OW27820   0.335   3.657   2.781  0.1736  0.0129 -0.4501
 5396SOL    HW127821   0.346   3.681   2.874  1.3147  0.6837 -0.7525
 5396SOL    HW227822   0.248   3.689   2.756  2.2864  3.0130 -3.9844
 5397SOL     OW27823   3.828   1.254   1.689  0.0366 -0.2776 -0.0910
 5397SOL    HW127824   3.871   1.212   1.764 -0.9363  0.2587  0.7595
 5397SOL    HW227825   3.763   1.318   1.717  0.9951 -0.2295  2.0820
 5398SOL     OW27826   1.726   1.864   4.423  0.1605 -0.0660 -0.2109
 5398SOL    HW127827   1.719   1.829   4.512  3.6818  2.9747  1.2774
 5398SOL    HW227828   1.779   1.804   4.371  1.1725  1.4131 -0.9038
 5399SOL     OW27829   2.763   1.351  10.188  0.0624 -0.3241  0.2124
 5399SOL    HW127830   2.757   1.447  10.191  2.0905 -0.1573 -1.2112
 5399SOL    HW227831   2.675   1.333  10.222  0.8801 -4.1142  0.3281
 5400SOL     OW27832   3.089   0.551   8.913 -0.3090 -0.1503 -0.2707
 5400SOL    HW127833   3.082   0.517   9.002 -0.8188 -0.5333 -0.4547
 5400SOL    HW227834   3.100   0.473   8.858 -0.8452  0.7735 -1.6826
 5401SOL     OW27835   4.216   1.044   3.296 -0.1282 -0.5630 -0.1919
 5401SOL    HW127836   4.274   1.118   3.274  0.7505 -1.1151  0.2527
 5401SOL    HW227837   4.142   1.080   3.345  0.9543  1.1025  0.2226
 5402SOL     OW27838   4.554   4.457  17.121  0.2162 -0.7616  0.3806
 5402SOL    HW127839   4.528   4.368  17.096  0.9469 -0.1094 -2.7348
 5402SOL    HW227840   4.475   4.495  17.159 -0.5715 -0.4511 -1.5467
 5403SOL     OW27841   4.607   4.259  13.598 -0.4345 -0.3946  0.0914
 5403SOL    HW127842   4.656   4.340  13.614  1.0238 -1.3109  0.1941
 5403SOL    HW227843   4.643   4.210  13.672 -1.4672 -1.1773  0.0835
 5404SOL     OW27844   3.661   3.613   3.427  0.0867  0.0074 -0.3270
 5404SOL    HW127845   3.604   3.674   3.380  1.0258  0.5572 -0.7487
 5404SOL    HW227846   3.651   3.536   3.371 -1.2921 -0.0118 -0.0438
 5405SOL     OW27847   3.990   1.405   5.653 -0.7774  0.3291 -0.4855
 5405SOL    HW127848   4.025   1.325   5.614  1.5021  1.0456  0.0627
 5405SOL    HW227849   3.927   1.367   5.715  0.1102 -0.5169 -0.0896
 5406SOL     OW27850   4.676   4.598   9.816  0.2152  0.0697 -0.1785
 5406SOL    HW127851   4.662   4.687   9.783 -1.1168  0.3475  1.1281
 5406SOL    HW227852   0.020   4.573   9.771 -0.7171 -0.9752 -1.2688
 5407SOL     OW27853   4.401   0.491   8.913 -0.1765  0.4472  0.1532
 5407SOL    HW127854   4.357   0.539   8.983 -3.3675  0.6039 -1.9747
 5407SOL    HW227855   4.485   0.537   8.915  0.9471 -1.6428  1.6188
 5408SOL     OW27856   2.289   3.436  17.379  0.6614  0.1325  0.2000
 5408SOL    HW127857   2.297   3.516  17.432  0.6239  0.1166  0.2295
 5408SOL    HW227858   2.231   3.386  17.436  0.7934 -1.6167 -1.2157
 5409SOL     OW27859   0.117   1.880  16.914 -0.0320  0.3635  0.5883
 5409SOL    HW127860   0.057   1.951  16.939  1.0560  1.5915 -0.3006
 5409SOL    HW227861   0.088   1.807  16.970  0.5083 -0.4657 -0.2268
 5410SOL     OW27862   4.670   2.355  10.685  0.2938 -0.2292 -0.4850
 5410SOL    HW127863   4.686   2.448  10.701  1.3839 -0.0757 -2.4687
 5410SOL    HW227864   4.578   2.348  10.712 -0.1691 -1.2577 -2.3043
 5411SOL     OW27865   2.997   1.624   5.321  0.4661 -0.4031 -0.9531
 5411SOL    HW127866   2.973   1.696   5.262  0.6253  0.9262  0.6183
 5411SOL    HW227867   3.091   1.621   5.304  0.8228  0.8618  0.7761
 5412SOL     OW27868   3.311   0.973   4.833  0.6113  0.1174 -0.1032
 5412SOL    HW127869   3.286   0.982   4.741  1.1362 -2.1410 -0.4586
 5412SOL    HW227870   3.307   0.878   4.841 -1.7005  0.3854  2.0375
 5413SOL     OW27871   3.085   3.123   7.852 -0.1540  0.5174  0.2281
 5413SOL    HW127872   3.119   3.156   7.769  0.7030 -0.0204  0.3731
 5413SOL    HW227873   2.995   3.156   7.840 -0.0808  1.3442  2.0763
 5414SOL     OW27874   4.045   2.649  14.155 -0.1872 -0.4549 -0.1737
 5414SOL    HW127875   4.016   2.731  14.116 -0.7619  0.0240  1.2815
 5414SOL    HW227876   4.127   2.677  14.196  1.8083 -3.2550 -2.2394
 5415SOL     OW27877   0.244   2.898  14.868  0.0543 -0.8099  0.0522
 5415SOL    HW127878   0.255   2.879  14.961  1.4366 -0.5607 -0.0567
 5415SOL    HW227879   0.228   2.810  14.835  2.9063 -1.7793  1.2683
 5416SOL     OW27880   3.519   0.837   2.657  0.3644  0.3670 -0.1829
 5416SOL    HW127881   3.439   0.816   2.705 -1.1578  1.5811 -2.1458
 5416SOL    HW227882   3.496   0.919   2.613  1.3365 -0.1791 -1.7206
 5417SOL     OW27883   4.557   1.577  16.949 -0.4326  0.1263  0.3762
 5417SOL    HW127884   4.631   1.623  16.989  0.3277  0.1035 -0.9986
 5417SOL    HW227885   4.558   1.617  16.862  2.5685 -0.7970 -0.0169
 5418SOL     OW27886   2.348   1.539  11.350 -0.0370 -0.3489  0.2161
 5418SOL    HW127887   2.407   1.580  11.413  0.7782 -1.1676 -0.0061
 5418SOL    HW227888   2.270   1.593  11.353  0.0669 -0.3449  2.5294
 5419SOL     OW27889   2.647   0.672   4.835  0.3714 -0.1171 -0.4291
 5419SOL    HW127890   2.662   0.600   4.896 -1.7575 -1.5440 -1.5967
 5419SOL    HW227891   2.575   0.720   4.875  0.2419 -1.2644  0.7511
 5420SOL     OW27892   0.130   3.110   6.982 -0.9153 -1.0523  0.7173
 5420SOL    HW127893   0.220   3.084   7.002 -0.4812 -0.2419 -0.2292
 5420SOL    HW227894   0.104   3.145   7.067 -1.5696 -3.4495  1.5211
 5421SOL     OW27895   2.902   2.487   8.331 -0.7115 -0.4932  0.2713
 5421SOL    HW127896   2.917   2.399   8.367  2.2003  0.0365  0.3293
 5421SOL    HW227897   2.994   2.509   8.316 -0.2894 -0.8113  2.3158
 5422SOL     OW27898   2.215   4.545  12.376 -0.2765  0.0639  0.2060
 5422SOL    HW127899   2.128   4.543  12.334 -0.9529 -1.4808  1.6782
 5422SOL    HW227900   2.261   4.512  12.299 -1.0902  0.0609 -0.2849
 5423SOL     OW27901   3.950   4.532   4.520  0.6620 -0.0865  0.0970
 5423SOL    HW127902   3.894   4.584   4.463 -0.1893 -0.2866  0.7459
 5423SOL    HW227903   3.907   4.448   4.507 -0.8143  0.9299 -1.6203
 5424SOL     OW27904   3.847   2.731   6.273  0.1980  0.0449 -0.1461
 5424SOL    HW127905   3.856   2.782   6.353 -1.0222 -0.4969  0.3382
 5424SOL    HW227906   3.753   2.717   6.274  0.2173 -0.0074  0.7367
 5425SOL     OW27907   0.015   0.571   8.589 -0.0975 -0.4217 -0.0636
 5425SOL    HW127908   0.003   0.650   8.642  1.9189 -0.0599 -0.1556
 5425SOL    HW227909   4.711   0.504   8.643 -0.0506 -1.1237 -0.8984
 5426SOL     OW27910   3.370   3.191  13.376  0.3849  0.0366  0.3190
 5426SOL    HW127911   3.316   3.199  13.454  2.2591 -0.4224  1.6545
 5426SOL    HW227912   3.394   3.284  13.373 -2.1878  0.6746 -1.0681
 5427SOL     OW27913   2.579   0.732  14.759 -0.1304  0.1398 -0.0377
 5427SOL    HW127914   2.620   0.668  14.702  0.1455 -1.1190  1.5605
 5427SOL    HW227915   2.514   0.777  14.705 -1.3303 -0.7464  0.6427
 5428SOL     OW27916   4.021   1.901  17.342  0.2461  0.0722  0.6512
 5428SOL    HW127917   4.037   1.851  17.262  1.1869  1.2644  0.0862
 5428SOL    HW227918   4.100   1.880  17.392  0.6464 -1.5953 -0.6687
 5429SOL     OW27919   4.078   1.146   5.578  0.1906 -0.6922 -0.2941
 5429SOL    HW127920   4.032   1.102   5.506  0.4628 -0.7438 -0.4377
 5429SOL    HW227921   4.146   1.196   5.532  0.6380  0.5838  1.7918
 5430SOL     OW27922   4.049   2.638   7.208  0.0782 -0.0510  0.5581
 5430SOL    HW127923   4.033   2.638   7.114  0.1618  0.6489  0.5451
 5430SOL    HW227924   4.101   2.717   7.221 -2.3530  1.6863 -0.1923
 5431SOL     OW27925   0.531   3.219   8.282  0.0851  0.5644  0.2786
 5431SOL    HW127926   0.579   3.264   8.213 -0.3866 -1.3943 -1.3212
 5431SOL    HW227927   0.466   3.173   8.229  0.4917 -1.7640  1.8068
 5432SOL     OW27928   0.711   2.495  11.388  0.1075  0.1010 -0.3531
 5432SOL    HW127929   0.795   2.536  11.406  1.7938 -2.5816 -2.0692
 5432SOL    HW227930   0.665   2.521  11.468  0.2163 -0.6322 -0.0475
 5433SOL     OW27931   2.465   0.066  12.061 -0.6490 -0.0475 -0.1929
 5433SOL    HW127932   2.458   0.065  12.157 -0.1845 -1.1413 -0.1734
 5433SOL    HW227933   2.538   0.009  12.039  0.7336  1.6757 -0.0622
 5434SOL     OW27934   2.716   3.035   3.184 -0.2873 -0.0776  0.6195
 5434SOL    HW127935   2.804   3.040   3.146 -1.1670  0.8641 -1.2768
 5434SOL    HW227936   2.709   3.121   3.223 -0.6879 -0.1711  0.7537
 5435SOL     OW27937   2.139   1.309  14.933  0.5582  0.5404  0.2503
 5435SOL    HW127938   2.159   1.340  14.844 -1.3726  0.1998 -0.3038
 5435SOL    HW227939   2.118   1.217  14.922  0.0924  0.4062  2.2223
 5436SOL     OW27940   2.381   2.914  14.826 -0.3086  0.1385 -0.3583
 5436SOL    HW127941   2.294   2.915  14.866 -0.4904 -0.0351 -0.7528
 5436SOL    HW227942   2.413   3.004  14.834 -2.0039  0.5505  1.8149
 5437SOL     OW27943   4.040   0.718   7.345 -0.0696 -0.2075 -0.4027
 5437SOL    HW127944   4.036   0.814   7.350  3.1934 -0.2400  2.3990
 5437SOL    HW227945   3.970   0.696   7.284  0.9517 -0.1684 -1.5932
 5438SOL     OW27946   4.133   2.962   4.696 -0.0594  0.5555  0.4383
 5438SOL    HW127947   4.193   2.993   4.628 -1.6818  1.7658 -0.4139
 5438SOL    HW227948   4.050   2.998   4.666 -0.4653  0.4726  1.4395
 5439SOL     OW27949   2.041   3.161   2.164  0.0661 -0.0251 -0.1533
 5439SOL    HW127950   1.991   3.094   2.211 -1.0300 -1.1354 -2.9053
 5439SOL    HW227951   1.994   3.241   2.189  1.3837  0.0322  2.1418
 5440SOL     OW27952   4.197   0.640   4.733  0.4992 -0.5101  0.0611
 5440SOL    HW127953   4.174   0.560   4.780 -1.5791 -0.6139 -1.1211
 5440SOL    HW227954   4.291   0.624   4.723  0.0860 -2.8837  0.0483
 5441SOL     OW27955   2.771   3.296  14.924  0.4152 -0.3579 -0.1896
 5441SOL    HW127956   2.772   3.246  14.842  3.2178 -0.1746 -0.2549
 5441SOL    HW227957   2.721   3.374  14.902 -0.0192  0.0456  2.1667
 5442SOL     OW27958   2.460   3.267   2.929  0.1600 -0.9589 -0.3956
 5442SOL    HW127959   2.466   3.172   2.935  2.4895 -0.8837 -1.5677
 5442SOL    HW227960   2.372   3.295   2.957  0.6936  0.3251 -0.0085
 5443SOL     OW27961   1.980   1.101   6.846 -0.1266 -0.1692  0.4856
 5443SOL    HW127962   1.976   1.010   6.819  1.7668 -0.5965  1.6536
 5443SOL    HW227963   1.890   1.123   6.868 -0.8900 -1.3834 -1.4910
 5444SOL     OW27964   4.607   1.997   7.801  0.1347  0.5327  0.0217
 5444SOL    HW127965   4.582   1.912   7.837  0.1780  1.3623  1.9560
 5444SOL    HW227966   4.662   1.979   7.724 -1.3260 -1.5289 -0.5412
 5445SOL     OW27967   1.832   1.028   5.513  0.6755  0.0353 -0.3371
 5445SOL    HW127968   1.760   1.078   5.476  0.8188  0.9474  0.6437
 5445SOL    HW227969   1.779   0.981   5.577  1.0181  0.3927  0.2070
 5446SOL     OW27970   3.960   4.568  14.750 -0.1899  0.1215  0.3025
 5446SOL    HW127971   4.017   4.645  14.745  1.6652 -1.2991 -0.2958
 5446SOL    HW227972   3.920   4.588  14.834 -0.0873 -0.6831  0.5367
 5447SOL     OW27973   1.663   1.212   1.339  0.0945  0.2087 -0.6241
 5447SOL    HW127974   1.751   1.199   1.372 -0.3184 -2.4321 -0.5653
 5447SOL    HW227975   1.616   1.201   1.422  0.1542 -1.3108 -0.7985
 5448SOL     OW27976   4.121   2.330   6.298 -0.4078 -0.6406  0.0395
 5448SOL    HW127977   4.217   2.324   6.294 -0.2359  0.7720  2.0426
 5448SOL    HW227978   4.127   2.414   6.343  0.6899 -1.1372  0.8263
 5449SOL     OW27979   4.589   4.069   4.080  0.4059 -0.5099  0.4570
 5449SOL    HW127980   4.532   4.073   4.157  0.6589  0.7010  0.5838
 5449SOL    HW227981   4.610   4.162   4.069 -0.1773 -0.3652  0.5521
 5450SOL     OW27982   2.104   1.067   3.428 -0.2391  0.2351  0.1901
 5450SOL    HW127983   2.072   1.117   3.353 -0.2396  0.7698  0.5491
 5450SOL    HW227984   2.092   1.136   3.494 -1.6890  0.1823 -0.0164
 5451SOL     OW27985   4.547   1.618  10.591 -0.1762 -0.7803  0.0986
 5451SOL    HW127986   4.623   1.665  10.625  0.3386 -1.3605 -0.2467
 5451SOL    HW227987   4.563   1.606  10.497 -0.4108 -2.3716  0.2659
 5452SOL     OW27988   4.581   2.965   4.092 -1.0397  0.4640  0.1045
 5452SOL    HW127989   4.604   2.958   4.184 -0.9777 -1.2222 -0.0496
 5452SOL    HW227990   4.562   3.059   4.082 -1.9969  0.2663 -0.0051
 5453SOL     OW27991   0.974   1.314   3.529 -0.7926  0.4011 -0.1218
 5453SOL    HW127992   1.030   1.243   3.559 -3.4310 -1.0695  1.3476
 5453SOL    HW227993   1.023   1.395   3.542 -1.1156  0.3226  1.6328
 5454SOL     OW27994   2.866   0.698   8.209 -0.8208 -0.2945 -0.2027
 5454SOL    HW127995   2.954   0.717   8.177  0.2663 -0.9897  2.3466
 5454SOL    HW227996   2.811   0.758   8.158 -0.5451 -0.3430 -0.5560
 5455SOL     OW27997   0.855   2.584   5.329 -0.0122  0.1692 -0.2932
 5455SOL    HW127998   0.922   2.652   5.325  1.9856 -1.6699  1.4180
 5455SOL    HW227999   0.867   2.562   5.421 -1.0579 -1.6269 -0.5887
 5456SOL     OW28000   3.535   0.926  10.026  0.5124  0.0354 -0.2653
 5456SOL    HW128001   3.463   0.881   9.981 -1.4053  2.2234  0.5705
 5456SOL    HW228002   3.579   0.857  10.075  2.0214  0.8099 -0.5444
 5457SOL     OW28003   4.165   0.590   7.585  0.1617 -0.3500  0.0258
 5457SOL    HW128004   4.136   0.617   7.498  0.9424  1.0540  0.1946
 5457SOL    HW228005   4.119   0.507   7.592  0.1424 -0.3882 -0.5746
 5458SOL     OW28006   3.261   4.148   0.339  0.1505  0.1709  0.6905
 5458SOL    HW128007   3.200   4.217   0.312 -0.3535 -0.6056 -0.1453
 5458SOL    HW228008   3.341   4.163   0.289  0.7871 -1.1409  1.3272
 5459SOL     OW28009   2.331   2.141   4.677  0.2283  0.3500  0.6966
 5459SOL    HW128010   2.406   2.088   4.705  0.0982 -0.2233 -0.0463
 5459SOL    HW228011   2.380   2.223   4.674  1.2664 -0.4039 -2.0376
 5460SOL     OW28012   3.923   1.489  12.632  0.2100  0.4304  0.2206
 5460SOL    HW128013   4.001   1.451  12.592 -1.3145 -0.9687 -1.3866
 5460SOL    HW228014   3.897   1.409  12.678 -3.4503  2.1714  1.1918
 5461SOL     OW28015   3.156   1.100   9.747 -0.2153  0.0522 -0.4181
 5461SOL    HW128016   3.159   1.018   9.698 -0.3147  0.0673 -0.4490
 5461SOL    HW228017   3.186   1.167   9.685 -0.6989  1.0300  0.4074
 5462SOL     OW28018   3.922   0.027  15.286 -0.2141  0.0000  0.5534
 5462SOL    HW128019   3.910   4.686  15.233 -1.1129  0.9544 -0.6365
 5462SOL    HW228020   3.896   4.729  15.371  1.8882 -0.6336  0.9219
 5463SOL     OW28021   3.245   3.380   5.964 -0.8060  0.5104  0.2138
 5463SOL    HW128022   3.278   3.411   5.880 -0.0443 -1.2438 -0.1270
 5463SOL    HW228023   3.328   3.371   6.011 -0.8642 -0.6548  0.0889
 5464SOL     OW28024   2.694   3.029   9.174  0.3568 -0.0467  0.5234
 5464SOL    HW128025   2.636   3.032   9.098  2.1995 -1.0302 -0.9231
 5464SOL    HW228026   2.638   3.070   9.239  1.2132  1.6721  0.1905
 5465SOL     OW28027   3.212   3.896  17.289 -0.2470 -0.2824  0.4330
 5465SOL    HW128028   3.292   3.944  17.265  0.5230 -1.7893 -0.0373
 5465SOL    HW228029   3.174   3.886  17.202 -1.9413 -0.0536  1.1563
 5466SOL     OW28030   0.582   3.287   4.324  0.2077  0.6820 -0.1915
 5466SOL    HW128031   0.507   3.235   4.295  0.3630 -0.2704  1.1337
 5466SOL    HW228032   0.632   3.293   4.243  3.0086  2.7041  1.6788
 5467SOL     OW28033   3.461   0.237  17.666  0.2439 -0.1161 -0.1316
 5467SOL    HW128034   3.368   0.257  17.681  0.4102 -0.4204  1.3465
 5467SOL    HW228035   3.501   0.267  17.747  0.6665 -2.9568  0.7224
 5468SOL     OW28036   1.186   0.891   8.616  0.0043 -0.9924 -0.4716
 5468SOL    HW128037   1.117   0.892   8.682  0.7573 -0.2440  0.2983
 5468SOL    HW228038   1.257   0.952   8.636  0.6680 -1.4596 -1.3611
 5469SOL     OW28039   4.431   2.443   4.694  0.0560  0.4735 -0.3204
 5469SOL    HW128040   4.370   2.413   4.762  0.3174  0.4979 -0.0796
 5469SOL    HW228041   4.385   2.417   4.614 -0.9977 -1.0182  0.7615
 5470SOL     OW28042   0.366   3.669   4.494 -0.5382 -0.0742 -0.2794
 5470SOL    HW128043   0.413   3.630   4.420 -0.0326 -0.8460  0.4348
 5470SOL    HW228044   0.432   3.732   4.522 -0.3966 -0.0004 -0.7910
 5471SOL     OW28045   0.704   1.490   9.266 -0.2377  0.4653 -0.2697
 5471SOL    HW128046   0.634   1.534   9.219 -0.6254 -0.6913 -0.7830
 5471SOL    HW228047   0.659   1.492   9.350 -1.2496  0.3556 -0.8149
 5472SOL     OW28048   3.076   4.625  11.864 -0.2498 -0.3689  0.0148
 5472SOL    HW128049   3.028   4.611  11.781  1.3994  0.2668 -1.0427
 5472SOL    HW228050   3.033   4.703  11.899  1.2040  0.1183  0.6816
 5473SOL     OW28051   1.167   1.376   6.884 -0.2109  0.6777 -0.1407
 5473SOL    HW128052   1.153   1.339   6.971  1.3901 -2.9486 -1.4433
 5473SOL    HW228053   1.257   1.408   6.894 -0.2467  1.1940 -1.4508
 5474SOL     OW28054   4.569   2.018   3.240 -0.4105 -0.2651 -0.3080
 5474SOL    HW128055   4.496   2.060   3.284 -1.0142 -0.6879 -0.9082
 5474SOL    HW228056   4.589   1.936   3.285 -0.5274 -0.3565 -0.4251
 5475SOL     OW28057   3.298   3.838   8.411 -0.3594  0.3338  0.3655
 5475SOL    HW128058   3.351   3.880   8.343  2.5110 -1.2610  1.6383
 5475SOL    HW228059   3.268   3.913   8.463 -1.2783 -0.5009  1.0178
 5476SOL     OW28060   4.146   1.509   7.234 -0.3213 -0.5292 -0.4772
 5476SOL    HW128061   4.189   1.442   7.181 -2.0545 -0.7892 -1.5346
 5476SOL    HW228062   4.132   1.472   7.321 -0.9789  0.5734 -0.1095
 5477SOL     OW28063   3.154   3.854   2.881  0.0594 -0.0740  0.1557
 5477SOL    HW128064   3.150   3.906   2.961  0.3245  0.6846 -0.3325
 5477SOL    HW228065   3.242   3.817   2.874 -0.3419 -0.7991 -1.1195
 5478SOL     OW28066   0.491   4.578   5.475  0.3488 -0.0908  0.1984
 5478SOL    HW128067   0.547   4.588   5.398 -1.3456  0.0201 -1.0181
 5478SOL    HW228068   0.496   4.489   5.509 -0.0764  0.0998  0.7644
 5479SOL     OW28069   1.239   4.134  10.553 -0.1172 -1.0586 -0.3184
 5479SOL    HW128070   1.206   4.157  10.640  1.3581 -0.9831  0.2179
 5479SOL    HW228071   1.298   4.208  10.538  0.0175 -0.9977  0.5388
 5480SOL     OW28072   0.762   2.389   7.083 -0.1662  0.4338 -0.7201
 5480SOL    HW128073   0.854   2.391   7.057 -0.5416  0.4359 -2.0664
 5480SOL    HW228074   0.713   2.426   7.010  1.6861  2.1771 -1.0892
 5481SOL     OW28075   2.673   0.610   7.061 -0.3990 -0.0611  0.2877
 5481SOL    HW128076   2.592   0.593   7.014  1.0171  0.6894 -2.4770
 5481SOL    HW228077   2.691   0.699   7.030 -2.4048  0.0802 -0.4859
 5482SOL     OW28078   3.260   3.535   1.529 -0.4524  0.4118  0.2402
 5482SOL    HW128079   3.243   3.586   1.450  1.1683  1.5733  0.6206
 5482SOL    HW228080   3.202   3.583   1.588 -2.4604 -2.2436  0.4349
 5483SOL     OW28081   2.592   0.081  16.765 -0.1388  0.3867 -0.6249
 5483SOL    HW128082   2.549   4.733  16.755  1.5694 -0.2657 -2.4503
 5483SOL    HW228083   2.561   0.127  16.687  0.7688 -0.7351 -1.6350
 5484SOL     OW28084   3.613   0.640   3.852 -0.1015  1.0858  0.8519
 5484SOL    HW128085   3.578   0.552   3.841 -1.4405  2.0022 -2.3237
 5484SOL    HW228086   3.581   0.663   3.940 -1.4186  0.4609  0.5405
 5485SOL     OW28087   4.372   1.264   2.210 -0.7806  0.0271  1.0032
 5485SOL    HW128088   4.347   1.296   2.296  0.7591  0.8877  1.1322
 5485SOL    HW228089   4.305   1.200   2.189 -0.8018  0.1794  0.5998
 5486SOL     OW28090   2.104   3.943  11.550  0.6728 -0.3667 -0.2750
 5486SOL    HW128091   2.196   3.918  11.539  0.9987  0.1652  1.1737
 5486SOL    HW228092   2.053   3.875  11.593 -0.9843  2.3229  2.0609
 5487SOL     OW28093   2.442   4.518   4.728  0.1105  0.0733 -0.3871
 5487SOL    HW128094   2.413   4.535   4.817  0.3977 -1.0187 -0.0913
 5487SOL    HW228095   2.442   4.423   4.718  0.0569 -0.2743  3.0422
 5488SOL     OW28096   3.716   3.943   5.071 -0.1771 -0.0880  0.0238
 5488SOL    HW128097   3.722   3.859   5.116  1.8120 -0.8520 -1.6615
 5488SOL    HW228098   3.690   3.999   5.144 -0.6980  0.9291 -0.9386
 5489SOL     OW28099   2.874   3.073  10.127 -0.4589 -0.4549  0.3627
 5489SOL    HW128100   2.851   3.155  10.084  3.5196  0.5297  0.0898
 5489SOL    HW228101   2.850   3.106  10.214 -0.1038 -0.0536  0.3088
 5490SOL     OW28102   3.891   0.537   2.881  0.1202  0.4442  0.9741
 5490SOL    HW128103   3.928   0.604   2.939  0.0328 -1.5538  3.3441
 5490SOL    HW228104   3.811   0.587   2.862 -1.1188 -1.3805  1.4280
 5491SOL     OW28105   1.882   1.236   4.297 -0.2203 -0.1441 -0.3087
 5491SOL    HW128106   1.822   1.302   4.264  2.5169  2.0409 -0.9825
 5491SOL    HW228107   1.908   1.262   4.386  1.5104  0.2514 -0.9181
 5492SOL     OW28108   1.473   1.320  10.938 -0.2811 -1.1352  0.2835
 5492SOL    HW128109   1.397   1.373  10.962 -0.6580 -0.1902 -3.0125
 5492SOL    HW228110   1.478   1.309  10.843 -1.1497  0.3626  0.0662
 5493SOL     OW28111   1.519   4.733   5.158  0.4150  0.0016  0.0640
 5493SOL    HW128112   1.534   0.068   5.219 -1.3116 -0.7302  1.3502
 5493SOL    HW228113   1.513   4.657   5.215 -1.1206  1.2948  1.6544
 5494SOL     OW28114   1.700   2.094   3.302 -0.1462  0.4762 -0.6905
 5494SOL    HW128115   1.748   2.052   3.373 -1.5280  0.6215  0.3208
 5494SOL    HW228116   1.770   2.139   3.255 -1.4508  2.5848 -0.5697
 5495SOL     OW28117   2.688   2.043  13.361  0.4869 -0.1802  0.1995
 5495SOL    HW128118   2.616   2.063  13.301  2.2950  3.2119 -0.8513
 5495SOL    HW228119   2.757   2.105  13.338  0.0240  1.0891  2.3062
 5496SOL     OW28120   1.367   2.860   9.139 -0.7377  0.4916 -0.0012
 5496SOL    HW128121   1.308   2.925   9.100 -0.5667  1.2597  1.0046
 5496SOL    HW228122   1.334   2.855   9.229  1.6738 -0.3220  0.8403
 5497SOL     OW28123   3.023   3.373  14.316  0.2065 -0.9056  0.0278
 5497SOL    HW128124   2.930   3.359  14.334 -0.2468  0.1451 -1.5202
 5497SOL    HW228125   3.026   3.343  14.225 -1.7672  0.5084 -0.5022
 5498SOL     OW28126   0.060   2.413   9.296  0.1941  0.4938 -0.2035
 5498SOL    HW128127   4.708   2.438   9.318  0.1550  1.8450 -1.9133
 5498SOL    HW228128   0.046   2.330   9.250 -1.8486  1.2640 -0.9292
 5499SOL     OW28129   0.287   3.125   4.999 -1.3958  0.4414 -0.1679
 5499SOL    HW128130   0.240   3.208   5.009 -0.3885  0.9911  0.0300
 5499SOL    HW228131   0.341   3.160   4.927  3.1677  0.5228  3.2746
 5500SOL     OW28132   1.607   0.832   7.973 -0.3140  0.3778  0.0697
 5500SOL    HW128133   1.702   0.835   7.986 -0.4395  0.4300  0.9717
 5500SOL    HW228134   1.585   0.925   7.971  1.0585  0.6675 -1.0977
 5501SOL     OW28135   1.402   0.282  14.904 -0.6148 -0.0038  0.1977
 5501SOL    HW128136   1.459   0.357  14.892 -0.8420 -0.0814 -1.4387
 5501SOL    HW228137   1.426   0.230  14.827 -0.3759 -0.0335  0.2938
 5502SOL     OW28138   3.196   0.672  14.780 -0.0126  0.3099 -0.3430
 5502SOL    HW128139   3.114   0.653  14.826  0.4094 -0.2769  0.1619
 5502SOL    HW228140   3.217   0.580  14.766  0.1213  0.5791 -1.9629
 5503SOL     OW28141   3.343   0.349  12.916 -0.2672  0.8371 -0.1035
 5503SOL    HW128142   3.405   0.277  12.910 -1.7987 -0.5572  0.7472
 5503SOL    HW228143   3.400   0.424  12.898 -0.6069  0.5970 -2.1122
 5504SOL     OW28144   4.044   0.587  17.239  0.2035  0.4594  0.6375
 5504SOL    HW128145   4.040   0.506  17.188  0.5615  0.6494  0.3079
 5504SOL    HW228146   4.132   0.614  17.212  0.3853 -0.7480  0.0155
 5505SOL     OW28147   1.052   1.392   2.494 -0.5913 -0.0216 -0.0557
 5505SOL    HW128148   1.053   1.344   2.412 -1.2071  0.9462 -0.6302
 5505SOL    HW228149   1.092   1.472   2.459 -3.3500  0.3922 -2.2061
 5506SOL     OW28150   3.224   1.464   6.691 -0.4290 -0.4399  0.7935
 5506SOL    HW128151   3.305   1.414   6.694 -0.6062 -0.7701  0.1483
 5506SOL    HW228152   3.161   1.418   6.747 -1.5526 -1.2889 -1.1603
 5507SOL     OW28153   4.064   2.085   7.227 -0.2273  0.0812 -0.5489
 5507SOL    HW128154   4.060   2.179   7.247  1.0101 -0.0031  0.0872
 5507SOL    HW228155   4.029   2.049   7.309 -0.6949  1.1008 -0.3008
 5508SOL     OW28156   1.920   1.689   7.784 -0.4008  0.0712  0.3599
 5508SOL    HW128157   1.981   1.763   7.789  1.5586 -1.5431  0.4057
 5508SOL    HW228158   1.895   1.678   7.876  2.6079 -2.6135  0.8732
 5509SOL     OW28159   3.945   3.123  14.593  0.2095  0.1703 -0.1707
 5509SOL    HW128160   3.995   3.205  14.597 -0.4855  0.6407 -1.1651
 5509SOL    HW228161   3.922   3.108  14.685 -0.9790 -0.7945 -0.6262
 5510SOL     OW28162   0.036   1.742   8.091 -0.2256  0.3108  0.2741
 5510SOL    HW128163   0.106   1.691   8.050 -0.0414  1.7615 -1.2084
 5510SOL    HW228164   4.693   1.695   8.071  0.4051  0.1210 -1.8066
 5511SOL     OW28165   0.598   1.715   6.311 -0.0139 -0.0161 -0.3326
 5511SOL    HW128166   0.592   1.800   6.354 -1.0732 -1.9207  3.3720
 5511SOL    HW228167   0.686   1.699   6.347  0.8605  1.5536 -1.7959
 5512SOL     OW28168   2.185   1.036  14.883  0.1509  0.4515 -0.0003
 5512SOL    HW128169   2.241   0.993  14.819  0.0294  0.6316 -0.2270
 5512SOL    HW228170   2.238   1.017  14.960 -0.6639 -0.0848  0.4247
 5513SOL     OW28171   0.466   3.582   6.438 -0.4644  0.4503 -0.3624
 5513SOL    HW128172   0.507   3.543   6.361  1.0223  0.3783  0.4665
 5513SOL    HW228173   0.475   3.676   6.421  0.8503  0.3208 -0.3701
 5514SOL     OW28174   0.025   4.637  17.598  0.1203 -0.7281  0.0875
 5514SOL    HW128175   0.047   4.631  17.691 -0.5180 -0.5429  0.2493
 5514SOL    HW228176   0.109   4.639  17.551 -1.4223 -0.1860 -2.6531
 5515SOL     OW28177   1.050   3.260   5.947 -0.7816  0.4111 -0.1633
 5515SOL    HW128178   1.048   3.243   6.041  2.1160  1.1239  0.0155
 5515SOL    HW228179   1.119   3.200   5.919 -2.1048 -1.5089  0.6906
 5516SOL     OW28180   2.511   4.058   3.090  0.0291  0.2941  0.3041
 5516SOL    HW128181   2.511   4.154   3.093 -0.0579  0.2825  0.5882
 5516SOL    HW228182   2.565   4.027   3.162 -1.7096 -1.2899  0.9446
 5517SOL     OW28183   2.514   3.112   8.956  0.0220  0.8369  0.3575
 5517SOL    HW128184   2.588   3.164   8.926 -0.8745  3.1664  2.1864
 5517SOL    HW228185   2.517   3.032   8.904  0.3297  2.7703 -2.6099
 5518SOL     OW28186   1.687   0.630   3.023 -0.7055 -0.7436 -0.1237
 5518SOL    HW128187   1.594   0.633   3.047 -0.9260 -1.3271 -0.9237
 5518SOL    HW228188   1.686   0.623   2.927 -0.7369  0.1620 -0.1926
 5519SOL     OW28189   1.530   3.563   2.373  0.5617  0.0780 -0.6918
 5519SOL    HW128190   1.491   3.496   2.316 -0.7805 -0.3660  0.7262
 5519SOL    HW228191   1.466   3.633   2.365 -0.8730 -0.8005  2.7302
 5520SOL     OW28192   0.499   2.958   5.082 -0.2303  0.0758 -0.0525
 5520SOL    HW128193   0.567   3.020   5.108  1.1285 -0.8204 -1.4630
 5520SOL    HW228194   0.426   3.018   5.065 -0.9832 -1.5415 -2.6208
 5521SOL     OW28195   3.921   1.389  14.457 -0.3764  0.4055  0.2544
 5521SOL    HW128196   3.975   1.466  14.443 -0.1184  0.4950  1.7774
 5521SOL    HW228197   3.950   1.378  14.547  1.4179  2.0304 -0.1447
 5522SOL     OW28198   4.091   3.593  11.351  0.3569 -0.1959 -0.5572
 5522SOL    HW128199   4.183   3.585  11.377 -0.6824 -2.6908  2.3155
 5522SOL    HW228200   4.091   3.650  11.274  3.2395 -0.2732 -0.5976
 5523SOL     OW28201   4.680   2.069  16.988  0.4512  0.2239 -0.3267
 5523SOL    HW128202   4.691   2.159  16.956 -0.4119 -0.0402 -1.3526
 5523SOL    HW228203   4.649   2.073  17.079 -0.0138 -0.6030 -0.4501
 5524SOL     OW28204   2.002   2.516   2.313 -0.0056  0.6052  0.1693
 5524SOL    HW128205   1.918   2.472   2.324  0.9961 -2.0788 -2.7581
 5524SOL    HW228206   1.968   2.603   2.292 -1.0859  0.1135 -0.0936
 5525SOL     OW28207   3.894   0.162  11.832 -0.5329 -0.3784  0.6221
 5525SOL    HW128208   3.956   0.097  11.800 -0.1251  0.1858  0.2803
 5525SOL    HW228209   3.870   0.223  11.762 -0.3840  0.5354  1.3583
 5526SOL     OW28210   0.319   1.863   2.511 -0.1282 -0.5244  0.6141
 5526SOL    HW128211   0.258   1.878   2.583 -2.7263  0.4545 -1.8153
 5526SOL    HW228212   0.380   1.930   2.543  0.1415 -1.2142  1.5247
 5527SOL     OW28213   0.602   0.906   1.712  0.0787  0.0156  0.6620
 5527SOL    HW128214   0.527   0.849   1.732  0.8086 -0.8294  1.0089
 5527SOL    HW228215   0.609   0.940   1.801 -1.1838 -3.4613  2.0951
 5528SOL     OW28216   3.740   3.898  16.660 -0.3586  0.5753  0.2579
 5528SOL    HW128217   3.705   3.978  16.702  0.4193  1.5840 -1.0265
 5528SOL    HW228218   3.828   3.934  16.648 -0.3341  1.3165  2.5161
 5529SOL     OW28219   0.789   2.061   7.119  0.2453 -0.1558 -0.0031
 5529SOL    HW128220   0.764   1.987   7.174 -0.8885  0.8084  0.7921
 5529SOL    HW228221   0.742   2.128   7.169  1.5870 -0.1648  1.2455
 5530SOL     OW28222   0.689   3.138   5.147  0.3166  0.0477  0.1767
 5530SOL    HW128223   0.761   3.097   5.195  0.1329 -0.5674 -0.0747
 5530SOL    HW228224   0.666   3.206   5.210 -0.6595 -2.2301  2.2579
 5531SOL     OW28225   0.088   2.469   3.971 -0.4102 -0.2411  0.0400
 5531SOL    HW128226   0.071   2.563   3.978  1.6087  0.0790  0.7141
 5531SOL    HW228227   0.134   2.446   4.052 -0.3110  0.3914  0.1638
 5532SOL     OW28228   3.171   0.192   5.046  0.0924 -0.4856 -0.3347
 5532SOL    HW128229   3.250   0.138   5.056 -1.0625 -2.5038 -2.0402
 5532SOL    HW228230   3.107   0.125   5.022 -1.7145  1.2105 -0.1582
 5533SOL     OW28231   0.051   3.292   7.244  0.1335 -0.5969 -0.4555
 5533SOL    HW128232   0.085   3.318   7.329 -2.9905  1.0897  0.2855
 5533SOL    HW228233   0.086   3.360   7.187  1.7250 -2.1476 -1.3330
 5534SOL     OW28234   2.296   4.678   2.309 -0.3652 -0.0148  0.4067
 5534SOL    HW128235   2.289   0.034   2.328 -3.8389  0.1017 -1.2609
 5534SOL    HW228236   2.381   4.661   2.348 -0.7530 -2.4554  0.1964
 5535SOL     OW28237   4.436   3.861  16.517 -0.1958 -0.4956  0.0396
 5535SOL    HW128238   4.468   3.776  16.486 -0.4061 -0.4201 -0.3817
 5535SOL    HW228239   4.415   3.909  16.437  2.7663  1.0847  0.2067
 5536SOL     OW28240   3.231   3.425   4.674  0.4484 -0.5866 -0.2231
 5536SOL    HW128241   3.289   3.496   4.701  0.9087 -0.6467 -1.0524
 5536SOL    HW228242   3.282   3.352   4.640 -0.4153 -0.7555 -1.1701
 5537SOL     OW28243   1.760   4.100   1.804 -0.2131 -0.0561 -0.6127
 5537SOL    HW128244   1.726   4.189   1.801 -1.3513 -0.4203  1.0870
 5537SOL    HW228245   1.828   4.108   1.871 -1.1189 -2.0274  0.5572
 5538SOL     OW28246   0.009   1.151   0.773 -0.2588 -0.0110  0.6116
 5538SOL    HW128247   0.039   1.225   0.720  1.1487 -0.9172  0.1382
 5538SOL    HW228248   4.709   1.086   0.714  2.2941  0.3874 -1.4638
 5539SOL     OW28249   0.506   1.974   2.169  0.7617 -0.6496  0.3055
 5539SOL    HW128250   0.549   2.042   2.116 -0.7095 -0.4612 -0.6513
 5539SOL    HW228251   0.426   1.973   2.117 -0.1417  0.0611  1.6526
 5540SOL     OW28252   4.160   4.610  16.359 -0.2655  0.2286  0.2418
 5540SOL    HW128253   4.154   4.635  16.451  2.1459  1.6381  0.0255
 5540SOL    HW228254   4.103   4.684  16.336 -0.6553 -0.1091  0.1169
 5541SOL     OW28255   4.156   0.467  16.750 -0.5384 -0.6053 -0.0422
 5541SOL    HW128256   4.201   0.551  16.742  1.7126 -1.8521 -0.5588
 5541SOL    HW228257   4.226   0.408  16.778 -0.4909 -1.0454 -1.1049
 5542SOL     OW28258   1.280   0.783   1.905 -0.1054  0.6058 -0.0132
 5542SOL    HW128259   1.214   0.732   1.859 -1.5611  1.2071  1.4181
 5542SOL    HW228260   1.236   0.780   1.990 -1.9882 -1.2911 -1.0690
 5543SOL     OW28261   2.996   4.400   2.358  0.5783  0.0883 -0.0891
 5543SOL    HW128262   3.026   4.491   2.353  5.5985 -1.5403 -0.1699
 5543SOL    HW228263   3.001   4.373   2.267 -2.0978 -0.0833 -0.1885
 5544SOL     OW28264   0.554   4.088  13.060  0.1347  0.2488  0.2068
 5544SOL    HW128265   0.591   4.077  12.972 -0.9367  0.8730 -0.3273
 5544SOL    HW228266   0.518   4.002  13.084 -0.1101  0.7561  1.6076
 5545SOL     OW28267   4.020   2.003   2.173 -0.7779  0.2905 -0.3351
 5545SOL    HW128268   4.112   2.027   2.167 -0.6784 -0.2926 -1.2185
 5545SOL    HW228269   4.017   1.950   2.093  0.7856  0.1554 -0.3127
 5546SOL     OW28270   0.588   3.028   9.251  0.1246  0.1336 -0.8497
 5546SOL    HW128271   0.643   3.099   9.218  2.4287 -1.1296  0.3169
 5546SOL    HW228272   0.541   3.001   9.172 -0.6274 -0.5822 -0.1523
 5547SOL     OW28273   2.479   0.784   6.514  0.0482 -0.6585 -0.1286
 5547SOL    HW128274   2.462   0.878   6.522 -1.6725 -0.9586 -0.0807
 5547SOL    HW228275   2.571   0.776   6.539 -0.4572  0.4279  2.0225
 5548SOL     OW28276   2.879   4.166   6.387 -0.1172  0.5423 -0.3062
 5548SOL    HW128277   2.825   4.198   6.314 -2.0512 -1.2129  0.3619
 5548SOL    HW228278   2.812   4.155   6.453  1.4492 -0.5579  1.0989
 5549SOL     OW28279   2.961   2.961  14.290 -0.4706 -0.3746 -0.8940
 5549SOL    HW128280   2.938   2.897  14.357 -1.0118  1.5294  0.7627
 5549SOL    HW228281   2.913   2.932  14.212  0.4745 -1.6183 -1.0043
 5550SOL     OW28282   4.605   4.115  16.111  0.4472 -0.3250  0.1335
 5550SOL    HW128283   4.685   4.158  16.079 -1.0829  0.7023 -2.3162
 5550SOL    HW228284   4.563   4.100  16.026 -0.0489  0.3259  0.2626
 5551SOL     OW28285   2.635   1.052   6.851  0.4799  0.2412 -0.3162
 5551SOL    HW128286   2.645   1.127   6.909  0.4632 -0.6891  0.8701
 5551SOL    HW228287   2.685   1.071   6.771  2.1069  1.7015  1.0625
 5552SOL     OW28288   1.752   1.266  11.417  0.2541  0.5292 -0.6021
 5552SOL    HW128289   1.671   1.279  11.368 -0.6652 -1.6364  0.3600
 5552SOL    HW228290   1.731   1.302  11.503 -0.8279 -2.5304  0.4223
 5553SOL     OW28291   4.526   3.311   4.960 -0.0749  0.2012 -0.1134
 5553SOL    HW128292   4.440   3.298   4.999 -0.0098 -0.7102 -0.2700
 5553SOL    HW228293   4.592   3.320   5.028  0.3093  0.8444 -0.5675
 5554SOL     OW28294   0.897   1.633   3.802 -0.1682 -0.5649 -0.2488
 5554SOL    HW128295   0.930   1.681   3.726 -3.1205 -0.4635 -1.4839
 5554SOL    HW228296   0.810   1.673   3.811 -0.0831 -0.3665 -0.3064
 5555SOL     OW28297   3.977   2.022   3.965 -0.0970  0.2634 -0.1217
 5555SOL    HW128298   3.930   2.045   4.045  1.7646  1.0038  0.7618
 5555SOL    HW228299   3.917   1.965   3.916 -2.1831  2.1451  0.2841
 5556SOL     OW28300   4.056   0.123   3.159 -0.2358  0.0336 -0.2636
 5556SOL    HW128301   4.028   0.074   3.081 -0.2616 -1.4111  0.6632
 5556SOL    HW228302   4.150   0.109   3.162 -0.1949  0.3754  0.0203
 5557SOL     OW28303   3.292   2.343   2.601 -0.5964 -0.1447 -0.9045
 5557SOL    HW128304   3.277   2.418   2.544 -2.6031  1.5850  1.8827
 5557SOL    HW228305   3.313   2.278   2.534  0.9809  0.1078 -0.6595
 5558SOL     OW28306   0.529   2.377   6.052 -0.7199 -0.3038 -0.0302
 5558SOL    HW128307   0.528   2.323   6.131  0.3055 -1.1938 -0.6286
 5558SOL    HW228308   0.515   2.468   6.079 -1.3215 -0.2148 -0.6138
 5559SOL     OW28309   4.640   4.021   8.494  0.0118  0.7765  0.6194
 5559SOL    HW128310   4.650   4.019   8.399 -1.8917 -2.7688  0.4812
 5559SOL    HW228311   4.719   4.062   8.527  0.6446 -0.3194  0.4647
 5560SOL     OW28312   4.591   2.687   6.712 -0.2324  0.1688  0.4242
 5560SOL    HW128313   4.671   2.726   6.675  0.5093  0.0463  1.8798
 5560SOL    HW228314   4.610   2.707   6.804  0.6241 -1.7009  0.6479
 5561SOL     OW28315   0.831   3.025   2.401 -0.3390  0.2729 -0.0907
 5561SOL    HW128316   0.870   2.938   2.398  0.5814  0.7506 -2.3633
 5561SOL    HW228317   0.813   3.034   2.495  2.1228  0.2471  0.3933
 5562SOL     OW28318   1.613   1.928   7.868  0.6991  0.4323 -0.2246
 5562SOL    HW128319   1.546   1.983   7.909 -0.2118 -0.2017 -0.8866
 5562SOL    HW228320   1.616   1.964   7.779  1.8301 -0.0263 -0.3638
 5563SOL     OW28321   2.356   3.647   8.301  0.0893 -0.2963  0.1930
 5563SOL    HW128322   2.304   3.624   8.379  0.4813  0.5315  0.6938
 5563SOL    HW228323   2.353   3.568   8.247  0.0917 -0.1530 -0.0133
 5564SOL     OW28324   0.752   4.025   4.550 -0.1249  0.1414  0.5967
 5564SOL    HW128325   0.747   4.080   4.628 -2.1553  0.8708 -0.0613
 5564SOL    HW228326   0.847   4.009   4.545 -0.0456  0.2277  1.8670
 5565SOL     OW28327   2.826   2.495  17.721 -0.5937 -0.6351  0.0423
 5565SOL    HW128328   2.760   2.533  17.663 -0.3978  1.3019  1.0876
 5565SOL    HW228329   2.825   2.403  17.694 -3.5040 -0.1755 -1.3976
 5566SOL     OW28330   4.049   0.799   3.335 -0.5169  0.7772 -0.3818
 5566SOL    HW128331   4.043   0.824   3.427  3.3539  0.1674  0.0375
 5566SOL    HW228332   4.106   0.868   3.300  3.0957 -0.7433  2.5347
 5567SOL     OW28333   2.384   0.818   3.132  0.1819 -0.3483  0.9378
 5567SOL    HW128334   2.320   0.750   3.110 -0.7644  0.3062  1.6861
 5567SOL    HW228335   2.400   0.849   3.044  0.9818  0.1573  1.2646
 5568SOL     OW28336   0.352   2.257   2.183  0.0516  0.3851  0.3553
 5568SOL    HW128337   0.380   2.165   2.178 -0.5876  0.3053 -1.9077
 5568SOL    HW228338   0.274   2.255   2.238  0.5709  3.0919  1.1514
 5569SOL     OW28339   3.670   1.136   3.425  1.1450  0.1235 -0.1845
 5569SOL    HW128340   3.621   1.075   3.479  0.8852  1.4793  1.1168
 5569SOL    HW228341   3.625   1.216   3.453 -0.7603  0.0198 -2.8967
 5570SOL     OW28342   2.648   3.923  16.876 -0.0650  0.7954 -0.0865
 5570SOL    HW128343   2.616   3.853  16.818 -0.0404 -0.3979  1.3390
 5570SOL    HW228344   2.685   3.871  16.947 -1.4132  0.0835  0.0930
 5571SOL     OW28345   0.685   0.771   1.981 -0.0266 -0.4124  0.8069
 5571SOL    HW128346   0.594   0.760   2.009  0.5424 -0.4817  2.6179
 5571SOL    HW228347   0.691   0.865   1.965 -0.2274 -0.5724 -0.2519
 5572SOL     OW28348   4.102   3.037   2.428 -0.3238 -0.2785 -0.0177
 5572SOL    HW128349   4.159   2.982   2.482  1.5111  1.7388  0.0598
 5572SOL    HW228350   4.023   2.984   2.417  0.6392 -1.9440  1.0865
 5573SOL     OW28351   4.409   2.538   2.803  0.0434 -0.2578  0.4963
 5573SOL    HW128352   4.436   2.629   2.792 -0.9178 -0.0593 -0.3521
 5573SOL    HW228353   4.392   2.526   2.709 -1.3364  1.0500  0.5663
 5574SOL     OW28354   4.530   1.774   4.140 -0.0385  0.5168  0.0494
 5574SOL    HW128355   4.459   1.798   4.199  0.5629  2.6436 -0.1090
 5574SOL    HW228356   4.563   1.717   4.209  2.0753  0.1291 -1.2678
 5575SOL     OW28357   0.022   1.246   5.165  0.9331 -0.1488  0.3067
 5575SOL    HW128358   0.103   1.241   5.115  0.6446 -1.4096 -0.0442
 5575SOL    HW228359   0.062   1.306   5.228  1.8964 -0.4531 -0.0209
 5576SOL     OW28360   1.928   3.081   3.394  0.1943 -0.2128  0.4647
 5576SOL    HW128361   1.852   3.024   3.386 -0.0963  0.5483 -2.2214
 5576SOL    HW228362   1.934   3.106   3.302 -1.1493  2.2133  1.0356
 5577SOL     OW28363   2.398   0.755   8.685 -0.0298 -0.0284  0.4812
 5577SOL    HW128364   2.388   0.831   8.742  1.3507  0.7451 -0.3095
 5577SOL    HW228365   2.324   0.767   8.625  1.6559 -1.8638 -1.9659
 5578SOL     OW28366   4.311   1.591   9.974 -0.1388 -0.4680  0.4765
 5578SOL    HW128367   4.363   1.518   9.942  0.8337  0.2893  0.3291
 5578SOL    HW228368   4.348   1.602  10.062 -0.7814  0.6403  0.6020
 5579SOL     OW28369   1.232   1.927   8.126  0.1240 -0.6414 -0.5219
 5579SOL    HW128370   1.289   1.981   8.179 -0.3391  0.1932 -0.8588
 5579SOL    HW228371   1.210   1.854   8.183  1.3028 -0.2127  0.4531
 5580SOL     OW28372   3.310   4.551   5.345 -0.3815 -0.2516 -0.2365
 5580SOL    HW128373   3.401   4.564   5.373 -0.3241 -1.9499  0.3262
 5580SOL    HW228374   3.274   4.640   5.343 -0.5215 -0.2616  1.4923
 5581SOL     OW28375   1.421   4.659  10.906  0.6638  0.0758  0.3981
 5581SOL    HW128376   1.363   4.730  10.934 -0.8727 -0.8826 -0.3696
 5581SOL    HW228377   1.500   4.694  10.946 -1.2365  4.5908  0.1955
 5582SOL     OW28378   2.140   2.053   9.844 -0.0529 -0.6976 -0.3721
 5582SOL    HW128379   2.123   1.966   9.807  3.9937 -0.8625 -1.8203
 5582SOL    HW228380   2.233   2.056   9.865  0.2950 -0.3402 -2.0176
 5583SOL     OW28381   1.550   0.181   6.719 -0.3519  0.2441 -0.5134
 5583SOL    HW128382   1.559   0.271   6.686 -1.0466 -0.4947 -2.6832
 5583SOL    HW228383   1.562   0.117   6.649 -1.4631 -2.4515  1.7894
 5584SOL     OW28384   1.447   0.920   2.718  0.2780 -0.4810  0.0493
 5584SOL    HW128385   1.423   0.969   2.797  1.3500 -1.5561  1.0413
 5584SOL    HW228386   1.536   0.891   2.737  1.3356  1.6438 -1.5815
 5585SOL     OW28387   1.062   2.718   4.449 -0.4217 -0.2791  0.0906
 5585SOL    HW128388   1.044   2.635   4.406  1.6837 -0.7358  0.1143
 5585SOL    HW228389   1.130   2.686   4.508  1.5645  0.1689 -1.9746
 5586SOL     OW28390   2.835   4.078   2.984 -0.5214 -0.1871  0.0998
 5586SOL    HW128391   2.815   4.014   2.916  1.9795  1.2240 -1.9661
 5586SOL    HW228392   2.838   4.018   3.058 -0.2936  1.2037  1.2143
 5587SOL     OW28393   2.083   0.832   5.637 -0.0764 -0.1412  0.3795
 5587SOL    HW128394   2.032   0.795   5.565  0.8845 -0.7689  0.0216
 5587SOL    HW228395   2.115   0.908   5.590 -1.0462  1.8528  2.9641
 5588SOL     OW28396   3.486   2.781   7.468 -0.4803  0.2815 -0.1730
 5588SOL    HW128397   3.569   2.820   7.442  0.8359 -3.0403 -0.8641
 5588SOL    HW228398   3.423   2.846   7.436 -1.5497 -0.4767  0.3697
 5589SOL     OW28399   1.713   2.121  16.375 -0.4327  0.7410 -0.0038
 5589SOL    HW128400   1.631   2.072  16.363 -1.2739  2.1996 -0.2270
 5589SOL    HW228401   1.759   2.106  16.293  1.3667  0.7099  1.0010
 5590SOL     OW28402   2.437   3.131   8.089  0.3916  0.1988  0.3940
 5590SOL    HW128403   2.450   3.102   7.998  0.2345 -0.3600  0.5475
 5590SOL    HW228404   2.437   3.051   8.142 -1.6015 -1.4332 -2.0612
 5591SOL     OW28405   3.947   1.442   9.413 -0.2227 -0.3342 -0.1517
 5591SOL    HW128406   3.877   1.496   9.377  0.7737  1.0384 -0.0378
 5591SOL    HW228407   3.928   1.457   9.506 -0.1872 -1.5313  0.0533
 5592SOL     OW28408   3.961   0.867  15.563 -0.3684 -0.1780 -0.4027
 5592SOL    HW128409   3.987   0.784  15.523  1.2561  0.2516 -0.2219
 5592SOL    HW228410   4.024   0.875  15.635 -0.1945  0.6004 -0.6403
 5593SOL     OW28411   4.044   3.342   3.011  0.3690  0.2578 -0.4171
 5593SOL    HW128412   4.127   3.368   2.972  0.6890  0.2517  0.2509
 5593SOL    HW228413   3.996   3.312   2.934 -1.2476 -0.0274  0.6920
 5594SOL     OW28414   2.216   0.764   8.471  0.6036 -0.1500 -0.2428
 5594SOL    HW128415   2.145   0.736   8.528  1.5724 -1.2945  0.3942
 5594SOL    HW228416   2.161   0.824   8.420  0.9024 -0.2443 -0.6773
 5595SOL     OW28417   0.027   1.297   7.910 -0.3816 -0.1776 -0.1675
 5595SOL    HW128418   4.673   1.291   7.884 -0.3134  1.9399 -0.9292
 5595SOL    HW228419   0.070   1.315   7.827  0.6908 -1.8374  0.0310
 5596SOL     OW28420   3.010   0.089   6.927  0.2891  0.1037 -0.0717
 5596SOL    HW128421   3.047   0.151   6.864 -1.3705  0.8863 -0.2854
 5596SOL    HW228422   3.071   0.102   7.000 -0.0104 -1.6053  0.4711
 5597SOL     OW28423   0.588   2.423  17.064  0.6233  0.0997 -0.3827
 5597SOL    HW128424   0.575   2.343  17.013  0.9207 -0.5533  0.5777
 5597SOL    HW228425   0.542   2.486  17.008  2.4562  1.1425 -0.7348
 5598SOL     OW28426   3.475   2.167   9.532  0.2171  0.4917 -0.1679
 5598SOL    HW128427   3.540   2.208   9.475  0.6764  1.0638  0.7905
 5598SOL    HW228428   3.404   2.231   9.538  0.2151  0.3637  1.1567
 5599SOL     OW28429   4.597   1.543   2.361 -0.0443 -0.0984 -0.0532
 5599SOL    HW128430   4.624   1.475   2.422  0.1112 -1.5139 -1.6920
 5599SOL    HW228431   4.565   1.613   2.418 -2.7844 -3.5216  2.5750
 5600SOL     OW28432   4.634   1.030  10.307  0.2363  0.1226 -0.3584
 5600SOL    HW128433   4.624   1.110  10.359  0.6558 -1.7237  2.6134
 5600SOL    HW228434   4.583   0.964  10.354  0.6936 -0.1589 -0.2585
 5601SOL     OW28435   2.511   3.099   6.932 -0.4815  0.2110  0.2084
 5601SOL    HW128436   2.546   3.149   6.858 -1.5616  1.4440  0.5314
 5601SOL    HW228437   2.430   3.068   6.892 -1.2207  0.0438  1.8410
 5602SOL     OW28438   1.592   3.025   0.350  0.0866  0.3412  0.1796
 5602SOL    HW128439   1.676   3.011   0.306  0.9389 -0.7565  2.1577
 5602SOL    HW228440   1.621   3.019   0.441  2.1964  3.0062 -0.3042
 5603SOL     OW28441   0.346   4.167   8.501  0.3722 -0.5849 -0.4719
 5603SOL    HW128442   0.416   4.221   8.538 -0.7136 -0.4630  1.4392
 5603SOL    HW228443   0.366   4.183   8.409 -1.6638  3.3914 -0.2035
 5604SOL     OW28444   4.261   2.260  13.234 -0.0500 -0.0672 -0.1524
 5604SOL    HW128445   4.249   2.171  13.268  0.0484 -0.9416 -2.4153
 5604SOL    HW228446   4.210   2.325  13.281 -0.1962  0.0673 -0.5008
 5605SOL     OW28447   2.629   3.445   8.225 -0.3658 -0.0325  0.0318
 5605SOL    HW128448   2.614   3.495   8.306  0.5424 -0.4411  0.4586
 5605SOL    HW228449   2.700   3.387   8.252 -0.2410  0.7513  1.4140
 5606SOL     OW28450   3.768   0.924   4.300  0.8500  0.4331 -0.3288
 5606SOL    HW128451   3.687   0.975   4.289 -0.9798 -2.5131 -0.5790
 5606SOL    HW228452   3.783   0.915   4.394 -0.2829 -0.1234 -0.2042
 5607SOL     OW28453   0.906   3.260   1.948 -0.2691  0.4568 -0.6803
 5607SOL    HW128454   0.908   3.213   2.031 -0.4362  0.1448 -0.8538
 5607SOL    HW228455   0.938   3.341   1.988  0.0611  0.9154 -1.8732
 5608SOL     OW28456   2.456   2.935   6.249  0.1327  0.0999 -0.2390
 5608SOL    HW128457   2.524   2.987   6.293 -0.9409  0.0827  1.4312
 5608SOL    HW228458   2.468   2.849   6.289 -0.4057 -1.1785 -2.7671
 5609SOL     OW28459   2.016   2.277   3.927  0.4940  0.7518  0.3588
 5609SOL    HW128460   1.985   2.339   3.994 -1.6629  0.7208 -0.5856
 5609SOL    HW228461   2.102   2.251   3.958  0.2852  0.2342  0.4997
 5610SOL     OW28462   3.472   3.490   6.939  0.8542 -0.6047  0.2426
 5610SOL    HW128463   3.464   3.518   7.030  1.9675 -0.7533  0.3872
 5610SOL    HW228464   3.558   3.516   6.906  2.3642 -2.1024  2.9361
 5611SOL     OW28465   0.141   4.548   9.629 -0.0340 -0.2793 -0.1931
 5611SOL    HW128466   0.196   4.615   9.670  2.2742 -1.2865 -1.6398
 5611SOL    HW228467   0.145   4.574   9.537 -1.3115  1.5847  0.2757
 5612SOL     OW28468   3.233   4.116   3.602  0.0192 -0.2910  0.0057
 5612SOL    HW128469   3.211   4.130   3.695 -2.3022  1.0863 -0.7454
 5612SOL    HW228470   3.324   4.091   3.610 -0.3757 -1.5981  0.3667
 5613SOL     OW28471   1.689   0.174  10.068 -0.4398  0.4160 -0.1107
 5613SOL    HW128472   1.654   0.105  10.125  1.8062  1.0073  2.0022
 5613SOL    HW228473   1.630   0.240  10.104 -0.1164  0.4344  0.3911
 5614SOL     OW28474   1.714   2.681  16.869 -0.2853 -0.2792  0.0975
 5614SOL    HW128475   1.624   2.651  16.883  0.4100 -1.7037  1.4287
 5614SOL    HW228476   1.714   2.679  16.773 -0.2831  1.1704  0.0722
 5615SOL     OW28477   0.580   4.656   4.132  0.3676 -1.0095  0.5325
 5615SOL    HW128478   0.520   4.639   4.059 -0.5383  2.2316  0.5259
 5615SOL    HW228479   0.640   4.721   4.097 -0.8657  0.4443  1.1198
 5616SOL     OW28480   1.055   0.088   3.874  0.1493  0.1640  0.3956
 5616SOL    HW128481   0.984   0.070   3.812 -0.5959  1.6732  0.8000
 5616SOL    HW228482   1.094   0.168   3.839 -0.8826  0.2758 -0.5096
 5617SOL     OW28483   1.214   3.725  14.575 -0.2965 -0.3091  0.5115
 5617SOL    HW128484   1.225   3.818  14.595  0.7740 -0.4640  0.6576
 5617SOL    HW228485   1.182   3.724  14.485  0.8754  1.4572  0.0759
 5618SOL     OW28486   2.442   0.887   5.642 -0.0149  0.3474 -0.1071
 5618SOL    HW128487   2.466   0.966   5.593 -1.8330  1.3144  0.5297
 5618SOL    HW228488   2.377   0.845   5.586 -1.3772 -0.5246  2.1148
 5619SOL     OW28489   3.017   0.764   7.062 -0.0173 -0.4556 -0.6005
 5619SOL    HW128490   2.939   0.715   7.034  1.5315 -1.8583 -2.4149
 5619SOL    HW228491   3.053   0.784   6.976  1.9340 -0.2901  0.2448
 5620SOL     OW28492   4.496   3.815   4.250 -0.4930 -0.4107  0.3701
 5620SOL    HW128493   4.495   3.909   4.264 -0.0093 -0.1889 -1.1506
 5620SOL    HW228494   4.405   3.793   4.231 -0.7052  1.1915 -0.4588
 5621SOL     OW28495   3.361   2.623  12.018 -0.2720 -0.3930  0.2567
 5621SOL    HW128496   3.309   2.686  11.967  0.0668 -1.8398 -1.9037
 5621SOL    HW228497   3.430   2.592  11.959 -0.7704  0.4076 -0.7551
 5622SOL     OW28498   4.271   3.480   3.663 -0.2835  0.2810 -0.1096
 5622SOL    HW128499   4.290   3.431   3.582  1.5835  3.3943 -1.5535
 5622SOL    HW228500   4.268   3.570   3.631  0.9105  0.3724  0.0104
 5623SOL     OW28501   1.171   4.299   7.982  0.2981 -0.6718 -0.2860
 5623SOL    HW128502   1.196   4.255   8.063  1.7850  0.2204 -0.2722
 5623SOL    HW228503   1.108   4.242   7.938 -1.6863  1.6334 -0.4477
 5624SOL     OW28504   1.644   2.992   8.758 -0.1270  0.5396  0.2349
 5624SOL    HW128505   1.641   2.960   8.848 -1.0731 -0.4261 -0.1308
 5624SOL    HW228506   1.631   2.909   8.711 -0.4370 -0.1651  1.5686
 5625SOL     OW28507   0.397   0.677   9.628  0.0955 -0.1475 -0.3747
 5625SOL    HW128508   0.473   0.629   9.594 -1.3032 -3.0466  0.6689
 5625SOL    HW228509   0.339   0.611   9.666  0.0418  1.8335  2.9864
 5626SOL     OW28510   1.676   0.940   2.011  0.0493 -0.7016 -0.1867
 5626SOL    HW128511   1.765   0.934   1.978  0.6562 -0.3082  1.4064
 5626SOL    HW228512   1.686   0.891   2.093  2.2814 -0.9037 -0.5992
 5627SOL     OW28513   1.374   3.335   2.720  0.0173 -0.2046 -0.1868
 5627SOL    HW128514   1.393   3.402   2.655  0.2173 -0.6433 -0.5761
 5627SOL    HW228515   1.451   3.280   2.710 -0.7471 -1.0372 -1.5574
 5628SOL     OW28516   3.664   2.136  17.457 -0.0217 -0.3127 -0.0941
 5628SOL    HW128517   3.741   2.101  17.503 -0.5622  1.3648  2.1042
 5628SOL    HW228518   3.680   2.231  17.462  1.0928 -0.5654  1.1818
 5629SOL     OW28519   1.003   3.047   9.146  0.8301 -0.0034 -0.3391
 5629SOL    HW128520   0.948   2.987   9.195  0.3047 -1.0527 -2.1970
 5629SOL    HW228521   1.051   3.084   9.219  0.0572 -1.4382  0.8925
 5630SOL     OW28522   2.894   2.206  13.904 -0.6398 -0.2018 -0.3852
 5630SOL    HW128523   2.872   2.209  13.811 -2.4420  2.5516  0.1173
 5630SOL    HW228524   2.813   2.165  13.935 -0.4435 -0.6138 -0.4209
 5631SOL     OW28525   3.264   1.055  13.512  0.5028  0.1175  0.0036
 5631SOL    HW128526   3.247   1.079  13.604 -2.6611  1.1498 -0.8338
 5631SOL    HW228527   3.201   1.108  13.462 -0.5380 -0.9432  0.1780
 5632SOL     OW28528   0.028   0.212   6.407  0.1167  0.0057 -0.2435
 5632SOL    HW128529   0.101   0.236   6.463  0.1582  0.5891 -0.5533
 5632SOL    HW228530   4.698   0.195   6.473 -0.1884  3.3832  0.3317
 5633SOL     OW28531   2.681   1.864   7.910 -0.2727 -0.0902  0.0994
 5633SOL    HW128532   2.696   1.924   7.983  0.2915 -0.2329  0.1014
 5633SOL    HW228533   2.768   1.862   7.870 -0.2421 -0.9912  0.2022
 5634SOL     OW28534   3.693   1.600   1.600 -0.4519 -0.2120  0.3026
 5634SOL    HW128535   3.681   1.579   1.693 -3.6521 -1.4644 -0.4009
 5634SOL    HW228536   3.693   1.694   1.617 -3.4221  0.0606 -1.3358
 5635SOL     OW28537   3.379   2.294   4.382 -0.1732 -0.3817 -0.3725
 5635SOL    HW128538   3.411   2.244   4.306  1.5608 -0.2292  0.2477
 5635SOL    HW228539   3.333   2.366   4.338  3.6801  1.3092 -1.6377
 5636SOL     OW28540   3.717   4.214   2.512 -0.0205 -0.5817 -0.2933
 5636SOL    HW128541   3.763   4.182   2.590 -1.3635  0.6282  0.9991
 5636SOL    HW228542   3.785   4.202   2.445  0.1586 -1.9239  0.1328
 5637SOL     OW28543   0.504   0.160   6.598 -0.0858  0.1083 -0.3652
 5637SOL    HW128544   0.597   0.169   6.579 -0.1779 -0.9021 -1.2819
 5637SOL    HW228545   0.481   0.253   6.606  0.4500  0.2417 -0.3821
 5638SOL     OW28546   0.475   3.864   1.347 -1.3066  0.2577 -0.3278
 5638SOL    HW128547   0.426   3.937   1.385 -2.2421 -0.1194 -0.8069
 5638SOL    HW228548   0.486   3.889   1.255  2.0155 -1.2479 -0.3408
 5639SOL     OW28549   2.716   3.742   8.478 -0.6347  0.1232  0.5641
 5639SOL    HW128550   2.783   3.727   8.411 -2.4444 -0.9179 -0.9957
 5639SOL    HW228551   2.709   3.650   8.505  2.0292 -0.1998  0.2059
 5640SOL     OW28552   2.024   1.360  11.670 -0.0958 -0.2748 -0.0101
 5640SOL    HW128553   2.035   1.287  11.730 -2.4733 -0.7383 -0.1252
 5640SOL    HW228554   1.932   1.380  11.690  0.8053  2.4157  1.4305
 5641SOL     OW28555   1.944   2.560   3.620 -0.6083  0.2309 -0.0636
 5641SOL    HW128556   1.904   2.581   3.704 -1.2114 -0.4342 -0.1884
 5641SOL    HW228557   1.905   2.476   3.597 -0.7921  0.5894 -1.0956
 5642SOL     OW28558   0.368   3.832   4.015 -0.6001 -0.4932 -0.2234
 5642SOL    HW128559   0.371   3.834   3.920  2.3598 -2.0312 -0.1916
 5642SOL    HW228560   0.293   3.890   4.024 -0.7049 -0.3046 -2.3562
 5643SOL     OW28561   2.107   1.931   1.083  0.0642 -0.0685 -0.2853
 5643SOL    HW128562   2.047   2.001   1.061  3.1123  2.0970 -1.8089
 5643SOL    HW228563   2.156   1.971   1.154  0.7782 -0.0547 -0.7792
 5644SOL     OW28564   2.247   1.769   4.112  0.1511  0.4904  0.1558
 5644SOL    HW128565   2.192   1.771   4.034  0.8792  0.4489 -0.3501
 5644SOL    HW228566   2.313   1.703   4.089 -2.4424 -2.2121  0.3416
 5645SOL     OW28567   4.039   4.124   9.786 -0.5264 -0.1171  0.0401
 5645SOL    HW128568   4.116   4.176   9.764  0.0989 -1.6785 -1.5074
 5645SOL    HW228569   3.985   4.191   9.828 -1.4815 -0.9460  0.1537
 5646SOL     OW28570   2.114   1.537   8.484 -0.1136  0.5929  0.1175
 5646SOL    HW128571   2.194   1.581   8.456 -2.1384  4.3301  0.2462
 5646SOL    HW228572   2.097   1.588   8.563 -1.4434  1.0145 -0.4345
 5647SOL     OW28573   0.612   2.355   4.418 -0.5876  0.1653 -0.7931
 5647SOL    HW128574   0.698   2.347   4.459 -1.6156  1.5484  1.6075
 5647SOL    HW228575   0.559   2.343   4.497  2.7274  1.6895  1.6523
 5648SOL     OW28576   1.842   1.203   8.861  0.9638  0.2084 -0.1457
 5648SOL    HW128577   1.765   1.153   8.885  0.7729  0.5822  0.0266
 5648SOL    HW228578   1.825   1.238   8.773 -2.3651 -1.0963  0.0124
 5649SOL     OW28579   0.826   3.995  14.327  0.0554 -0.8000 -0.3984
 5649SOL    HW128580   0.798   3.988  14.236 -0.9703 -3.7049  0.1414
 5649SOL    HW228581   0.777   4.071  14.356 -3.0366 -2.6041 -0.8925
 5650SOL     OW28582   1.214   3.493   5.056 -0.5802  0.4982 -0.4514
 5650SOL    HW128583   1.156   3.556   5.012  1.7430  1.2080 -2.4576
 5650SOL    HW228584   1.185   3.500   5.147 -2.6126  1.1592 -1.1519
 5651SOL     OW28585   2.517   0.502   0.718  0.1558  0.1891  0.5311
 5651SOL    HW128586   2.472   0.553   0.785 -0.5621 -0.9440  0.9106
 5651SOL    HW228587   2.600   0.475   0.758  0.5557 -0.2254 -0.5785
 5652SOL     OW28588   0.025   4.339  15.758 -0.1005  0.8078 -0.6866
 5652SOL    HW128589   4.734   4.253  15.727  0.4276  0.0904  0.8379
 5652SOL    HW228590   0.113   4.326  15.723  0.1294  4.5172 -1.4479
 5653SOL     OW28591   4.043   3.623   4.807 -0.2296  0.2290 -0.1925
 5653SOL    HW128592   4.002   3.589   4.887  0.8614  0.2441  0.3720
 5653SOL    HW228593   4.128   3.584   4.827 -1.4977 -1.3857  2.0353
 5654SOL     OW28594   0.582   2.250   8.753 -0.3002  0.3205 -0.4625
 5654SOL    HW128595   0.636   2.320   8.790  1.5454 -0.6271 -1.3406
 5654SOL    HW228596   0.604   2.254   8.660  1.5513  0.5485 -0.0162
 5655SOL     OW28597   1.158   3.670   8.644 -0.1785 -0.1082 -0.0294
 5655SOL    HW128598   1.231   3.711   8.690  1.3917 -1.4088 -1.3470
 5655SOL    HW228599   1.209   3.598   8.606  0.4386 -0.1343  0.8530
 5656SOL     OW28600   3.274   0.577  11.074  0.0264 -0.5336 -0.4616
 5656SOL    HW128601   3.222   0.498  11.091  0.4329 -0.8925 -0.8961
 5656SOL    HW228602   3.253   0.627  11.152  1.2925  0.3666 -0.6968
 5657SOL     OW28603   0.136   2.741   6.650  0.2955  0.3542 -0.2616
 5657SOL    HW128604   0.183   2.657   6.645  0.7728  0.6906 -1.3384
 5657SOL    HW228605   0.167   2.767   6.737  2.0442  0.3453 -0.8881
 5658SOL     OW28606   2.222   3.871   1.201  0.2973  0.0795  0.3112
 5658SOL    HW128607   2.316   3.857   1.188  0.0239  0.7731 -2.4637
 5658SOL    HW228608   2.215   3.889   1.295  0.2030  0.3250  0.2593
 5659SOL     OW28609   0.786   3.341  12.242  0.1173 -0.7804 -0.4518
 5659SOL    HW128610   0.846   3.270  12.264  0.4497 -0.2862  0.2402
 5659SOL    HW228611   0.711   3.313  12.294  1.2795 -1.1942  0.9737
 5660SOL     OW28612   0.725   1.817   1.605 -0.2028  0.1206  0.3228
 5660SOL    HW128613   0.669   1.880   1.651 -0.1625 -0.4495  1.1664
 5660SOL    HW228614   0.810   1.821   1.650 -0.7258  0.5608  1.2920
 5661SOL     OW28615   4.362   0.957   7.283  0.3923  0.0458 -0.4946
 5661SOL    HW128616   4.426   0.918   7.342 -1.5480 -1.1301  0.8028
 5661SOL    HW228617   4.414   0.951   7.202  1.6455  2.3836  0.1206
 5662SOL     OW28618   3.633   3.673   3.688 -0.3067 -0.3464 -0.2703
 5662SOL    HW128619   3.660   3.761   3.713 -0.2841 -0.1144 -1.1164
 5662SOL    HW228620   3.669   3.658   3.600  1.5377 -2.9232  0.9027
 5663SOL     OW28621   3.179   1.729   7.759 -0.3431 -0.0395 -0.4684
 5663SOL    HW128622   3.262   1.718   7.711 -1.4667  0.3624 -2.5062
 5663SOL    HW228623   3.159   1.641   7.792 -1.1764  0.2240 -0.2797
 5664SOL     OW28624   0.239   3.502   6.814  0.7716 -0.1431  0.0190
 5664SOL    HW128625   0.212   3.552   6.738 -1.7136 -1.0956  0.2553
 5664SOL    HW228626   0.334   3.517   6.816  0.1515  3.6871  1.4537
 5665SOL     OW28627   3.713   2.354   5.764 -0.1550 -0.1206  0.0727
 5665SOL    HW128628   3.627   2.318   5.784  0.9036 -1.3258  2.4992
 5665SOL    HW228629   3.710   2.387   5.674  0.7658  1.0618  0.4717
 5666SOL     OW28630   1.164   0.705  13.970 -1.0045  0.0419 -0.2054
 5666SOL    HW128631   1.205   0.785  13.937 -1.1986  0.4871  0.6389
 5666SOL    HW228632   1.209   0.633  13.925  0.1782  1.2573 -0.9782
 5667SOL     OW28633   2.804   3.753   6.542  0.4376 -1.1981  0.0848
 5667SOL    HW128634   2.860   3.785   6.612 -1.0141  1.5917 -0.0219
 5667SOL    HW228635   2.859   3.736   6.466  0.7742  0.5259 -0.0521
 5668SOL     OW28636   0.336   3.956   7.385  0.5473  0.7151 -0.0414
 5668SOL    HW128637   0.284   3.883   7.420  1.7412  0.2553  0.7682
 5668SOL    HW228638   0.354   4.005   7.465 -1.0721  1.0485  0.1275
 5669SOL     OW28639   0.155   3.914   7.619 -0.2066 -0.3603  0.2243
 5669SOL    HW128640   0.143   4.005   7.642 -0.4224 -0.9623  2.4541
 5669SOL    HW228641   0.085   3.867   7.664 -0.8451 -0.1022 -0.4887
 5670SOL     OW28642   3.994   2.865  14.018 -0.0437 -0.4267  0.1870
 5670SOL    HW128643   4.003   2.959  14.028 -0.8305 -0.4019  0.6450
 5670SOL    HW228644   4.073   2.840  13.969 -1.1671 -0.2929 -1.6738
 5671SOL     OW28645   1.647   1.508   1.841  0.1863 -0.3620 -0.7164
 5671SOL    HW128646   1.659   1.484   1.933 -0.1114  1.2647 -0.2551
 5671SOL    HW228647   1.551   1.518   1.846  0.1012 -1.0773 -1.0252
 5672SOL     OW28648   3.775   4.058   6.406 -0.6259 -0.6977 -0.0294
 5672SOL    HW128649   3.730   4.093   6.329 -0.5585 -2.7298 -0.9941
 5672SOL    HW228650   3.710   4.058   6.476  1.1132  1.6322  1.5740
 5673SOL     OW28651   2.193   2.935   9.235  0.9027  0.3653 -0.3252
 5673SOL    HW128652   2.122   2.937   9.171 -0.5523 -1.8789  1.2393
 5673SOL    HW228653   2.257   2.993   9.196  0.8936 -0.1745 -1.1468
 5674SOL     OW28654   1.937   0.461   8.090 -0.3503  0.3880  1.1101
 5674SOL    HW128655   1.939   0.435   7.998  0.9846 -2.4422  1.9453
 5674SOL    HW228656   1.861   0.518   8.089  0.1432  1.0273  0.4116
 5675SOL     OW28657   0.068   3.956   2.531  0.2871 -0.4913  0.1511
 5675SOL    HW128658   0.106   4.027   2.583 -1.6261  0.4759  0.2503
 5675SOL    HW228659   0.139   3.893   2.533 -0.2445 -1.0255  1.8778
 5676SOL     OW28660   4.475   0.021   3.885 -0.5222 -0.5037  0.0292
 5676SOL    HW128661   4.568   0.032   3.906 -0.3914 -2.4687  0.4561
 5676SOL    HW228662   4.452   4.700   3.957 -0.3139  0.4103  0.8377
 5677SOL     OW28663   3.060   3.840   6.945  0.2654 -0.0895 -0.2275
 5677SOL    HW128664   3.125   3.774   6.919  2.3069  1.8077  0.0566
 5677SOL    HW228665   3.093   3.877   7.027 -0.2729 -1.9648  0.8375
 5678SOL     OW28666   1.597   3.648   4.895  0.6485  0.3481  0.9093
 5678SOL    HW128667   1.631   3.559   4.894 -2.6918 -0.9576  2.5817
 5678SOL    HW228668   1.516   3.627   4.848  1.2149 -1.5020  0.7613
 5679SOL     OW28669   2.440   3.726   3.413 -0.2062  0.5442 -0.2126
 5679SOL    HW128670   2.499   3.781   3.361  0.3746 -2.0598 -2.2926
 5679SOL    HW228671   2.501   3.657   3.439 -2.3848 -1.4020 -0.2866
 5680SOL     OW28672   0.502   4.105   2.638  0.3518  0.4622  0.5777
 5680SOL    HW128673   0.575   4.140   2.689  0.6383  1.7083 -0.6922
 5680SOL    HW228674   0.546   4.075   2.558 -1.6577  1.9373 -1.0867
 5681SOL     OW28675   0.610   2.686   2.731  0.2174 -0.7788  0.0688
 5681SOL    HW128676   0.691   2.659   2.775  0.6384 -0.5774 -0.5869
 5681SOL    HW228677   0.576   2.746   2.798  0.9046 -0.3606  0.0345
 5682SOL     OW28678   1.264   0.015   3.334  0.2071 -0.4495 -0.4393
 5682SOL    HW128679   1.259   4.693   3.409 -0.6702  0.4991  0.2553
 5682SOL    HW228680   1.269   0.089   3.395 -0.5101 -0.6709 -0.1108
 5683SOL     OW28681   1.109   2.344   1.274  0.3757  0.0491 -0.1625
 5683SOL    HW128682   1.185   2.357   1.331  0.3223 -1.5036  0.2385
 5683SOL    HW228683   1.059   2.300   1.342  1.1395  0.5184  0.6977
 5684SOL     OW28684   1.574   1.761   7.528  0.1406 -0.1102 -0.3886
 5684SOL    HW128685   1.656   1.809   7.541 -1.0525  2.5946 -2.9631
 5684SOL    HW228686   1.607   1.682   7.485  0.5715 -0.0345 -0.2043
 5685SOL     OW28687   1.079   3.369   7.957  0.2246  0.0457  0.4668
 5685SOL    HW128688   1.129   3.438   7.914 -0.8213  0.6480  0.2250
 5685SOL    HW228689   1.160   3.327   7.986  1.0803  1.5532  0.2444
 5686SOL     OW28690   3.690   2.801   9.201  0.7413  0.1051  0.5262
 5686SOL    HW128691   3.733   2.814   9.286 -0.0060  1.7458  0.6374
 5686SOL    HW228692   3.767   2.833   9.155  0.4425 -1.3573 -0.9886
 5687SOL     OW28693   2.500   3.020   2.089  0.6731 -0.0671  0.2125
 5687SOL    HW128694   2.414   3.063   2.094  0.8221  0.2864 -0.2150
 5687SOL    HW228695   2.562   3.086   2.059  1.1418 -0.0800  1.1538
 5688SOL     OW28696   0.661   2.086   7.726  0.2629 -0.0611 -0.0893
 5688SOL    HW128697   0.739   2.067   7.675 -0.1842 -0.6825 -0.5426
 5688SOL    HW228698   0.645   2.171   7.686 -2.8881 -1.2122 -1.3347
 5689SOL     OW28699   4.096   2.778  10.811  0.1842 -0.5627 -0.1705
 5689SOL    HW128700   4.063   2.749  10.896 -3.6981 -0.5652 -1.6611
 5689SOL    HW228701   4.136   2.862  10.834 -0.3585 -0.7097  1.3087
 5690SOL     OW28702   3.877   4.460   1.516  0.1807 -0.0681 -0.5005
 5690SOL    HW128703   3.929   4.388   1.479  0.0326  0.1385 -1.1150
 5690SOL    HW228704   3.814   4.414   1.571 -0.5286  1.7049  0.1451
 5691SOL     OW28705   2.112   4.582   4.591 -0.4176  0.1289  0.0024
 5691SOL    HW128706   2.121   4.670   4.555 -1.1166  0.3614  0.3795
 5691SOL    HW228707   2.165   4.581   4.671  0.3292  0.2169 -0.5013
 5692SOL     OW28708   3.944   3.018   6.102 -0.0794 -0.1215 -0.4772
 5692SOL    HW128709   3.894   3.013   6.184  1.7701  0.5939  0.6886
 5692SOL    HW228710   4.033   3.012   6.136 -1.0197  1.3921  2.3035
 5693SOL     OW28711   4.115   1.060   7.649  0.2498  0.9169  0.3348
 5693SOL    HW128712   4.134   1.062   7.555 -1.0319 -1.1716  0.0443
 5693SOL    HW228713   4.024   1.032   7.655  0.3699  0.4958  0.1449
 5694SOL     OW28714   1.075   1.595   5.901  0.1059 -0.0142  0.1339
 5694SOL    HW128715   0.981   1.584   5.916  0.4526 -3.1143  0.0874
 5694SOL    HW228716   1.089   1.688   5.918 -1.2304  0.4440 -1.2937
 5695SOL     OW28717   4.182   3.449   8.006 -0.2189 -0.1102 -0.6324
 5695SOL    HW128718   4.277   3.433   8.002  0.2563  1.8659  3.2632
 5695SOL    HW228719   4.158   3.377   8.064 -0.2930  0.3990 -0.0354
 5696SOL     OW28720   0.671   4.730   8.190 -0.3604  0.0414  0.0120
 5696SOL    HW128721   0.655   4.642   8.156  0.2694  0.5060 -1.4810
 5696SOL    HW228722   0.637   4.715   8.279  2.1665 -0.0050  0.9542
 5697SOL     OW28723   3.071   0.425  11.115 -0.2147 -0.5426 -0.3114
 5697SOL    HW128724   3.030   0.345  11.146 -1.8802  0.1829 -0.5865
 5697SOL    HW228725   3.031   0.478  11.184 -2.1669  1.1189 -2.6842
 5698SOL     OW28726   2.532   3.668   4.851 -0.4776  0.3641 -0.4600
 5698SOL    HW128727   2.612   3.635   4.811 -1.0538 -0.2944 -1.0667
 5698SOL    HW228728   2.517   3.599   4.916  2.0559 -0.3112 -0.5965
 5699SOL     OW28729   3.629   1.006   8.069  0.1723  0.4964 -0.2122
 5699SOL    HW128730   3.684   1.010   8.147 -1.4369 -0.6104  0.9894
 5699SOL    HW228731   3.656   0.929   8.019 -1.8842 -1.2324  1.3399
 5700SOL     OW28732   3.954   2.731   6.774 -0.4723  0.2022 -0.0528
 5700SOL    HW128733   4.000   2.809   6.806  0.6724 -0.6733  0.4397
 5700SOL    HW228734   3.892   2.757   6.707 -2.0293 -2.3015  0.4286
 5701SOL     OW28735   1.479   3.872  14.797 -0.4638 -0.0514  0.8110
 5701SOL    HW128736   1.476   3.967  14.811  0.1303  0.6396 -3.5787
 5701SOL    HW228737   1.387   3.847  14.807 -0.5248 -0.7153 -1.3785
 5702SOL     OW28738   3.174   4.235   6.245  0.2749 -0.4907  0.0026
 5702SOL    HW128739   3.108   4.247   6.314  1.1254 -0.4235  0.8047
 5702SOL    HW228740   3.125   4.219   6.165  2.3085 -1.3343 -1.0666
 5703SOL     OW28741   4.510   4.467   6.841 -0.1017  0.3232 -0.0609
 5703SOL    HW128742   4.529   4.422   6.923 -1.4818 -0.8399 -0.3829
 5703SOL    HW228743   4.447   4.534   6.869  0.7428  1.1639 -0.2014
 5704SOL     OW28744   4.072   0.934   6.436 -0.0305  0.4493  0.5361
 5704SOL    HW128745   4.150   0.952   6.383 -0.2662 -1.5010 -0.4851
 5704SOL    HW228746   4.053   0.840   6.435  1.6813  0.0995  0.4899
 5705SOL     OW28747   4.150   3.365   1.783  0.3487 -0.0647 -0.2069
 5705SOL    HW128748   4.238   3.398   1.796  0.3567 -0.8685  1.7227
 5705SOL    HW228749   4.105   3.449   1.769 -2.0121 -0.9603  1.9082
 5706SOL     OW28750   2.474   1.482  13.753  0.1334 -0.5474  0.3262
 5706SOL    HW128751   2.408   1.444  13.696 -0.0389  1.7237 -0.9807
 5706SOL    HW228752   2.552   1.438  13.719 -0.2523  0.9957 -2.4852
 5707SOL     OW28753   2.948   1.026   4.625 -0.0923  0.7355  0.7241
 5707SOL    HW128754   3.010   0.958   4.598 -1.1524  0.2886 -0.6190
 5707SOL    HW228755   2.862   0.991   4.603  0.7515 -2.3188  2.3324
 5708SOL     OW28756   4.267   3.967   7.448 -0.8011  0.0575  0.1173
 5708SOL    HW128757   4.325   4.032   7.407  0.3267 -1.1758 -0.2545
 5708SOL    HW228758   4.236   3.914   7.375 -0.3401 -0.9833  0.6809
 5709SOL     OW28759   1.055   1.978   7.180  0.0983 -0.0099  0.1967
 5709SOL    HW128760   1.074   1.961   7.272  2.2290 -0.7724 -0.3942
 5709SOL    HW228761   0.960   1.987   7.188 -0.1156 -1.8959 -0.0642
 5710SOL     OW28762   2.166   3.530   6.881  0.1801 -0.1996  0.0683
 5710SOL    HW128763   2.223   3.454   6.880 -0.4704 -0.6844  0.0108
 5710SOL    HW228764   2.098   3.497   6.941  0.6418 -2.3316 -0.5976
 5711SOL     OW28765   0.378   1.787   8.914  0.7762 -0.5237 -0.0514
 5711SOL    HW128766   0.320   1.757   8.844 -0.1728  2.8335 -0.6809
 5711SOL    HW228767   0.331   1.864   8.946 -1.4023 -1.6803 -0.4156
 5712SOL     OW28768   2.161   0.707  14.215  0.3995 -0.4234  0.1652
 5712SOL    HW128769   2.105   0.707  14.293 -0.4656  0.7112 -0.4456
 5712SOL    HW228770   2.220   0.635  14.235 -0.3799 -1.4951 -1.3912
 5713SOL     OW28771   0.643   0.907   8.313  0.1979 -0.3933  0.3441
 5713SOL    HW128772   0.611   0.822   8.344 -1.2834  0.5702  1.4514
 5713SOL    HW228773   0.713   0.873   8.257 -0.0148 -0.0664 -0.1073
 5714SOL     OW28774   3.444   0.597   1.809  0.3774 -0.0768  0.2660
 5714SOL    HW128775   3.449   0.691   1.828 -3.7349  0.6219 -2.1228
 5714SOL    HW228776   3.418   0.595   1.717  0.0386 -0.3665  0.3674
 5715SOL     OW28777   3.572   3.700  16.722 -0.5958  0.2186 -0.0113
 5715SOL    HW128778   3.565   3.729  16.813 -1.6442  0.4136 -0.1518
 5715SOL    HW228779   3.632   3.762  16.682 -2.7502  1.9692 -0.4944
 5716SOL     OW28780   4.684   2.522   8.346  0.1190 -0.1622  0.2414
 5716SOL    HW128781   0.031   2.566   8.346  1.6447 -3.0965  0.1048
 5716SOL    HW228782   4.675   2.500   8.438  0.7005 -1.3136  0.0248
 5717SOL     OW28783   0.159   2.945   8.135 -0.3115 -0.5401 -0.3608
 5717SOL    HW128784   0.130   2.901   8.055 -1.0805 -1.3868  0.3773
 5717SOL    HW228785   0.075   2.981   8.163  1.8609  2.3509  2.5309
 5718SOL     OW28786   3.413   3.897   6.393 -0.2699 -0.0539  0.2611
 5718SOL    HW128787   3.400   3.990   6.406 -0.1244 -0.4620  3.2543
 5718SOL    HW228788   3.485   3.882   6.331  0.6575  1.9166  0.8663
 5719SOL     OW28789   1.197   0.062   4.294  0.4016  0.8283 -0.1993
 5719SOL    HW128790   1.291   0.067   4.311  0.1014  0.7419  1.4677
 5719SOL    HW228791   1.174   0.146   4.334 -1.9602 -0.2634  0.7050
 5720SOL     OW28792   3.883   1.430   5.233 -0.2083  0.6947 -0.1796
 5720SOL    HW128793   3.790   1.411   5.221  0.0164 -1.1650  1.1272
 5720SOL    HW228794   3.885   1.524   5.214 -1.6912  0.6987 -0.3312
 5721SOL     OW28795   2.382   2.124   5.511  0.4691 -0.2282 -0.0135
 5721SOL    HW128796   2.355   2.171   5.589  1.6406 -1.3642  1.0724
 5721SOL    HW228797   2.372   2.033   5.540  1.6124 -0.3023  0.1161
 5722SOL     OW28798   3.519   3.106   5.779 -0.1853  0.5940 -0.6455
 5722SOL    HW128799   3.582   3.133   5.846 -1.4050 -0.0756  0.7794
 5722SOL    HW228800   3.434   3.095   5.822 -0.2454 -0.7821 -1.1113
 5723SOL     OW28801   3.768   2.833   4.161  0.1222  0.2171  0.2415
 5723SOL    HW128802   3.705   2.786   4.214  0.3898 -0.8217 -0.3604
 5723SOL    HW228803   3.827   2.866   4.229 -2.5922  2.1417  1.6167
 5724SOL     OW28804   4.034   0.940   2.351  0.2335  0.0591 -0.1693
 5724SOL    HW128805   4.043   0.964   2.443  1.1102  1.8618 -0.7302
 5724SOL    HW228806   4.014   0.846   2.357 -2.0950  0.4693 -1.3972
 5725SOL     OW28807   2.072   1.593   3.533  0.4735  0.1333 -0.4530
 5725SOL    HW128808   2.126   1.671   3.534 -1.8255  1.7061  0.7375
 5725SOL    HW228809   2.029   1.600   3.448  1.9541 -1.3997 -1.3423
 5726SOL     OW28810   2.267   0.912   7.518 -0.3082  0.3088  0.7781
 5726SOL    HW128811   2.222   0.882   7.439 -0.4271 -0.3525  1.1024
 5726SOL    HW228812   2.355   0.918   7.481 -0.2469  2.5827  1.2911
 5727SOL     OW28813   1.032   0.529   8.069 -0.0958 -0.1454  0.1039
 5727SOL    HW128814   1.052   0.477   8.146 -1.7392  0.0454  0.6406
 5727SOL    HW228815   1.121   0.522   8.033 -0.7594  0.6579 -1.7144
 5728SOL     OW28816   3.940   0.500   4.238 -0.0178 -0.1896 -0.8066
 5728SOL    HW128817   3.893   0.571   4.283  0.7648  1.3355 -2.3903
 5728SOL    HW228818   3.920   0.521   4.146  0.7400 -1.2768 -1.2191
 5729SOL     OW28819   2.910   2.895  14.787 -0.3285  0.2635  0.3937
 5729SOL    HW128820   2.841   2.934  14.842  0.6749  2.7255 -0.1026
 5729SOL    HW228821   2.972   2.863  14.852  0.1590  0.9717  0.2737
 5730SOL     OW28822   2.501   3.452   5.022  0.8388 -0.3454 -0.4209
 5730SOL    HW128823   2.594   3.433   5.017  0.6984 -0.9578 -0.6332
 5730SOL    HW228824   2.457   3.377   4.983  1.0690 -1.9252  2.3587
 5731SOL     OW28825   3.675   0.786   8.797  0.1785 -0.4322 -0.0229
 5731SOL    HW128826   3.694   0.879   8.808  0.6744 -0.6115  0.6281
 5731SOL    HW228827   3.590   0.785   8.753 -0.2701 -0.1977  0.8285
 5732SOL     OW28828   3.102   0.800   4.563 -0.0751 -0.4514  0.1711
 5732SOL    HW128829   3.166   0.827   4.497 -0.4001  0.6489  0.3093
 5732SOL    HW228830   3.100   0.704   4.552 -0.4328 -0.6492  2.0064
 5733SOL     OW28831   1.221   0.824   3.742 -0.1166  0.3847  0.0911
 5733SOL    HW128832   1.137   0.779   3.726 -0.1141  0.4211 -0.0256
 5733SOL    HW228833   1.213   0.858   3.831  1.1743  0.6823  0.0819
 5734SOL     OW28834   3.774   3.046   6.328  0.7357 -0.0309  0.2922
 5734SOL    HW128835   3.745   3.120   6.381 -0.8028  0.8687 -1.7454
 5734SOL    HW228836   3.690   3.000   6.317  0.6401  0.2725 -0.2773
 5735SOL     OW28837   2.766   4.375   6.571  0.0480 -0.3345  0.0632
 5735SOL    HW128838   2.712   4.298   6.587 -1.4517  0.5989 -0.5266
 5735SOL    HW228839   2.699   4.443   6.570 -0.4101 -0.7501  2.2338
 5736SOL     OW28840   2.530   2.299  17.095  0.5239  0.3309  0.0447
 5736SOL    HW128841   2.576   2.230  17.047 -0.6739 -0.8396  0.5707
 5736SOL    HW228842   2.574   2.379  17.066  1.9166 -0.3054  0.3858
 5737SOL     OW28843   1.956   2.175   4.946  0.1591  0.1212  0.4575
 5737SOL    HW128844   1.957   2.083   4.922 -1.9885  0.3130 -0.3206
 5737SOL    HW228845   1.920   2.177   5.035  0.2377  0.3307  0.4855
 5738SOL     OW28846   2.989   0.359  11.422  0.6391  0.0447 -0.8160
 5738SOL    HW128847   2.977   0.303  11.345 -0.9364  0.9059 -1.2219
 5738SOL    HW228848   2.952   0.444  11.395  3.6665  1.8992  0.9065
 5739SOL     OW28849   3.602   1.029   4.029 -0.1150  0.1740 -0.3497
 5739SOL    HW128850   3.649   1.017   3.946  0.2256 -0.5335 -0.0607
 5739SOL    HW228851   3.574   1.120   4.024  2.1665  0.7941 -1.7437
 5740SOL     OW28852   4.295   0.586   3.496 -0.6212 -0.2357  0.6554
 5740SOL    HW128853   4.333   0.564   3.411 -0.2413 -0.5606  0.9133
 5740SOL    HW228854   4.304   0.679   3.519 -0.8578  0.6587 -2.7810
 5741SOL     OW28855   0.633   4.536  16.334 -0.5158  0.2439  0.6384
 5741SOL    HW128856   0.583   4.616  16.319 -0.8227 -0.5911 -2.7223
 5741SOL    HW228857   0.646   4.543  16.429 -0.1581  0.1608  0.5928
 5742SOL     OW28858   4.487   1.747   7.875 -0.1220  0.3923  0.3246
 5742SOL    HW128859   4.515   1.673   7.928 -0.4027  1.4116  1.8728
 5742SOL    HW228860   4.486   1.714   7.785  1.2863 -1.6270  1.0712
 5743SOL     OW28861   1.881   2.565  12.409 -0.6493 -0.2571  0.9755
 5743SOL    HW128862   1.930   2.497  12.455 -0.2913 -1.2635 -0.8774
 5743SOL    HW228863   1.849   2.524  12.328  1.3325 -0.3122  0.2249
 5744SOL     OW28864   2.569   2.185  13.128 -0.4411 -0.1305  0.6031
 5744SOL    HW128865   2.616   2.268  13.122  1.6195 -1.3206  0.0600
 5744SOL    HW228866   2.631   2.122  13.091  0.1120 -0.9757  2.9519
 5745SOL     OW28867   3.479   1.710   9.043 -0.9420 -0.0137  0.5584
 5745SOL    HW128868   3.511   1.623   9.021  0.4305  0.6011  0.1292
 5745SOL    HW228869   3.395   1.693   9.086 -1.1957  0.8128  0.4062
 5746SOL     OW28870   0.137   3.693  16.702 -0.2661  0.4349  0.2033
 5746SOL    HW128871   0.117   3.710  16.610 -0.2547 -3.0895 -0.4306
 5746SOL    HW228872   0.089   3.613  16.724 -0.9358  0.2098 -2.0451
 5747SOL     OW28873   0.371   0.773   0.930  0.1551  0.5240 -0.3577
 5747SOL    HW128874   0.447   0.788   0.874 -0.8396 -1.9159 -2.3452
 5747SOL    HW228875   0.319   0.850   0.905 -1.2058 -0.3330 -0.1768
 5748SOL     OW28876   4.577   2.956   5.786 -0.0099 -0.2333  0.3175
 5748SOL    HW128877   4.541   2.956   5.875  0.7164  1.6884  0.5969
 5748SOL    HW228878   4.643   3.023   5.803  1.7737 -1.7180 -0.8169
 5749SOL     OW28879   3.862   4.271   9.541 -0.4897  0.4118  0.4562
 5749SOL    HW128880   3.928   4.287   9.608  0.2469  1.3183 -0.4797
 5749SOL    HW228881   3.903   4.312   9.465 -0.6354  0.4824  0.4149
 5750SOL     OW28882   3.117   1.408   8.246  0.2106  0.5775  0.2567
 5750SOL    HW128883   3.023   1.411   8.230  0.3215  0.6803 -0.3878
 5750SOL    HW228884   3.123   1.501   8.268 -0.0723  0.9517 -1.2787
 5751SOL     OW28885   3.402   2.633   0.960 -0.0809 -0.6610  0.2053
 5751SOL    HW128886   3.357   2.717   0.953 -1.4288 -1.3931  0.2030
 5751SOL    HW228887   3.335   2.583   0.914 -0.8048 -1.9541  2.6687
 5752SOL     OW28888   2.814   1.114  10.018 -0.4480  0.0674 -0.2536
 5752SOL    HW128889   2.735   1.060  10.017  0.0833 -0.7303  1.1114
 5752SOL    HW228890   2.812   1.145  10.108 -0.5143  0.6660 -0.4598
 5753SOL     OW28891   0.977   0.494   2.735 -0.9179  0.0208  0.0483
 5753SOL    HW128892   0.922   0.541   2.672  0.5362  1.3310 -0.2338
 5753SOL    HW228893   1.009   0.570   2.783 -1.9325 -0.3508  1.3147
 5754SOL     OW28894   1.239   3.188   5.155 -0.0758  0.3701 -0.4295
 5754SOL    HW128895   1.161   3.240   5.176  0.9765  1.4162  0.9301
 5754SOL    HW228896   1.190   3.117   5.114 -1.3957 -0.0330  1.7975
 5755SOL     OW28897   2.279   0.536  15.433 -0.4748 -0.0640 -0.9383
 5755SOL    HW128898   2.228   0.616  15.444  0.2815  0.2670  0.1184
 5755SOL    HW228899   2.210   0.470  15.441  0.3549 -0.8209 -0.1282
 5756SOL     OW28900   1.461   3.194  15.680 -0.8198 -0.3208  0.4112
 5756SOL    HW128901   1.473   3.269  15.623  1.9406 -0.0371  1.3575
 5756SOL    HW228902   1.467   3.239  15.764 -0.9401 -0.3040  0.4113
 5757SOL     OW28903   1.217   0.178   6.422  0.5666 -0.2598  0.3158
 5757SOL    HW128904   1.206   0.155   6.330  1.8990 -2.8943  0.8216
 5757SOL    HW228905   1.253   0.094   6.449  0.9202 -0.3308 -0.3946
 5758SOL     OW28906   4.401   3.315   2.838  0.1624  0.6459  0.1584
 5758SOL    HW128907   4.442   3.358   2.914  0.5676  0.3068  0.1310
 5758SOL    HW228908   4.445   3.347   2.759  0.9104 -4.1954 -1.3788
 5759SOL     OW28909   3.388   3.908   4.746 -0.1225 -0.0143 -0.3543
 5759SOL    HW128910   3.455   3.969   4.778  0.6037 -0.3939 -1.1366
 5759SOL    HW228911   3.370   3.944   4.659  3.8511 -1.1425 -1.6541
 5760SOL     OW28912   1.564   1.596   4.399 -0.5930  0.3987 -0.2919
 5760SOL    HW128913   1.520   1.647   4.331 -0.1530  0.2158 -0.7106
 5760SOL    HW228914   1.510   1.626   4.472  2.3510  1.2403  1.5445
 5761SOL     OW28915   3.377   3.403   7.557 -0.0967  0.1438 -0.1310
 5761SOL    HW128916   3.294   3.428   7.599 -0.1575  0.4240 -0.4165
 5761SOL    HW228917   3.440   3.387   7.628 -1.7990 -0.7665  1.1765
 5762SOL     OW28918   2.410   3.425   8.091 -0.0903 -0.1118  0.1457
 5762SOL    HW128919   2.491   3.417   8.141 -1.3880 -0.6889  2.1460
 5762SOL    HW228920   2.397   3.332   8.071  3.3334 -0.4236 -0.6050
 5763SOL     OW28921   1.034   2.227   1.019  0.1464  0.4897  0.2304
 5763SOL    HW128922   1.053   2.321   1.009 -0.7811  0.8478  1.8161
 5763SOL    HW228923   1.039   2.223   1.115 -0.1578 -1.7991  0.1519
 5764SOL     OW28924   1.568   3.060   6.292 -0.4883 -0.3291  0.6613
 5764SOL    HW128925   1.591   3.141   6.337  2.3569  0.1098 -1.6062
 5764SOL    HW228926   1.496   3.090   6.237  0.7033 -0.7336 -1.1331
 5765SOL     OW28927   0.236   3.605   5.277  0.7585 -0.1251  0.0179
 5765SOL    HW128928   0.172   3.554   5.327 -1.0481  2.3913  0.2635
 5765SOL    HW228929   0.252   3.668   5.347  0.2572 -0.8474  0.7957
 5766SOL     OW28930   3.438   1.056   3.593  0.6547 -0.8195  0.0465
 5766SOL    HW128931   3.398   0.978   3.633  0.7812  0.3750  2.5286
 5766SOL    HW228932   3.415   1.130   3.649 -0.8420 -1.3832  0.1824
 5767SOL     OW28933   4.252   2.193   5.633 -0.1731  0.1950  0.3129
 5767SOL    HW128934   4.213   2.241   5.560  1.8690  2.2845  0.5957
 5767SOL    HW228935   4.298   2.270   5.666 -1.9805  1.1958  0.5276
 5768SOL     OW28936   4.078   3.810   7.678  0.0059  0.1985  0.6055
 5768SOL    HW128937   4.103   3.722   7.649 -0.3221 -0.3452  1.9263
 5768SOL    HW228938   4.138   3.867   7.631  1.2404 -0.4468  1.4200
 5769SOL     OW28939   2.268   0.351   6.921  0.4351  0.2916  0.1954
 5769SOL    HW128940   2.259   0.431   6.972  1.1231  0.3424  0.2364
 5769SOL    HW228941   2.361   0.329   6.915  0.1921 -1.4038  2.7465
 5770SOL     OW28942   3.686   1.879  16.971 -0.6939 -0.2202 -0.3615
 5770SOL    HW128943   3.716   1.933  17.044  0.7548 -1.2903 -0.1552
 5770SOL    HW228944   3.592   1.869  16.987 -1.1725  1.9676 -1.8442
 5771SOL     OW28945   4.058   1.187   7.142  0.1841  0.4678 -0.3386
 5771SOL    HW128946   4.017   1.215   7.060  2.6397  0.2428 -1.6521
 5771SOL    HW228947   4.004   1.221   7.213  1.4686  0.6808  0.5161
 5772SOL     OW28948   1.028   0.187   9.679 -0.4405 -0.0096 -0.3478
 5772SOL    HW128949   1.098   0.239   9.641 -0.7890  0.0493 -0.9030
 5772SOL    HW228950   1.040   0.109   9.626 -0.0203 -0.4431  0.3826
 5773SOL     OW28951   1.992   1.597   1.419 -0.1612  0.4518  0.0724
 5773SOL    HW128952   1.937   1.674   1.421  1.9462  2.0595 -3.1308
 5773SOL    HW228953   1.940   1.519   1.399 -0.5889  0.1114  2.6091
 5774SOL     OW28954   3.869   4.369   7.254  0.2515  0.2718  0.1362
 5774SOL    HW128955   3.931   4.314   7.302  0.6343  0.7328  0.1795
 5774SOL    HW228956   3.856   4.320   7.173  1.3126  0.7510 -0.3258
 5775SOL     OW28957   3.659   0.056   6.025 -0.1852 -0.1541  0.4623
 5775SOL    HW128958   3.695   4.716   6.069 -0.3576 -0.0702  0.7479
 5775SOL    HW228959   3.707   0.047   5.942  1.3096 -3.1789  1.6394
 5776SOL     OW28960   1.404   4.729   6.859  0.0813  0.3650 -0.0614
 5776SOL    HW128961   1.460   0.069   6.852  1.5514 -0.7284 -0.5002
 5776SOL    HW228962   1.475   4.665   6.851 -2.0000 -1.6442 -2.2454
 5777SOL     OW28963   0.502   1.809  11.794 -0.5087  0.4249  0.1706
 5777SOL    HW128964   0.560   1.757  11.739 -1.7807 -1.7979  0.9295
 5777SOL    HW228965   0.555   1.889  11.798  1.4469 -0.9124  0.4810
 5778SOL     OW28966   0.151   3.544   3.199  0.6047  0.4069  0.4168
 5778SOL    HW128967   0.224   3.548   3.138  0.3602 -1.6635 -0.0218
 5778SOL    HW228968   0.135   3.450   3.207  1.9803  0.2816  1.7102
 5779SOL     OW28969   0.679   2.033   4.019 -0.1759 -0.0464  0.5464
 5779SOL    HW128970   0.602   2.066   3.973  0.7620 -1.9812 -2.4150
 5779SOL    HW228971   0.644   2.009   4.105  2.2510 -2.0885  0.9739
 5780SOL     OW28972   2.076   4.690   6.829  0.5006  0.9631  0.2307
 5780SOL    HW128973   2.063   4.714   6.921  1.1386  1.3619  0.2151
 5780SOL    HW228974   2.120   0.028   6.792  0.7551 -0.2217 -1.8646
 5781SOL     OW28975   4.328   2.620  11.419 -0.5977  0.0071  0.0501
 5781SOL    HW128976   4.352   2.684  11.352  1.6033 -0.0663  0.7883
 5781SOL    HW228977   4.328   2.670  11.500 -1.2106  1.0325 -0.5810
 5782SOL     OW28978   1.602   0.357  11.948  0.5444 -0.0277 -0.6457
 5782SOL    HW128979   1.553   0.385  11.871  3.0379  0.0579 -2.2015
 5782SOL    HW228980   1.616   0.437  11.999 -1.8195  0.3048 -0.5264
 5783SOL     OW28981   4.404   4.407  17.561  0.2239  0.0404 -0.3549
 5783SOL    HW128982   4.476   4.399  17.623  1.2244  1.2797 -1.3558
 5783SOL    HW228983   4.367   4.319  17.573 -1.1331  0.5609 -0.6501
 5784SOL     OW28984   1.654   0.175   0.782  0.2276  0.1924 -0.1860
 5784SOL    HW128985   1.678   0.097   0.832  2.5148  1.2419  0.3496
 5784SOL    HW228986   1.743   0.208   0.773  1.2111 -1.8361  1.9733
 5785SOL     OW28987   1.506   3.106  14.761 -0.6750  0.6592  0.0912
 5785SOL    HW128988   1.535   3.030  14.710 -4.0919  0.0835 -0.9627
 5785SOL    HW228989   1.414   3.116  14.739 -0.4425  3.4278  0.4371
 5786SOL     OW28990   0.970   3.155  15.172 -0.3759  0.6907  0.3740
 5786SOL    HW128991   0.982   3.060  15.170 -2.0129  0.4784  0.7381
 5786SOL    HW228992   1.061   3.185  15.176 -0.7790  1.8371  0.8863
 5787SOL     OW28993   4.526   2.723   6.968  0.4095 -0.4132  0.3551
 5787SOL    HW128994   4.609   2.759   6.999  1.6232 -1.3185 -1.8826
 5787SOL    HW228995   4.463   2.776   7.019 -0.7267 -0.5781 -0.8770
 5788SOL     OW28996   2.964   3.961   6.186 -0.6399  0.2564 -0.4280
 5788SOL    HW128997   2.939   4.021   6.116  2.8651  0.1499 -1.7527
 5788SOL    HW228998   2.956   4.019   6.262 -4.1011 -1.8955  0.8300
 5789SOL     OW28999   2.790   0.124  15.434 -0.1493 -0.5403  0.0591
 5789SOL    HW129000   2.800   0.206  15.483 -0.2909 -0.0540 -0.7133
 5789SOL    HW229001   2.731   0.148  15.362 -0.7844 -1.9333  0.1304
 5790SOL     OW29002   4.183   1.291   9.190  0.4566  0.5272 -1.3619
 5790SOL    HW129003   4.193   1.289   9.285  2.0784 -0.5884 -1.5535
 5790SOL    HW229004   4.151   1.381   9.181 -0.0229  0.7365  2.6456
 5791SOL     OW29005   2.351   2.722   1.616 -0.1235  0.0290 -0.3457
 5791SOL    HW129006   2.412   2.690   1.683  0.2295 -1.6549 -1.4576
 5791SOL    HW229007   2.271   2.695   1.660 -0.0010 -0.2686 -0.3033
 5792SOL     OW29008   0.650   1.520   7.070  0.0719  0.4703 -0.1784
 5792SOL    HW129009   0.669   1.520   7.164 -0.4604  2.7403 -0.0807
 5792SOL    HW229010   0.568   1.568   7.066  0.6435  1.5973  1.5819
 5793SOL     OW29011   3.612   3.893   6.202 -0.1689  0.1041  0.0454
 5793SOL    HW129012   3.598   3.853   6.116 -0.9564 -0.5115  0.4592
 5793SOL    HW229013   3.639   3.981   6.177 -2.8419  0.4444 -1.7185
 5794SOL     OW29014   4.242   2.670   7.561  0.3384  0.6178  0.0554
 5794SOL    HW129015   4.279   2.582   7.565 -0.8118  0.1695  1.0300
 5794SOL    HW229016   4.217   2.668   7.469 -1.3922 -1.4459  0.5610
 5795SOL     OW29017   0.185   0.899   5.050  0.2175 -0.2357 -0.1715
 5795SOL    HW129018   0.218   0.988   5.040 -0.8251  0.1048 -0.6521
 5795SOL    HW229019   0.239   0.850   4.988  1.6293 -0.5760  1.3396
 5796SOL     OW29020   2.678   1.749   8.978  0.3532  0.3532  0.0615
 5796SOL    HW129021   2.711   1.783   9.061  1.8428  1.6004 -1.0588
 5796SOL    HW229022   2.761   1.751   8.931 -0.2814 -2.7357 -1.2093
 5797SOL     OW29023   4.712   2.964  14.926 -0.0331 -0.0425  0.0770
 5797SOL    HW129024   0.068   2.952  14.909 -0.1569  1.1566 -1.5184
 5797SOL    HW229025   4.692   3.047  14.883  1.2780  0.9457  1.3755
 5798SOL     OW29026   3.964   1.485  10.611 -0.0843  0.2133 -0.4274
 5798SOL    HW129027   3.960   1.440  10.695  1.6777 -0.2996 -0.6042
 5798SOL    HW229028   4.059   1.492  10.600 -0.1209  1.0742 -0.2393
 5799SOL     OW29029   4.559   3.456   7.681  0.6442  0.1730  0.3485
 5799SOL    HW129030   4.553   3.492   7.593  2.9470  0.7585  0.4165
 5799SOL    HW229031   4.523   3.369   7.664  1.8694 -0.5798  1.6095
 5800SOL     OW29032   1.625   0.599  13.419  0.2516  0.3759  0.1204
 5800SOL    HW129033   1.707   0.628  13.381 -1.0696  2.4078 -1.1671
 5800SOL    HW229034   1.562   0.666  13.396  1.7122  2.4124  2.0231
 5801SOL     OW29035   1.927   3.842   3.213 -0.4830  0.4407 -0.5818
 5801SOL    HW129036   2.022   3.835   3.217 -0.4471  2.0462  1.0528
 5801SOL    HW229037   1.922   3.790   3.132  1.0426 -2.7273  1.3697
 5802SOL     OW29038   1.257   4.008   7.109  0.0542  0.8674 -0.2581
 5802SOL    HW129039   1.178   4.055   7.081 -0.7255 -0.5369 -0.4408
 5802SOL    HW229040   1.223   3.971   7.191  1.4838 -1.8342 -0.9102
 5803SOL     OW29041   1.336   0.039   9.679 -0.0207  0.3568  0.3250
 5803SOL    HW129042   1.284   4.709   9.635  0.2358 -0.4005  1.1961
 5803SOL    HW229043   1.374   0.084   9.603  2.2202  0.7284  1.6767
 5804SOL     OW29044   2.804   1.530   3.583 -0.6889  0.5344 -0.1664
 5804SOL    HW129045   2.764   1.453   3.541 -0.7990  1.1997 -1.2819
 5804SOL    HW229046   2.885   1.494   3.618 -0.6507  1.9933  1.2677
 5805SOL     OW29047   2.023   2.557   8.165  0.1069  0.1555  0.6740
 5805SOL    HW129048   1.940   2.604   8.159 -0.3865 -0.6856  0.9657
 5805SOL    HW229049   2.018   2.508   8.083  1.1259 -1.2839  1.4869
 5806SOL     OW29050   4.285   0.774   6.674  0.2379 -0.0971 -0.0082
 5806SOL    HW129051   4.302   0.864   6.647 -0.1600 -0.2658 -0.8193
 5806SOL    HW229052   4.302   0.717   6.600  1.2479  1.6014 -1.0867
 5807SOL     OW29053   3.594   0.462   6.402 -0.7212 -0.2733 -0.1109
 5807SOL    HW129054   3.657   0.493   6.467  1.1008  1.2401 -2.5793
 5807SOL    HW229055   3.544   0.404   6.460  0.9483  2.0533  3.6536
 5808SOL     OW29056   4.644   3.643   4.477  0.4545 -0.1873  0.6115
 5808SOL    HW129057   4.702   3.718   4.458 -1.6791  1.3091  0.0401
 5808SOL    HW229058   4.621   3.614   4.389 -1.2286  2.0655  0.3144
 5809SOL     OW29059   3.616   2.730   7.989  0.4915 -0.3437  0.3058
 5809SOL    HW129060   3.533   2.729   7.942  0.3874 -0.1705  0.4880
 5809SOL    HW229061   3.658   2.645   7.977  0.4662 -0.4912  1.2735
 5810SOL     OW29062   4.147   1.087   2.128  0.3393  0.3919 -0.2329
 5810SOL    HW129063   4.134   1.011   2.072  0.3239  1.5423 -1.7834
 5810SOL    HW229064   4.116   1.048   2.210 -1.9739 -0.2684 -1.4456
 5811SOL     OW29065   0.908   1.303   1.518  0.3988 -0.1634  0.2602
 5811SOL    HW129066   0.839   1.326   1.581  0.0012  0.9298 -0.5807
 5811SOL    HW229067   0.991   1.335   1.552  0.9298 -1.0361 -0.2062
 5812SOL     OW29068   3.424   4.418   9.926  0.5613 -0.2756 -0.1472
 5812SOL    HW129069   3.422   4.415   9.830 -1.5827 -1.1948 -0.0590
 5812SOL    HW229070   3.348   4.474   9.937  0.4007 -1.2296  3.5612
 5813SOL     OW29071   1.193   2.762   0.292 -0.0395  0.4729  0.2600
 5813SOL    HW129072   1.098   2.771   0.302 -0.0146  1.7240 -0.6618
 5813SOL    HW229073   1.205   2.668   0.306  1.4709  0.7900  1.0745
 5814SOL     OW29074   1.890   4.647   7.707 -0.8574  0.2472  0.1919
 5814SOL    HW129075   1.918   4.663   7.617  0.0439  0.4261  0.5036
 5814SOL    HW229076   1.839   4.728   7.716 -2.9158 -1.0880  0.3887
 5815SOL     OW29077   4.546   1.026   1.057 -0.1935  0.1301  0.2058
 5815SOL    HW129078   4.629   1.000   1.016 -1.0684 -1.5880 -0.4612
 5815SOL    HW229079   4.493   1.056   0.983 -0.6808 -1.6122 -0.1296
 5816SOL     OW29080   0.501   2.651   3.119  0.0415  0.5376  0.2928
 5816SOL    HW129081   0.538   2.566   3.093 -0.3922  0.5117 -0.2379
 5816SOL    HW229082   0.517   2.649   3.214  0.3028 -2.9703  0.1792
 5817SOL     OW29083   0.255   2.365  12.433 -0.4181  0.2626  0.2725
 5817SOL    HW129084   0.186   2.367  12.499  0.7432 -4.2987  1.6149
 5817SOL    HW229085   0.240   2.277  12.399 -0.0882  0.6172 -0.8111
 5818SOL     OW29086   1.957   1.153   1.345  0.2114 -0.3192 -0.8921
 5818SOL    HW129087   1.974   1.104   1.426 -0.2035 -1.3816 -1.4456
 5818SOL    HW229088   2.022   1.223   1.343  1.5991 -1.5648 -0.3782
 5819SOL     OW29089   0.504   2.797  16.896 -0.5118  0.5574 -0.3490
 5819SOL    HW129090   0.531   2.851  16.970  0.6268  1.1567 -1.2051
 5819SOL    HW229091   0.518   2.846  16.815  0.2601 -1.2613 -1.3337
 5820SOL     OW29092   4.477   2.151   9.565  0.0182  0.7643 -0.0627
 5820SOL    HW129093   4.443   2.070   9.604  1.5855 -0.0241 -0.3086
 5820SOL    HW229094   4.513   2.119   9.483 -0.4899  0.2469 -0.0833
 5821SOL     OW29095   1.631   2.651   2.903 -0.3952  0.2303  0.1348
 5821SOL    HW129096   1.537   2.672   2.910  0.0655  2.0762  0.7128
 5821SOL    HW229097   1.630   2.664   2.808 -3.1162 -0.5175  0.0395
 5822SOL     OW29098   1.027   1.617   4.627 -0.4501 -0.2953  0.2855
 5822SOL    HW129099   0.998   1.560   4.698  2.9397  1.1610  2.8367
 5822SOL    HW229100   1.039   1.701   4.671  2.6193 -0.9592  0.6716
 5823SOL     OW29101   3.044   2.853   2.064 -0.1504  0.3677  0.5235
 5823SOL    HW129102   3.139   2.849   2.052 -0.3470 -0.7537 -0.6025
 5823SOL    HW229103   3.021   2.930   2.012  1.1276 -0.4265 -1.2108
 5824SOL     OW29104   0.759   0.077   7.575 -0.0467  0.0752 -0.6860
 5824SOL    HW129105   0.791   0.160   7.543 -0.2649 -0.1784 -1.5579
 5824SOL    HW229106   0.781   0.008   7.513  1.0039  1.4477 -1.8030
 5825SOL     OW29107   1.619   2.033   4.247  0.3093 -0.8181  0.0505
 5825SOL    HW129108   1.671   2.018   4.168  1.6071 -1.2659  0.9875
 5825SOL    HW229109   1.660   1.975   4.311  2.3830 -1.3124 -1.7166
 5826SOL     OW29110   2.570   0.645   9.116  0.1823  0.3552  0.3629
 5826SOL    HW129111   2.506   0.578   9.092 -2.2463  2.6226  0.4719
 5826SOL    HW229112   2.648   0.627   9.064  0.1434  1.7123 -0.1528
 5827SOL     OW29113   4.372   1.289  10.168  0.6215 -0.1863 -0.7041
 5827SOL    HW129114   4.338   1.199  10.163 -1.5195  0.6065 -0.6659
 5827SOL    HW229115   4.304   1.330  10.222 -0.6136 -1.6637 -1.1419
 5828SOL     OW29116   0.913   2.740   0.262  0.3531  0.0956  0.0423
 5828SOL    HW129117   0.875   2.661   0.301 -0.1864 -0.1378 -0.9558
 5828SOL    HW229118   0.905   2.789   0.343 -0.3131 -0.2174  0.1729
 5829SOL     OW29119   0.853   0.030   3.716  0.1852  0.3541  0.6350
 5829SOL    HW129120   0.772   0.005   3.761 -0.8352  0.5320 -1.0847
 5829SOL    HW229121   0.870   4.707   3.644  3.9761 -0.6566  2.3853
 5830SOL     OW29122   2.028   1.346   8.656  0.3833 -0.2083  0.5828
 5830SOL    HW129123   2.080   1.388   8.587 -0.0323  0.9000  0.9559
 5830SOL    HW229124   2.080   1.361   8.736 -0.5410 -1.2136  1.3703
 5831SOL     OW29125   2.954   3.601  17.377 -0.5849  0.4051 -0.2030
 5831SOL    HW129126   2.990   3.513  17.364 -4.3757 -1.2876  0.6211
 5831SOL    HW229127   2.884   3.601  17.312  1.2337 -0.8050 -2.1946
 5832SOL     OW29128   4.360   3.067   7.339 -0.0144  0.3062 -0.4894
 5832SOL    HW129129   4.442   3.118   7.339  0.0874  0.1426 -0.0121
 5832SOL    HW229130   4.299   3.140   7.333 -2.3710 -1.8010 -2.0978
 5833SOL     OW29131   2.984   3.936   2.657 -0.7068 -0.3022  0.0137
 5833SOL    HW129132   2.904   3.959   2.704  1.3563 -0.5095  3.6146
 5833SOL    HW229133   3.035   3.887   2.722 -0.3400 -2.0223 -1.5895
 5834SOL     OW29134   4.358   1.686  17.124  0.0987 -0.0399 -0.1531
 5834SOL    HW129135   4.326   1.712  17.038 -2.3061  1.5863  1.2139
 5834SOL    HW229136   4.421   1.620  17.095  1.2721  2.3246 -2.9159
 5835SOL     OW29137   3.176   4.026  10.786  0.3686  0.2088  0.0079
 5835SOL    HW129138   3.235   4.073  10.845  1.3470 -0.0592 -0.7632
 5835SOL    HW229139   3.107   4.093  10.786 -0.5144 -0.6988  2.5161
 5836SOL     OW29140   2.817   1.931   1.740  0.0939 -0.2328  0.0377
 5836SOL    HW129141   2.876   1.862   1.771  2.4438  1.9870  0.4492
 5836SOL    HW229142   2.883   1.989   1.703 -1.1387  0.0423 -1.7366
 5837SOL     OW29143   0.283   3.955   6.496 -0.3055  0.4243  0.6170
 5837SOL    HW129144   0.339   4.026   6.464  0.3195 -0.5246 -0.3459
 5837SOL    HW229145   0.280   3.990   6.586  1.7420  0.0016  0.8515
 5838SOL     OW29146   3.870   3.893  16.006 -0.1098 -0.2240 -0.0345
 5838SOL    HW129147   3.798   3.915  16.065 -1.4773 -1.1699 -1.3575
 5838SOL    HW229148   3.945   3.925  16.056 -1.0745  1.8799  0.0622
 5839SOL     OW29149   0.441   0.145  12.208  0.0766 -0.1177  0.0772
 5839SOL    HW129150   0.485   0.117  12.289 -0.2108 -0.1047  0.2368
 5839SOL    HW229151   0.356   0.134  12.250  0.6674 -1.7210  0.8728
 5840SOL     OW29152   2.433   2.858   6.610 -0.2381 -0.0774  0.0901
 5840SOL    HW129153   2.484   2.777   6.613  0.0976  0.0705 -2.0863
 5840SOL    HW229154   2.477   2.906   6.540  1.3550 -2.8105 -0.7734
 5841SOL     OW29155   0.557   3.919   2.944  0.0678 -0.2014 -0.3794
 5841SOL    HW129156   0.595   4.000   2.977  2.4553 -1.0788 -0.9998
 5841SOL    HW229157   0.554   3.948   2.853 -0.0942  2.4973  0.4716
 5842SOL     OW29158   0.361   0.732   5.302 -0.2725  0.3940  0.8974
 5842SOL    HW129159   0.367   0.815   5.349  1.6428  1.3216 -0.9962
 5842SOL    HW229160   0.326   0.761   5.218 -1.9145  2.1593  2.1837
 5843SOL     OW29161   0.875   1.584   2.325 -0.3994  0.2218  0.3670
 5843SOL    HW129162   0.848   1.530   2.399 -2.1808  2.0146  1.0246
 5843SOL    HW229163   0.859   1.670   2.363  2.4438 -0.3112  2.7169
 5844SOL     OW29164   3.370   2.508   4.852  0.3071 -0.1774 -0.0571
 5844SOL    HW129165   3.453   2.463   4.866  1.2851  2.0067  1.2311
 5844SOL    HW229166   3.325   2.494   4.935  1.2171 -0.1928  0.4299
 5845SOL     OW29167   1.745   4.234   5.925 -0.0816  0.2136  0.2641
 5845SOL    HW129168   1.753   4.328   5.909  1.0614  0.2580  1.0771
 5845SOL    HW229169   1.766   4.200   5.837  1.8418 -0.5567  1.0192
 5846SOL     OW29170   2.627   2.519  15.116  0.2091 -0.3166 -0.4589
 5846SOL    HW129171   2.659   2.604  15.084 -1.4809  1.0740  1.5248
 5846SOL    HW229172   2.664   2.525  15.204 -1.1677 -2.5531  0.2620
 5847SOL     OW29173   0.790   1.258   5.506  0.5568  0.1189  0.3075
 5847SOL    HW129174   0.749   1.203   5.572 -3.1299  1.5465 -0.8207
 5847SOL    HW229175   0.735   1.234   5.431  0.0378 -0.8639  1.0070
 5848SOL     OW29176   4.348   2.242   2.439 -0.3024  0.5152  0.1110
 5848SOL    HW129177   4.410   2.303   2.398 -1.0448  0.0530 -1.6702
 5848SOL    HW229178   4.273   2.301   2.440 -1.4882 -0.9451 -1.8008
 5849SOL     OW29179   1.745   4.059   0.685 -0.3407  1.0716 -0.0286
 5849SOL    HW129180   1.662   4.015   0.697 -0.4548  1.1177 -0.6491
 5849SOL    HW229181   1.725   4.086   0.596 -0.4020  0.8641 -0.0780
 5850SOL     OW29182   1.769   4.222   7.830  0.0127  0.0322  0.3834
 5850SOL    HW129183   1.800   4.259   7.912 -1.5794 -0.3285  1.1365
 5850SOL    HW229184   1.706   4.285   7.795 -0.3286  0.4040  1.7001
 5851SOL     OW29185   0.432   1.798  11.357  0.5453  0.1831  0.2124
 5851SOL    HW129186   0.502   1.737  11.333  0.2837 -0.5064  1.1889
 5851SOL    HW229187   0.391   1.745  11.426  0.2271 -0.0924 -0.1922
 5852SOL     OW29188   2.699   3.087  13.280  0.7922  0.6284 -0.6879
 5852SOL    HW129189   2.680   3.076  13.373  0.1177 -2.6123 -1.2061
 5852SOL    HW229190   2.760   3.018  13.256 -0.1235 -0.1650 -0.7448
 5853SOL     OW29191   3.156   3.707   7.504 -0.3792 -0.6657  0.1723
 5853SOL    HW129192   3.080   3.659   7.537 -0.8567  0.2341  0.3923
 5853SOL    HW229193   3.163   3.788   7.556  1.8170 -1.5475  1.2473
 5854SOL     OW29194   0.879   4.030   6.692 -0.4755  0.2133 -0.4835
 5854SOL    HW129195   0.854   3.996   6.606 -3.0894  1.3734 -0.1753
 5854SOL    HW229196   0.857   3.955   6.748  0.4538  0.9007  0.8010
 5855SOL     OW29197   1.772   2.512   7.640  0.2403  0.3151  0.8584
 5855SOL    HW129198   1.847   2.461   7.610 -0.7863  0.3661 -1.8573
 5855SOL    HW229199   1.716   2.439   7.667 -0.3925  0.3208 -0.4107
 5856SOL     OW29200   4.731   3.805  15.300  0.1476  0.5334  0.6012
 5856SOL    HW129201   0.088   3.815  15.310  0.0430 -0.2313  2.3729
 5856SOL    HW229202   4.726   3.859  15.221  0.0052 -1.0585 -0.4903
 5857SOL     OW29203   1.855   4.520   1.607  0.1448 -0.4288  0.1115
 5857SOL    HW129204   1.791   4.466   1.654  0.0394  0.1881  0.6813
 5857SOL    HW229205   1.923   4.459   1.580  1.3545  1.3188 -0.8268
 5858SOL     OW29206   0.915   3.071   5.268 -0.4827  0.5226  0.2425
 5858SOL    HW129207   0.960   3.016   5.332 -0.6932  0.2264  0.1379
 5858SOL    HW229208   0.951   3.159   5.281 -0.3777  0.5135  0.0097
 5859SOL     OW29209   2.751   1.718   2.176 -0.3884  0.1266 -0.2041
 5859SOL    HW129210   2.656   1.728   2.165 -0.3366 -0.0319 -0.7980
 5859SOL    HW229211   2.780   1.792   2.228 -2.6485  0.7811  0.1518
 5860SOL     OW29212   2.247   0.962   6.034  0.4138  0.3712 -0.2420
 5860SOL    HW129213   2.290   0.895   5.982 -1.7699 -1.6912  0.5908
 5860SOL    HW229214   2.153   0.950   6.018  0.3893 -0.2022  0.3602
 5861SOL     OW29215   1.011   3.629   4.281  0.0853 -0.1696 -0.4983
 5861SOL    HW129216   0.997   3.562   4.214  3.1344 -1.9577  0.6475
 5861SOL    HW229217   1.061   3.696   4.234  0.7671  0.2367  0.8129
 5862SOL     OW29218   0.079   0.580  10.653 -0.5287 -0.7318 -0.1981
 5862SOL    HW129219   0.025   0.589  10.574  2.0316  0.5739 -1.7952
 5862SOL    HW229220   0.047   0.499  10.694  1.1956 -1.5248 -0.4406
 5863SOL     OW29221   0.175   4.540   3.469  0.0825 -0.2615 -0.6766
 5863SOL    HW129222   0.090   4.508   3.497 -0.8322 -0.5516 -3.8243
 5863SOL    HW229223   0.176   4.521   3.376  0.4598 -1.7444 -0.3592
 5864SOL     OW29224   1.230   2.758  15.851  1.0272 -0.2568  0.3217
 5864SOL    HW129225   1.265   2.838  15.811 -0.7829  0.3804 -0.0073
 5864SOL    HW229226   1.264   2.766  15.940 -1.7442  2.2204  1.1728
 5865SOL     OW29227   4.613   0.544   2.057 -0.1641  0.5289  0.0625
 5865SOL    HW129228   4.634   0.528   2.149  0.6028  1.1004 -0.0151
 5865SOL    HW229229   4.689   0.597   2.032 -0.0314 -0.4661 -1.6222
 5866SOL     OW29230   2.026   3.605   8.608 -0.0334  0.3629  0.3786
 5866SOL    HW129231   1.949   3.548   8.605 -1.0164  1.6621  1.1214
 5866SOL    HW229232   1.994   3.686   8.569 -0.9267 -0.0224  0.3068
 5867SOL     OW29233   2.108   0.458   4.695  0.4390 -0.1243  0.3569
 5867SOL    HW129234   2.174   0.389   4.690 -1.0686 -1.5170 -0.3204
 5867SOL    HW229235   2.071   0.444   4.782 -1.2580  2.0548  0.0118
 5868SOL     OW29236   1.949   1.466   6.228  0.5369  0.4123  0.0568
 5868SOL    HW129237   1.880   1.526   6.198 -0.2942 -0.9923 -0.8440
 5868SOL    HW229238   1.898   1.413   6.289  1.9868 -0.4688  0.5012
 5869SOL     OW29239   2.748   2.910  15.478  0.6917 -0.3875  0.8947
 5869SOL    HW129240   2.700   2.830  15.500 -0.2089 -0.3259 -0.7877
 5869SOL    HW229241   2.822   2.896  15.536  0.8474 -1.5340  0.4287
 5870SOL     OW29242   0.712   3.317   2.213  0.0315 -0.7558 -0.1240
 5870SOL    HW129243   0.633   3.305   2.160 -1.5144  0.5586  1.8889
 5870SOL    HW229244   0.741   3.404   2.188  1.6534 -1.4578 -0.7428
 5871SOL     OW29245   0.255   3.839  11.997  0.0843  0.0660  0.5706
 5871SOL    HW129246   0.326   3.888  12.038  0.2149 -0.3692  0.8696
 5871SOL    HW229247   0.298   3.800  11.921 -0.8962 -0.4799  0.2860
 5872SOL     OW29248   2.599   3.548   9.102  0.3441  0.0643  0.3209
 5872SOL    HW129249   2.694   3.552   9.094  0.3739  0.2425  0.7781
 5872SOL    HW229250   2.564   3.632   9.075 -0.9484 -0.7034 -0.4115
 5873SOL     OW29251   0.249   1.385  13.512  0.0595 -0.2629 -0.2449
 5873SOL    HW129252   0.289   1.445  13.574 -2.3161  1.4971 -0.4340
 5873SOL    HW229253   0.253   1.434  13.430  2.6378 -0.4537 -0.2542
 5874SOL     OW29254   4.016   2.261   2.659  0.2690 -0.7796 -0.1324
 5874SOL    HW129255   4.088   2.250   2.721  1.6816  3.3706 -1.0771
 5874SOL    HW229256   4.059   2.304   2.586  0.6139 -0.5945  0.1776
 5875SOL     OW29257   1.039   0.644  11.665 -0.3274 -0.1092 -0.0979
 5875SOL    HW129258   0.968   0.663  11.604 -0.5787 -0.6381  0.0350
 5875SOL    HW229259   1.064   0.553  11.649  1.3579 -0.0637  2.1271
 5876SOL     OW29260   3.495   2.650   6.180  0.4127  0.2998  0.2907
 5876SOL    HW129261   3.407   2.614   6.162  0.3876  0.5693 -0.1482
 5876SOL    HW229262   3.524   2.673   6.092 -0.5260 -0.6238 -0.2705
 5877SOL     OW29263   2.160   4.208   1.235  0.0364 -0.2372  0.0107
 5877SOL    HW129264   2.253   4.184   1.242  0.6660  2.0262 -0.5030
 5877SOL    HW229265   2.144   4.199   1.141 -0.2515  1.7637 -0.1468
 5878SOL     OW29266   4.170   3.245   6.485 -0.3299 -0.2074 -0.2110
 5878SOL    HW129267   4.103   3.282   6.427  0.6093 -1.6935 -2.2589
 5878SOL    HW229268   4.188   3.163   6.439  0.5189 -0.5395  0.7146
 5879SOL     OW29269   0.347   3.447   3.668 -0.3585  0.7965 -0.1390
 5879SOL    HW129270   0.260   3.479   3.692 -0.7071 -0.6948  0.5540
 5879SOL    HW229271   0.369   3.469   3.578  0.8101 -1.0050 -0.2991
 5880SOL     OW29272   0.974   3.446   9.331  0.0152  0.7900  0.3627
 5880SOL    HW129273   0.952   3.483   9.417  0.6841  1.8516  0.0809
 5880SOL    HW229274   1.024   3.517   9.290 -2.7977  1.5634 -1.6816
 5881SOL     OW29275   1.650   2.239   5.806  0.3750  0.1565  0.0089
 5881SOL    HW129276   1.563   2.274   5.824 -0.4749 -0.4768 -2.9728
 5881SOL    HW229277   1.684   2.321   5.769  0.2971 -0.0618 -0.5455
 5882SOL     OW29278   1.644   2.056  14.535  0.1420 -0.1485 -0.2411
 5882SOL    HW129279   1.678   1.984  14.481 -0.7634 -1.2778  0.6793
 5882SOL    HW229280   1.723   2.064  14.589  1.0902  0.7932 -1.7855
 5883SOL     OW29281   2.166   2.299   5.256 -0.9499  0.3507 -0.2223
 5883SOL    HW129282   2.198   2.286   5.345  1.8319 -1.6016 -1.5170
 5883SOL    HW229283   2.085   2.349   5.272 -0.4167  0.8028  1.0383
 5884SOL     OW29284   4.417   2.238   2.870  0.2088  0.2540  0.4507
 5884SOL    HW129285   4.396   2.198   2.785  0.6712 -1.7025  1.2694
 5884SOL    HW229286   4.411   2.160   2.925  1.9972 -1.5938 -1.9446
 5885SOL     OW29287   4.622   3.948   8.213 -0.1292  0.2262  0.1539
 5885SOL    HW129288   4.616   3.868   8.162  0.1751  0.3611 -0.0890
 5885SOL    HW229289   4.692   4.000   8.174  1.0403 -0.6491  1.1163
 5886SOL     OW29290   4.686   3.703   7.705  0.4402 -0.4659 -0.2587
 5886SOL    HW129291   4.613   3.739   7.655  0.9336  0.6661 -0.1488
 5886SOL    HW229292   4.673   3.608   7.697 -0.5874 -0.2598 -1.0064
 5887SOL     OW29293   4.125   0.702   5.047  0.0480 -0.2621 -0.7792
 5887SOL    HW129294   4.141   0.794   5.028 -1.3583 -0.3157 -2.2225
 5887SOL    HW229295   4.212   0.680   5.079  1.1642  4.2416 -0.7086
 5888SOL     OW29296   3.047   2.752   9.007  0.6193 -0.3232 -0.2678
 5888SOL    HW129297   3.031   2.831   8.956 -0.5326  0.4868  1.3381
 5888SOL    HW229298   2.995   2.779   9.082 -2.0570 -0.6547 -2.0142
 5889SOL     OW29299   0.571   1.798  12.249  0.3508  0.2307 -0.1618
 5889SOL    HW129300   0.525   1.753  12.178 -0.6226 -0.7250  1.0805
 5889SOL    HW229301   0.663   1.772  12.237 -0.1896 -1.5495 -0.4671
 5890SOL     OW29302   2.893   3.856   8.769  0.0718  0.3524  0.1751
 5890SOL    HW129303   2.910   3.889   8.857  1.3411 -1.0796  0.4734
 5890SOL    HW229304   2.964   3.791   8.766 -0.0019  0.2363  1.1910
 5891SOL     OW29305   2.083   1.795   5.444 -0.0172  0.2920 -0.4224
 5891SOL    HW129306   2.066   1.868   5.385 -1.0381  0.0542 -0.4314
 5891SOL    HW229307   2.092   1.842   5.527 -1.0693  1.0263 -0.7253
 5892SOL     OW29308   3.513   2.862   7.738  0.7961 -0.0656  0.1573
 5892SOL    HW129309   3.462   2.942   7.721  2.2041  0.9634  0.7645
 5892SOL    HW229310   3.520   2.822   7.652  0.6884  1.1360 -0.4182
 5893SOL     OW29311   1.153   4.360  17.079  0.0611 -0.4023  0.1636
 5893SOL    HW129312   1.069   4.406  17.086 -0.3346 -0.7938 -1.9488
 5893SOL    HW229313   1.151   4.342  16.985 -0.5875 -3.6184  0.8034
 5894SOL     OW29314   3.724   2.086   1.109  0.4667 -0.4918 -0.3167
 5894SOL    HW129315   3.675   2.133   1.042 -0.2012  0.3471  0.7517
 5894SOL    HW229316   3.789   2.028   1.070 -2.2620 -3.2970 -0.7022
 5895SOL     OW29317   0.557   2.398  17.552  0.0517  0.2582  0.3887
 5895SOL    HW129318   0.541   2.492  17.557 -0.4025  0.3769 -2.9939
 5895SOL    HW229319   0.471   2.375  17.586  0.8068 -3.1910 -0.0495
 5896SOL     OW29320   2.877   2.777   7.009 -0.3592 -0.0443 -0.4929
 5896SOL    HW129321   2.799   2.795   6.957 -1.8169  2.2582  2.5222
 5896SOL    HW229322   2.956   2.779   6.954 -0.4982 -0.7104 -0.7277
 5897SOL     OW29323   4.376   0.845   3.157 -0.1080  0.0042 -0.4329
 5897SOL    HW129324   4.309   0.781   3.180 -0.4030  0.7828  0.8490
 5897SOL    HW229325   4.327   0.917   3.195  0.6780  0.7733 -0.8743
 5898SOL     OW29326   3.619   0.333   5.012  0.1274  0.0505  0.7194
 5898SOL    HW129327   3.559   0.295   5.076 -0.9095 -0.6405 -0.6487
 5898SOL    HW229328   3.688   0.267   5.008 -0.1993 -0.2489  0.1134
 5899SOL     OW29329   4.656   1.134   5.739 -0.1776  0.6808  0.0282
 5899SOL    HW129330   4.733   1.109   5.791  0.5720  1.0872 -0.9031
 5899SOL    HW229331   4.656   1.229   5.747 -0.2414  0.5378  1.7722
 5900SOL     OW29332   0.250   4.084  16.974  0.4282 -0.4923 -0.1340
 5900SOL    HW129333   0.174   4.038  16.937 -0.6513 -0.6286  2.2624
 5900SOL    HW229334   0.203   4.145  17.031  0.0402 -0.0215 -0.9554
 5901SOL     OW29335   2.968   1.086   4.929  0.1066  0.4564  0.1097
 5901SOL    HW129336   2.986   1.139   4.851  0.0128  0.2043 -0.0848
 5901SOL    HW229337   2.920   1.013   4.891  0.2879 -0.9781  2.6167
 5902SOL     OW29338   3.002   2.635  15.205  0.0472  0.1575 -0.1535
 5902SOL    HW129339   2.989   2.576  15.131 -0.6919 -0.1442  0.2203
 5902SOL    HW229340   2.923   2.617  15.255 -1.9566  0.9323 -3.0505
 5903SOL     OW29341   4.494   2.451   3.518 -0.3927 -0.1032 -0.0264
 5903SOL    HW129342   4.505   2.517   3.587 -2.0447 -0.4447  0.5720
 5903SOL    HW229343   4.405   2.418   3.532  0.4905 -2.4128  0.0844
 5904SOL     OW29344   3.224   0.181   7.101 -0.7051  0.2095  0.2916
 5904SOL    HW129345   3.269   0.259   7.068 -2.7177  0.8274 -0.9415
 5904SOL    HW229346   3.291   0.119   7.071 -0.4236  0.4021  0.5203
 5905SOL     OW29347   1.621   0.748   5.352  0.1545  0.3212 -0.2658
 5905SOL    HW129348   1.579   0.786   5.429 -0.3449 -1.5381  0.3950
 5905SOL    HW229349   1.664   0.829   5.328  1.2731  0.1716  1.3043
 5906SOL     OW29350   1.284   2.330   6.257  0.2924  0.2988 -0.0309
 5906SOL    HW129351   1.223   2.341   6.330  0.9384  1.2292  0.3715
 5906SOL    HW229352   1.227   2.341   6.182  1.3573 -0.1081 -0.9031
 5907SOL     OW29353   2.410   2.261   4.150  0.1725 -0.4528  0.3399
 5907SOL    HW129354   2.408   2.169   4.177 -3.2349 -0.2501  0.7781
 5907SOL    HW229355   2.363   2.246   4.069  2.3420 -0.2632 -0.9475
 5908SOL     OW29356   3.279   2.232   2.889  0.2259 -0.2158  0.1770
 5908SOL    HW129357   3.286   2.311   2.941 -2.6216  1.0843 -1.4090
 5908SOL    HW229358   3.305   2.266   2.803  2.6284  1.6647  1.6644
 5909SOL     OW29359   4.114   1.929  14.410 -0.1694 -0.3224  0.0653
 5909SOL    HW129360   4.023   1.953  14.424 -0.0987 -0.8957  1.4922
 5909SOL    HW229361   4.160   1.995  14.460  1.1269 -1.5306  0.4731
 5910SOL     OW29362   0.800   1.894   4.391  0.1798  0.4063 -0.1497
 5910SOL    HW129363   0.735   1.901   4.321  0.9316  4.5432 -0.3882
 5910SOL    HW229364   0.817   1.800   4.388  0.8260  0.5808 -1.6971
 5911SOL     OW29365   0.382   3.260  10.376  0.4188  0.0521  0.0739
 5911SOL    HW129366   0.303   3.268  10.322  1.7012 -2.0941 -2.0994
 5911SOL    HW229367   0.337   3.242  10.459  0.0307 -0.0625 -0.1589
 5912SOL     OW29368   4.176   0.668   4.053 -0.3257  0.0660  0.3938
 5912SOL    HW129369   4.265   0.692   4.028  0.0425 -1.0808  0.5974
 5912SOL    HW229370   4.196   0.590   4.104 -0.8999 -0.9983 -1.0168
 5913SOL     OW29371   3.720   0.390   6.652  0.0613 -0.0745 -0.1427
 5913SOL    HW129372   3.760   0.303   6.654  0.2789  0.0585  0.9603
 5913SOL    HW229373   3.796   0.441   6.679 -0.8492  1.5993 -0.6899
 5914SOL     OW29374   1.982   2.892  17.259 -0.1220 -0.1074 -0.7360
 5914SOL    HW129375   2.056   2.834  17.241  1.0926  1.1471  0.2808
 5914SOL    HW229376   1.924   2.862  17.189 -0.3240  1.2074 -1.1257
 5915SOL     OW29377   4.559   2.713   3.969  0.4177  0.1167 -0.3593
 5915SOL    HW129378   4.570   2.719   4.064  0.0973 -1.1522 -0.2360
 5915SOL    HW229379   4.543   2.807   3.960  0.2301  0.0336 -0.8714
 5916SOL     OW29380   3.858   2.713   3.457 -0.6291  0.4702 -0.1218
 5916SOL    HW129381   3.827   2.750   3.374 -1.5945 -0.1941 -0.0529
 5916SOL    HW229382   3.897   2.785   3.506 -0.8624 -0.0003  0.7588
 5917SOL     OW29383   1.251   0.153  11.633  0.5376  0.4417  0.1548
 5917SOL    HW129384   1.340   0.170  11.603  0.0620  1.3775 -0.7268
 5917SOL    HW229385   1.272   0.076  11.687  1.5280  1.5105  1.2950
 5918SOL     OW29386   2.453   0.272   5.036 -0.2694 -0.0412  0.4653
 5918SOL    HW129387   2.407   0.198   4.997  0.1408 -1.2140  2.1942
 5918SOL    HW229388   2.475   0.236   5.122  0.6180  0.5173  0.4612
 5919SOL     OW29389   2.255   2.932   7.323  0.7141 -0.9138  0.5688
 5919SOL    HW129390   2.182   2.987   7.295  0.3761 -1.7548 -0.1729
 5919SOL    HW229391   2.279   2.961   7.411  3.1526 -1.8323  0.2116
 5920SOL     OW29392   3.277   3.654   5.582 -0.5262  0.4587  0.0749
 5920SOL    HW129393   3.198   3.622   5.539 -1.3956 -0.2452  2.2142
 5920SOL    HW229394   3.312   3.573   5.620  0.1061 -0.0526 -1.6134
 5921SOL     OW29395   1.572   1.044  12.875  0.3873 -0.5786  0.2986
 5921SOL    HW129396   1.582   1.068  12.783 -0.4779  0.4702  0.4711
 5921SOL    HW229397   1.640   0.981  12.898  0.3694 -0.3172  1.0659
 5922SOL     OW29398   2.766   0.784   4.148  0.3092  0.5923 -0.2940
 5922SOL    HW129399   2.715   0.859   4.117 -0.9892 -0.7408 -1.3957
 5922SOL    HW229400   2.695   0.723   4.163  2.0838 -0.9232  1.8327
 5923SOL     OW29401   0.766   4.665   2.978 -0.1939  0.4056 -0.3257
 5923SOL    HW129402   0.787   4.619   3.059 -0.0633  1.0863  0.0344
 5923SOL    HW229403   0.704   4.734   3.002 -0.8672 -0.3743  0.1938
 5924SOL     OW29404   4.393   2.401   9.933  0.2799 -0.7754  0.4727
 5924SOL    HW129405   4.485   2.383   9.953  0.3401  0.4544  1.2964
 5924SOL    HW229406   4.408   2.473   9.872 -0.8223 -0.6520  0.3480
 5925SOL     OW29407   2.092   0.611  12.060 -0.3735  0.1256  0.4768
 5925SOL    HW129408   2.145   0.539  12.095  0.0292 -0.0559 -0.4987
 5925SOL    HW229409   2.152   0.648  11.995  0.6934 -0.3802  1.1828
 5926SOL     OW29410   1.200   0.960   0.570  0.0687 -0.2760 -0.1184
 5926SOL    HW129411   1.169   0.888   0.625  2.3605 -1.4471 -0.3472
 5926SOL    HW229412   1.269   0.996   0.625 -0.0260  0.9732 -0.8143
 5927SOL     OW29413   0.327   1.069  15.908 -0.0258 -0.4071 -0.2984
 5927SOL    HW129414   0.318   1.051  16.002 -0.9490 -0.7368 -0.4531
 5927SOL    HW229415   0.371   1.154  15.910  0.6545 -0.7470 -0.9319
 5928SOL     OW29416   3.297   2.359   9.596 -0.2848 -0.8277 -0.4190
 5928SOL    HW129417   3.240   2.306   9.541  1.7776 -0.5783 -2.8151
 5928SOL    HW229418   3.240   2.429   9.626  0.1677 -1.2120  1.3583
 5929SOL     OW29419   0.257   4.719   9.406  1.0071 -0.4177 -0.4359
 5929SOL    HW129420   0.303   4.641   9.375 -3.0361 -2.7041 -0.6880
 5929SOL    HW229421   0.331   0.036   9.432  0.1264  0.2303  0.7393
 5930SOL     OW29422   1.080   0.196   1.778 -0.1666 -0.2380 -0.1313
 5930SOL    HW129423   1.038   0.129   1.832  0.5018 -0.2958  0.3252
 5930SOL    HW229424   1.018   0.196   1.705 -2.5735 -1.4181  1.8844
 5931SOL     OW29425   3.323   0.799   9.858  0.1444 -0.1137 -0.0901
 5931SOL    HW129426   3.315   0.704   9.854 -2.0144  0.0308  0.8739
 5931SOL    HW229427   3.308   0.828   9.768  0.5225  2.4171  0.6511
 5932SOL     OW29428   3.152   0.357   7.554 -0.2174 -0.2837  0.4754
 5932SOL    HW129429   3.109   0.327   7.474  0.5180 -2.5450  0.9103
 5932SOL    HW229430   3.147   0.452   7.552  1.3096 -0.1707  1.7031
 5933SOL     OW29431   0.054   2.488   3.674  0.1508  0.0931  0.0994
 5933SOL    HW129432   0.007   2.411   3.704 -1.6240  0.3975 -1.8768
 5933SOL    HW229433   0.017   2.548   3.738  0.3846 -1.8499  2.0274
 5934SOL     OW29434   3.820   3.241   4.523 -0.6082 -0.1196  0.0459
 5934SOL    HW129435   3.752   3.178   4.548  2.5912 -4.1800 -1.3090
 5934SOL    HW229436   3.769   3.321   4.512  0.8216  0.8577  0.6615
 5935SOL     OW29437   2.997   3.183   2.669 -0.3608  0.1478  0.0971
 5935SOL    HW129438   2.973   3.095   2.698 -1.8106  0.3001 -0.6287
 5935SOL    HW229439   3.092   3.179   2.656 -0.3579  0.5692 -0.0291
 5936SOL     OW29440   0.018   3.195  14.765 -0.1637  0.0315 -0.4981
 5936SOL    HW129441   0.032   3.277  14.718  0.1139  0.8013  0.9533
 5936SOL    HW229442   4.723   3.143  14.691  0.5439  0.3929 -1.0689
 5937SOL     OW29443   1.622   3.885   8.249  0.2301 -0.0854  0.6141
 5937SOL    HW129444   1.641   3.839   8.331 -0.0303 -0.9792  0.1717
 5937SOL    HW229445   1.671   3.967   8.258  1.8175 -0.8756 -0.5847
 5938SOL     OW29446   4.737   0.522   2.310 -0.2299 -0.4471 -0.4168
 5938SOL    HW129447   4.681   0.570   2.371  1.8946  0.1718  1.0428
 5938SOL    HW229448   4.703   0.432   2.307 -2.4829  0.3845 -0.0432
 5939SOL     OW29449   3.713   1.615   9.317 -0.1517 -0.2069  0.0418
 5939SOL    HW129450   3.632   1.604   9.367 -0.9652  0.4048 -1.1359
 5939SOL    HW229451   3.696   1.701   9.278  0.5536  0.3988  1.0755
 5940SOL     OW29452   4.717   3.201   8.364 -0.0255  0.2185  0.1578
 5940SOL    HW129453   0.005   3.279   8.314 -0.6622  0.0898 -0.3599
 5940SOL    HW229454   4.713   3.232   8.455 -0.9457  1.8749 -0.4490
 5941SOL     OW29455   0.740   1.033   5.842  0.0733 -0.5440  0.1822
 5941SOL    HW129456   0.769   0.943   5.856 -0.0634 -0.7353 -0.7362
 5941SOL    HW229457   0.781   1.049   5.757  1.2425  0.3539  0.9173
 5942SOL     OW29458   1.865   0.234   7.679 -0.0274  0.3956 -0.2059
 5942SOL    HW129459   1.890   0.263   7.591 -0.2635  1.1659 -0.0188
 5942SOL    HW229460   1.775   0.203   7.667  0.1015 -0.3644  0.8219
 5943SOL     OW29461   4.513   1.066   3.024 -0.0686  0.1911 -0.1002
 5943SOL    HW129462   4.501   0.990   3.081 -3.1461 -1.2906 -2.7037
 5943SOL    HW229463   4.426   1.074   2.987 -0.8701 -0.0685  1.7203
 5944SOL     OW29464   1.417   0.056   3.673  0.1650 -0.3020 -0.4310
 5944SOL    HW129465   1.381   0.117   3.608  0.8996  0.3672 -0.2142
 5944SOL    HW229466   1.374   4.709   3.662 -1.5905  0.8615 -2.6467
 5945SOL     OW29467   0.600   4.188   3.047 -0.2346 -0.0569  0.2083
 5945SOL    HW129468   0.557   4.196   3.132 -0.2988  0.3284  0.1392
 5945SOL    HW229469   0.690   4.188   3.078  0.0113 -0.5750 -0.4999
 5946SOL     OW29470   2.769   3.776   6.052 -0.2363  0.0206 -0.3497
 5946SOL    HW129471   2.721   3.850   6.017 -1.6847 -1.3840 -1.2929
 5946SOL    HW229472   2.845   3.826   6.083 -0.4379  0.0526  0.0876
 5947SOL     OW29473   4.147   3.511   7.745 -0.4999  0.2129 -0.0942
 5947SOL    HW129474   4.149   3.470   7.832 -1.6013 -0.9776 -0.6196
 5947SOL    HW229475   4.071   3.460   7.716  0.5704 -0.6704 -1.3850
 5948SOL     OW29476   1.657   4.261  12.603  0.6995 -0.1996 -0.3667
 5948SOL    HW129477   1.736   4.310  12.623  1.4033 -0.4456 -2.5621
 5948SOL    HW229478   1.613   4.318  12.541  2.5604  1.3002 -0.2989
 5949SOL     OW29479   0.844   0.394   5.176 -0.2013  0.2853  0.4638
 5949SOL    HW129480   0.851   0.376   5.082 -0.2244 -1.2804  0.7547
 5949SOL    HW229481   0.888   0.479   5.181  0.2943  0.0258  0.4684
 5950SOL     OW29482   2.751   2.546   5.972 -0.0721 -0.2467  0.1691
 5950SOL    HW129483   2.806   2.569   5.897 -1.6634 -1.6615 -1.4341
 5950SOL    HW229484   2.720   2.463   5.936 -1.4489 -0.0431  0.8794
 5951SOL     OW29485   0.598   4.075   7.266  0.5941 -0.1093  0.3192
 5951SOL    HW129486   0.628   4.147   7.322 -1.2106 -1.1076  2.6078
 5951SOL    HW229487   0.571   4.006   7.327 -0.5229  0.6825  0.7298
 5952SOL     OW29488   0.773   0.131   8.747 -1.1023  0.5186  0.2061
 5952SOL    HW129489   0.807   0.077   8.818 -3.1970  0.0059  0.8067
 5952SOL    HW229490   0.690   0.085   8.736  1.0411 -3.3167  0.2046
 5953SOL     OW29491   1.195   0.424   1.786 -0.2485  0.1559  0.4491
 5953SOL    HW129492   1.276   0.407   1.835  1.3413 -2.1963 -3.0303
 5953SOL    HW229493   1.150   0.339   1.788  0.8071 -0.4109 -0.9001
 5954SOL     OW29494   3.884   4.242   5.641 -0.3659  0.3369 -0.2027
 5954SOL    HW129495   3.849   4.304   5.704 -0.2402  0.5714 -0.3671
 5954SOL    HW229496   3.916   4.172   5.698 -2.7648 -0.1291  0.5710
 5955SOL     OW29497   2.133   2.749   2.581 -0.1046 -0.4064 -0.4275
 5955SOL    HW129498   2.165   2.674   2.631  1.0122  1.1950  1.2569
 5955SOL    HW229499   2.046   2.722   2.549 -0.5817  0.0551  0.5060
 5956SOL     OW29500   3.833   3.878   3.870 -0.1281 -0.1931  0.6505
 5956SOL    HW129501   3.880   3.839   3.945  2.3150 -1.9119 -1.7811
 5956SOL    HW229502   3.787   3.944   3.922 -2.2567 -0.7740 -0.4988
 5957SOL     OW29503   1.937   2.404   1.527  0.2474  0.3930  0.2565
 5957SOL    HW129504   1.976   2.450   1.453 -0.0164  1.3772  0.7363
 5957SOL    HW229505   1.931   2.317   1.487 -1.1524  0.2232  0.8421
 5958SOL     OW29506   2.135   2.384   9.810 -0.0923  0.0313 -0.3283
 5958SOL    HW129507   2.144   2.460   9.752 -0.0819  0.5589  0.3673
 5958SOL    HW229508   2.177   2.322   9.750  0.6514 -1.3460  1.5998
 5959SOL     OW29509   0.064   2.584   2.024 -0.1498  0.2497  0.1455
 5959SOL    HW129510   0.065   2.583   2.120  3.2064 -2.2737  0.0499
 5959SOL    HW229511   0.157   2.563   2.016 -0.4184  0.3397 -3.4638
 5960SOL     OW29512   2.670   1.465   2.422  0.1775  0.2584 -0.1135
 5960SOL    HW129513   2.634   1.396   2.478  0.7255  0.1268  0.0746
 5960SOL    HW229514   2.672   1.418   2.339  2.3114 -0.5389  0.3690
 5961SOL     OW29515   0.864   4.577   4.327  0.5263  0.5779  0.6154
 5961SOL    HW129516   0.887   4.643   4.262 -0.8099  0.9112  0.4875
 5961SOL    HW229517   0.882   4.616   4.413 -0.9751 -1.5186  1.8876
 5962SOL     OW29518   2.674   4.110   8.202  0.0116 -0.4640  0.3814
 5962SOL    HW129519   2.631   4.086   8.283  3.0042 -1.3713  1.6993
 5962SOL    HW229520   2.655   4.203   8.184  1.1678 -0.4226 -0.6871
 5963SOL     OW29521   1.877   1.133   9.297 -0.1592  0.0128  0.4429
 5963SOL    HW129522   1.895   1.223   9.268  0.8687 -0.4918 -0.4574
 5963SOL    HW229523   1.825   1.147   9.376 -0.9056  2.0740 -0.4137
 5964SOL     OW29524   1.491   0.872  16.544 -0.2862 -0.3661 -0.0952
 5964SOL    HW129525   1.492   0.955  16.591 -0.0976 -0.6039  0.3260
 5964SOL    HW229526   1.572   0.823  16.558 -0.5438 -0.5679  0.6573
 5965SOL     OW29527   2.611   0.838  17.097 -0.5138 -0.2906  0.2396
 5965SOL    HW129528   2.520   0.867  17.091 -0.2238  1.1837  2.9339
 5965SOL    HW229529   2.635   0.875  17.182 -1.4239 -0.7134  0.6806
 5966SOL     OW29530   0.831   0.056   2.166 -0.4622  0.5639 -0.1624
 5966SOL    HW129531   0.740   0.064   2.194 -0.5189 -0.4721 -0.0843
 5966SOL    HW229532   0.859   0.130   2.220 -0.7411 -0.3149  1.1868
 5967SOL     OW29533   2.298   0.902  15.092 -0.5496  0.0802 -0.5084
 5967SOL    HW129534   2.381   0.860  15.070 -1.3741 -1.3697 -0.8180
 5967SOL    HW229535   2.247   0.837  15.141 -3.2781  2.2161 -0.4637
 5968SOL     OW29536   2.197   0.021   6.054 -0.2939 -0.3498  0.8087
 5968SOL    HW129537   2.275   0.026   6.109 -1.2475 -0.7959  2.2214
 5968SOL    HW229538   2.148   0.100   6.077 -0.5284 -0.3429  0.2954
 5969SOL     OW29539   1.380   1.421   1.936  0.6400  0.2486  0.7877
 5969SOL    HW129540   1.302   1.402   1.989 -0.4162  1.3174 -0.3650
 5969SOL    HW229541   1.433   1.357   1.983  0.1972  2.2107  3.9817
 5970SOL     OW29542   3.317   2.449  13.334  0.1658  0.1518 -0.2697
 5970SOL    HW129543   3.366   2.377  13.375  0.7487  0.8215  0.2014
 5970SOL    HW229544   3.356   2.531  13.361 -0.9013  0.1077  1.3856
 5971SOL     OW29545   1.765   2.874   3.426 -0.4366 -0.2035 -0.2199
 5971SOL    HW129546   1.747   2.844   3.337  1.8437  0.9042 -1.0425
 5971SOL    HW229547   1.714   2.822   3.488 -1.2931  0.0299 -0.7188
 5972SOL     OW29548   0.395   0.283   9.454  0.8355 -0.3160 -0.3567
 5972SOL    HW129549   0.310   0.299   9.412  0.0392 -2.7477  0.3106
 5972SOL    HW229550   0.378   0.286   9.549 -0.0111  0.9504 -0.5497
 5973SOL     OW29551   0.927   0.439   7.175  0.7379  0.3815 -0.3212
 5973SOL    HW129552   1.001   0.482   7.217  0.3267 -1.0815  1.9073
 5973SOL    HW229553   0.946   0.474   7.088 -1.1183 -1.6571 -1.5595
 5974SOL     OW29554   2.893   2.273  12.023 -0.2420 -0.0855  0.0845
 5974SOL    HW129555   2.824   2.220  11.984 -1.9817  2.1815  0.1255
 5974SOL    HW229556   2.962   2.206  12.025  0.3696  0.5525  0.3642
 5975SOL     OW29557   2.854   0.294   2.697  0.2204  0.2769  0.4096
 5975SOL    HW129558   2.912   0.221   2.675 -0.4927  0.6483 -2.7466
 5975SOL    HW229559   2.887   0.324   2.782 -1.8370 -1.2255  1.7557
 5976SOL     OW29560   1.787   1.120   7.335  0.2027 -0.0500  0.1613
 5976SOL    HW129561   1.763   1.096   7.425  0.4903  0.1996  0.3074
 5976SOL    HW229562   1.882   1.133   7.344  0.4176 -0.5488 -1.4385
 5977SOL     OW29563   1.863   0.824   6.361  0.7920 -0.6103 -0.3069
 5977SOL    HW129564   1.858   0.843   6.267 -1.8791 -0.7323 -0.1803
 5977SOL    HW229565   1.790   0.881   6.383  0.1399 -1.9113  0.8345
 5978SOL     OW29566   2.538   0.784  13.531  0.0335 -0.4059  0.2127
 5978SOL    HW129567   2.496   0.699  13.539 -1.0046  0.1403  0.6124
 5978SOL    HW229568   2.460   0.833  13.506 -1.2693 -1.8762  1.4674
 5979SOL     OW29569   0.483   2.665   6.071  0.0997 -0.2450  0.1513
 5979SOL    HW129570   0.523   2.748   6.044  0.0135  0.1551  1.2555
 5979SOL    HW229571   0.412   2.653   6.009  1.8689 -0.3647 -1.8406
 5980SOL     OW29572   0.909   4.508   3.534 -0.1852 -0.0209 -0.4843
 5980SOL    HW129573   0.909   4.453   3.613  1.0594  1.3644  0.4819
 5980SOL    HW229574   0.967   4.462   3.474  0.5760 -0.2228  0.4083
 5981SOL     OW29575   1.409   3.821   2.557  0.8649 -0.0488  0.5489
 5981SOL    HW129576   1.396   3.796   2.466 -1.2244  0.7327  0.6307
 5981SOL    HW229577   1.426   3.915   2.563  0.6385  0.0063  0.2991
 5982SOL     OW29578   2.083   0.927  16.984  0.5119  0.5419 -0.0733
 5982SOL    HW129579   2.028   0.854  16.955  1.1498 -0.2692  0.7656
 5982SOL    HW229580   2.109   0.960  16.898  1.9104 -1.1469 -0.2797
 5983SOL     OW29581   2.256   1.483  16.620 -0.5207 -1.0914 -0.0634
 5983SOL    HW129582   2.225   1.393  16.627  0.1642 -1.3582 -0.4099
 5983SOL    HW229583   2.206   1.521  16.692  1.0809  1.5542 -0.3208
 5984SOL     OW29584   0.287   0.274   5.936 -0.5479  0.1721  0.1523
 5984SOL    HW129585   0.325   0.267   6.024  1.2105 -0.4219 -0.6658
 5984SOL    HW229586   0.204   0.319   5.952 -0.9127 -0.0011 -1.2891
 5985SOL     OW29587   3.831   0.962   8.387  0.1106 -0.0812  0.0905
 5985SOL    HW129588   3.843   0.898   8.317 -1.6495  1.3751 -1.5353
 5985SOL    HW229589   3.737   0.954   8.404 -0.0154  0.1256 -0.4970
 5986SOL     OW29590   1.365   1.878   8.460 -0.1798 -0.0477 -0.5533
 5986SOL    HW129591   1.431   1.853   8.525  0.2505 -2.7091 -2.0677
 5986SOL    HW229592   1.314   1.798   8.446  0.1410 -0.3401 -0.0558
 5987SOL     OW29593   3.032   1.993  11.960  0.2596  0.2118  0.3631
 5987SOL    HW129594   3.055   1.900  11.958  1.6011  0.4749  2.8635
 5987SOL    HW229595   3.104   2.037  11.915 -1.6228  2.1247 -0.7913
 5988SOL     OW29596   3.618   2.528   2.782  0.5575  0.4703  0.0475
 5988SOL    HW129597   3.649   2.462   2.720 -0.5609 -1.5025  1.5990
 5988SOL    HW229598   3.546   2.575   2.740  0.0160  2.2571  2.9134
 5989SOL     OW29599   0.348   0.784   4.477  0.2636  0.3593  0.6955
 5989SOL    HW129600   0.391   0.711   4.520  1.4670  1.8050  1.9536
 5989SOL    HW229601   0.424   0.843   4.479 -0.4227  1.1959  2.1990
 5990SOL     OW29602   0.713   2.113  13.282  0.0454 -0.0051 -0.0021
 5990SOL    HW129603   0.634   2.064  13.302  0.3327  0.2384  1.7690
 5990SOL    HW229604   0.670   2.176  13.225  0.8049 -0.9554 -1.6342
 5991SOL     OW29605   1.390   3.948   6.510 -0.0763 -0.3931 -0.0545
 5991SOL    HW129606   1.315   3.941   6.569  0.5290 -2.2511  0.5134
 5991SOL    HW229607   1.382   4.039   6.484 -0.3530 -1.4145 -3.5346
 5992SOL     OW29608   0.381   3.110  16.313 -0.8304 -0.1955  0.2789
 5992SOL    HW129609   0.288   3.127  16.326 -1.3380 -1.9656 -0.9066
 5992SOL    HW229610   0.398   3.016  16.316  0.2973 -0.0476 -1.0995
 5993SOL     OW29611   2.226   0.981   6.349 -0.1441  0.4095  0.6500
 5993SOL    HW129612   2.310   1.010   6.386 -0.3801  2.1794 -0.1966
 5993SOL    HW229613   2.242   1.009   6.259 -0.1905  0.1274  0.5560
 5994SOL     OW29614   4.617   3.284  17.224  0.1314  1.1548  0.3371
 5994SOL    HW129615   4.539   3.340  17.227  0.5788  1.7801  0.3245
 5994SOL    HW229616   4.616   3.243  17.311  0.1927  0.5726  0.0589
 5995SOL     OW29617   3.135   2.652  10.732 -0.5991  0.6164 -0.1648
 5995SOL    HW129618   3.176   2.643  10.646 -1.2593 -0.2885 -0.3903
 5995SOL    HW229619   3.147   2.564  10.770 -1.7699  0.5385  0.0208
 5996SOL     OW29620   1.350   2.524   8.834  0.1578 -0.4947  0.1822
 5996SOL    HW129621   1.434   2.482   8.853  0.5232  0.6253  1.0696
 5996SOL    HW229622   1.368   2.610   8.797 -0.4435 -0.2880  0.3670
 5997SOL     OW29623   0.309   2.975   5.467  0.2610  0.6099  0.2725
 5997SOL    HW129624   0.398   2.953   5.493  0.4986  2.5097  1.0408
 5997SOL    HW229625   0.272   2.889   5.448  2.5115 -0.4150  0.5464
 5998SOL     OW29626   0.327   4.364   2.524 -0.0774  0.5312  0.0931
 5998SOL    HW129627   0.281   4.303   2.466 -0.1541 -0.3397  1.0720
 5998SOL    HW229628   0.412   4.366   2.481  1.3471 -1.0381  2.8067
 5999SOL     OW29629   1.326   4.450   7.794 -0.0638  0.4952 -0.4361
 5999SOL    HW129630   1.254   4.492   7.840  1.0013  2.4507 -0.5438
 5999SOL    HW229631   1.284   4.365   7.787 -0.4960  0.4854  2.6561
 6000SOL     OW29632   3.029   2.139   2.907 -0.2246 -0.6733 -0.0559
 6000SOL    HW129633   3.117   2.174   2.891 -0.7075 -0.4505 -2.2191
 6000SOL    HW229634   2.976   2.209   2.869 -0.8373 -1.0649  0.0796
 6001SOL     OW29635   2.298   2.987   6.810 -0.3927 -0.7382  0.0445
 6001SOL    HW129636   2.240   2.924   6.853 -1.6027  0.6254  0.4546
 6001SOL    HW229637   2.343   2.931   6.748  2.0742  1.1888  0.0871
 6002SOL     OW29638   0.738   1.945  11.873 -0.0110  0.3199  0.8325
 6002SOL    HW129639   0.745   1.876  11.939 -0.3487  0.9607  1.5397
 6002SOL    HW229640   0.822   1.940  11.828 -0.9006  3.6832 -1.2001
 6003SOL     OW29641   3.307   4.183   9.036  0.0061  0.2195  0.4165
 6003SOL    HW129642   3.386   4.134   9.012 -0.1243  1.3535 -2.2660
 6003SOL    HW229643   3.276   4.147   9.119 -0.4675 -0.6235 -0.1205
 6004SOL     OW29644   3.833   3.605   7.455 -0.5511 -0.1057 -0.1011
 6004SOL    HW129645   3.848   3.697   7.478 -0.2431  0.0339 -0.8513
 6004SOL    HW229646   3.774   3.570   7.522  0.0028 -0.5815  0.1446
 6005SOL     OW29647   1.845   3.642   7.716  0.1704  0.1813 -0.2586
 6005SOL    HW129648   1.779   3.587   7.674 -0.7372  2.4156 -1.7220
 6005SOL    HW229649   1.881   3.592   7.789 -0.8588  0.0526  0.1478
 6006SOL     OW29650   0.628   3.471   0.555 -0.0925  0.4046 -1.1152
 6006SOL    HW129651   0.646   3.427   0.638 -0.3383  0.4852 -1.0210
 6006SOL    HW229652   0.690   3.544   0.554  2.0764 -1.4741 -3.2607
 6007SOL     OW29653   0.116   3.217  15.026  0.5374  0.1659 -0.0529
 6007SOL    HW129654   0.091   3.225  14.934 -2.9848  1.0854  1.0164
 6007SOL    HW229655   0.030   3.217  15.069  0.5894 -1.5465  0.0714
 6008SOL     OW29656   0.114   3.272  16.338  0.3153  0.4840  0.3667
 6008SOL    HW129657   0.038   3.308  16.383 -0.5840 -0.7879 -0.1694
 6008SOL    HW229658   0.153   3.355  16.310  1.5854  0.0820  0.9350
 6009SOL     OW29659   0.512   1.971   9.431 -0.0524  0.5882 -0.1349
 6009SOL    HW129660   0.572   1.948   9.360  2.8191  1.9353  1.8375
 6009SOL    HW229661   0.496   2.063   9.414  0.4088  1.5641  4.7741
 6010SOL     OW29662   1.189   1.883   9.572 -0.5608 -0.7238  0.0793
 6010SOL    HW129663   1.132   1.808   9.554 -2.5674  0.4977  1.2732
 6010SOL    HW229664   1.268   1.864   9.523 -2.2190 -3.0352 -1.7086
 6011SOL     OW29665   2.392   4.631  13.696 -0.5161 -0.4610 -0.3350
 6011SOL    HW129666   2.417   4.723  13.702 -0.6283 -0.5283  1.0367
 6011SOL    HW229667   2.385   4.601  13.786  1.1669  1.4043  0.4179
 6012SOL     OW29668   1.845   0.562   5.936  0.0007 -0.3781 -0.1184
 6012SOL    HW129669   1.931   0.522   5.933  0.2441  0.1904 -0.7183
 6012SOL    HW229670   1.836   0.598   6.025  1.6546  2.3011 -1.0285
 6013SOL     OW29671   0.643   3.650   8.948 -0.2878  0.3834  0.1705
 6013SOL    HW129672   0.561   3.695   8.930  0.8605  1.8651 -1.3771
 6013SOL    HW229673   0.700   3.677   8.876 -0.2465  0.3767  0.2001
 6014SOL     OW29674   2.624   2.695   6.573 -0.4037 -0.5855  0.0040
 6014SOL    HW129675   2.665   2.770   6.616 -3.6223  0.1106  1.8244
 6014SOL    HW229676   2.690   2.626   6.580 -3.0611 -3.1158  0.1612
 6015SOL     OW29677   3.258   0.974   1.884  0.5512  0.1982 -0.0517
 6015SOL    HW129678   3.346   0.936   1.885  0.7461  0.6796  0.7828
 6015SOL    HW229679   3.281   1.065   1.866 -0.4454  0.4305 -0.1596
 6016SOL     OW29680   2.097   1.433   6.003 -0.0983  0.5037  0.6229
 6016SOL    HW129681   2.082   1.433   6.098 -0.2416 -0.6182  0.5990
 6016SOL    HW229682   2.188   1.410   5.985 -0.5466 -0.5349 -0.3184
 6017SOL     OW29683   3.606   0.244  17.285 -0.3455  0.6330  0.6929
 6017SOL    HW129684   3.578   0.211  17.370 -0.8922 -1.6174 -0.3740
 6017SOL    HW229685   3.625   0.334  17.312  0.3007  0.0699  2.0902
 6018SOL     OW29686   3.456   1.124  15.483 -0.2637 -0.8594  0.2778
 6018SOL    HW129687   3.543   1.086  15.478 -0.1761 -0.4716 -1.3205
 6018SOL    HW229688   3.466   1.199  15.424  0.7780 -1.4369 -0.2681
 6019SOL     OW29689   1.004   0.576  12.766  0.4227  0.0846  0.4564
 6019SOL    HW129690   0.928   0.555  12.821  0.1709 -2.7209 -1.0030
 6019SOL    HW229691   1.030   0.649  12.822  1.0800  1.0111 -1.0574
 6020SOL     OW29692   1.130   2.676   7.205  0.2002  0.0460 -0.3193
 6020SOL    HW129693   1.215   2.648   7.170  0.1882 -1.3114  0.7481
 6020SOL    HW229694   1.077   2.597   7.204  1.1772 -0.6225  0.1021
 6021SOL     OW29695   4.256   3.441   9.295 -0.2522 -0.6184  0.1245
 6021SOL    HW129696   4.217   3.357   9.271 -0.9315 -0.5416  0.9582
 6021SOL    HW229697   4.179   3.498   9.306  0.9803  1.1470 -0.3853
 6022SOL     OW29698   2.690   0.708   8.604 -0.0819 -0.8706  0.0683
 6022SOL    HW129699   2.780   0.692   8.632 -0.2767  0.4210  1.5019
 6022SOL    HW229700   2.642   0.708   8.687  1.9578  0.5475  1.2568
 6023SOL     OW29701   3.331   2.213   2.339 -0.1839  0.0453 -0.6746
 6023SOL    HW129702   3.422   2.204   2.367 -0.3463 -0.0220 -0.1645
 6023SOL    HW229703   3.344   2.290   2.283  0.5357  2.0956  2.3594
 6024SOL     OW29704   1.185   2.071   3.800 -0.3033  0.6174  0.0450
 6024SOL    HW129705   1.256   2.033   3.749 -0.1529  1.2237 -0.1916
 6024SOL    HW229706   1.153   1.988   3.835  0.0047  0.3921 -0.2076
 6025SOL     OW29707   1.660   2.948   8.215  0.3547  0.3761  0.2817
 6025SOL    HW129708   1.565   2.962   8.210  0.1767 -0.2655  2.0194
 6025SOL    HW229709   1.688   3.036   8.191 -0.4585  0.7413  0.6540
 6026SOL     OW29710   3.952   2.655   4.080 -0.1581  0.6753 -0.0064
 6026SOL    HW129711   3.907   2.571   4.080  0.0793  0.5477 -0.2276
 6026SOL    HW229712   3.886   2.717   4.111 -1.4235  0.0801 -1.4854
 6027SOL     OW29713   2.912   4.502   8.369  0.0630  0.1953  0.0976
 6027SOL    HW129714   2.911   4.567   8.298  1.2627  0.2344  0.1098
 6027SOL    HW229715   2.943   4.421   8.329  2.8061  1.7787 -1.0026
 6028SOL     OW29716   3.044   0.936  12.838  0.1629  0.9952  0.4221
 6028SOL    HW129717   3.095   0.860  12.865 -1.2972  0.7715  2.5167
 6028SOL    HW229718   3.083   1.005  12.892  0.5974  1.0927 -0.0138
 6029SOL     OW29719   0.855   4.457   5.450 -0.2764 -0.2270  0.2367
 6029SOL    HW129720   0.838   4.527   5.388 -0.4867 -2.5293 -2.3241
 6029SOL    HW229721   0.936   4.478   5.497  0.4205  0.4314 -1.2397
 6030SOL     OW29722   4.200   2.392   2.940 -0.7088  0.7472 -0.0981
 6030SOL    HW129723   4.266   2.424   2.878  0.8229 -0.8838  0.6956
 6030SOL    HW229724   4.215   2.298   2.934 -2.5582  0.2159  4.2460
 6031SOL     OW29725   0.950   4.398  10.478 -0.4156 -0.5405 -0.8452
 6031SOL    HW129726   1.000   4.440  10.548 -0.6660 -1.7710  0.0772
 6031SOL    HW229727   0.946   4.459  10.404  1.8686  0.0232 -0.4766
 6032SOL     OW29728   2.890   3.794   3.541  0.3291  0.7056  0.5932
 6032SOL    HW129729   2.905   3.717   3.487  1.0321  2.1576 -1.2735
 6032SOL    HW229730   2.821   3.765   3.600 -0.3065  2.5614  0.7831
 6033SOL     OW29731   2.583   2.719  12.030  0.5359  0.2437  0.0874
 6033SOL    HW129732   2.628   2.634  12.029 -0.5729 -0.3523  1.0325
 6033SOL    HW229733   2.548   2.709  12.118  1.3316  0.2498  0.4041
 6034SOL     OW29734   2.072   2.324  14.636  0.3800  0.4898 -0.1820
 6034SOL    HW129735   2.068   2.376  14.556 -1.8126  1.6003  0.6495
 6034SOL    HW229736   2.008   2.379  14.681  0.2608  0.8093 -0.7371
 6035SOL     OW29737   0.877   0.128   1.590 -0.2274  0.0029  0.1204
 6035SOL    HW129738   0.851   0.156   1.502  0.4644  0.9728  0.2270
 6035SOL    HW229739   0.808   0.063   1.602 -0.2732  0.2634  1.2914
 6036SOL     OW29740   3.134   4.113   8.798  0.1289  0.4763  0.4351
 6036SOL    HW129741   3.070   4.170   8.840  1.6291  3.0867 -0.8857
 6036SOL    HW229742   3.153   4.048   8.866 -0.2784 -1.6954 -1.5277
 6037SOL     OW29743   3.509   2.524   3.080 -0.1120  0.0816  0.4068
 6037SOL    HW129744   3.589   2.475   3.064  0.6841  1.3635  0.4502
 6037SOL    HW229745   3.491   2.537   2.987  0.7820 -0.4042  0.1686
 6038SOL     OW29746   1.509   0.760   7.361  0.1354 -0.1698 -0.2439
 6038SOL    HW129747   1.482   0.671   7.338 -1.2412 -0.0187  0.7767
 6038SOL    HW229748   1.520   0.766   7.456 -0.4861 -2.9093 -0.0020
 6039SOL     OW29749   0.591   3.478  16.868  0.1465  0.1603  0.4074
 6039SOL    HW129750   0.536   3.555  16.885 -1.5034 -0.6935 -1.0495
 6039SOL    HW229751   0.585   3.464  16.774  1.9635  0.6714  0.2302
 6040SOL     OW29752   2.303   4.212   6.458 -0.5013 -0.2910 -0.2363
 6040SOL    HW129753   2.214   4.231   6.429 -0.3822  0.4229 -0.1446
 6040SOL    HW229754   2.294   4.213   6.554 -3.1512 -1.9913 -0.4568
 6041SOL     OW29755   4.736   4.699   5.670  0.1931  0.1009 -0.0100
 6041SOL    HW129756   4.728   4.680   5.763 -0.2151  0.2540 -0.0137
 6041SOL    HW229757   4.663   0.020   5.650  1.4178  1.5879 -0.1969
 6042SOL     OW29758   4.526   0.226   2.673 -0.4467 -0.5269  0.0336
 6042SOL    HW129759   4.464   0.153   2.678 -1.1132  0.1119  0.8909
 6042SOL    HW229760   4.466   0.296   2.647  1.2212  1.0534  0.4294
 6043SOL     OW29761   2.928   4.035   3.816  0.0770  0.2382 -0.4396
 6043SOL    HW129762   2.892   4.016   3.903 -2.0366  0.7449 -1.2053
 6043SOL    HW229763   3.011   4.079   3.837  0.5089 -0.6404 -0.2918
 6044SOL     OW29764   3.671   4.467   2.589  0.1513  0.1772 -0.1651
 6044SOL    HW129765   3.690   4.396   2.527  0.1142  0.4003 -0.4322
 6044SOL    HW229766   3.613   4.409   2.638  1.2631 -1.8574 -1.2416
 6045SOL     OW29767   1.961   4.325  17.517  0.1676 -0.0787  0.9600
 6045SOL    HW129768   2.056   4.330  17.508 -0.0139  3.2279  0.7319
 6045SOL    HW229769   1.942   4.288  17.602  1.7875 -0.2326  1.2494
 6046SOL     OW29770   0.539   4.158  16.613  0.3525  0.1249  0.5853
 6046SOL    HW129771   0.564   4.234  16.666 -0.1998  1.1183 -0.5801
 6046SOL    HW229772   0.512   4.193  16.528  2.2647  0.5030  0.1419
 6047SOL     OW29773   1.952   0.736   1.943  0.5192 -0.3878 -0.0233
 6047SOL    HW129774   1.926   0.644   1.950 -3.8783  0.6824 -1.7415
 6047SOL    HW229775   1.931   0.762   2.033 -1.8148 -1.5042 -0.2333
 6048SOL     OW29776   2.284   4.205   8.897  0.7821  0.5878  0.2901
 6048SOL    HW129777   2.302   4.171   8.984 -0.6052  1.2627  0.8260
 6048SOL    HW229778   2.310   4.126   8.850 -2.0624 -0.9465  1.3566
 6049SOL     OW29779   0.795   0.261   7.894 -0.0948  0.3010  0.0431
 6049SOL    HW129780   0.760   0.327   7.834 -0.1658 -1.0012 -1.3735
 6049SOL    HW229781   0.714   0.226   7.931  0.4069 -0.8961  0.0062
 6050SOL     OW29782   3.587   1.873  13.772  0.2481  0.8406  0.2163
 6050SOL    HW129783   3.520   1.942  13.777 -1.7785 -1.1685  0.9285
 6050SOL    HW229784   3.567   1.837  13.858  1.8789 -0.3862  0.0696
 6051SOL     OW29785   4.675   1.842   3.472 -0.2524  0.8871 -0.4312
 6051SOL    HW129786   0.012   1.896   3.497  1.0304  0.9601 -4.2961
 6051SOL    HW229787   4.703   1.751   3.459  0.6884  0.9679  1.0628
 6052SOL     OW29788   4.325   3.030   5.269 -0.1230  0.1203  0.5665
 6052SOL    HW129789   4.327   2.987   5.355  0.6662  0.5403  0.7493
 6052SOL    HW229790   4.385   2.973   5.220  0.4856 -0.2633  1.7646
 6053SOL     OW29791   0.143   3.012   3.346  0.3026  0.2789  0.6834
 6053SOL    HW129792   0.221   2.991   3.397  0.0179 -0.4606  0.8149
 6053SOL    HW229793   0.143   2.945   3.277 -1.0649  0.9183  0.0838
 6054SOL     OW29794   0.318   1.687   4.853  0.2404 -0.2186 -0.1944
 6054SOL    HW129795   0.338   1.668   4.761 -1.7854 -0.2386 -0.6253
 6054SOL    HW229796   0.314   1.783   4.856  1.4243 -0.0671 -3.1039
 6055SOL     OW29797   4.309   0.252   1.784  0.3360 -0.2577 -0.0290
 6055SOL    HW129798   4.391   0.262   1.832  0.5985  0.7307 -0.6915
 6055SOL    HW229799   4.351   0.237   1.699  0.2512 -0.1716 -0.0861
 6056SOL     OW29800   3.970   0.900   0.477 -0.4037 -0.6350  0.0620
 6056SOL    HW129801   3.904   0.845   0.436 -0.8051 -0.6854  0.7832
 6056SOL    HW229802   3.983   0.861   0.563 -0.3606 -2.7143 -0.9024
 6057SOL     OW29803   4.658   3.502   6.861 -0.5426  0.0924  0.1044
 6057SOL    HW129804   4.586   3.516   6.799  0.3315  1.5844 -0.5945
 6057SOL    HW229805   4.692   3.416   6.838  3.0702  1.5651 -0.1390
 6058SOL     OW29806   0.687   3.920   1.689  0.7016  0.4368  0.8521
 6058SOL    HW129807   0.745   3.971   1.633  0.8179 -0.5696  0.0469
 6058SOL    HW229808   0.650   3.983   1.750  0.4280 -0.1859  1.3289
 6059SOL     OW29809   3.338   2.117   0.151  1.4116 -0.4165  0.1414
 6059SOL    HW129810   3.372   2.158   0.071 -0.1859  0.9817  0.1906
 6059SOL    HW229811   3.322   2.023   0.144 -1.7331  0.2034 -1.1598
 6060SOL     OW29812   1.178   2.239  14.383 -0.4159  0.0940 -0.1893
 6060SOL    HW129813   1.113   2.263  14.317 -0.7375 -1.7051 -0.5180
 6060SOL    HW229814   1.195   2.145  14.373  1.2079  0.3964 -0.2119
 6061SOL     OW29815   1.443   0.702   2.119 -0.2097 -0.2872 -0.1124
 6061SOL    HW129816   1.424   0.609   2.104 -2.4921 -0.2159  2.4165
 6061SOL    HW229817   1.414   0.734   2.033 -1.4089  1.1020  0.8177
 6062SOL     OW29818   3.701   2.366   3.047  0.5908  0.5565 -0.3464
 6062SOL    HW129819   3.790   2.351   3.078  0.0278 -0.7121  0.6197
 6062SOL    HW229820   3.702   2.297   2.981  4.9484  1.1498 -0.8936
 6063SOL     OW29821   2.644   3.014   5.899 -0.4399  0.1151 -0.2149
 6063SOL    HW129822   2.556   2.988   5.923 -0.2637 -0.7576 -0.5105
 6063SOL    HW229823   2.656   3.107   5.919  0.4715  0.4410 -2.2577
 6064SOL     OW29824   0.137   0.961  17.741  0.5289 -0.4162 -0.4278
 6064SOL    HW129825   0.114   0.869  17.724  2.3536 -1.2446  1.5529
 6064SOL    HW229826   0.199   0.976  17.669  2.6232 -1.5141  1.1575
 6065SOL     OW29827   4.655   0.196   0.175  0.2911 -0.2376  0.4578
 6065SOL    HW129828   4.672   0.102   0.173  2.0922  0.1147 -1.2860
 6065SOL    HW229829   4.585   0.208   0.111 -1.1412 -0.9164  1.9037
 6066SOL     OW29830   1.832   4.426   3.172  0.2252 -0.1106  0.2360
 6066SOL    HW129831   1.899   4.422   3.104  0.1414  0.0680  0.1440
 6066SOL    HW229832   1.887   4.459   3.243 -0.5124  0.6470  0.4493
 6067SOL     OW29833   3.783   0.071   5.790 -0.2733  0.1478  0.5948
 6067SOL    HW129834   3.816   0.158   5.769 -0.6745  0.1622  0.0120
 6067SOL    HW229835   3.788   0.041   5.699 -0.2571 -0.9508  0.9540
 6068SOL     OW29836   3.960   4.694  11.630 -0.1715 -0.1361 -0.4941
 6068SOL    HW129837   3.955   4.611  11.677 -1.4368  0.3520  0.2303
 6068SOL    HW229838   3.905   4.671  11.555 -1.5960 -1.5661  0.9989
 6069SOL     OW29839   1.364   3.668   3.153 -0.0035 -0.4281 -0.0084
 6069SOL    HW129840   1.306   3.735   3.117 -0.5574  0.2975  2.2433
 6069SOL    HW229841   1.368   3.597   3.090 -1.3612  0.2954 -0.9058
 6070SOL     OW29842   1.573   1.803   3.950  0.5925  0.0489  0.2079
 6070SOL    HW129843   1.503   1.858   3.985 -0.1649 -0.6287 -0.2481
 6070SOL    HW229844   1.642   1.811   4.016  0.7057  1.3078 -0.0482
 6071SOL     OW29845   1.399   1.548   6.410  0.3513 -0.2633 -0.4139
 6071SOL    HW129846   1.326   1.532   6.350 -0.4899 -2.4530  1.2067
 6071SOL    HW229847   1.385   1.481   6.476  1.1497 -0.2319 -0.2099
 6072SOL     OW29848   2.795   0.312   0.073 -0.3833 -0.2483 -0.1338
 6072SOL    HW129849   2.726   0.322   0.006 -0.1517  0.8471 -0.2206
 6072SOL    HW229850   2.740   0.298   0.150 -1.4392  0.4664 -0.7476
 6073SOL     OW29851   2.605   3.476   2.618  0.3780 -0.2945 -0.1662
 6073SOL    HW129852   2.571   3.386   2.619 -1.3869  0.3772 -1.9573
 6073SOL    HW229853   2.689   3.458   2.574 -0.2815 -1.7289 -0.8403
 6074SOL     OW29854   0.173   1.724  15.287 -0.3079 -0.3568 -0.0475
 6074SOL    HW129855   0.096   1.754  15.334 -1.2655 -2.4201 -0.3267
 6074SOL    HW229856   0.239   1.781  15.327 -0.0193 -0.8254  0.1369
 6075SOL     OW29857   2.803   4.044  10.823 -0.3919 -0.1122 -0.7339
 6075SOL    HW129858   2.856   4.116  10.788  0.0244 -0.8914 -1.7348
 6075SOL    HW229859   2.870   3.985  10.858  0.9504  0.7837 -1.7981
 6076SOL     OW29860   2.412   2.686   3.632  0.5892 -0.2901 -0.1641
 6076SOL    HW129861   2.449   2.766   3.668  0.9411 -0.7991  0.6079
 6076SOL    HW229862   2.381   2.656   3.718  0.8888 -2.1436 -0.6901
 6077SOL     OW29863   3.304   3.677  16.852 -0.2088  0.4012 -0.3574
 6077SOL    HW129864   3.249   3.648  16.779  1.0449 -0.6880 -0.8585
 6077SOL    HW229865   3.332   3.766  16.829 -0.4657  0.7519  0.6891
 6078SOL     OW29866   2.639   2.686  15.579 -0.5156  0.0403 -0.2732
 6078SOL    HW129867   2.570   2.745  15.607 -0.9599 -0.0691 -1.1312
 6078SOL    HW229868   2.639   2.611  15.639  1.9355  0.6512  0.4757
 6079SOL     OW29869   1.248   0.931  12.121  0.0666 -0.1267 -0.2715
 6079SOL    HW129870   1.323   0.896  12.072  0.7634 -1.2645  1.5986
 6079SOL    HW229871   1.183   0.921  12.052  0.1964  3.2730 -0.8874
 6080SOL     OW29872   4.015   1.018   5.335  1.0205 -0.0152  0.0905
 6080SOL    HW129873   4.023   1.058   5.248  0.7538 -1.4131 -0.5837
 6080SOL    HW229874   3.937   0.964   5.321 -0.4790  1.7829  1.5180
 6081SOL     OW29875   1.263   1.090   2.595  0.0996 -0.2225 -0.1833
 6081SOL    HW129876   1.326   1.026   2.628  0.1896  0.5364  1.1091
 6081SOL    HW229877   1.224   1.048   2.518  2.5792 -1.8131 -0.5806
 6082SOL     OW29878   4.490   0.708   7.459 -0.2417 -0.8700  0.0098
 6082SOL    HW129879   4.452   0.688   7.544 -2.2842  2.4037 -0.1011
 6082SOL    HW229880   4.576   0.742   7.482 -0.4193 -0.0548 -0.5216
 6083SOL     OW29881   3.293   3.514   7.971  0.3736 -0.3934  0.0366
 6083SOL    HW129882   3.219   3.523   7.910  2.4251  0.8579 -2.2558
 6083SOL    HW229883   3.242   3.491   8.049  0.3155 -2.6526 -0.6438
 6084SOL     OW29884   1.958   1.451  13.226  0.4023  0.1306 -0.5813
 6084SOL    HW129885   1.898   1.510  13.181 -0.5934  1.3854  2.3973
 6084SOL    HW229886   2.024   1.428  13.160 -1.6869 -0.7167 -2.3848
 6085SOL     OW29887   0.074   2.077   5.279  0.5716 -0.3240 -0.5743
 6085SOL    HW129888   0.135   2.016   5.238 -1.8462 -3.4132  0.3653
 6085SOL    HW229889   0.139   2.134   5.320  0.2549 -0.2568 -0.1725
 6086SOL     OW29890   0.789   3.593   6.717  0.2454 -0.0029 -0.4598
 6086SOL    HW129891   0.810   3.679   6.752  1.0206 -0.3539 -0.0504
 6086SOL    HW229892   0.813   3.538   6.792 -0.6585 -0.3445 -0.4194
 6087SOL     OW29893   0.607   0.626   2.328  0.2448  0.1698  0.8427
 6087SOL    HW129894   0.686   0.669   2.362  0.9969  0.1048 -0.8015
 6087SOL    HW229895   0.603   0.662   2.239  0.3690 -0.6605  0.5009
 6088SOL     OW29896   4.313   3.509   7.191 -0.0516  0.0311 -0.0584
 6088SOL    HW129897   4.291   3.503   7.099  0.0807 -0.7762 -0.0332
 6088SOL    HW229898   4.409   3.509   7.191 -0.0438 -0.0575  0.9009
 6089SOL     OW29899   1.973   4.415   4.148 -0.1878  0.0797 -0.1530
 6089SOL    HW129900   2.015   4.415   4.062  1.3197 -2.8284  0.5929
 6089SOL    HW229901   1.904   4.479   4.131  0.9060  1.5767  0.9262
 6090SOL     OW29902   1.353   0.476   2.749  0.0901 -0.0372 -0.3392
 6090SOL    HW129903   1.287   0.414   2.717  0.8222 -0.2993 -1.3308
 6090SOL    HW229904   1.323   0.481   2.840 -0.1830 -0.2518 -0.4149
 6091SOL     OW29905   3.883   3.555  17.738  0.3018  0.1762 -0.9859
 6091SOL    HW129906   3.866   3.467   0.024  2.0293 -0.1679 -0.9848
 6091SOL    HW229907   3.963   3.526  17.693  0.0061 -2.1881  0.0414
 6092SOL     OW29908   1.498   4.151   7.757  0.0227  0.5491 -0.4441
 6092SOL    HW129909   1.506   4.153   7.853 -2.0288  1.2927 -0.2955
 6092SOL    HW229910   1.487   4.243   7.732  0.7773 -0.0388 -2.8619
 6093SOL     OW29911   4.286   1.804   3.121  0.0452  0.5349  0.0833
 6093SOL    HW129912   4.209   1.775   3.071  1.1924 -1.6175 -0.4597
 6093SOL    HW229913   4.295   1.731   3.182 -0.7727  1.2827  1.0929
 6094SOL     OW29914   1.302   2.604   0.563 -0.1944  0.1266 -0.6300
 6094SOL    HW129915   1.282   2.538   0.629  1.3674  0.1929 -0.1192
 6094SOL    HW229916   1.241   2.568   0.498  0.5623 -0.1961 -1.1610
 6095SOL     OW29917   2.681   3.660   7.249 -0.2283 -0.5084  0.1143
 6095SOL    HW129918   2.589   3.638   7.263 -0.5518  0.8811  0.1631
 6095SOL    HW229919   2.692   3.647   7.155 -0.1867 -0.4205  0.1073
 6096SOL     OW29920   4.197   1.071  14.105 -0.0560 -0.1858  0.6074
 6096SOL    HW129921   4.173   1.089  14.014 -1.1900  2.3285  1.4399
 6096SOL    HW229922   4.120   1.090  14.158 -0.9261 -2.0490  0.0269
 6097SOL     OW29923   0.619   3.337   5.350  0.0992 -0.1209 -0.1993
 6097SOL    HW129924   0.544   3.380   5.392  0.9988  1.8393 -0.5964
 6097SOL    HW229925   0.667   3.416   5.327 -0.1922  0.4667  1.2436
 6098SOL     OW29926   2.847   4.368  14.374  0.2345 -0.3306  0.2210
 6098SOL    HW129927   2.856   4.321  14.457 -0.6787 -1.2143 -0.1919
 6098SOL    HW229928   2.939   4.372  14.347 -1.0726  1.3014 -3.9368
 6099SOL     OW29929   3.382   3.122  14.904 -0.0932 -0.7794 -0.3660
 6099SOL    HW129930   3.453   3.151  14.845 -0.6901  2.6119  0.5907
 6099SOL    HW229931   3.407   3.175  14.979  0.0306 -1.0967 -0.1838
 6100SOL     OW29932   4.679   2.413   4.611 -0.6384  0.2108  0.1308
 6100SOL    HW129933   4.591   2.414   4.648 -1.4742 -0.9239 -1.8464
 6100SOL    HW229934   4.692   2.494   4.561 -0.8080  0.5577  0.6470
 6101SOL     OW29935   3.558   0.670   5.537  0.2926  0.3034  0.2257
 6101SOL    HW129936   3.534   0.581   5.513 -0.4340 -0.9442  5.4947
 6101SOL    HW229937   3.600   0.657   5.623  0.2924  1.6732  0.4417
 6102SOL     OW29938   3.883   0.577   9.983  0.2128  0.4753  0.0448
 6102SOL    HW129939   3.872   0.672   9.987 -1.0185  0.4057 -1.5853
 6102SOL    HW229940   3.824   0.565   9.908 -1.5974 -0.6979  1.6606
 6103SOL     OW29941   3.094   1.134  13.304  0.1380 -0.4014  0.4938
 6103SOL    HW129942   3.131   1.203  13.249  0.9198 -0.7526  0.5724
 6103SOL    HW229943   3.092   1.053  13.253  2.2529  1.0189 -1.8293
 6104SOL     OW29944   4.664   0.695   9.646  0.8952 -0.0192 -0.7832
 6104SOL    HW129945   4.728   0.663   9.582 -0.2796 -1.2048 -1.3522
 6104SOL    HW229946   4.723   0.750   9.698  0.6968 -0.0117 -0.5709
 6105SOL     OW29947   1.720   2.909   6.024 -0.0997  0.8045  0.0739
 6105SOL    HW129948   1.725   2.974   5.954  0.0901  1.1311  0.3912
 6105SOL    HW229949   1.781   2.950   6.085 -0.2023 -0.7300  1.2272
 6106SOL     OW29950   3.438   0.667   8.949 -0.4048 -0.2648  0.0714
 6106SOL    HW129951   3.485   0.584   8.948 -0.5850 -0.3539 -1.3042
 6106SOL    HW229952   3.435   0.682   8.854 -2.0541 -0.0931  0.1444
 6107SOL     OW29953   0.315   0.374  13.949  0.2079  0.6012 -0.3009
 6107SOL    HW129954   0.301   0.420  13.866 -0.4690  1.0482  0.0587
 6107SOL    HW229955   0.354   0.443  14.004  0.1449  0.0360  0.4494
 6108SOL     OW29956   2.352   3.096  14.574 -0.8337 -0.0813  0.2634
 6108SOL    HW129957   2.317   3.150  14.504  0.2386  1.6943  1.0982
 6108SOL    HW229958   2.277   3.103  14.634  0.4529  1.5121  1.6954
 6109SOL     OW29959   0.551   1.127   1.355 -0.0969  0.0342 -0.4611
 6109SOL    HW129960   0.523   1.128   1.447  0.9938  1.3487 -0.1348
 6109SOL    HW229961   0.478   1.081   1.315 -0.8684  2.0464 -1.3512
 6110SOL     OW29962   1.129   1.650  11.949 -0.2203 -0.3609 -0.0303
 6110SOL    HW129963   1.107   1.559  11.926  0.2835 -0.0256 -1.8441
 6110SOL    HW229964   1.061   1.663  12.016  0.4844 -0.6547  0.7387
 6111SOL     OW29965   0.413   3.035   4.302 -0.0166 -0.4326  0.0475
 6111SOL    HW129966   0.345   3.037   4.370  1.1353  1.2933  1.1445
 6111SOL    HW229967   0.480   2.991   4.354  0.1189  0.2638  0.4563
 6112SOL     OW29968   3.473   1.604  13.706  0.7069 -0.3174 -0.4276
 6112SOL    HW129969   3.436   1.600  13.794  2.1597  0.8675  0.2335
 6112SOL    HW229970   3.477   1.697  13.686 -0.0222 -0.4312 -1.1167
 6113SOL     OW29971   0.593   1.173  13.135 -0.7606 -0.5852 -0.6387
 6113SOL    HW129972   0.589   1.078  13.123 -1.0089 -0.8399  1.5483
 6113SOL    HW229973   0.532   1.205  13.069 -1.1113 -0.5639 -0.3027
 6114SOL     OW29974   2.510   1.266   2.009  0.3996  0.6317 -0.6812
 6114SOL    HW129975   2.570   1.280   2.082 -2.2313  2.4035  1.1455
 6114SOL    HW229976   2.465   1.185   2.034  2.4426 -0.3815 -0.3001
 6115SOL     OW29977   0.944   3.305   8.692  0.1597  0.7457 -0.2627
 6115SOL    HW129978   0.955   3.264   8.778  0.9636 -1.1717 -1.2855
 6115SOL    HW229979   0.853   3.335   8.700 -0.4728 -1.5611  1.3717
 6116SOL     OW29980   0.138   2.002  10.436  0.5751  0.0262 -0.2223
 6116SOL    HW129981   0.121   2.025  10.527 -1.9398  0.1677 -0.7111
 6116SOL    HW229982   0.144   1.907  10.450 -2.4700  0.0054  1.0510
 6117SOL     OW29983   1.436   0.863   4.042  0.6157 -0.6288  0.0552
 6117SOL    HW129984   1.457   0.858   3.948 -0.6161  0.8689 -0.3049
 6117SOL    HW229985   1.522   0.857   4.082 -1.1174 -0.4468  3.7894
 6118SOL     OW29986   3.727   3.400   7.110 -0.3647  0.1479  0.4475
 6118SOL    HW129987   3.703   3.488   7.081  1.7221  0.1509 -1.3315
 6118SOL    HW229988   3.676   3.387   7.189  0.8100  0.2628  1.2221
 6119SOL     OW29989   1.235   3.103  10.498  0.2120  0.3980  0.0118
 6119SOL    HW129990   1.270   3.153  10.424  0.4061 -1.2299 -1.0148
 6119SOL    HW229991   1.143   3.131  10.500 -0.7020 -2.6509  1.1050
 6120SOL     OW29992   2.201   4.228   3.991  0.3274 -0.0449 -0.1858
 6120SOL    HW129993   2.197   4.219   4.087  1.2083 -1.5417 -0.2859
 6120SOL    HW229994   2.149   4.157   3.954  1.9026 -0.6784 -1.1586
 6121SOL     OW29995   0.322   2.924   9.232 -0.0846  0.3995  0.0398
 6121SOL    HW129996   0.394   2.939   9.294  0.1604  1.6076 -0.5316
 6121SOL    HW229997   0.380   2.873   9.175 -0.9308 -0.5172 -0.0107
 6122SOL     OW29998   3.077   2.958   4.004  0.4872  0.4557 -0.0373
 6122SOL    HW129999   3.111   3.048   3.997  1.5456 -0.0090 -0.8868
 6122SOL    HW230000   3.003   2.960   3.944  0.8044  2.1618 -0.3920
 6123SOL     OW30001   0.561   1.762   4.684 -0.3633 -0.6937 -0.4014
 6123SOL    HW130002   0.577   1.693   4.748 -0.9732 -1.4444 -1.0705
 6123SOL    HW230003   0.507   1.713   4.622 -0.2154  0.9974 -1.8827
 6124SOL     OW30004   1.556   2.978   5.137  0.1360  0.2809  0.7114
 6124SOL    HW130005   1.576   2.981   5.231  3.1813 -0.6027  0.1117
 6124SOL    HW230006   1.510   3.061   5.127  1.3813  0.5364 -2.9120
 6125SOL     OW30007   0.690   3.226   9.072  0.2804 -0.1051 -0.1814
 6125SOL    HW130008   0.729   3.280   9.141 -1.4834  2.4530 -1.1557
 6125SOL    HW230009   0.667   3.290   9.004  0.0146  0.3702  0.3503
 6126SOL     OW30010   2.398   1.882   2.268 -0.1874 -0.2750  0.6630
 6126SOL    HW130011   2.439   1.800   2.298 -1.2434 -1.1367 -0.2582
 6126SOL    HW230012   2.390   1.869   2.174 -0.5568  0.7473  0.5560
 6127SOL     OW30013   3.668   4.053   8.195 -0.2512  0.1643 -0.5253
 6127SOL    HW130014   3.702   4.121   8.136  0.2047  2.3728  2.2668
 6127SOL    HW230015   3.743   3.994   8.202  0.2355  0.8593  0.2529
 6128SOL     OW30016   3.940   0.658   2.454  0.6940  0.7881  0.7947
 6128SOL    HW130017   3.951   0.599   2.379 -1.6908  1.5352 -0.1753
 6128SOL    HW230018   3.951   0.593   2.522  0.9950 -1.0997 -1.0586
 6129SOL     OW30019   2.730   1.168   7.965  0.0270  0.7466 -0.7050
 6129SOL    HW130020   2.717   1.133   7.876 -1.0873  0.7297 -0.5397
 6129SOL    HW230021   2.651   1.222   7.965 -0.4440  0.0646 -2.4391
 6130SOL     OW30022   1.401   2.643   2.721 -0.3304 -0.1046  0.2507
 6130SOL    HW130023   1.433   2.553   2.716  2.4307  0.7658  1.9345
 6130SOL    HW230024   1.402   2.662   2.627  0.1178 -0.0245  0.2718
 6131SOL     OW30025   3.029   1.441   7.074  0.6412 -0.4895  0.0003
 6131SOL    HW130026   2.990   1.496   7.142  1.2940  1.4727 -1.1946
 6131SOL    HW230027   3.083   1.386   7.131  0.7533 -0.7298 -0.3439
 6132SOL     OW30028   2.649   0.649  11.354 -0.0124  0.1625 -0.6136
 6132SOL    HW130029   2.639   0.743  11.334 -0.9464  1.1515  4.6056
 6132SOL    HW230030   2.563   0.622  11.323 -0.4805  1.2408 -0.2567
 6133SOL     OW30031   1.310   3.499  10.176  0.4256  0.4315 -0.1615
 6133SOL    HW130032   1.255   3.518  10.099  1.1960 -0.5661 -0.9587
 6133SOL    HW230033   1.400   3.493  10.145  0.8780  1.6067  0.9539
 6134SOL     OW30034   4.675   0.335   3.906  0.5153 -0.1210  0.5966
 6134SOL    HW130035   4.676   0.430   3.909  0.1156 -0.0637 -0.9551
 6134SOL    HW230036   4.697   0.311   3.996  2.7172 -1.9160 -0.4077
 6135SOL     OW30037   2.961   4.490  13.973 -0.1498 -0.4953  0.2600
 6135SOL    HW130038   2.969   4.432  13.898  1.1635 -1.4365  1.1311
 6135SOL    HW230039   2.880   4.539  13.957 -0.2091 -0.9457 -0.8463
 6136SOL     OW30040   4.467   0.514   4.722  0.1162  0.0107 -0.0852
 6136SOL    HW130041   4.472   0.499   4.817  0.5659 -1.7346 -0.3855
 6136SOL    HW230042   4.555   0.534   4.690  0.3676  0.0279  0.6075
 6137SOL     OW30043   4.699   3.775   0.715  0.5469  0.1165 -0.4841
 6137SOL    HW130044   4.646   3.783   0.636 -1.0422 -1.1826  0.4339
 6137SOL    HW230045   4.689   3.683   0.737  0.8431 -0.0432 -1.0123
 6138SOL     OW30046   0.561   3.829   4.531  0.4757 -0.2626  0.1673
 6138SOL    HW130047   0.616   3.904   4.554 -1.3417  0.6263  1.5361
 6138SOL    HW230048   0.633   3.769   4.509 -0.4826 -1.1261 -0.5788
 6139SOL     OW30049   0.002   0.821   8.687  0.5080  0.5552  0.2083
 6139SOL    HW130050   0.081   0.872   8.704 -0.0684  1.9620 -1.2445
 6139SOL    HW230051   4.694   0.868   8.617 -0.5965 -3.0517 -1.4648
 6140SOL     OW30052   1.051   2.862   3.671 -0.3349 -0.0056  0.2339
 6140SOL    HW130053   1.124   2.845   3.612 -0.8184 -1.1281 -0.0542
 6140SOL    HW230054   1.043   2.772   3.703 -2.1544 -0.5986 -1.8804
 6141SOL     OW30055   4.084   1.592   4.339 -0.0031 -0.3672 -0.0636
 6141SOL    HW130056   4.141   1.537   4.393  1.8703 -0.3981 -2.0531
 6141SOL    HW230057   4.102   1.544   4.258  0.2512  1.1443 -0.9172
 6142SOL     OW30058   0.789   1.699   6.502 -0.2087 -0.0680 -0.5000
 6142SOL    HW130059   0.861   1.741   6.455  1.9023 -3.0062  0.0976
 6142SOL    HW230060   0.792   1.749   6.584  1.9395 -2.8130  1.1203
 6143SOL     OW30061   2.433   0.310   2.637 -0.8715  0.5515 -0.1273
 6143SOL    HW130062   2.492   0.264   2.697  0.7859  0.2766 -1.9556
 6143SOL    HW230063   2.347   0.281   2.667  0.2953 -2.1414  0.7070
 6144SOL     OW30064   2.828   3.122  10.389 -0.4263  0.1073 -0.1881
 6144SOL    HW130065   2.778   3.078  10.459  1.0039 -0.3531  0.5528
 6144SOL    HW230066   2.863   3.197  10.438  1.7500 -0.8728 -0.2210
 6145SOL     OW30067   2.988   3.114   1.943 -0.2523 -0.6300  0.3928
 6145SOL    HW130068   2.944   3.182   1.994  0.2021 -1.2076  1.5548
 6145SOL    HW230069   3.007   3.169   1.867 -0.0098 -2.0476 -0.5689
 6146SOL     OW30070   4.592   0.978   3.523 -0.8516 -0.0099 -0.2581
 6146SOL    HW130071   4.671   0.956   3.473 -1.9022 -2.0429 -1.0254
 6146SOL    HW230072   4.628   1.057   3.564 -0.8583 -1.4422  2.4636
 6147SOL     OW30073   2.804   3.423   0.903  0.3113 -0.1683  0.2160
 6147SOL    HW130074   2.745   3.435   0.978  0.9032  3.3705  0.1072
 6147SOL    HW230075   2.748   3.369   0.847  0.8283 -0.7674  0.2829
 6148SOL     OW30076   4.693   3.889   5.941 -0.6551 -0.6718 -0.2476
 6148SOL    HW130077   0.040   3.869   5.900 -0.3573  0.3048 -0.1150
 6148SOL    HW230078   4.693   3.982   5.917  1.1838  0.3029  3.4693
 6149SOL     OW30079   4.378   0.496   5.342  0.5981 -0.0075 -0.4225
 6149SOL    HW130080   4.414   0.518   5.428 -2.0517  0.1939  0.6124
 6149SOL    HW230081   4.297   0.452   5.368  0.1578  0.6445 -0.6974
 6150SOL     OW30082   1.566   3.885   1.962 -0.7071 -0.8727 -0.4080
 6150SOL    HW130083   1.508   3.948   1.918 -1.1099 -0.1431  1.1489
 6150SOL    HW230084   1.630   3.948   1.998 -0.3359 -1.9137  0.7585
 6151SOL     OW30085   3.415   3.547  15.006 -0.3708  0.3048 -0.4131
 6151SOL    HW130086   3.360   3.476  15.039 -0.2241  1.3535  2.0831
 6151SOL    HW230087   3.476   3.491  14.957 -0.2224 -0.2173  0.3747
 6152SOL     OW30088   0.389   2.300   8.941 -0.7664  0.3593 -0.2550
 6152SOL    HW130089   0.325   2.334   8.878  0.2394  3.1033  0.1732
 6152SOL    HW230090   0.467   2.285   8.888  1.3199  5.2858  1.3632
 6153SOL     OW30091   1.920   3.983   5.338  0.0128 -0.4949  0.2019
 6153SOL    HW130092   1.825   3.990   5.333  0.0837 -0.4130 -1.1103
 6153SOL    HW230093   1.939   3.904   5.288  1.6909  1.1178 -1.7623
 6154SOL     OW30094   2.801   2.182   2.075 -0.2125 -0.2108 -0.2833
 6154SOL    HW130095   2.712   2.216   2.078 -0.0214  0.2378  0.3652
 6154SOL    HW230096   2.808   2.138   2.160 -0.1422  0.4860  0.0630
 6155SOL     OW30097   0.664   3.710   9.207  0.3345  0.3862 -0.5137
 6155SOL    HW130098   0.630   3.622   9.224  1.2973  0.2052  0.4376
 6155SOL    HW230099   0.665   3.697   9.112 -0.4645  2.0677 -0.7531
 6156SOL     OW30100   4.613   4.519   8.446 -0.1148  0.0568 -0.6645
 6156SOL    HW130101   4.553   4.556   8.381 -0.4750  0.4404 -0.1205
 6156SOL    HW230102   4.616   4.586   8.515  1.2782 -1.1473  0.4487
 6157SOL     OW30103   2.682   1.681   0.058 -0.2912  0.2779  0.0951
 6157SOL    HW130104   2.589   1.695   0.039 -0.3101  1.5631  1.1737
 6157SOL    HW230105   2.688   1.585   0.063  0.7262  0.2914 -0.7734
 6158SOL     OW30106   2.039   4.631   9.026 -0.6230  0.3774 -0.2202
 6158SOL    HW130107   2.099   4.648   8.953  1.5487 -1.0364  1.2328
 6158SOL    HW230108   1.970   4.690   8.996 -1.7261 -0.9548 -0.2770
 6159SOL     OW30109   2.020   3.152   0.921  0.3055 -0.1545  0.4495
 6159SOL    HW130110   2.068   3.207   0.983 -0.2560  1.0982 -0.2304
 6159SOL    HW230111   2.093   3.122   0.867  0.6628  1.8195 -0.1695
 6160SOL     OW30112   2.968   2.390   9.369  0.6492 -0.3777 -0.3460
 6160SOL    HW130113   3.038   2.328   9.387  0.7042 -0.4656 -0.8473
 6160SOL    HW230114   2.982   2.459   9.434 -1.1040  0.1390 -0.4910
 6161SOL     OW30115   3.072   2.975   8.858 -0.1538 -0.0145 -0.1616
 6161SOL    HW130116   3.033   3.043   8.913  1.4040  0.1076  0.7644
 6161SOL    HW230117   3.154   3.013   8.828 -0.5354  0.5933 -0.4306
 6162SOL     OW30118   1.017   0.704   2.900  0.0309  0.0233 -0.5975
 6162SOL    HW130119   1.090   0.764   2.912  1.8463 -2.1109 -1.0742
 6162SOL    HW230120   1.020   0.638   2.969 -0.7353  0.5124 -0.1001
 6163SOL     OW30121   2.141   3.205   6.738  0.1903  0.0249  0.0594
 6163SOL    HW130122   2.126   3.197   6.644  2.9611 -0.7205 -0.3182
 6163SOL    HW230123   2.210   3.140   6.753 -0.5432 -0.2746  2.1466
 6164SOL     OW30124   3.640   3.530  15.685  0.4378 -0.3548 -0.0340
 6164SOL    HW130125   3.674   3.584  15.757 -0.3882  1.0427 -0.6896
 6164SOL    HW230126   3.595   3.470  15.745 -2.0736  1.1606 -0.4178
 6165SOL     OW30127   2.983   2.161   7.244  0.1318 -0.1536 -0.4719
 6165SOL    HW130128   2.946   2.200   7.165 -3.6237  1.9373  2.3500
 6165SOL    HW230129   3.017   2.080   7.204  3.7607  1.6610 -1.0945
 6166SOL     OW30130   0.882   2.053   1.909 -0.4554  0.4720 -0.1950
 6166SOL    HW130131   0.942   1.994   1.864 -0.3709  1.9881 -2.0732
 6166SOL    HW230132   0.920   2.140   1.898  2.5236 -0.4698  2.8102
 6167SOL     OW30133   2.254   1.807  11.506 -0.8138  0.5461  0.2552
 6167SOL    HW130134   2.247   1.777  11.597  0.8312  1.8092  0.7954
 6167SOL    HW230135   2.346   1.818  11.484 -0.7032 -1.4002 -0.2792
 6168SOL     OW30136   1.464   1.152   0.422  0.4548  0.3400 -0.0015
 6168SOL    HW130137   1.473   1.143   0.517 -0.1803 -0.2301  0.0074
 6168SOL    HW230138   1.543   1.203   0.402  0.3436  0.8355  0.8399
 6169SOL     OW30139   1.390   2.492   6.686 -0.4554 -0.0936 -0.3615
 6169SOL    HW130140   1.399   2.546   6.607  2.1637 -0.3889 -0.2688
 6169SOL    HW230141   1.445   2.416   6.665  1.0870  0.7134  0.8077
 6170SOL     OW30142   2.845   2.279   0.994  0.1358 -0.2523 -0.1598
 6170SOL    HW130143   2.768   2.250   1.043  0.8852  0.3845  1.3924
 6170SOL    HW230144   2.895   2.198   0.988 -0.3756 -0.7877  2.9277
 6171SOL     OW30145   3.556   1.423   7.791 -0.0694  0.5505  0.0030
 6171SOL    HW130146   3.552   1.482   7.867 -1.4120 -0.5357  0.7717
 6171SOL    HW230147   3.559   1.334   7.826  0.0336 -0.0998 -1.6807
 6172SOL     OW30148   3.277   3.247   6.761  0.1568  0.4014 -0.2281
 6172SOL    HW130149   3.300   3.338   6.747  1.7692 -0.2911 -1.9214
 6172SOL    HW230150   3.244   3.240   6.851  1.3716 -2.9618 -0.0359
 6173SOL     OW30151   1.678   3.611   4.203 -0.5440 -0.3921 -0.2237
 6173SOL    HW130152   1.629   3.693   4.212  0.4530  0.5996 -3.4982
 6173SOL    HW230153   1.613   3.547   4.174  0.7568 -1.6374 -0.3759
 6174SOL     OW30154   2.015   1.996  15.781 -0.0494  0.2946 -0.1899
 6174SOL    HW130155   1.963   2.063  15.824  0.1510 -0.1223  0.7031
 6174SOL    HW230156   1.980   1.912  15.810 -1.9999  0.8056 -1.0762
 6175SOL     OW30157   3.026   4.239   9.837 -0.0999  0.0213 -0.2341
 6175SOL    HW130158   3.097   4.248   9.901 -0.9719 -0.0260  0.7384
 6175SOL    HW230159   3.060   4.186   9.765 -1.3662 -1.8167  0.5358
 6176SOL     OW30160   3.004   4.201   1.366 -0.1777 -0.1937  0.2968
 6176SOL    HW130161   2.966   4.119   1.398 -1.8731  0.9580  1.2104
 6176SOL    HW230162   2.968   4.205   1.278 -1.9579 -1.9497  0.9444
 6177SOL     OW30163   2.075   2.349   6.985 -0.0032  0.3128 -0.4650
 6177SOL    HW130164   2.170   2.336   6.976 -0.0690  0.3531 -1.2295
 6177SOL    HW230165   2.076   2.436   7.024  0.6625  1.6387 -3.4391
 6178SOL     OW30166   0.906   3.388   5.557  0.1927 -0.2246 -0.0442
 6178SOL    HW130167   0.952   3.422   5.633 -2.5998  3.9298 -0.2213
 6178SOL    HW230168   0.867   3.466   5.519 -0.2617  0.6443  2.2073
 6179SOL     OW30169   2.779   4.651   8.621 -0.2450  0.3660 -0.3229
 6179SOL    HW130170   2.813   4.604   8.545 -0.6370  0.1214 -0.3482
 6179SOL    HW230171   2.799   0.006   8.606  0.1595  0.4601  0.7854
 6180SOL     OW30172   0.106   2.015   4.728 -0.1875 -0.6662 -0.0624
 6180SOL    HW130173   0.188   1.998   4.682 -0.2029  0.5817 -0.5647
 6180SOL    HW230174   0.079   2.073   4.656  2.1964 -0.6642 -0.9525
 6181SOL     OW30175   0.558   2.092  11.708 -0.5537  0.0276 -0.1957
 6181SOL    HW130176   0.643   2.051  11.724  0.0068  0.7037 -1.5172
 6181SOL    HW230177   0.588   2.161  11.649 -1.9600  1.5710  0.8887
 6182SOL     OW30178   4.398   4.099   2.693 -0.1388  0.5280 -0.1158
 6182SOL    HW130179   4.403   4.169   2.628  1.0274 -0.0450 -0.6473
 6182SOL    HW230180   4.457   4.133   2.760 -0.6840 -2.8867  2.1103
 6183SOL     OW30181   3.198   0.601   5.119 -0.1547 -0.1273  0.2171
 6183SOL    HW130182   3.156   0.647   5.047  0.5029  1.3118  0.7476
 6183SOL    HW230183   3.281   0.582   5.074  0.2780  3.1603 -0.3642
 6184SOL     OW30184   1.065   0.224   7.741 -0.2777  0.0702  0.3358
 6184SOL    HW130185   0.981   0.264   7.765  0.2225  0.0768  2.0757
 6184SOL    HW230186   1.089   0.284   7.670  2.3948 -0.1951  1.0003
 6185SOL     OW30187   2.961   2.561   3.800  0.0798  0.0567 -0.2218
 6185SOL    HW130188   3.019   2.548   3.725 -2.3517  0.9269 -2.2630
 6185SOL    HW230189   2.902   2.629   3.765  0.7242  0.3826 -0.6630
 6186SOL     OW30190   2.588   3.603  10.109  0.2352  0.4172  0.3011
 6186SOL    HW130191   2.622   3.550  10.181 -0.6188 -0.0008  0.3955
 6186SOL    HW230192   2.666   3.655  10.090  0.7962 -1.1352 -1.5367
 6187SOL     OW30193   3.080   4.411   7.762 -0.0824  0.3000 -0.2686
 6187SOL    HW130194   2.997   4.381   7.800 -0.3837 -0.2569 -1.3545
 6187SOL    HW230195   3.055   4.497   7.726 -2.2514 -0.3866 -0.4410
 6188SOL     OW30196   4.579   2.326  10.237  0.0112  0.2287 -0.2695
 6188SOL    HW130197   4.635   2.404  10.229  0.8887 -0.2677  0.9392
 6188SOL    HW230198   4.616   2.278  10.164 -0.8158  1.0861 -1.2512
 6189SOL     OW30199   3.968   1.600  10.358  0.0353  0.4454  0.1707
 6189SOL    HW130200   4.058   1.569  10.350  0.1894  1.8296 -3.7364
 6189SOL    HW230201   3.928   1.551  10.429 -0.1105  1.8200  1.0256
 6190SOL     OW30202   2.054   1.159   2.262  0.3051 -0.2850 -0.3353
 6190SOL    HW130203   2.072   1.206   2.181 -1.9506 -0.8230 -1.1418
 6190SOL    HW230204   2.023   1.227   2.322  0.2228 -0.1741 -0.5024
 6191SOL     OW30205   0.019   4.056  12.376 -0.2035  0.4063 -0.0794
 6191SOL    HW130206   0.051   4.091  12.460  0.0224  1.0308 -0.4238
 6191SOL    HW230207   0.044   3.964  12.377  0.6313  0.6512  1.8844
 6192SOL     OW30208   3.414   3.608   9.099  0.2635  0.3925 -0.0416
 6192SOL    HW130209   3.422   3.540   9.031  1.2634 -0.1905  0.6598
 6192SOL    HW230210   3.381   3.553   9.170  0.3695 -0.9637 -1.0360
 6193SOL     OW30211   0.925   1.169   5.088  0.2749  0.1826 -0.3096
 6193SOL    HW130212   0.969   1.173   5.003 -1.5903 -1.7453 -1.3841
 6193SOL    HW230213   0.982   1.231   5.133 -2.6564  1.3840  1.7615
 6194SOL     OW30214   3.179   1.953  10.936 -0.3464 -0.3550 -0.5001
 6194SOL    HW130215   3.112   1.888  10.958 -0.3216  0.1010  0.9080
 6194SOL    HW230216   3.194   1.973  11.029 -1.1338  1.2741 -0.7302
 6195SOL     OW30217   3.587   1.219   9.472  0.9177  0.7349  0.2587
 6195SOL    HW130218   3.626   1.173   9.398  1.6223 -0.6493  1.4775
 6195SOL    HW230219   3.534   1.150   9.511  1.4890  1.0486  1.5958
 6196SOL     OW30220   2.454   0.124   2.080  0.2617  0.4797 -0.6486
 6196SOL    HW130221   2.505   0.085   2.152  2.0595  0.9449 -1.6592
 6196SOL    HW230222   2.362   0.119   2.107  1.1598  2.4294  2.7620
 6197SOL     OW30223   0.284   0.291   8.592 -0.2920  0.4994 -0.1001
 6197SOL    HW130224   0.320   0.340   8.517  1.0056  1.0129  0.8618
 6197SOL    HW230225   0.260   0.205   8.557 -0.9001  0.5874  0.1105
 6198SOL     OW30226   0.989   0.848   2.654  0.6626  0.3051 -0.2380
 6198SOL    HW130227   0.968   0.803   2.735 -2.6961  2.0649 -0.1341
 6198SOL    HW230228   1.083   0.866   2.660  1.2088 -2.6859 -0.0028
 6199SOL     OW30229   2.142   2.088   7.166 -0.0731 -0.0150 -0.4108
 6199SOL    HW130230   2.164   1.995   7.174  2.2206  0.5312 -0.2921
 6199SOL    HW230231   2.208   2.114   7.101 -1.3206  2.7088 -0.5673
 6200SOL     OW30232   0.664   4.720   1.682  0.1162 -0.1504  0.5111
 6200SOL    HW130233   0.592   4.675   1.727  0.6826 -1.0164  0.5549
 6200SOL    HW230234   0.621   0.067   1.692 -0.9618 -0.8827  2.0749
 6201SOL     OW30235   3.023   1.796  12.724 -0.8054 -0.1363  0.1972
 6201SOL    HW130236   2.934   1.797  12.759 -0.5944  0.1728  0.7222
 6201SOL    HW230237   3.042   1.890  12.732 -1.0395 -0.1585  0.9601
 6202SOL     OW30238   2.505   3.018   5.069 -0.2362 -0.2575 -0.0829
 6202SOL    HW130239   2.564   2.969   5.010 -0.7709 -0.8839 -0.0936
 6202SOL    HW230240   2.533   2.991   5.156 -1.4496  1.0795  0.7113
 6203SOL     OW30241   4.023   2.616  10.609 -0.7723 -0.2451  0.3217
 6203SOL    HW130242   4.056   2.674  10.677 -0.6698  1.7030 -1.3737
 6203SOL    HW230243   4.098   2.556  10.608 -1.7322 -1.3758 -2.6560
 6204SOL     OW30244   1.606   2.885   9.013 -0.4422 -0.5442  0.2407
 6204SOL    HW130245   1.618   2.896   9.107  0.2350  1.8795 -0.1311
 6204SOL    HW230246   1.514   2.857   9.012 -0.2793 -1.0431 -0.8154
 6205SOL     OW30247   4.310   0.040  14.536  0.0795 -0.1366  0.0509
 6205SOL    HW130248   4.240   0.067  14.596  0.7339  2.7908 -0.5087
 6205SOL    HW230249   4.258   4.722  14.478 -0.4213 -4.3237  4.5652
 6206SOL     OW30250   0.761   1.715  11.043 -0.6759 -0.0665 -0.0245
 6206SOL    HW130251   0.757   1.786  10.978  3.3569 -0.8133 -1.1149
 6206SOL    HW230252   0.851   1.720  11.073 -0.3109 -1.0495 -0.9429
 6207SOL     OW30253   3.420   4.236  12.246  0.7898  0.2403  0.2066
 6207SOL    HW130254   3.348   4.244  12.309  1.4513  2.6131  0.6736
 6207SOL    HW230255   3.382   4.293  12.179  0.7102  0.3543  0.3472
 6208SOL     OW30256   1.797   3.367   3.119 -0.3326  0.2803  0.3712
 6208SOL    HW130257   1.746   3.429   3.066 -1.0092 -0.1566  0.5064
 6208SOL    HW230258   1.730   3.325   3.174 -0.0159  1.8644  1.9681
 6209SOL     OW30259   3.272   1.574   8.524 -0.0321 -0.2720 -0.4232
 6209SOL    HW130260   3.196   1.598   8.471  0.6104  0.7465 -0.8685
 6209SOL    HW230261   3.231   1.558   8.609  0.7090 -0.5377 -0.1125
 6210SOL     OW30262   3.696   3.108   0.604  0.7665 -0.6202  0.0809
 6210SOL    HW130263   3.759   3.163   0.649  0.2304  0.1882 -0.1434
 6210SOL    HW230264   3.696   3.029   0.658 -2.4595  0.1124  1.1504
 6211SOL     OW30265   0.274   2.381   8.704 -0.0457  0.9035  0.3283
 6211SOL    HW130266   0.352   2.395   8.649 -0.5060  1.3373 -0.2156
 6211SOL    HW230267   0.229   2.319   8.646  1.9812  0.8446 -1.1907
 6212SOL     OW30268   0.871   3.107   9.897 -0.0251  0.8657  0.3254
 6212SOL    HW130269   0.922   3.041   9.945  2.5973  2.3328 -0.4588
 6212SOL    HW230270   0.823   3.144   9.972 -0.9966  0.6223 -0.1782
 6213SOL     OW30271   3.497   0.941   2.163  0.4290  0.2206  0.7033
 6213SOL    HW130272   3.518   0.909   2.076  1.1793 -0.0033  0.9660
 6213SOL    HW230273   3.437   0.879   2.206 -1.1374  2.0225  1.1158
 6214SOL     OW30274   0.149   1.756  11.021 -0.5137  0.2196 -0.0248
 6214SOL    HW130275   0.223   1.802  11.062 -0.9923 -0.1538  1.2519
 6214SOL    HW230276   0.073   1.776  11.076 -1.4913  0.1156 -1.3547
 6215SOL     OW30277   0.396   3.067  17.315  0.0429 -0.4078  0.3234
 6215SOL    HW130278   0.371   3.159  17.301 -2.0966 -0.7001  2.3702
 6215SOL    HW230279   0.434   3.044  17.230 -1.4448  3.0902 -1.3182
 6216SOL     OW30280   0.071   2.430   4.862  0.5412  0.4053  0.3068
 6216SOL    HW130281   0.027   2.428   4.777  0.8743 -0.7776  0.1627
 6216SOL    HW230282   0.102   2.341   4.875 -0.9795 -0.5411 -2.5284
 6217SOL     OW30283   2.496   1.415   8.239 -1.2483 -0.3839 -0.4828
 6217SOL    HW130284   2.570   1.420   8.299 -1.5426 -1.5413 -0.0193
 6217SOL    HW230285   2.442   1.359   8.294 -2.5358 -0.1057 -1.4451
 6218SOL     OW30286   4.552   4.139   8.758  0.1783 -0.3603 -0.5749
 6218SOL    HW130287   4.541   4.230   8.733  2.2384 -0.1031 -0.5652
 6218SOL    HW230288   4.570   4.091   8.677  2.7866 -1.1637  0.4674
 6219SOL     OW30289   3.513   3.275  16.338  0.2122  0.6775 -0.0637
 6219SOL    HW130290   3.476   3.330  16.407 -2.1520 -2.1977  0.9376
 6219SOL    HW230291   3.547   3.196  16.381 -0.1408  0.1161 -0.8133
 6220SOL     OW30292   0.158   0.507   4.448  0.2793  0.0985 -0.6655
 6220SOL    HW130293   0.070   0.546   4.448  0.7149  1.0678 -0.5000
 6220SOL    HW230294   0.211   0.579   4.412 -0.5046  1.1699  0.3189
 6221SOL     OW30295   2.443   0.586   2.138  0.0504  0.6463 -0.1424
 6221SOL    HW130296   2.419   0.502   2.180 -0.6809 -0.0801 -2.0114
 6221SOL    HW230297   2.421   0.573   2.046 -0.0576  3.3171 -0.4722
 6222SOL     OW30298   3.540   0.204   2.778 -0.0012  0.4021 -0.1531
 6222SOL    HW130299   3.634   0.206   2.795 -0.4074 -1.5178  2.4227
 6222SOL    HW230300   3.543   0.148   2.700 -2.7788 -0.9791  0.7083
 6223SOL     OW30301   2.755   0.980   1.722 -0.2747  0.7838  0.1814
 6223SOL    HW130302   2.810   0.993   1.645  0.2204  1.2328  0.6041
 6223SOL    HW230303   2.717   1.067   1.732 -1.2077  0.3969  0.0036
 6224SOL     OW30304   4.363   3.911   1.402 -0.0531  0.4563  0.2077
 6224SOL    HW130305   4.352   3.843   1.468  0.5941 -1.9774 -2.1920
 6224SOL    HW230306   4.374   3.989   1.456  0.4962 -1.2115  2.4719
 6225SOL     OW30307   0.918   3.868   9.052  0.3989  0.2014 -0.1681
 6225SOL    HW130308   0.929   3.814   9.130  0.0962 -1.6701 -1.4215
 6225SOL    HW230309   0.942   3.811   8.979 -2.3960 -0.6857 -0.3950
 6226SOL     OW30310   4.394   2.184   3.684 -0.2194 -0.2528  0.4114
 6226SOL    HW130311   4.365   2.093   3.696  0.8668 -0.2339  3.1781
 6226SOL    HW230312   4.378   2.217   3.772 -0.8977 -0.2854  0.2992
 6227SOL     OW30313   2.742   4.002   4.941  0.0653 -0.7107  0.0714
 6227SOL    HW130314   2.664   4.052   4.920  0.2459  0.1243  1.3270
 6227SOL    HW230315   2.797   4.034   4.869  0.8230  1.2251  1.4985
 6228SOL     OW30316   3.495   2.468   2.281  0.2464 -0.2008  0.1916
 6228SOL    HW130317   3.547   2.510   2.213  0.2676  0.5314  0.6588
 6228SOL    HW230318   3.539   2.383   2.287 -1.4017 -1.1534 -1.3989
 6229SOL     OW30319   3.484   2.025   2.702  0.7237  0.6474  0.0933
 6229SOL    HW130320   3.534   2.034   2.783  1.4790 -0.8706 -0.2113
 6229SOL    HW230321   3.557   2.029   2.640  0.7222 -2.0389 -0.0775
 6230SOL     OW30322   4.538   4.609   5.162  0.2160  0.7480 -0.4371
 6230SOL    HW130323   4.525   4.701   5.182  2.6485  1.1540 -0.6907
 6230SOL    HW230324   4.634   4.608   5.156  0.3440 -0.8211  1.8383
 6231SOL     OW30325   0.737   1.254  16.804  0.0342  0.1927 -0.1736
 6231SOL    HW130326   0.733   1.226  16.712 -0.0187  1.0198 -0.4257
 6231SOL    HW230327   0.653   1.286  16.837  0.0295  0.0961 -0.0914
 6232SOL     OW30328   4.017   0.071   6.436  0.2391 -0.2191 -0.0973
 6232SOL    HW130329   3.923   0.086   6.424  0.2722  1.5289  1.8405
 6232SOL    HW230330   4.031   0.046   6.345 -0.1484  3.0218 -1.0592
 6233SOL     OW30331   4.697   2.541   1.526  0.2020  0.5628  0.2034
 6233SOL    HW130332   4.660   2.542   1.438 -0.6686  0.4931  0.5698
 6233SOL    HW230333   4.629   2.492   1.573  0.3705 -0.0312 -0.1704
 6234SOL     OW30334   4.087   0.786   9.818 -0.7447  0.1079  0.1651
 6234SOL    HW130335   4.019   0.813   9.880 -0.2854  0.5649  0.4710
 6234SOL    HW230336   4.040   0.752   9.742  0.8307  0.3268 -0.9103
 6235SOL     OW30337   2.703   2.767  13.841 -1.1578 -0.0965 -0.4185
 6235SOL    HW130338   2.756   2.771  13.762 -0.2626 -0.5785  0.1450
 6235SOL    HW230339   2.676   2.676  13.831 -2.0294  0.0328  0.6881
 6236SOL     OW30340   1.995   0.903   5.898  0.1739 -0.2589  0.4304
 6236SOL    HW130341   2.040   0.887   5.815  2.6347  0.9816  1.5546
 6236SOL    HW230342   1.946   0.981   5.872 -0.9391 -0.7676  1.0100
 6237SOL     OW30343   3.501   4.167   8.814  0.3999 -0.1530  0.0459
 6237SOL    HW130344   3.530   4.138   8.901 -2.4209  0.1307  1.0851
 6237SOL    HW230345   3.435   4.102   8.791 -0.4815  0.7374  0.0929
 6238SOL     OW30346   0.727   3.632   4.390  0.0813  0.4667  0.2000
 6238SOL    HW130347   0.692   3.671   4.310 -1.9888 -1.0988  0.3515
 6238SOL    HW230348   0.817   3.623   4.361 -0.2639  1.1626 -1.1147
 6239SOL     OW30349   3.054   0.714  14.511 -0.4903  0.1068  0.5506
 6239SOL    HW130350   3.095   0.672  14.435  1.4911  2.1043  0.5034
 6239SOL    HW230351   3.121   0.705  14.580  0.5871  1.7442 -0.2598
 6240SOL     OW30352   1.189   3.805   8.183  0.7271  0.0008  0.4824
 6240SOL    HW130353   1.228   3.861   8.116 -2.1019  0.9417 -0.3549
 6240SOL    HW230354   1.199   3.720   8.141  0.6084  1.3023 -2.1951
 6241SOL     OW30355   1.954   0.502   6.782 -0.4624  0.0041  0.3483
 6241SOL    HW130356   1.972   0.425   6.728  0.7443 -1.5903  2.9485
 6241SOL    HW230357   1.924   0.471   6.868 -1.5857 -0.3165 -0.1695
 6242SOL     OW30358   3.282   2.387   2.097  0.1404  0.2344  0.3153
 6242SOL    HW130359   3.248   2.423   2.016  1.3473  0.4206 -0.1043
 6242SOL    HW230360   3.216   2.420   2.158 -0.1904  0.3488 -0.1040
 6243SOL     OW30361   2.320   0.889   3.543  0.1345 -0.6084 -0.4893
 6243SOL    HW130362   2.389   0.953   3.560  0.6471 -1.2525 -0.1295
 6243SOL    HW230363   2.260   0.945   3.493  2.1077  2.0092  0.0623
 6244SOL     OW30364   1.022   1.684   9.460 -0.4685  0.3362 -0.0630
 6244SOL    HW130365   0.927   1.693   9.467 -0.3419  1.5104  0.2547
 6244SOL    HW230366   1.038   1.593   9.485 -2.2336  0.0644  0.0792
 6245SOL     OW30367   1.834   1.137   5.873 -0.0459  0.2568  0.2673
 6245SOL    HW130368   1.784   1.215   5.900  0.9948  1.1794 -0.4627
 6245SOL    HW230369   1.757   1.085   5.854  0.1477  0.3155 -0.6634
 6246SOL     OW30370   4.618   0.867   7.178 -0.0298  0.1916 -0.3900
 6246SOL    HW130371   4.680   0.803   7.142  0.2671 -0.3497  1.0912
 6246SOL    HW230372   4.677   0.942   7.171  1.0567 -0.4790  1.6840
 6247SOL     OW30373   0.715   1.164   7.495 -0.1765 -0.3635 -0.1337
 6247SOL    HW130374   0.719   1.150   7.589  0.2609  0.8092  0.0204
 6247SOL    HW230375   0.809   1.158   7.478 -0.1109  2.2054 -0.6954
 6248SOL     OW30376   2.931   3.943   6.737  0.3774  0.0143  0.0349
 6248SOL    HW130377   3.001   3.978   6.682  0.4979  0.0606  0.2152
 6248SOL    HW230378   2.992   3.903   6.799 -0.6934 -2.0593 -0.2480
 6249SOL     OW30379   1.137   2.651  14.281  0.1160  0.3267  0.1065
 6249SOL    HW130380   1.124   2.659  14.375 -1.8840 -0.6198 -0.0794
 6249SOL    HW230381   1.196   2.578  14.262 -1.2420 -0.1747 -2.1775
 6250SOL     OW30382   3.142   4.249   2.855  0.3211  0.0251 -0.1823
 6250SOL    HW130383   3.193   4.173   2.828  1.4878  0.4579  0.8020
 6250SOL    HW230384   3.152   4.313   2.784  0.2002 -0.2280 -0.4290
 6251SOL     OW30385   3.253   1.657   5.241  0.0151  0.0847 -0.2234
 6251SOL    HW130386   3.279   1.608   5.164 -0.1268  0.9587 -0.8272
 6251SOL    HW230387   3.330   1.680   5.292 -1.1811 -1.1765  2.1671
 6252SOL     OW30388   1.537   0.117  16.246 -0.0994  0.0879 -0.3966
 6252SOL    HW130389   1.566   0.036  16.288  2.1486  0.8259 -0.4919
 6252SOL    HW230390   1.615   0.126  16.191  0.2378 -0.1456  0.0384
 6253SOL     OW30391   1.981   0.597   6.289 -0.4387 -0.0159  1.1957
 6253SOL    HW130392   1.938   0.678   6.315  0.0668 -0.0927  2.2911
 6253SOL    HW230393   2.072   0.612   6.314 -1.1009  1.4939  2.7111
 6254SOL     OW30394   2.943   2.858  17.441  0.2176  0.2228  0.1668
 6254SOL    HW130395   2.968   2.780  17.391 -0.0572 -2.1144  3.6731
 6254SOL    HW230396   2.941   2.815  17.526  0.5931  0.4364  0.2881
 6255SOL     OW30397   3.493   4.577   8.989  0.4700  0.1726 -0.7149
 6255SOL    HW130398   3.414   4.540   8.950  1.6910 -2.4105 -0.7482
 6255SOL    HW230399   3.543   4.500   9.017 -0.0412  1.2249  3.0878
 6256SOL     OW30400   1.692   4.010   2.396  0.5587  0.7987 -0.2499
 6256SOL    HW130401   1.688   3.915   2.404 -0.7334  0.8788  0.1067
 6256SOL    HW230402   1.762   4.028   2.459  2.8418 -0.0968 -2.5191
 6257SOL     OW30403   3.899   1.871   0.884 -0.5998 -0.7410 -0.2228
 6257SOL    HW130404   3.852   1.816   0.822  0.7001 -1.1090 -0.9030
 6257SOL    HW230405   3.921   1.937   0.817  0.1894 -1.3414 -0.5676
 6258SOL     OW30406   3.310   1.681  13.901  0.1765 -0.1496 -0.1172
 6258SOL    HW130407   3.323   1.733  13.981  0.5303  0.0385 -0.2997
 6258SOL    HW230408   3.215   1.678  13.911  0.1441 -0.1932 -0.4498
 6259SOL     OW30409   3.823   2.620   4.603 -0.0418 -0.1951 -0.6505
 6259SOL    HW130410   3.861   2.599   4.518  0.3608 -2.7202  0.1499
 6259SOL    HW230411   3.894   2.595   4.663  0.0914  0.2871 -0.6093
 6260SOL     OW30412   1.601   2.017   3.040  0.5357 -0.0559  0.3300
 6260SOL    HW130413   1.532   1.952   3.055  0.2611 -0.4523 -2.5670
 6260SOL    HW230414   1.621   2.043   3.130 -1.2123  0.4488  0.5763
 6261SOL     OW30415   4.636   3.250   1.878  0.1248  0.8368 -0.1325
 6261SOL    HW130416   4.664   3.160   1.863  2.0527  0.9438  2.7974
 6261SOL    HW230417   4.699   3.279   1.944 -1.1696  3.4612 -0.0096
 6262SOL     OW30418   3.920   0.719   4.764 -0.1173  0.1115 -0.2338
 6262SOL    HW130419   3.895   0.627   4.753  1.2429 -0.1579 -0.9715
 6262SOL    HW230420   4.011   0.710   4.735 -0.1481  1.7381 -0.7958
 6263SOL     OW30421   0.539   0.734   3.928  0.9059 -0.7863 -0.4220
 6263SOL    HW130422   0.509   0.788   4.001  0.5792 -0.8233 -0.5258
 6263SOL    HW230423   0.466   0.672   3.925  1.6159 -1.6079 -0.6118
 6264SOL     OW30424   1.523   3.122  13.760 -0.3271  0.1748 -0.5682
 6264SOL    HW130425   1.429   3.128  13.778  0.0011  0.9091  0.9129
 6264SOL    HW230426   1.528   3.039  13.713 -0.1807 -1.1694  1.8439
 6265SOL     OW30427   3.083   2.703   8.606 -0.5101 -0.2238 -0.1801
 6265SOL    HW130428   3.052   2.788   8.575 -1.4367 -0.3116  0.5027
 6265SOL    HW230429   3.162   2.724   8.654  0.3022  1.0375 -2.0777
 6266SOL     OW30430   2.637   1.710   2.536  0.1625 -0.2533  0.1901
 6266SOL    HW130431   2.626   1.631   2.482 -0.1917 -0.0284 -0.0734
 6266SOL    HW230432   2.679   1.778   2.483 -3.3767 -0.0304 -2.3280
 6267SOL     OW30433   0.563   4.650   6.750 -0.4675  0.0645 -0.1056
 6267SOL    HW130434   0.596   4.698   6.674  2.4007  0.2770  1.2686
 6267SOL    HW230435   0.503   4.716   6.784 -0.6977 -0.2275  0.0547
 6268SOL     OW30436   1.819   1.730   2.877  0.7296  0.0019  0.0734
 6268SOL    HW130437   1.860   1.787   2.941 -1.4858  2.3788 -0.6464
 6268SOL    HW230438   1.804   1.785   2.800 -1.6999  0.2566  0.7483
 6269SOL     OW30439   2.380   0.300   8.806 -0.4478  0.1579 -0.6992
 6269SOL    HW130440   2.426   0.251   8.874 -0.1045  1.5070  0.0544
 6269SOL    HW230441   2.290   0.306   8.838  0.8246 -0.3182  3.0288
 6270SOL     OW30442   3.629   4.211   6.193  0.3171  0.4232  0.5924
 6270SOL    HW130443   3.645   4.220   6.100  0.5629 -4.0300  0.2072
 6270SOL    HW230444   3.554   4.269   6.202 -1.2255 -1.3824 -0.6778
 6271SOL     OW30445   3.974   2.303   3.059 -0.8745 -0.0275  0.2753
 6271SOL    HW130446   4.033   2.284   3.132  0.9710 -0.3842 -1.3085
 6271SOL    HW230447   4.031   2.347   2.996 -2.1066  0.8399 -0.2454
 6272SOL     OW30448   1.581   1.620   3.012  0.3349 -0.5159 -0.2107
 6272SOL    HW130449   1.665   1.663   2.996 -0.3438 -0.1825 -2.8797
 6272SOL    HW230450   1.589   1.610   3.107 -1.0426 -1.3892 -0.1868
 6273SOL     OW30451   4.003   2.974   8.195 -0.0675 -0.1364  0.3875
 6273SOL    HW130452   4.062   2.996   8.267  0.1723  2.8628 -0.7597
 6273SOL    HW230453   4.071   2.948   8.132 -0.3464 -0.2502  0.1324
 6274SOL     OW30454   3.190   0.519  10.823 -0.0981  0.1038 -0.0939
 6274SOL    HW130455   3.193   0.534  10.917 -0.6383  2.2974 -0.4460
 6274SOL    HW230456   3.242   0.590  10.786  2.0723 -1.5953 -0.2700
 6275SOL     OW30457   0.271   2.403   7.520  0.3880 -0.1507 -0.1328
 6275SOL    HW130458   0.192   2.367   7.559  0.5544 -0.2719  0.0897
 6275SOL    HW230459   0.337   2.336   7.538 -0.0631 -1.3781 -3.0611
 6276SOL     OW30460   0.007   3.479   2.803 -0.0761 -0.0523  0.0617
 6276SOL    HW130461   0.062   3.406   2.831  2.1405  1.4479 -0.3380
 6276SOL    HW230462   4.701   3.504   2.885  0.1047  1.5659 -0.3324
 6277SOL     OW30463   4.566   2.044   4.510 -0.3886 -0.2815  0.8521
 6277SOL    HW130464   4.641   2.098   4.485  0.1699 -1.2497  0.4328
 6277SOL    HW230465   4.507   2.059   4.436 -0.0071 -2.1838  0.1592
 6278SOL     OW30466   1.786   0.551   4.952  0.6076  0.5273 -0.1970
 6278SOL    HW130467   1.705   0.522   4.911 -0.0031  0.1712  1.2626
 6278SOL    HW230468   1.836   0.470   4.942 -0.1212  0.1293 -0.5713
 6279SOL     OW30469   0.758   4.466   2.806 -0.2189 -0.6970 -0.1504
 6279SOL    HW130470   0.666   4.452   2.831 -0.2045  0.2690  0.4103
 6279SOL    HW230471   0.777   4.536   2.868  1.7482 -0.6600 -0.8011
 6280SOL     OW30472   1.531   4.162   9.239 -0.6921 -0.2078  0.3698
 6280SOL    HW130473   1.596   4.193   9.176  1.4422 -1.0155  2.1888
 6280SOL    HW230474   1.572   4.195   9.319 -0.1062 -0.2365  0.0815
 6281SOL     OW30475   1.864   1.855  12.185  0.0968 -0.1611  0.0178
 6281SOL    HW130476   1.870   1.949  12.169 -2.1851 -0.1449 -0.7105
 6281SOL    HW230477   1.788   1.856  12.243  1.4072 -0.7300  1.7537
 6282SOL     OW30478   2.007   2.996  10.263  0.4346  0.4496 -0.2035
 6282SOL    HW130479   2.002   2.920  10.205 -0.0489 -0.2517  0.7689
 6282SOL    HW230480   1.913   3.011  10.275  0.2674  2.0038 -3.4423
 6283SOL     OW30481   2.584   1.376   6.061  0.2350  0.0635  0.1582
 6283SOL    HW130482   2.622   1.444   6.116 -0.8878  0.6629  0.2045
 6283SOL    HW230483   2.583   1.426   5.979  2.4490  1.9724  1.3080
 6284SOL     OW30484   4.100   1.555   9.158 -0.2259 -0.2857 -0.2980
 6284SOL    HW130485   4.092   1.650   9.166  3.2996 -0.0640  0.5813
 6284SOL    HW230486   4.012   1.526   9.181 -1.2522  1.8308 -1.5075
 6285SOL     OW30487   1.332   0.580   4.616  0.1582  0.1326  0.0702
 6285SOL    HW130488   1.321   0.662   4.568  0.8250 -0.4341 -1.0600
 6285SOL    HW230489   1.366   0.520   4.549  2.9278  1.0800  0.6056
 6286SOL     OW30490   3.582   1.416   3.449  0.4756 -0.5867  0.3528
 6286SOL    HW130491   3.499   1.457   3.470  0.6026  0.2574 -0.7503
 6286SOL    HW230492   3.602   1.464   3.368 -1.5502  0.9530  0.7807
 6287SOL     OW30493   2.348   3.489  11.035 -0.2448  0.0254  0.3152
 6287SOL    HW130494   2.414   3.510  11.101  1.0609  1.1369 -1.3759
 6287SOL    HW230495   2.292   3.565  11.049  0.6750  0.6917  0.3653
 6288SOL     OW30496   2.532   2.238  11.581 -0.4626  0.4636 -0.1977
 6288SOL    HW130497   2.467   2.301  11.551 -1.8661 -1.6290 -1.5234
 6288SOL    HW230498   2.478   2.176  11.631  1.4117 -1.2026 -0.2367
 6289SOL     OW30499   3.931   1.256   2.075  0.1780 -0.4503  0.1836
 6289SOL    HW130500   4.004   1.194   2.070  0.4777 -0.0880  0.1526
 6289SOL    HW230501   3.910   1.238   2.167  0.9350 -2.3934 -0.0155
 6290SOL     OW30502   3.001   1.544   8.867  0.2630  0.4576 -0.3725
 6290SOL    HW130503   2.966   1.632   8.882 -2.2147 -0.5173 -0.3568
 6290SOL    HW230504   2.927   1.484   8.857  0.2921 -0.0805  2.6855
 6291SOL     OW30505   0.732   1.939  13.065 -0.1501  0.2885  0.0437
 6291SOL    HW130506   0.700   1.972  12.981 -1.0419 -1.0129 -0.1363
 6291SOL    HW230507   0.731   2.017  13.119  0.3398  0.8672 -0.7824
 6292SOL     OW30508   1.074   1.464   3.964 -0.1687  0.0349 -0.2427
 6292SOL    HW130509   1.031   1.532   3.913 -1.3096 -0.0255  0.6120
 6292SOL    HW230510   1.059   1.498   4.052 -0.8696 -0.9405  0.0131
 6293SOL     OW30511   1.543   4.080   6.025  0.2889 -0.2178  0.6572
 6293SOL    HW130512   1.519   4.075   5.933  0.7852 -0.5317  0.5433
 6293SOL    HW230513   1.626   4.125   6.013  0.1358 -0.1550 -0.2040
 6294SOL     OW30514   1.179   2.137  11.757 -0.0360  0.2682 -0.4426
 6294SOL    HW130515   1.128   2.217  11.771 -1.0838 -0.2876 -1.0862
 6294SOL    HW230516   1.213   2.160  11.670  0.6205 -1.5489 -0.6605
 6295SOL     OW30517   0.931   4.132  10.627 -0.4790 -0.4762 -0.6911
 6295SOL    HW130518   0.951   4.073  10.554 -0.4438 -0.6277 -0.5601
 6295SOL    HW230519   0.912   4.207  10.570  3.2705  0.0966 -1.1579
 6296SOL     OW30520   2.840   0.592  12.906 -0.0703 -0.1338 -0.2408
 6296SOL    HW130521   2.827   0.585  12.812 -0.6824  2.1915 -0.3206
 6296SOL    HW230522   2.754   0.558  12.933  1.2347 -2.2492  1.3456
 6297SOL     OW30523   1.432   1.471   6.082  0.2704 -0.2512  0.0670
 6297SOL    HW130524   1.346   1.499   6.113  0.9136  1.3934  0.3600
 6297SOL    HW230525   1.423   1.492   5.989 -0.9037 -0.4730  0.1351
 6298SOL     OW30526   2.219   3.173   5.214  0.1048 -0.4843 -0.0061
 6298SOL    HW130527   2.231   3.118   5.137  1.1825 -0.0496 -0.1506
 6298SOL    HW230528   2.300   3.148   5.259 -0.4624  0.1871  1.3953
 6299SOL     OW30529   1.266   0.703   2.638 -0.0733 -0.0488 -0.5640
 6299SOL    HW130530   1.291   0.615   2.665  0.0947 -0.2977 -1.5509
 6299SOL    HW230531   1.336   0.757   2.676  0.7854 -1.6442  0.0940
 6300SOL     OW30532   2.969   1.114   6.993  0.4534 -0.0149 -0.5992
 6300SOL    HW130533   3.016   1.043   6.949 -0.9061  0.0940 -2.2300
 6300SOL    HW230534   3.027   1.125   7.068 -1.7603 -1.1422  1.2539
 6301SOL     OW30535   1.147   3.304  11.455 -0.8689 -0.1214  0.7699
 6301SOL    HW130536   1.086   3.374  11.477 -0.7877  0.3396 -0.5154
 6301SOL    HW230537   1.223   3.356  11.430 -0.7339 -1.6766 -2.0073
 6302SOL     OW30538   4.566   3.306   4.689  0.7044  0.3811 -0.7825
 6302SOL    HW130539   4.550   3.400   4.686  1.8634  0.5656 -1.3876
 6302SOL    HW230540   4.582   3.290   4.782  0.9165 -1.6781 -1.1796
 6303SOL     OW30541   4.084   1.434   8.450  0.2140 -0.7182 -0.0401
 6303SOL    HW130542   4.065   1.369   8.383  1.9702 -1.4072  0.1150
 6303SOL    HW230543   4.118   1.498   8.387  1.0427 -2.3958 -1.2952
 6304SOL     OW30544   4.048   3.623   9.343 -0.0839 -0.3620  0.1338
 6304SOL    HW130545   4.038   3.660   9.431 -2.3577 -0.0849 -0.2386
 6304SOL    HW230546   3.960   3.586   9.334 -0.3452  0.4452 -0.5921
 6305SOL     OW30547   3.323   4.374   7.652 -0.6187 -0.0315 -0.6773
 6305SOL    HW130548   3.236   4.366   7.692  0.9640 -0.5983  2.7189
 6305SOL    HW230549   3.297   4.428   7.578  0.9165 -0.2371 -1.3587
 6306SOL     OW30550   0.385   1.528   3.641 -0.5343 -0.3875  0.4130
 6306SOL    HW130551   0.452   1.588   3.608 -1.4272  0.9173  0.9531
 6306SOL    HW230552   0.417   1.444   3.609 -0.5827 -0.1588 -0.2254
 6307SOL     OW30553   1.384   0.558   5.317 -0.4485  0.5052  0.2290
 6307SOL    HW130554   1.346   0.594   5.397 -1.4484 -0.0588  0.0058
 6307SOL    HW230555   1.437   0.633   5.288  2.2190 -1.3522  0.3040
 6308SOL     OW30556   2.790   1.307   9.119  0.2577 -0.6744 -0.0727
 6308SOL    HW130557   2.789   1.349   9.033  0.2328  1.1532  0.8168
 6308SOL    HW230558   2.879   1.272   9.127  0.4058 -0.2684  0.0661
 6309SOL     OW30559   2.724   4.442   3.931  0.5683 -0.0301 -0.1109
 6309SOL    HW130560   2.730   4.366   3.988 -1.4128  0.1323  0.3404
 6309SOL    HW230561   2.650   4.484   3.975  0.5554  0.0478 -0.2063
 6310SOL     OW30562   3.341   0.112  16.366  0.1469 -0.4292 -0.0593
 6310SOL    HW130563   3.363   0.181  16.429 -1.6887  1.0044 -1.0193
 6310SOL    HW230564   3.408   0.108  16.298  1.0681  2.3766  0.6709
 6311SOL     OW30565   1.962   0.945   7.849 -0.5339  0.1653  0.0399
 6311SOL    HW130566   2.020   0.896   7.790  0.5459  0.3549  0.9407
 6311SOL    HW230567   1.945   0.869   7.904 -0.1377 -3.1700 -4.4094
 6312SOL     OW30568   0.815   1.437   9.798  0.2598 -0.4302 -0.6057
 6312SOL    HW130569   0.748   1.502   9.780 -0.1833 -0.6809  0.1507
 6312SOL    HW230570   0.751   1.374   9.829 -0.2569  0.8520  0.8876
 6313SOL     OW30571   4.009   0.001   2.905 -0.4002  0.3123  0.1495
 6313SOL    HW130572   4.045   4.651   2.890  3.2607  1.1929  3.7548
 6313SOL    HW230573   3.915   4.725   2.916 -0.2641 -0.0571  0.8625
 6314SOL     OW30574   0.165   4.357   0.334 -1.2485  0.0425 -0.2775
 6314SOL    HW130575   0.122   4.375   0.251 -2.7500 -1.5553  0.1668
 6314SOL    HW230576   0.101   4.379   0.401  0.3590  0.6861  1.0697
 6315SOL     OW30577   4.534   4.734   8.839  0.5625  0.1347  0.0506
 6315SOL    HW130578   4.447   4.721   8.877  0.4058  1.0518  0.0268
 6315SOL    HW230579   4.569   4.648   8.859  1.3358 -0.1162 -2.5104
 6316SOL     OW30580   1.017   2.272   1.672  0.2188 -0.1225 -0.1467
 6316SOL    HW130581   0.988   2.299   1.759 -0.4343 -1.1989 -0.0324
 6316SOL    HW230582   0.958   2.330   1.624  1.3247  1.5367  0.5037
 6317SOL     OW30583   3.821   0.775  17.104  0.0011  0.1060  0.2573
 6317SOL    HW130584   3.850   0.858  17.067  0.6288 -0.4448 -0.4773
 6317SOL    HW230585   3.728   0.797  17.100  0.3182  1.5734  1.3102
 6318SOL     OW30586   2.184   2.591   5.521 -0.3480  0.5369 -0.2868
 6318SOL    HW130587   2.208   2.684   5.511  1.1501  0.2533  0.8253
 6318SOL    HW230588   2.231   2.554   5.447  0.8168 -0.2639  0.8670
 6319SOL     OW30589   4.271   3.604   3.070  0.0594 -0.8101 -0.0786
 6319SOL    HW130590   4.242   3.552   2.996 -0.8777  0.2310 -0.4471
 6319SOL    HW230591   4.287   3.538   3.138  1.4602 -1.8393 -1.4176
 6320SOL     OW30592   2.333   3.906   5.464 -0.5042  0.1096 -0.5132
 6320SOL    HW130593   2.389   3.874   5.535 -1.0953 -3.6686 -1.7580
 6320SOL    HW230594   2.245   3.930   5.495 -0.0163  0.5500  0.5240
 6321SOL     OW30595   3.017   1.416   7.373  0.6313  0.1170  0.2281
 6321SOL    HW130596   3.008   1.474   7.448 -1.4549  2.3041 -1.7483
 6321SOL    HW230597   3.096   1.451   7.333  0.6517 -1.3281 -0.9806
 6322SOL     OW30598   2.005   3.925  15.425 -0.0784 -0.5080 -0.5103
 6322SOL    HW130599   1.988   3.891  15.512  0.9718 -1.9265 -0.8577
 6322SOL    HW230600   2.073   3.862  15.401 -1.0843 -0.5207 -3.3291
 6323SOL     OW30601   3.156   4.064   7.889  0.2900 -0.2564  0.6511
 6323SOL    HW130602   3.080   4.119   7.907 -1.9621 -4.0032  2.5597
 6323SOL    HW230603   3.193   4.038   7.973 -0.3524 -2.3886  0.2765
 6324SOL     OW30604   2.858   1.699   6.926  0.1607  0.1142 -0.4361
 6324SOL    HW130605   2.799   1.657   6.863  0.4644 -2.1019  0.7697
 6324SOL    HW230606   2.838   1.666   7.014  0.8621 -0.6631 -0.5697
 6325SOL     OW30607   1.514   1.906   4.923  0.3310  0.0938 -0.0665
 6325SOL    HW130608   1.464   1.984   4.901  0.4630 -0.1936 -1.3777
 6325SOL    HW230609   1.469   1.837   4.874  0.4762 -0.2237  0.2461
 6326SOL     OW30610   2.491   1.496   4.458 -0.3514  0.1906  1.2206
 6326SOL    HW130611   2.434   1.565   4.491 -1.6700 -0.5285  0.4565
 6326SOL    HW230612   2.580   1.530   4.449  0.0380 -1.3091 -0.6757
 6327SOL     OW30613   0.043   4.275   2.144  0.7033  0.0716  0.3960
 6327SOL    HW130614   4.696   4.235   2.125  1.1714 -0.2904 -0.9159
 6327SOL    HW230615   0.096   4.238   2.073  1.5326  0.7780  0.6366
 6328SOL     OW30616   2.616   1.892   7.237 -0.4999 -0.4982 -0.5920
 6328SOL    HW130617   2.656   1.971   7.274 -0.0093 -0.5027 -1.1190
 6328SOL    HW230618   2.677   1.826   7.271 -0.2374  0.1823  0.2576
 6329SOL     OW30619   3.743   4.683  16.257 -0.3456  0.5784  0.3770
 6329SOL    HW130620   3.833   4.653  16.269  0.2576  1.6911 -1.4057
 6329SOL    HW230621   3.710   4.691  16.347  0.8002 -3.0902  1.1314
 6330SOL     OW30622   3.795   3.471   5.535  0.3913 -0.0982 -0.5442
 6330SOL    HW130623   3.873   3.526   5.524  1.1191 -1.3761 -1.7941
 6330SOL    HW230624   3.742   3.495   5.459  2.1490  1.7612 -1.1969
 6331SOL     OW30625   2.263   2.938   0.503  0.4365 -0.4958  0.1582
 6331SOL    HW130626   2.185   2.910   0.455 -0.1330 -2.5173  2.2696
 6331SOL    HW230627   2.307   2.860   0.537  0.1410 -0.6662  0.1491
 6332SOL     OW30628   3.738   3.561   6.885  0.1014  0.2886  0.3388
 6332SOL    HW130629   3.733   3.629   6.818  2.1956 -0.3625 -0.4796
 6332SOL    HW230630   3.829   3.582   6.907  0.4544  0.4067 -1.2274
 6333SOL     OW30631   1.754   3.550   6.926 -0.2589 -0.0255 -0.0753
 6333SOL    HW130632   1.816   3.539   6.998 -0.0527  1.9907  0.0685
 6333SOL    HW230633   1.775   3.640   6.898  1.7970 -0.2264  0.8289
 6334SOL     OW30634   0.785   1.857   8.736 -0.0452  0.3035 -0.1775
 6334SOL    HW130635   0.760   1.894   8.652  0.0789 -1.6909 -1.0998
 6334SOL    HW230636   0.812   1.936   8.783  0.9159 -1.0384  1.5358
 6335SOL     OW30637   3.321   3.037   5.985  0.5340 -0.7787 -0.2423
 6335SOL    HW130638   3.383   3.058   6.055 -0.6808 -0.4027  0.7086
 6335SOL    HW230639   3.242   3.043   6.037 -0.2101 -2.8522 -1.1359
 6336SOL     OW30640   1.014   3.665   6.527  0.1352 -0.1355 -0.2549
 6336SOL    HW130641   1.014   3.706   6.440 -0.2529  0.2260 -0.0854
 6336SOL    HW230642   0.924   3.638   6.543 -0.9604  3.4297 -0.4799
 6337SOL     OW30643   3.900   3.843   7.888  0.8945  0.4094 -0.2172
 6337SOL    HW130644   3.957   3.822   7.814  0.9938 -0.3540  0.0666
 6337SOL    HW230645   3.947   3.815   7.967  0.8879  0.4599 -0.1952
 6338SOL     OW30646   1.283   0.790   4.454  0.5279  0.0355  0.2549
 6338SOL    HW130647   1.193   0.802   4.486  0.3475 -0.0125 -0.2360
 6338SOL    HW230648   1.275   0.765   4.362  1.0554 -0.1799  0.2701
 6339SOL     OW30649   2.642   4.028   6.003  0.0894 -0.4199  0.0925
 6339SOL    HW130650   2.563   3.978   5.981 -1.4324  2.3279 -0.5645
 6339SOL    HW230651   2.630   4.023   6.098  0.5726  0.0028  0.1738
 6340SOL     OW30652   4.607   0.285   2.209 -0.1069  0.0216 -0.7044
 6340SOL    HW130653   4.527   0.256   2.164  0.7672 -0.9823 -1.6120
 6340SOL    HW230654   4.637   0.205   2.252 -1.1721  0.8073  1.5012
 6341SOL     OW30655   1.114   4.092  14.589 -0.1410 -0.0722 -0.2228
 6341SOL    HW130656   1.069   4.047  14.517  1.5009 -1.6261 -0.2848
 6341SOL    HW230657   1.158   4.147  14.524  0.1088 -0.4120 -0.3389
 6342SOL     OW30658   1.403   0.030   5.797  0.6932 -0.0670  0.5159
 6342SOL    HW130659   1.430   4.708   5.867  0.5171 -1.2250 -0.4190
 6342SOL    HW230660   1.414   4.705   5.726  3.5654  0.6681  0.3081
 6343SOL     OW30661   4.697   0.814   4.028  0.0590  0.3733  0.0998
 6343SOL    HW130662   0.039   0.860   4.053  0.0559 -0.3963  1.4972
 6343SOL    HW230663   4.649   0.875   3.972  0.0518  1.4750  1.3145
 6344SOL     OW30664   4.643   1.861   9.087  0.3824  0.7865  0.4935
 6344SOL    HW130665   4.667   1.784   9.139 -0.7854 -0.4885 -0.8616
 6344SOL    HW230666   4.555   1.872   9.122 -0.0104  0.9782 -0.5617
 6345SOL     OW30667   0.060   1.611   4.929 -0.5283  0.1612  0.5002
 6345SOL    HW130668   0.057   1.554   4.852  1.6201  1.7396 -0.7720
 6345SOL    HW230669   0.151   1.640   4.917 -0.7058  0.5484  0.0703
 6346SOL     OW30670   3.738   4.522   3.547  0.4613 -0.0521 -0.4164
 6346SOL    HW130671   3.661   4.479   3.585  0.8941  0.0761  0.6162
 6346SOL    HW230672   3.810   4.483   3.597  1.5540  0.9908 -1.1884
 6347SOL     OW30673   2.378   3.782   6.719  0.5503  0.0820  0.1704
 6347SOL    HW130674   2.427   3.724   6.778  0.5177  0.1289  0.2432
 6347SOL    HW230675   2.431   3.790   6.640 -0.2932 -2.8466 -0.6692
 6348SOL     OW30676   2.588   1.260   5.734 -0.1466 -0.1723  0.1869
 6348SOL    HW130677   2.625   1.297   5.653  2.7824 -1.4786  0.9087
 6348SOL    HW230678   2.539   1.189   5.691 -1.1882  0.6057  0.1022
 6349SOL     OW30679   3.594   2.788   5.025 -0.5498  0.1170  0.1062
 6349SOL    HW130680   3.589   2.693   5.025 -0.6545  0.1286 -0.7439
 6349SOL    HW230681   3.572   2.806   4.934 -1.1911 -1.1762  0.0086
 6350SOL     OW30682   1.524   1.996   5.212  0.1313 -0.2424  0.3103
 6350SOL    HW130683   1.493   1.933   5.148  1.4724  0.0647 -0.6474
 6350SOL    HW230684   1.539   1.955   5.297 -1.5837  0.2734  0.8621
 6351SOL     OW30685   2.528   4.501   6.503 -0.1117 -0.2069 -0.2962
 6351SOL    HW130686   2.534   4.583   6.454  0.2102  1.2949  2.2607
 6351SOL    HW230687   2.470   4.536   6.570  0.3694  2.5406 -1.3149
 6352SOL     OW30688   3.685   3.145  15.865  0.2124  0.2557 -0.5494
 6352SOL    HW130689   3.731   3.225  15.891  2.2952 -1.3243  0.5853
 6352SOL    HW230690   3.627   3.124  15.939  2.1533  0.8520  1.1640
 6353SOL     OW30691   0.859   1.242   8.095  0.2190 -0.1096  0.2010
 6353SOL    HW130692   0.828   1.297   8.168 -1.8999 -3.2938  1.7074
 6353SOL    HW230693   0.781   1.215   8.047  0.6828  1.0727 -1.1978
 6354SOL     OW30694   3.974   2.782   7.944 -0.2782  0.7871  0.3654
 6354SOL    HW130695   4.003   2.704   7.991 -2.5488  0.4201  1.1622
 6354SOL    HW230696   4.057   2.803   7.901 -0.4648  3.1879  1.1762
 6355SOL     OW30697   3.626   3.398   7.726  0.1019 -0.5459  0.1045
 6355SOL    HW130698   3.656   3.488   7.732  1.8805 -1.2439  1.7557
 6355SOL    HW230699   3.676   3.364   7.651  1.3856 -1.4845  1.3642
 6356SOL     OW30700   1.596   3.045  14.101 -0.3734  0.0399 -0.4530
 6356SOL    HW130701   1.526   3.051  14.036  0.0974  3.1993 -0.6954
 6356SOL    HW230702   1.672   3.030  14.043  0.2320  0.5035  0.2235
 6357SOL     OW30703   0.372   2.902   0.330 -0.0828 -0.0138  0.0440
 6357SOL    HW130704   0.380   2.997   0.340  1.2521 -0.3172  1.7189
 6357SOL    HW230705   0.309   2.895   0.258 -1.7350  2.5421  1.2494
 6358SOL     OW30706   0.781   2.265   0.388  0.2526  0.1520  0.1843
 6358SOL    HW130707   0.719   2.194   0.404  2.3820 -1.0566  2.9802
 6358SOL    HW230708   0.728   2.327   0.337 -0.6200 -0.5916  0.1997
 6359SOL     OW30709   0.007   0.561   9.385  0.0689  0.5027 -0.2723
 6359SOL    HW130710   4.680   0.615   9.339 -2.9150 -0.8975  2.2271
 6359SOL    HW230711   0.089   0.596   9.351 -0.2376  0.3617 -1.1556
 6360SOL     OW30712   3.325   1.279   2.490 -0.4001  0.2068 -0.3630
 6360SOL    HW130713   3.279   1.196   2.487 -0.3567  0.1355  1.2828
 6360SOL    HW230714   3.343   1.283   2.396 -1.2910  1.3138 -0.4865
 6361SOL     OW30715   2.902   2.899   2.289  1.0613 -0.3040  0.2119
 6361SOL    HW130716   2.957   2.892   2.211  2.0810  0.6270  0.8438
 6361SOL    HW230717   2.831   2.835   2.282  1.8036 -1.3338  2.3402
 6362SOL     OW30718   3.883   2.577   2.477  0.1019  0.9307 -0.2664
 6362SOL    HW130719   3.908   2.566   2.385  2.3198 -0.4506  0.4846
 6362SOL    HW230720   3.905   2.670   2.475 -2.0348  1.4188 -0.9139
 6363SOL     OW30721   0.918   2.181   4.767  0.5663  0.1518 -0.2580
 6363SOL    HW130722   0.881   2.125   4.699 -1.6020  0.3837  0.7391
 6363SOL    HW230723   0.993   2.132   4.801  0.0041  1.0425  2.3267
 6364SOL     OW30724   0.639   4.581   9.412  0.2357  0.7496  0.1567
 6364SOL    HW130725   0.602   4.525   9.480 -0.5781 -1.7956 -2.3817
 6364SOL    HW230726   0.663   4.662   9.458 -0.2853  0.6937  0.5235
 6365SOL     OW30727   2.158   3.695  14.217  0.0822 -0.1114  0.5424
 6365SOL    HW130728   2.240   3.734  14.188  0.1887 -0.5678  0.2332
 6365SOL    HW230729   2.167   3.604  14.190  2.8309  0.8192 -1.6345
 6366SOL     OW30730   1.980   0.560   7.191  0.0594  0.5107  0.1432
 6366SOL    HW130731   1.934   0.488   7.148  1.6438 -0.5967  0.2770
 6366SOL    HW230732   1.905   0.617   7.210  0.4259  0.6401  1.2414
 6367SOL     OW30733   2.666   3.474   3.223  0.2284 -0.3247  0.2638
 6367SOL    HW130734   2.666   3.461   3.128 -0.2486  0.0730  0.2105
 6367SOL    HW230735   2.573   3.454   3.231  0.5334 -1.6917  0.3412
 6368SOL     OW30736   0.868   2.692   6.830 -0.0257  0.8780 -0.3770
 6368SOL    HW130737   0.963   2.690   6.841  0.1095  1.7950 -1.3064
 6368SOL    HW230738   0.857   2.684   6.735  0.1331 -1.2028 -0.2188
 6369SOL     OW30739   0.920   1.999   6.414 -0.1750 -0.4605  0.4206
 6369SOL    HW130740   0.861   1.978   6.486 -0.5660  1.7135  0.7250
 6369SOL    HW230741   0.923   2.095   6.420  0.4268 -0.5010  0.7326
 6370SOL     OW30742   3.516   0.229   0.692 -0.6122 -0.0072 -0.1235
 6370SOL    HW130743   3.568   0.299   0.732 -1.2240  0.9990 -1.0905
 6370SOL    HW230744   3.475   0.285   0.626  0.3329 -1.2943 -1.7872
 6371SOL     OW30745   2.199   3.010   1.364  0.6695  0.1317 -0.0206
 6371SOL    HW130746   2.178   3.010   1.457 -2.3812  0.3930 -0.7252
 6371SOL    HW230747   2.123   3.050   1.322  2.5782  1.0943 -2.5963
 6372SOL     OW30748   1.679   4.440  12.877  0.1010 -0.3021 -0.6208
 6372SOL    HW130749   1.722   4.525  12.885 -0.8201 -0.0176  1.2417
 6372SOL    HW230750   1.718   4.401  12.956  0.4848  1.1614 -0.0942
 6373SOL     OW30751   1.978   1.534  16.294 -0.1012  0.2283 -0.3564
 6373SOL    HW130752   1.894   1.560  16.331  0.5016  0.5401  0.8054
 6373SOL    HW230753   2.036   1.609  16.309  1.2118 -0.6361 -1.0359
 6374SOL     OW30754   2.360   4.418   4.475 -0.3989  0.8001  0.5230
 6374SOL    HW130755   2.280   4.427   4.424 -1.4694  0.0581  2.0933
 6374SOL    HW230756   2.333   4.396   4.564 -2.3791  1.4784  0.0782
 6375SOL     OW30757   2.424   2.734   7.272  0.6826  0.3516 -0.0963
 6375SOL    HW130758   2.348   2.791   7.286 -0.8448 -1.6640 -0.2039
 6375SOL    HW230759   2.390   2.654   7.312  1.4319 -0.1689 -0.5056
 6376SOL     OW30760   0.640   0.302   8.317  0.2847 -0.3598 -0.3678
 6376SOL    HW130761   0.641   0.252   8.235  2.3493 -0.1267 -0.4977
 6376SOL    HW230762   0.719   0.272   8.363  0.4126  0.0008 -0.3584
 6377SOL     OW30763   2.688   1.664  14.343 -0.3760 -0.3609  0.0135
 6377SOL    HW130764   2.594   1.679  14.332 -0.1889  1.5860  1.0874
 6377SOL    HW230765   2.693   1.569  14.340  2.9095 -0.1778 -0.2623
 6378SOL     OW30766   0.910   1.985  13.988 -0.4394 -0.1071  0.2808
 6378SOL    HW130767   0.883   2.021  14.072  0.3904  0.4513  0.3084
 6378SOL    HW230768   0.840   2.012  13.929 -0.3617  0.6041  0.5184
 6379SOL     OW30769   0.801   1.500   2.572 -0.4149 -0.0458 -0.5819
 6379SOL    HW130770   0.755   1.423   2.604  1.0085  0.4302  2.6043
 6379SOL    HW230771   0.889   1.462   2.573 -1.0259 -1.5249 -2.9783
 6380SOL     OW30772   1.087   2.814  12.314  0.1725 -0.2914 -0.1332
 6380SOL    HW130773   1.001   2.772  12.322 -0.4549  1.0509  0.1483
 6380SOL    HW230774   1.131   2.780  12.392  2.1478 -1.6365 -1.8316
 6381SOL     OW30775   1.702   0.882   4.156  0.3697  0.4026  0.7267
 6381SOL    HW130776   1.758   0.916   4.226 -0.2165 -2.1697  2.4478
 6381SOL    HW230777   1.641   0.833   4.212 -1.0342  0.2083 -0.9611
 6382SOL     OW30778   3.431   0.242  10.465  0.3781  0.4502  0.0763
 6382SOL    HW130779   3.463   0.240  10.374 -3.2943 -1.5631 -1.1702
 6382SOL    HW230780   3.418   0.337  10.468  2.9003  0.7956  0.2697
 6383SOL     OW30781   1.102   3.306   7.560  0.2954  0.9329  0.1207
 6383SOL    HW130782   1.188   3.266   7.550  0.2733  1.2320 -1.2801
 6383SOL    HW230783   1.126   3.399   7.556  0.4841  0.8842  0.1236
 6384SOL     OW30784   1.190   0.988   3.996  0.2972  0.5577  0.4950
 6384SOL    HW130785   1.273   0.987   4.045 -0.9207 -0.3783  2.5392
 6384SOL    HW230786   1.181   1.078   3.963 -1.5112  0.2204  0.1055
 6385SOL     OW30787   3.986   1.364  14.081  0.9683 -0.3979  0.0864
 6385SOL    HW130788   3.995   1.281  14.128  1.5935  1.2377  2.8380
 6385SOL    HW230789   3.892   1.357  14.067  0.7072  1.6300  0.9564
 6386SOL     OW30790   0.078   2.074   9.506 -0.1833 -0.4029  0.0604
 6386SOL    HW130791   0.117   1.990   9.480 -0.1692 -0.0537 -1.0179
 6386SOL    HW230792   0.046   2.036   9.588 -2.5236 -1.0172 -1.1524
 6387SOL     OW30793   3.178   1.279  13.067  0.2646  0.0167  0.0946
 6387SOL    HW130794   3.218   1.286  12.980 -0.6804  1.4787 -0.2151
 6387SOL    HW230795   3.216   1.359  13.103 -0.3172 -0.4947  1.8342
 6388SOL     OW30796   2.570   1.588  16.735 -0.1295 -0.4596  0.2732
 6388SOL    HW130797   2.513   1.540  16.676 -0.6724 -0.1395  0.5359
 6388SOL    HW230798   2.621   1.654  16.688 -0.6609  1.5639  2.5118
 6389SOL     OW30799   4.125   3.829   3.164 -0.1624 -0.3770  0.5848
 6389SOL    HW130800   4.161   3.750   3.123  0.5359  0.6239 -0.7283
 6389SOL    HW230801   4.033   3.805   3.173 -0.0295 -0.9855  0.3284
 6390SOL     OW30802   3.951   3.965   5.658  0.0920  0.0641 -0.1651
 6390SOL    HW130803   4.045   3.985   5.664 -0.4557  1.7666  2.4046
 6390SOL    HW230804   3.938   3.989   5.566  0.0664 -2.0414 -0.7233
 6391SOL     OW30805   3.312   0.769   7.297  0.3752 -0.2106 -0.4524
 6391SOL    HW130806   3.282   0.857   7.321 -0.6051 -0.7772  0.3618
 6391SOL    HW230807   3.373   0.786   7.225 -0.9370  2.9324 -0.8214
 6392SOL     OW30808   1.147   1.819   5.646  0.2900 -0.8948  0.0367
 6392SOL    HW130809   1.130   1.841   5.737  0.3974 -1.1498  0.1206
 6392SOL    HW230810   1.242   1.825   5.635  0.2264  0.3487  0.2073
 6393SOL     OW30811   0.965   1.099   7.533  0.0368 -0.4821 -0.2095
 6393SOL    HW130812   1.018   1.157   7.587 -0.4949 -0.6279  0.4694
 6393SOL    HW230813   1.030   1.033   7.509  2.0956  1.0919  1.0843
 6394SOL     OW30814   3.131   3.892   5.180  1.0088 -0.0979  0.2337
 6394SOL    HW130815   3.068   3.824   5.201 -0.6075  2.4239  3.4446
 6394SOL    HW230816   3.079   3.972   5.187  0.3663 -0.5109  0.1283
 6395SOL     OW30817   3.828   4.005   9.391 -0.3804  0.4210 -0.1563
 6395SOL    HW130818   3.863   4.094   9.393  1.6490 -0.3318 -2.0704
 6395SOL    HW230819   3.836   3.990   9.297 -0.6940  1.4912 -0.3663
 6396SOL     OW30820   4.302   3.487   6.466  0.5334  0.1984 -0.0366
 6396SOL    HW130821   4.240   3.415   6.481  0.4823  0.5320  1.3262
 6396SOL    HW230822   4.292   3.502   6.372  1.8525 -1.4609 -0.4420
 6397SOL     OW30823   0.205   4.278   2.924  0.4141 -0.0177 -0.1535
 6397SOL    HW130824   0.119   4.318   2.911  0.2827 -1.1351 -2.7492
 6397SOL    HW230825   0.172   4.218   2.990 -0.3068 -0.2312 -0.7027
 6398SOL     OW30826   0.056   1.705  14.366 -0.2244 -0.0341  0.2746
 6398SOL    HW130827   0.020   1.741  14.285 -0.7557  0.2002  0.6121
 6398SOL    HW230828   0.136   1.664  14.333 -0.7739  1.5320 -3.0090
 6399SOL     OW30829   1.028   1.439   9.615 -0.5377 -0.5779 -0.3950
 6399SOL    HW130830   0.946   1.451   9.664  0.4368  3.6158  0.2386
 6399SOL    HW230831   1.069   1.377   9.675  1.2866 -0.7344 -1.8005
 6400SOL     OW30832   3.698   4.702   2.446 -0.5519  0.0241  0.3687
 6400SOL    HW130833   3.694   4.627   2.504  0.5618  0.3262  0.8201
 6400SOL    HW230834   3.737   0.024   2.510 -3.5067  3.1996 -0.7589
 6401SOL     OW30835   3.452   1.842   3.576  0.2009 -0.4839 -0.1434
 6401SOL    HW130836   3.441   1.859   3.483  0.7418  2.0421  0.2422
 6401SOL    HW230837   3.446   1.931   3.612  0.6898 -0.6895  0.4407
 6402SOL     OW30838   2.594   0.229  15.245  0.0045  0.5451  0.4562
 6402SOL    HW130839   2.542   0.195  15.171  1.1757 -0.1280 -0.0491
 6402SOL    HW230840   2.571   0.322  15.247  0.1363  0.5383  1.9833
 6403SOL     OW30841   2.352   3.348  15.135  0.3463 -0.7455  0.0507
 6403SOL    HW130842   2.304   3.430  15.137  1.7578  0.1159 -2.0387
 6403SOL    HW230843   2.428   3.348  15.193  0.2595  0.3217  0.1663
 6404SOL     OW30844   3.230   1.325   3.277 -0.2328 -0.4899  0.4912
 6404SOL    HW130845   3.300   1.332   3.212 -0.7666  0.6883  0.0459
 6404SOL    HW230846   3.234   1.230   3.282 -0.0497 -0.6483 -2.4172
 6405SOL     OW30847   1.033   2.590   3.705  0.3535 -0.8556  0.0479
 6405SOL    HW130848   1.086   2.524   3.659 -0.3692 -0.7432 -0.9625
 6405SOL    HW230849   0.945   2.562   3.678 -0.6880  1.4588  1.0280
 6406SOL     OW30850   0.992   2.425   5.080 -0.3364  0.1418 -0.7531
 6406SOL    HW130851   0.942   2.490   5.031 -2.4392 -2.1302 -1.5882
 6406SOL    HW230852   0.986   2.451   5.172  0.3770 -0.5202 -0.5215
 6407SOL     OW30853   3.019   3.504   6.060 -0.2463 -0.1069  0.2303
 6407SOL    HW130854   3.056   3.592   6.049 -3.3363  1.1389 -0.0182
 6407SOL    HW230855   3.101   3.455   6.047  0.5637  1.5100 -0.9473
 6408SOL     OW30856   1.405   4.284  11.288  0.3760 -0.0048  0.1049
 6408SOL    HW130857   1.331   4.317  11.237 -0.9015 -0.0676  1.9315
 6408SOL    HW230858   1.425   4.364  11.336  0.2746 -0.9293  1.6660
 6409SOL     OW30859   4.033   2.674   6.064  0.2606  0.2944  0.1367
 6409SOL    HW130860   3.987   2.723   6.133 -0.2000  0.2749 -0.1554
 6409SOL    HW230861   3.992   2.588   6.070 -1.1234  0.9889  0.7277
 6410SOL     OW30862   3.415   2.952   3.356 -0.7158  0.0098  0.0656
 6410SOL    HW130863   3.467   2.884   3.313 -0.7859 -0.6359  1.0065
 6410SOL    HW230864   3.464   2.963   3.437 -2.1631  0.8502  0.8252
 6411SOL     OW30865   2.042   2.653   7.164 -0.1231  0.3233  0.2534
 6411SOL    HW130866   2.078   2.609   7.241  2.7257 -0.5161 -1.5470
 6411SOL    HW230867   1.956   2.674   7.200  0.0446 -0.9193  1.3596
 6412SOL     OW30868   3.579   3.348   7.345  0.3705  0.1117  0.0103
 6412SOL    HW130869   3.503   3.389   7.385  0.3773  1.5711 -1.4607
 6412SOL    HW230870   3.562   3.254   7.352 -1.6924  0.5984  1.3388
 6413SOL     OW30871   0.141   3.048   4.748  0.7170 -0.0727  0.0033
 6413SOL    HW130872   0.205   3.117   4.761 -0.3740  1.1090 -0.9052
 6413SOL    HW230873   0.070   3.093   4.794 -0.3193 -2.2261  0.5464
 6414SOL     OW30874   3.747   0.274   4.675  0.3052  0.5044 -0.3539
 6414SOL    HW130875   3.780   0.200   4.726 -1.6402 -0.1192 -0.0252
 6414SOL    HW230876   3.653   0.264   4.686  0.4472  1.0777  1.3635
 6415SOL     OW30877   1.368   1.385   3.029 -0.2277  0.4998  0.3646
 6415SOL    HW130878   1.411   1.441   2.965  2.1978  0.2069  1.7276
 6415SOL    HW230879   1.419   1.399   3.109  2.4773  2.9481 -1.8037
 6416SOL     OW30880   2.378   0.080  12.986 -0.2171 -0.2739  0.5079
 6416SOL    HW130881   2.297   0.114  12.948  0.5556  0.9303 -0.0759
 6416SOL    HW230882   2.371   0.095  13.080  0.1047  3.3839 -0.0244
 6417SOL     OW30883   0.109   0.928   9.320 -0.2169 -0.5698  0.4114
 6417SOL    HW130884   0.139   0.886   9.240  1.4925  1.2815  0.0850
 6417SOL    HW230885   0.185   0.899   9.372 -0.1007  0.0357  0.5805
 6418SOL     OW30886   0.745   3.260   3.139  0.0828 -0.1279 -0.1359
 6418SOL    HW130887   0.817   3.311   3.102 -2.0034  1.6908 -1.7218
 6418SOL    HW230888   0.763   3.266   3.233  1.1282  1.4859 -0.4534
 6419SOL     OW30889   2.942   4.443   1.785  0.3684  0.1594 -0.4299
 6419SOL    HW130890   3.036   4.437   1.801  0.3775 -1.2413 -0.9881
 6419SOL    HW230891   2.941   4.507   1.714  0.0483  1.6505  0.9284
 6420SOL     OW30892   0.735   4.410   4.171  0.1012  0.7124 -0.8098
 6420SOL    HW130893   0.781   4.469   4.231 -1.2024  0.1949  0.6842
 6420SOL    HW230894   0.688   4.484   4.133 -0.1444  1.3729  0.7616
 6421SOL     OW30895   2.237   1.693   2.522  0.7368 -0.0984 -0.4341
 6421SOL    HW130896   2.299   1.695   2.449  1.1452  0.6866 -0.0695
 6421SOL    HW230897   2.189   1.613   2.502  2.7335 -1.9761  2.2761
 6422SOL     OW30898   1.170   2.818   7.788 -0.1861 -0.5012  0.9122
 6422SOL    HW130899   1.228   2.832   7.713  0.5248  0.5528  1.6541
 6422SOL    HW230900   1.094   2.867   7.759  0.6183  0.8041  1.0166
 6423SOL     OW30901   3.526   0.951   0.501 -0.6503  0.4035  0.3091
 6423SOL    HW130902   3.449   0.989   0.458  0.2061 -0.6259 -2.1412
 6423SOL    HW230903   3.565   0.896   0.433 -1.3746 -1.4009  1.3476
 6424SOL     OW30904   3.952   0.289   5.203  0.1951 -0.0104 -0.1666
 6424SOL    HW130905   3.941   0.381   5.181 -1.2632  0.1091  1.0620
 6424SOL    HW230906   3.887   0.244   5.149 -0.4532  0.1790  0.4583
 6425SOL     OW30907   3.556   4.164   9.263  0.3074 -0.0218  0.4594
 6425SOL    HW130908   3.499   4.218   9.317  1.2937  1.6100 -0.1077
 6425SOL    HW230909   3.620   4.139   9.329  2.9544 -1.1650 -2.5251
 6426SOL     OW30910   0.249   4.383   3.815 -0.2575 -0.2794  0.2651
 6426SOL    HW130911   0.209   4.325   3.750 -0.0231 -0.9222  0.6961
 6426SOL    HW230912   0.306   4.324   3.863  0.2292 -0.7870 -0.9522
 6427SOL     OW30913   2.324   2.188   8.026  0.6615 -0.1486  0.0622
 6427SOL    HW130914   2.376   2.152   8.098 -0.4115 -1.2767  0.2582
 6427SOL    HW230915   2.288   2.265   8.068  0.5027 -0.4490  0.4694
 6428SOL     OW30916   3.398   3.234   4.593  0.2777  0.8472  0.5125
 6428SOL    HW130917   3.475   3.251   4.647  1.3824  0.5317 -0.9497
 6428SOL    HW230918   3.426   3.153   4.550  0.8439  0.9492  0.6950
 6429SOL     OW30919   3.217   2.793  12.321  0.3803 -0.3745  0.1022
 6429SOL    HW130920   3.191   2.701  12.313  1.6021 -0.8435  1.4633
 6429SOL    HW230921   3.284   2.788  12.390  0.5064  0.9848  0.0905
 6430SOL     OW30922   3.886   1.470   8.652  0.1815  0.5639 -0.2904
 6430SOL    HW130923   3.937   1.484   8.731 -0.6304 -3.1269  0.9055
 6430SOL    HW230924   3.953   1.476   8.584 -0.1471 -0.8291 -0.7365
 6431SOL     OW30925   1.265   0.526  13.726 -0.7006  0.0735 -0.0002
 6431SOL    HW130926   1.329   0.463  13.759 -2.2169 -0.6071  1.6274
 6431SOL    HW230927   1.219   0.483  13.654 -0.2051  0.8270 -0.7817
 6432SOL     OW30928   4.519   1.512   2.105  0.0972  0.1531  0.5728
 6432SOL    HW130929   4.576   1.532   2.179 -1.3021 -0.5670  1.8307
 6432SOL    HW230930   4.484   1.433   2.143 -1.4308 -0.1260 -1.4112
 6433SOL     OW30931   4.626   2.441   2.540 -0.1159  0.2980 -0.0257
 6433SOL    HW130932   4.704   2.449   2.594  0.4575 -1.5401 -0.5941
 6433SOL    HW230933   4.627   2.348   2.517 -0.0877  0.6646 -1.4634
 6434SOL     OW30934   2.994   3.121  13.538 -0.5749  0.1429 -0.7678
 6434SOL    HW130935   3.083   3.146  13.565 -0.3210 -0.8127 -0.7006
 6434SOL    HW230936   2.970   3.193  13.480  0.0334  0.5230 -0.5483
 6435SOL     OW30937   3.250   1.451   4.327 -0.3231 -0.5178 -0.5396
 6435SOL    HW130938   3.242   1.401   4.246  0.6520 -1.6581  0.0653
 6435SOL    HW230939   3.303   1.527   4.304 -0.3042 -0.1864  0.5820
 6436SOL     OW30940   0.744   4.286  15.933  0.1820  0.2586  0.0679
 6436SOL    HW130941   0.655   4.317  15.947 -0.1263 -0.0164 -1.2536
 6436SOL    HW230942   0.761   4.301  15.839 -2.1085  2.6604  0.0335
 6437SOL     OW30943   0.378   1.877  14.318  0.6323  0.0040  0.5443
 6437SOL    HW130944   0.446   1.809  14.319  0.5198 -0.0979  2.0563
 6437SOL    HW230945   0.299   1.826  14.333  0.3552  0.7910  1.8086
 6438SOL     OW30946   3.992   2.778   2.110  0.4899 -0.0317 -0.7107
 6438SOL    HW130947   4.077   2.819   2.121  0.9259 -1.4356  1.1708
 6438SOL    HW230948   4.012   2.686   2.128  0.8273  0.0558 -0.6428
 6439SOL     OW30949   0.313   1.002   8.374  0.0788  0.4641 -0.6234
 6439SOL    HW130950   0.313   0.911   8.405 -2.2438  1.1682  1.4400
 6439SOL    HW230951   0.223   1.028   8.395  0.7247  1.4744  0.8469
 6440SOL     OW30952   2.918   2.571   5.118 -0.0144 -0.6524 -0.3747
 6440SOL    HW130953   3.008   2.598   5.138 -0.2513 -0.6694  0.7567
 6440SOL    HW230954   2.882   2.544   5.203 -1.2575 -2.0477 -1.3340
 6441SOL     OW30955   2.627   4.378   4.971  0.3672  0.4282 -0.1729
 6441SOL    HW130956   2.556   4.366   5.034 -0.8209  2.1044 -1.1848
 6441SOL    HW230957   2.700   4.415   5.021 -0.6719  1.0568  0.8641
 6442SOL     OW30958   3.258   3.108  12.677 -0.0791 -0.3368 -0.7417
 6442SOL    HW130959   3.219   3.193  12.658 -0.4314 -0.5746 -1.0720
 6442SOL    HW230960   3.223   3.099  12.766  1.7619 -1.1343 -0.0851
 6443SOL     OW30961   2.043   4.432   7.594 -0.1620  0.1387  0.1133
 6443SOL    HW130962   2.008   4.370   7.530 -3.6121  1.4234  0.7398
 6443SOL    HW230963   1.961   4.480   7.606 -0.3728 -0.1951  0.0129
 6444SOL     OW30964   2.272   2.554   2.729 -0.0858 -0.4553 -0.6483
 6444SOL    HW130965   2.359   2.544   2.768 -0.1536  0.4297 -0.2698
 6444SOL    HW230966   2.277   2.490   2.658 -0.5508 -1.4755  0.2487
 6445SOL     OW30967   3.384   0.412   0.544  0.4894  0.1800 -0.1239
 6445SOL    HW130968   3.326   0.452   0.479  1.9007  1.0818 -0.8148
 6445SOL    HW230969   3.377   0.479   0.612 -2.2483  1.6738 -1.8884
 6446SOL     OW30970   4.534   2.298   0.854 -0.0087 -0.3329  0.4172
 6446SOL    HW130971   4.573   2.223   0.808  3.1160  1.8241 -0.4877
 6446SOL    HW230972   4.447   2.304   0.814  0.9067 -0.6493 -1.6231
 6447SOL     OW30973   4.223   1.754   7.320 -0.1120 -0.1930  0.9075
 6447SOL    HW130974   4.129   1.741   7.324 -0.0128 -1.3372 -0.5900
 6447SOL    HW230975   4.238   1.684   7.256 -0.5433 -0.9365  1.6199
 6448SOL     OW30976   4.342   1.398   4.079  0.2133 -0.5068  0.2564
 6448SOL    HW130977   4.366   1.419   4.169 -0.6186 -1.5243  0.7121
 6448SOL    HW230978   4.291   1.477   4.059  1.2489  0.2896  0.8072
 6449SOL     OW30979   2.437   3.143   5.399  0.2449 -0.3723 -0.4663
 6449SOL    HW130980   2.447   3.119   5.491  0.6076  1.8130  0.0732
 6449SOL    HW230981   2.489   3.074   5.358  2.0994  0.6928  0.0589
 6450SOL     OW30982   1.332   0.352   6.005 -0.1553  0.1543  0.0026
 6450SOL    HW130983   1.397   0.422   5.998  1.3724 -1.3564 -0.9788
 6450SOL    HW230984   1.276   0.395   6.069 -0.6943  0.3705 -0.6114
 6451SOL     OW30985   3.380   4.492   2.426 -0.2883 -0.5658 -0.5465
 6451SOL    HW130986   3.461   4.542   2.435 -1.1433  1.0338 -1.7054
 6451SOL    HW230987   3.393   4.467   2.334 -0.4110  1.5592 -1.1469
 6452SOL     OW30988   2.127   3.081  14.759 -0.0615 -0.4717 -0.3789
 6452SOL    HW130989   2.146   3.160  14.809  0.6184 -0.4557 -0.6675
 6452SOL    HW230990   2.068   3.038  14.822 -0.5588  1.5077  0.4952
 6453SOL     OW30991   1.467   2.140   6.352  0.3368  0.0191 -0.2361
 6453SOL    HW130992   1.446   2.051   6.324 -1.7278  0.6276 -0.5679
 6453SOL    HW230993   1.404   2.187   6.299  0.6204 -0.4139 -0.9616
 6454SOL     OW30994   2.254   3.470   2.726 -0.4379 -0.0209 -0.0813
 6454SOL    HW130995   2.295   3.547   2.687 -0.0235 -1.1318 -1.7971
 6454SOL    HW230996   2.222   3.417   2.653  2.3790  0.8589 -1.9392
 6455SOL     OW30997   4.520   2.494   8.054  0.1240 -0.2183 -0.6085
 6455SOL    HW130998   4.534   2.525   8.143  0.2721  1.9701 -1.3983
 6455SOL    HW230999   4.510   2.401   8.073 -0.2581 -0.1523 -0.4891
 6456SOL     OW31000   1.754   3.768   1.048  0.6376  0.2436  0.4654
 6456SOL    HW131001   1.670   3.747   1.008 -0.5834  2.3450  1.9393
 6456SOL    HW231002   1.739   3.805   1.135 -1.2702  1.1305 -0.2462
 6457SOL     OW31003   3.283   2.562   2.440  0.5205 -0.1276 -0.4536
 6457SOL    HW131004   3.215   2.573   2.373  0.8846 -1.9625 -1.1132
 6457SOL    HW231005   3.357   2.530   2.389 -0.5074 -0.8693 -1.4669
 6458SOL     OW31006   2.755   3.719  11.955 -0.1057 -0.0050  0.6596
 6458SOL    HW131007   2.756   3.805  11.914  0.9113  0.7298  2.2277
 6458SOL    HW231008   2.733   3.749  12.043 -0.6202 -0.1082  0.5678
 6459SOL     OW31009   2.539   0.544   8.796 -0.7315  0.4095  0.1216
 6459SOL    HW131010   2.472   0.476   8.800  0.3106 -0.4739  1.9528
 6459SOL    HW231011   2.489   0.616   8.757 -2.1913 -1.5987 -1.7032
 6460SOL     OW31012   3.396   3.339   5.395  0.9734  0.1309  0.2770
 6460SOL    HW131013   3.481   3.315   5.431  0.0350 -1.1645  1.6684
 6460SOL    HW231014   3.387   3.315   5.303  2.2836  0.2889  0.1136
 6461SOL     OW31015   0.628   1.395  13.897  0.1663 -0.1022 -0.5717
 6461SOL    HW131016   0.548   1.355  13.931  0.0161  1.8927  1.4363
 6461SOL    HW231017   0.602   1.396  13.805 -0.1301  0.6903 -0.4799
 6462SOL     OW31018   2.519   4.340   6.025  0.2113 -0.1836  0.3458
 6462SOL    HW131019   2.432   4.329   5.987 -0.2590 -2.4428  2.0860
 6462SOL    HW231020   2.551   4.250   6.028 -2.3402 -1.1334 -0.5995
 6463SOL     OW31021   0.733   1.464   3.544 -0.2473  0.1125 -0.1889
 6463SOL    HW131022   0.815   1.418   3.527 -0.2483 -0.5079  1.4460
 6463SOL    HW231023   0.718   1.507   3.460  1.6908  1.8899  0.3500
 6464SOL     OW31024   2.179   3.226   9.412  0.2141  0.5872 -0.1893
 6464SOL    HW131025   2.100   3.252   9.459 -1.3091 -1.6026 -1.5181
 6464SOL    HW231026   2.166   3.269   9.328 -0.6874 -1.2124 -0.9784
 6465SOL     OW31027   1.678   3.847  11.008 -0.2628 -0.3366  0.2460
 6465SOL    HW131028   1.622   3.878  11.079  0.2667 -0.3974  0.6855
 6465SOL    HW231029   1.763   3.879  11.038  0.2184 -1.2145 -0.1801
 6466SOL     OW31030   0.230   1.897  13.963  0.3511  0.5979 -0.3989
 6466SOL    HW131031   0.145   1.869  13.998  1.2555  0.2513  1.5099
 6466SOL    HW231032   0.276   1.813  13.963 -0.1706  0.3095  1.5420
 6467SOL     OW31033   0.978   0.697   0.007 -0.0530  0.2935 -0.2530
 6467SOL    HW131034   1.063   0.706   0.050  0.6702  1.3668 -1.9228
 6467SOL    HW231035   1.010   0.649  17.679 -0.6659 -2.7459  1.3984
 6468SOL     OW31036   0.616   2.363   2.228 -1.2141  0.4442 -0.3485
 6468SOL    HW131037   0.617   2.280   2.179  0.1523  0.6601 -0.6984
 6468SOL    HW231038   0.523   2.384   2.219 -1.0968  0.0329 -2.5764
 6469SOL     OW31039   3.747   4.419   6.349  0.1694 -0.2257 -0.1389
 6469SOL    HW131040   3.733   4.402   6.442 -1.3973 -2.0584 -0.6986
 6469SOL    HW231041   3.766   4.331   6.318  1.3685 -0.7257  2.0571
 6470SOL     OW31042   3.147   2.640   8.354  0.5784 -0.3624  0.5816
 6470SOL    HW131043   3.143   2.653   8.449  0.4403 -2.3951  0.8558
 6470SOL    HW231044   3.221   2.580   8.347  2.4952  2.1389 -0.2511
 6471SOL     OW31045   3.491   3.608   5.187 -0.4822  0.1934  0.0557
 6471SOL    HW131046   3.566   3.627   5.131  1.0168 -0.5912  1.8241
 6471SOL    HW231047   3.511   3.519   5.216 -3.2111  0.2530  2.1957
 6472SOL     OW31048   1.155   3.658   7.088  0.6762  0.3242 -0.4005
 6472SOL    HW131049   1.144   3.636   6.995  2.4201 -0.6062 -0.3926
 6472SOL    HW231050   1.116   3.745   7.088  1.3947  0.6492 -1.4572
 6473SOL     OW31051   3.467   1.356   6.586  0.1365 -0.0264  0.2978
 6473SOL    HW131052   3.388   1.339   6.535 -0.4267  1.7664  0.5921
 6473SOL    HW231053   3.535   1.374   6.521 -0.5463  2.1574  0.2148
 6474SOL     OW31054   0.111   1.185   6.694 -0.3630 -0.7556 -0.1201
 6474SOL    HW131055   0.023   1.206   6.725  0.5244  3.2561 -0.3796
 6474SOL    HW231056   0.100   1.202   6.600 -1.8814 -1.3202 -0.0436
 6475SOL     OW31057   4.167   0.086   1.166  0.2593 -0.1479 -0.0846
 6475SOL    HW131058   4.189   0.161   1.221  0.9001 -0.8808  0.6594
 6475SOL    HW231059   4.145   0.130   1.084  2.2177  0.6771 -0.1730
 6476SOL     OW31060   2.288   0.996   7.994 -0.2066 -0.7075  0.5544
 6476SOL    HW131061   2.204   1.035   7.970  0.7887  0.2958 -1.3032
 6476SOL    HW231062   2.269   0.904   8.010 -0.2240 -0.9083 -0.6295
 6477SOL     OW31063   1.291   3.470  13.696 -0.1830 -0.2633 -0.3859
 6477SOL    HW131064   1.282   3.529  13.771  0.0594 -0.7927  0.0554
 6477SOL    HW231065   1.383   3.444  13.704 -0.7685 -2.4920 -0.8423
 6478SOL     OW31066   3.708   1.444  15.168 -0.2048  0.6324 -0.1109
 6478SOL    HW131067   3.802   1.459  15.178 -0.3074  0.6216  0.8626
 6478SOL    HW231068   3.705   1.450  15.072 -2.4004 -0.6987 -0.1197
 6479SOL     OW31069   1.227   0.473   1.513  0.3830  0.3833  0.0910
 6479SOL    HW131070   1.249   0.478   1.605  1.2057  0.1814 -0.0983
 6479SOL    HW231071   1.179   0.555   1.501  0.6782  0.4412 -0.7503
 6480SOL     OW31072   1.120   4.127  14.847 -0.2656  0.6542 -0.2041
 6480SOL    HW131073   1.189   4.191  14.864 -0.3710  0.4093  1.1509
 6480SOL    HW231074   1.126   4.115  14.752 -0.0317 -0.8069 -0.0048
 6481SOL     OW31075   4.230   1.834  11.146 -0.5227 -0.1062 -0.6986
 6481SOL    HW131076   4.270   1.831  11.233 -0.5073 -1.2968 -0.7465
 6481SOL    HW231077   4.160   1.897  11.162 -0.5717 -0.1600 -0.7015
 6482SOL     OW31078   3.470   0.997   4.283 -0.1672 -0.1589 -0.5209
 6482SOL    HW131079   3.487   1.024   4.192 -4.2812 -1.4995 -1.6690
 6482SOL    HW231080   3.460   1.081   4.328  1.9523 -0.3866  0.3979
 6483SOL     OW31081   3.082   1.435   5.999  0.2546 -0.6761 -0.4927
 6483SOL    HW131082   3.083   1.491   6.077  1.2881 -1.1142 -0.1923
 6483SOL    HW231083   3.118   1.497   5.935  1.6322 -0.6860  0.2565
 6484SOL     OW31084   3.124   0.404   6.448 -0.3788 -0.0793 -0.5851
 6484SOL    HW131085   3.030   0.392   6.453 -0.1865 -1.0539  0.8108
 6484SOL    HW231086   3.135   0.453   6.366 -2.3181  0.4296 -0.5377
 6485SOL     OW31087   2.510   0.299   1.891 -0.4445 -0.5010 -0.0527
 6485SOL    HW131088   2.590   0.266   1.851 -0.4442 -0.8025  0.2019
 6485SOL    HW231089   2.488   0.239   1.962 -2.5442 -0.5539 -0.7455
 6486SOL     OW31090   0.608   1.461   7.893 -0.5542 -0.0896 -0.4101
 6486SOL    HW131091   0.603   1.376   7.936 -0.1646  0.6575  1.1147
 6486SOL    HW231092   0.606   1.527   7.962 -0.6831  0.3367 -0.8154
 6487SOL     OW31093   1.519   1.209   6.178  0.1410  0.2870  0.0428
 6487SOL    HW131094   1.519   1.302   6.155 -1.1128  0.8298  2.2497
 6487SOL    HW231095   1.461   1.197   6.253 -1.7523  1.5141 -1.2103
 6488SOL     OW31096   3.647   1.258   2.251 -0.0303  0.0095  0.6841
 6488SOL    HW131097   3.735   1.242   2.283 -1.5623 -2.1443  3.7852
 6488SOL    HW231098   3.635   1.353   2.248 -1.7864 -0.2851 -2.9602
 6489SOL     OW31099   1.140   2.724   4.815 -0.1649 -0.3297 -0.0666
 6489SOL    HW131100   1.196   2.772   4.876 -0.8118 -0.1715  0.4049
 6489SOL    HW231101   1.189   2.642   4.805  1.7689  0.9133 -0.7871
 6490SOL     OW31102   1.393   2.249  14.596  0.1106 -0.1790 -0.3742
 6490SOL    HW131103   1.397   2.321  14.658 -1.3997 -1.0967  0.7830
 6490SOL    HW231104   1.454   2.185  14.634  0.2109  2.2443  3.4906
 6491SOL     OW31105   3.647   1.289  16.445 -0.1786 -0.3095  0.2506
 6491SOL    HW131106   3.729   1.241  16.433  0.8949  1.3040  1.0252
 6491SOL    HW231107   3.677   1.380  16.444  1.2971 -0.7907  0.4786
 6492SOL     OW31108   3.806   0.176  11.352  0.2689 -0.1955  0.1015
 6492SOL    HW131109   3.758   0.098  11.324  1.4729 -1.4885  1.6136
 6492SOL    HW231110   3.761   0.256  11.322  1.2393 -0.5694 -2.3594
 6493SOL     OW31111   2.634   4.642   2.196 -0.1193 -0.2288  0.4626
 6493SOL    HW131112   2.601   4.557   2.167  0.3191 -0.5133  0.7854
 6493SOL    HW231113   2.715   4.618   2.241  0.6128  1.7733  0.2047
 6494SOL     OW31114   2.937   1.539  10.678 -0.0972 -0.0033  0.8833
 6494SOL    HW131115   2.854   1.569  10.717  0.5509  1.9069  0.7676
 6494SOL    HW231116   2.934   1.453  10.721 -0.5113 -1.0481 -1.2529
 6495SOL     OW31117   3.259   2.750   9.404  0.7781  0.7922  0.1208
 6495SOL    HW131118   3.328   2.717   9.461 -0.5474 -1.6177  0.3597
 6495SOL    HW231119   3.316   2.785   9.336 -1.1492  0.3285 -1.7506
 6496SOL     OW31120   2.503   4.130   4.890  0.0525 -0.2591 -0.1015
 6496SOL    HW131121   2.435   4.151   4.827  0.8331  1.8719 -0.2198
 6496SOL    HW231122   2.559   4.207   4.894 -2.2882  1.5249 -1.6160
 6497SOL     OW31123   3.481   3.153   7.500 -0.2142  0.4755  0.4668
 6497SOL    HW131124   3.468   3.151   7.595  0.6353 -0.9938  0.5448
 6497SOL    HW231125   3.402   3.103   7.478 -2.0434  3.9313 -0.7042
 6498SOL     OW31126   0.606   1.724   4.070 -0.3228  0.0475  0.2127
 6498SOL    HW131127   0.592   1.737   3.976 -2.3480  0.1187  0.5245
 6498SOL    HW231128   0.638   1.634   4.068 -1.6277 -0.4093 -0.0912
 6499SOL     OW31129   1.634   1.348  16.445 -0.0072  0.0011  0.1393
 6499SOL    HW131130   1.645   1.442  16.458  1.1023  0.0307 -1.0290
 6499SOL    HW231131   1.538   1.340  16.446 -0.1866  2.0121 -1.4022
 6500SOL     OW31132   3.247   2.098  10.727  0.3363 -0.6871  0.1499
 6500SOL    HW131133   3.239   2.063  10.816  0.4570 -0.6095  0.1908
 6500SOL    HW231134   3.170   2.050  10.697 -0.9082  2.0715 -1.1246
 6501SOL     OW31135   2.962   4.175   0.584  0.1366 -0.5145 -0.3720
 6501SOL    HW131136   2.898   4.164   0.654 -1.0345  0.2569 -1.3168
 6501SOL    HW231137   2.912   4.141   0.510 -2.0408 -1.5435  1.5641
 6502SOL     OW31138   2.654   2.379   4.136  0.1568  0.3637  0.1828
 6502SOL    HW131139   2.641   2.474   4.134 -1.2670  0.2238  2.3626
 6502SOL    HW231140   2.568   2.346   4.113 -0.3731  1.6315  0.3397
 6503SOL     OW31141   2.653   3.123   7.171  0.1433  0.0217 -0.2112
 6503SOL    HW131142   2.608   3.201   7.205  0.2314 -1.3581  3.0811
 6503SOL    HW231143   2.578   3.094   7.118 -0.8670  2.2668 -0.0016
 6504SOL     OW31144   3.097   4.476   8.671  1.0515  0.6992 -1.3467
 6504SOL    HW131145   3.130   4.426   8.596 -0.3754 -0.6028 -1.1056
 6504SOL    HW231146   3.003   4.464   8.655  0.6380 -0.3984  2.0787
 6505SOL     OW31147   2.752   2.109  16.455 -0.2101 -0.3864  0.0804
 6505SOL    HW131148   2.775   2.184  16.509 -0.4035 -0.3820  0.1564
 6505SOL    HW231149   2.821   2.043  16.460  2.4115  2.3259 -0.3452
 6506SOL     OW31150   2.795   2.223   1.677  0.2062 -0.2021  0.0693
 6506SOL    HW131151   2.747   2.303   1.701  2.6662  0.5967  2.2824
 6506SOL    HW231152   2.846   2.265   1.608 -0.2621  0.1854 -0.0393
 6507SOL     OW31153   4.088   0.345   7.217 -0.2847  0.3450  0.4622
 6507SOL    HW131154   4.183   0.354   7.219 -0.1933 -0.6730  1.1902
 6507SOL    HW231155   4.076   0.388   7.133 -2.1004  0.4354  0.7639
 6508SOL     OW31156   4.532   1.069   2.083 -0.4424  0.3933  0.2166
 6508SOL    HW131157   4.604   1.132   2.081  1.1390 -1.3688  1.3642
 6508SOL    HW231158   4.480   1.110   2.152 -1.9837 -1.1037 -0.0625
 6509SOL     OW31159   0.067   4.541   2.236 -0.0149 -0.3837 -0.5438
 6509SOL    HW131160   0.035   4.453   2.212  0.1383 -0.2861 -1.1137
 6509SOL    HW231161   0.144   4.539   2.179  1.1746  2.5226  0.9825
 6510SOL     OW31162   2.400   4.172   1.474 -0.1456 -0.0680 -0.4553
 6510SOL    HW131163   2.313   4.137   1.457  0.0871 -1.7786  1.9043
 6510SOL    HW231164   2.446   4.131   1.401  0.3310  0.3913 -0.4130
 6511SOL     OW31165   3.755   0.664   9.134 -0.0257  0.0362 -0.1671
 6511SOL    HW131166   3.713   0.747   9.112 -0.3892  0.2608  1.3667
 6511SOL    HW231167   3.836   0.681   9.087 -0.2038 -1.7761 -1.1432
 6512SOL     OW31168   0.330   0.724   8.438  0.5065 -1.0055 -0.0205
 6512SOL    HW131169   0.302   0.683   8.520  0.3706 -2.4660 -0.7947
 6512SOL    HW231170   0.408   0.675   8.414 -0.6328 -1.9829 -1.7220
 6513SOL     OW31171   2.549   0.543   3.301 -0.0270  0.0673 -0.0445
 6513SOL    HW131172   2.619   0.511   3.358 -0.1914 -0.9745 -0.4357
 6513SOL    HW231173   2.478   0.552   3.365 -0.0197 -1.8380  0.2338
 6514SOL     OW31174   2.656   2.615   0.179 -0.2702  0.2361 -0.0864
 6514SOL    HW131175   2.569   2.589   0.147 -0.8994  1.0203  1.0098
 6514SOL    HW231176   2.716   2.593   0.108 -1.3888 -0.5888 -0.7830
 6515SOL     OW31177   3.028   2.382   4.954  0.1499  0.5436  0.7697
 6515SOL    HW131178   3.102   2.395   5.013  0.4262  0.5456  0.4171
 6515SOL    HW231179   2.975   2.455   4.986  0.9150  1.5336 -0.2640
 6516SOL     OW31180   4.414   0.399   4.987 -0.5217 -0.1187  0.3370
 6516SOL    HW131181   4.431   0.485   5.026 -0.2639  0.6641 -1.5466
 6516SOL    HW231182   4.367   0.357   5.059  1.2254 -0.0215  1.5466
 6517SOL     OW31183   2.274   2.596  10.242 -0.9559  0.1404  0.4659
 6517SOL    HW131184   2.234   2.541  10.174 -1.2469  1.0175 -0.0825
 6517SOL    HW231185   2.337   2.642  10.187 -2.0964  0.7555 -0.3546
 6518SOL     OW31186   1.040   4.303   1.761  0.2129 -0.2004 -0.3656
 6518SOL    HW131187   1.022   4.233   1.699  0.9272 -0.6669 -0.0432
 6518SOL    HW231188   0.972   4.368   1.745  0.1192  0.2159  1.7740
 6519SOL     OW31189   4.440   1.506   3.042 -0.3165  0.7219  0.0166
 6519SOL    HW131190   4.389   1.505   3.123 -0.2033  4.5890  0.1326
 6519SOL    HW231191   4.372   1.528   2.978 -1.0879  1.6622  1.1486
 6520SOL     OW31192   2.593   1.865  13.120 -0.1953 -0.0044  0.0547
 6520SOL    HW131193   2.508   1.833  13.090  1.1027  0.3784 -3.9352
 6520SOL    HW231194   2.641   1.903  13.047  0.8812 -1.2800  0.1004
 6521SOL     OW31195   0.365   1.989   4.909  0.5658  0.3380  0.1924
 6521SOL    HW131196   0.461   1.994   4.915  0.5665  0.3750  0.1504
 6521SOL    HW231197   0.357   1.987   4.813 -1.5342 -1.2961  0.4014
 6522SOL     OW31198   1.569   0.501   7.824  0.6849 -0.2834  0.5821
 6522SOL    HW131199   1.656   0.539   7.811  1.6661 -2.4712  0.8472
 6522SOL    HW231200   1.576   0.409   7.799 -1.8306 -0.7808  1.6607
 6523SOL     OW31201   0.105   2.000   5.740  0.1950 -0.1309  0.1385
 6523SOL    HW131202   0.026   2.037   5.780  1.0225  0.8964  0.8198
 6523SOL    HW231203   0.139   2.065   5.678  1.0699 -0.1572  0.5819
 6524SOL     OW31204   3.842   1.438  13.677  0.1474 -0.4671 -0.6947
 6524SOL    HW131205   3.799   1.410  13.596 -0.2951 -1.1715 -0.2055
 6524SOL    HW231206   3.788   1.391  13.740  0.7045 -1.0943 -0.6862
 6525SOL     OW31207   0.289   4.410   1.833  0.4803 -0.1935  0.1876
 6525SOL    HW131208   0.208   4.443   1.796 -1.8272 -3.1502  2.6335
 6525SOL    HW231209   0.300   4.325   1.790 -0.2239 -0.1907  0.0063
 6526SOL     OW31210   2.182   1.428   8.136  0.0469 -0.2776 -0.1817
 6526SOL    HW131211   2.244   1.499   8.147  0.8106 -0.7875 -1.2124
 6526SOL    HW231212   2.114   1.451   8.073 -0.3947 -0.8381  0.0869
 6527SOL     OW31213   1.960   3.219   7.650  0.1758  0.2131 -0.0422
 6527SOL    HW131214   1.865   3.231   7.658  0.2141 -0.8022  1.8408
 6527SOL    HW231215   1.961   3.140   7.704 -0.4649  0.0313 -0.2926
 6528SOL     OW31216   3.805   2.930   7.791  0.2597 -0.3637  0.2652
 6528SOL    HW131217   3.830   2.871   7.862  1.4620 -1.4297 -1.0363
 6528SOL    HW231218   3.710   2.918   7.801  0.5102 -0.8799  2.0811
 6529SOL     OW31219   4.645   0.010   2.881  0.5344  0.0940  0.1063
 6529SOL    HW131220   4.615   4.716   2.966  0.7147 -0.8522 -0.1727
 6529SOL    HW231221   4.639   0.105   2.886 -2.8619 -0.1306  0.2716
 6530SOL     OW31222   1.778   4.281   2.307 -0.0059 -0.3526 -0.6995
 6530SOL    HW131223   1.706   4.343   2.295 -0.6100 -1.2821 -1.9280
 6530SOL    HW231224   1.735   4.201   2.336  1.3888 -0.5562  0.8336
 6531SOL     OW31225   2.664   2.723   8.052 -0.0178  0.1722 -0.3281
 6531SOL    HW131226   2.697   2.726   8.142  0.2719 -3.0926 -0.3171
 6531SOL    HW231227   2.632   2.633   8.060 -1.5730  0.6718 -1.0571
 6532SOL     OW31228   1.631   2.569   4.073  0.2520 -0.4142  0.0084
 6532SOL    HW131229   1.644   2.520   4.154 -1.3558 -1.1372 -0.1755
 6532SOL    HW231230   1.551   2.614   4.099  0.4434 -0.2046  0.2343
 6533SOL     OW31231   3.842   3.469   9.312  0.1051  0.1478 -0.1195
 6533SOL    HW131232   3.883   3.391   9.275 -1.7246 -0.8699  0.0088
 6533SOL    HW231233   3.764   3.436   9.356 -0.0675  0.7012 -0.0012
 6534SOL     OW31234   1.247   0.860   6.221 -0.2026 -0.1280  0.0670
 6534SOL    HW131235   1.298   0.902   6.291  1.9725  0.2025 -1.7165
 6534SOL    HW231236   1.177   0.925   6.209 -1.0107 -1.2604 -1.3107
 6535SOL     OW31237   0.192   1.124   3.543  0.2871 -0.2041  0.5196
 6535SOL    HW131238   0.101   1.134   3.568  0.8615  1.1194  2.0298
 6535SOL    HW231239   0.240   1.115   3.625 -0.9588  1.2925  1.3979
 6536SOL     OW31240   4.473   2.785   4.482 -0.3379  0.1681  0.1241
 6536SOL    HW131241   4.385   2.751   4.497 -0.7732  1.6590  0.8952
 6536SOL    HW231242   4.506   2.732   4.409  2.8168 -0.2278  1.8535
 6537SOL     OW31243   3.589   3.473  11.573  0.3852  0.0327 -0.7169
 6537SOL    HW131244   3.646   3.513  11.507  0.2611  0.5192 -0.5301
 6537SOL    HW231245   3.645   3.396  11.583  1.0416  0.5066 -0.7294
 6538SOL     OW31246   4.680   1.340   1.339  0.3246 -0.1788 -0.5796
 6538SOL    HW131247   4.667   1.245   1.340  0.6542 -0.2157  0.2664
 6538SOL    HW231248   4.604   1.380   1.298 -0.2676  0.9093  1.5805
 6539SOL     OW31249   2.900   0.502   4.668  0.0290  0.2283 -0.3462
 6539SOL    HW131250   2.881   0.410   4.688  2.2360 -0.6468 -2.1486
 6539SOL    HW231251   2.881   0.535   4.755  1.3622 -0.1951  0.1170
 6540SOL     OW31252   1.314   2.540   5.139  0.3184 -0.1666  0.5258
 6540SOL    HW131253   1.317   2.535   5.043  1.0233 -0.1410  0.5505
 6540SOL    HW231254   1.341   2.451   5.161  0.5549  0.4245  2.5820
 6541SOL     OW31255   1.320   3.053   7.721  0.0471  0.0061 -0.1724
 6541SOL    HW131256   1.226   3.069   7.728  0.1427  0.5952 -0.1946
 6541SOL    HW231257   1.338   3.013   7.806 -1.3892 -0.6319 -0.1799
 6542SOL     OW31258   3.206   1.968   5.186 -0.1084  0.1249  0.2465
 6542SOL    HW131259   3.271   1.975   5.116 -1.9663  2.2368 -1.2999
 6542SOL    HW231260   3.168   1.882   5.173  0.3663 -0.0921  0.2793
 6543SOL     OW31261   3.477   1.174   9.902 -0.3995  0.6418  0.2548
 6543SOL    HW131262   3.400   1.184   9.959 -0.5957  1.3118 -0.1257
 6543SOL    HW231263   3.492   1.086   9.935 -3.5076  0.6492  1.7213
 6544SOL     OW31264   4.488   2.719   5.339  0.2526 -0.1235 -0.4602
 6544SOL    HW131265   4.525   2.652   5.397  0.0231 -0.3451 -0.5680
 6544SOL    HW231266   4.464   2.659   5.268 -0.4155 -2.7040  1.9318
 6545SOL     OW31267   0.886   3.809  14.523 -0.3311  0.1136  0.7208
 6545SOL    HW131268   0.928   3.749  14.462 -4.0219 -0.7615 -0.9792
 6545SOL    HW231269   0.877   3.889  14.472  1.2057  0.6038  1.2294
 6546SOL     OW31270   2.546   0.306   3.595 -0.9981  0.1580 -0.1579
 6546SOL    HW131271   2.581   0.262   3.672  0.3954 -2.6823 -2.4314
 6546SOL    HW231272   2.487   0.372   3.630  0.2924  1.2857 -0.0936
 6547SOL     OW31273   1.813   4.513   5.899  0.2532 -0.8256 -0.0427
 6547SOL    HW131274   1.824   4.577   5.829  1.4656 -3.3728 -2.1930
 6547SOL    HW231275   1.899   4.508   5.941 -0.8606 -2.8654  2.0528
 6548SOL     OW31276   2.084   1.433   3.025 -0.4155  0.4220  0.1996
 6548SOL    HW131277   2.012   1.447   2.963 -0.1755  0.3384 -0.0969
 6548SOL    HW231278   2.158   1.462   2.971 -1.2637  0.0716 -1.1402
 6549SOL     OW31279   0.899   2.974   5.929  0.1342 -0.7305  0.4370
 6549SOL    HW131280   0.841   3.049   5.918  0.4696 -0.6726 -0.9480
 6549SOL    HW231281   0.868   2.949   6.016  0.3792  3.7457  1.8048
 6550SOL     OW31282   3.389   0.406   9.526 -0.0955 -0.2569 -0.5448
 6550SOL    HW131283   3.371   0.389   9.433  3.7703 -0.2253 -1.3059
 6550SOL    HW231284   3.483   0.389   9.522  0.4053  2.9007 -2.1124
 6551SOL     OW31285   0.066   0.643   0.532 -0.0964  0.2979 -0.0788
 6551SOL    HW131286   0.027   0.577   0.476  2.9348 -2.0366  0.5478
 6551SOL    HW231287   0.142   0.594   0.564 -0.6109 -1.4350 -1.5268
 6552SOL     OW31288   0.500   3.026   2.511  0.4901  0.5011 -0.3626
 6552SOL    HW131289   0.547   3.105   2.483  1.0783  0.2253 -0.1587
 6552SOL    HW231290   0.502   3.026   2.607  1.9770 -0.7917 -0.3934
 6553SOL     OW31291   1.251   1.500   8.736  0.3278 -0.1281 -0.0095
 6553SOL    HW131292   1.222   1.466   8.820 -0.5315 -0.2992 -0.3677
 6553SOL    HW231293   1.223   1.592   8.739  1.4088  0.2858 -2.2030
 6554SOL     OW31294   3.366   0.162   8.131  0.1816  0.3664  0.2609
 6554SOL    HW131295   3.370   0.148   8.226 -1.4570  0.0100  0.2783
 6554SOL    HW231296   3.333   0.076   8.105  2.2140 -0.6207  0.9436
 6555SOL     OW31297   0.812   2.846   4.516 -0.0807 -0.2094 -0.7404
 6555SOL    HW131298   0.836   2.930   4.477  1.9700  0.6700  2.3978
 6555SOL    HW231299   0.893   2.803   4.489  0.0030 -1.7324  1.9123
 6556SOL     OW31300   2.808   1.738  13.296 -0.1853  0.2947  0.5456
 6556SOL    HW131301   2.828   1.828  13.321 -0.6898  0.1185  1.6060
 6556SOL    HW231302   2.753   1.746  13.218 -0.4458 -0.1347  0.6818
 6557SOL     OW31303   3.188   4.120   3.880 -0.0948 -0.4092 -0.5381
 6557SOL    HW131304   3.264   4.177   3.888  0.2740 -0.9997  0.1937
 6557SOL    HW231305   3.198   4.063   3.957 -0.5868  3.2658  2.2363
 6558SOL     OW31306   0.173   3.194  14.433 -0.5041  0.0009 -0.6592
 6558SOL    HW131307   0.230   3.160  14.364 -0.5460  2.0879 -1.7183
 6558SOL    HW231308   0.236   3.247  14.482  0.0970 -0.8723 -0.4781
 6559SOL     OW31309   2.705   2.281   7.631  0.6094 -0.1258  0.1620
 6559SOL    HW131310   2.634   2.246   7.685 -0.0896  2.3316  0.8497
 6559SOL    HW231311   2.757   2.312   7.706  0.0619 -3.7811  2.0501
 6560SOL     OW31312   1.998   1.388   2.424  0.1034  0.2100 -0.2100
 6560SOL    HW131313   1.917   1.439   2.433 -0.9948 -1.3346 -1.3161
 6560SOL    HW231314   2.044   1.405   2.506 -0.5364  0.9613 -0.0063
 6561SOL     OW31315   2.528   2.419  11.772  0.2239  0.3857  0.0485
 6561SOL    HW131316   2.559   2.344  11.721  0.0015 -0.7830  1.5892
 6561SOL    HW231317   2.598   2.482  11.755  1.3905 -1.4135 -1.8163
 6562SOL     OW31318   2.958   2.865  16.616 -0.1246  0.2076  0.5064
 6562SOL    HW131319   2.998   2.911  16.542 -0.8473  0.8549  0.5246
 6562SOL    HW231320   2.882   2.819  16.581  0.8510 -0.8661 -0.1963
 6563SOL     OW31321   0.588   3.069  14.626  0.6546 -0.4216 -0.0177
 6563SOL    HW131322   0.662   3.033  14.675  0.3422 -0.7477  0.2168
 6563SOL    HW231323   0.527   3.088  14.697  1.5361 -1.8553  1.1349
 6564SOL     OW31324   0.792   0.758  14.927 -0.3289  0.2965  0.2629
 6564SOL    HW131325   0.714   0.812  14.944  0.6760  1.3158  1.5944
 6564SOL    HW231326   0.771   0.721  14.841  1.7074  0.6426 -0.3813
 6565SOL     OW31327   3.255   0.158  12.170 -0.2984  0.2554 -0.4441
 6565SOL    HW131328   3.194   0.183  12.101 -0.8197  0.6089  0.1417
 6565SOL    HW231329   3.326   0.148  12.107  0.6573  2.4179  0.3167
 6566SOL     OW31330   1.224   2.486   0.313 -0.5334 -0.1534  0.5910
 6566SOL    HW131331   1.153   2.428   0.284 -2.6330  0.6725  4.0618
 6566SOL    HW231332   1.300   2.430   0.297 -1.0976 -0.4918 -0.8575
 6567SOL     OW31333   3.174   1.498   7.889  0.0725  0.1386 -0.7802
 6567SOL    HW131334   3.083   1.474   7.908  0.3065 -1.0257 -1.1568
 6567SOL    HW231335   3.218   1.414   7.875  0.4291  0.1928  0.0032
 6568SOL     OW31336   2.997   0.267   3.275 -0.0308  0.0394 -0.0150
 6568SOL    HW131337   3.087   0.280   3.243  0.7877 -2.8232  1.0980
 6568SOL    HW231338   2.993   0.332   3.346 -0.2053  0.8596 -0.7702
 6569SOL     OW31339   3.147   0.235   8.814  0.3740  0.6247  0.0522
 6569SOL    HW131340   3.202   0.162   8.787 -1.3975 -0.3126 -1.0349
 6569SOL    HW231341   3.116   0.259   8.726 -1.3899 -0.3089  0.4190
 6570SOL     OW31342   0.283   3.958   2.160  0.2544 -0.6194 -0.3680
 6570SOL    HW131343   0.311   3.872   2.127 -2.2846 -0.9510 -1.6307
 6570SOL    HW231344   0.228   4.002   2.096  2.1311 -1.4559 -2.5877
 6571SOL     OW31345   1.534   4.504  16.888 -0.2513 -0.0380  0.2766
 6571SOL    HW131346   1.446   4.509  16.850 -0.6901 -0.3123  1.2640
 6571SOL    HW231347   1.505   4.498  16.979  0.2906 -1.6167  0.3494
 6572SOL     OW31348   3.795   3.415   1.605 -0.3055  0.3592  0.7468
 6572SOL    HW131349   3.714   3.403   1.555 -0.2566  0.8174  0.5543
 6572SOL    HW231350   3.849   3.453   1.536  0.8088 -2.2653  0.2006
 6573SOL     OW31351   3.112   3.576   9.757 -0.0932 -0.2907  0.0070
 6573SOL    HW131352   3.145   3.643   9.698  2.3156  0.1682  1.8688
 6573SOL    HW231353   3.200   3.549   9.783  0.0060  0.0576  0.0297
 6574SOL     OW31354   3.645   0.334   9.721  0.5389  0.0133 -0.0707
 6574SOL    HW131355   3.663   0.309   9.631  0.0569 -0.1317 -0.1278
 6574SOL    HW231356   3.606   0.252   9.755 -0.5532  0.0291 -1.2828
 6575SOL     OW31357   0.583   0.730   0.252  0.0120 -0.2573  0.2486
 6575SOL    HW131358   0.618   0.771   0.331  0.3475  0.3706 -0.2227
 6575SOL    HW231359   0.594   0.639   0.282 -1.8906 -0.8827 -1.0074
 6576SOL     OW31360   4.273   3.478   4.825  0.2678  0.5719 -0.4977
 6576SOL    HW131361   4.331   3.472   4.900 -0.5290 -0.1981  0.0493
 6576SOL    HW231362   4.331   3.528   4.766  0.3500 -0.7791 -1.5698
 6577SOL     OW31363   0.764   3.066   1.420 -0.3847  0.2235  0.1208
 6577SOL    HW131364   0.725   3.035   1.502 -1.4055 -0.4090 -0.6027
 6577SOL    HW231365   0.797   3.149   1.455 -1.5488 -0.3657  2.5976
 6578SOL     OW31366   2.515   3.680  15.368  0.0421  0.7791 -1.0012
 6578SOL    HW131367   2.599   3.635  15.358 -0.8259 -0.9502 -0.5692
 6578SOL    HW231368   2.538   3.759  15.418 -0.7148  0.7611 -0.6178
 6579SOL     OW31369   1.558   3.152   2.389 -0.3464 -0.3256  0.2608
 6579SOL    HW131370   1.481   3.109   2.426 -1.0051  1.5257  1.0149
 6579SOL    HW231371   1.525   3.158   2.299 -0.0496 -0.0941  0.1699
 6580SOL     OW31372   1.519   1.675  12.471 -0.4705 -0.1141  0.7496
 6580SOL    HW131373   1.435   1.661  12.515 -0.7308  0.2902  0.3822
 6580SOL    HW231374   1.512   1.605  12.407 -2.5952  0.8128 -0.0325
 6581SOL     OW31375   2.953   1.790   8.908  0.2827  0.5525 -0.1900
 6581SOL    HW131376   3.045   1.776   8.930  0.0289  0.0806  0.5847
 6581SOL    HW231377   2.966   1.853   8.837  1.9158  1.2994  0.7794
 6582SOL     OW31378   3.790   0.845   5.600 -0.0281 -0.3466  0.4097
 6582SOL    HW131379   3.697   0.834   5.621 -0.1158  0.5908  0.5200
 6582SOL    HW231380   3.786   0.936   5.571 -0.8355 -0.6573 -0.4647
 6583SOL     OW31381   2.355   4.557   6.998  0.9219 -0.0037  0.4871
 6583SOL    HW131382   2.420   4.610   7.044  0.6063  1.3796 -0.6617
 6583SOL    HW231383   2.355   4.479   7.054  0.4673  1.0750  1.9929
 6584SOL     OW31384   2.953   1.539   2.233  0.0258  0.3027 -0.1860
 6584SOL    HW131385   2.871   1.586   2.250 -0.2638 -0.1926 -0.2284
 6584SOL    HW231386   2.998   1.620   2.209 -0.6455  1.0992  1.2509
 6585SOL     OW31387   1.810   1.890   1.392 -0.1668  0.5040 -0.0448
 6585SOL    HW131388   1.765   1.822   1.442  1.8647  0.2841  1.4524
 6585SOL    HW231389   1.772   1.883   1.304  1.3498 -3.1984 -0.3795
 6586SOL     OW31390   4.275   0.316  14.504 -0.4173  0.2855  0.1487
 6586SOL    HW131391   4.255   0.316  14.410 -2.4314 -0.2366  0.5713
 6586SOL    HW231392   4.306   0.227  14.520 -0.4109  0.0451 -1.2021
 6587SOL     OW31393   2.863   3.071   0.165 -0.4184  0.0080  0.4618
 6587SOL    HW131394   2.924   3.144   0.170 -0.4904  0.1249 -0.3579
 6587SOL    HW231395   2.934   3.008   0.173  1.5502  2.0909 -1.0501
 6588SOL     OW31396   2.270   0.094  11.878  0.4989 -0.2268 -0.4237
 6588SOL    HW131397   2.331   0.084  11.951 -1.1352 -1.1527  0.8294
 6588SOL    HW231398   2.311   0.034  11.817 -0.0700 -0.4422 -0.6003
 6589SOL     OW31399   3.682   2.168   4.550  0.0793  0.2636 -0.2255
 6589SOL    HW131400   3.609   2.108   4.565 -0.5969  1.1213 -0.1423
 6589SOL    HW231401   3.648   2.253   4.576 -1.3501 -0.8635  1.6073
 6590SOL     OW31402   3.526   2.332   9.839 -0.7333  0.0852 -0.5718
 6590SOL    HW131403   3.437   2.303   9.858 -0.4068 -0.4778  0.1079
 6590SOL    HW231404   3.510   2.372   9.754 -0.5769 -2.1851 -1.6753
 6591SOL     OW31405   2.419   3.209   3.732  0.5079 -0.6027 -0.1349
 6591SOL    HW131406   2.385   3.281   3.679 -1.5387  0.3910  2.4695
 6591SOL    HW231407   2.367   3.233   3.809 -0.0189  1.4840 -1.1366
 6592SOL     OW31408   1.974   3.670   5.649 -0.5670  0.2099  0.4921
 6592SOL    HW131409   2.042   3.603   5.639 -1.1064 -0.3640  0.7013
 6592SOL    HW231410   1.919   3.656   5.572  0.8173  0.9467 -0.6361
 6593SOL     OW31411   3.638   4.077  12.331  0.1478 -0.2961 -0.0729
 6593SOL    HW131412   3.564   4.132  12.306 -0.9415 -1.0923  1.4492
 6593SOL    HW231413   3.595   3.994  12.313 -1.3423  0.3700  0.4964
 6594SOL     OW31414   0.959   3.795  14.787  0.0388  0.1936 -0.3049
 6594SOL    HW131415   0.930   3.812  14.697 -0.1436 -1.4180 -0.5505
 6594SOL    HW231416   0.918   3.710  14.799  0.1752  0.1920  0.1535
 6595SOL     OW31417   3.294   1.531   8.827 -0.5149 -0.1099 -0.2175
 6595SOL    HW131418   3.334   1.480   8.898 -0.0657  0.0201 -0.3760
 6595SOL    HW231419   3.200   1.517   8.833 -0.3357 -1.9776 -1.8060
 6596SOL     OW31420   3.318   1.792  16.820  0.0884  0.2859  0.1915
 6596SOL    HW131421   3.379   1.842  16.874  0.3479 -2.1059  2.1243
 6596SOL    HW231422   3.284   1.725  16.880  0.3333 -0.9722 -1.0814
 6597SOL     OW31423   1.623   3.509   7.633 -0.2956  0.0242  0.2206
 6597SOL    HW131424   1.567   3.518   7.710 -0.7260 -2.7986  0.2640
 6597SOL    HW231425   1.577   3.574   7.580  0.1286  0.0991 -0.0572
 6598SOL     OW31426   2.756   3.742   5.344  0.5509 -0.2808 -0.7635
 6598SOL    HW131427   2.661   3.752   5.343  0.6067  0.0061 -3.1533
 6598SOL    HW231428   2.779   3.685   5.270 -0.5837 -0.7941 -0.7176
 6599SOL     OW31429   1.057   3.363   8.459 -0.5816 -0.5501  0.2636
 6599SOL    HW131430   1.028   3.453   8.443  0.9696  0.1345  1.2562
 6599SOL    HW231431   1.008   3.337   8.537 -1.5624  0.2999 -0.0690
 6600SOL     OW31432   3.627   3.142  15.576  0.2977 -0.3583  0.9402
 6600SOL    HW131433   3.660   3.127  15.665 -1.6489 -0.4613  1.6480
 6600SOL    HW231434   3.715   3.150  15.540 -0.6981  1.7375 -0.9948
 6601SOL     OW31435   1.793   4.575   3.595 -0.0717 -0.5131 -0.1729
 6601SOL    HW131436   1.815   4.509   3.660 -1.5081  1.9582  2.8307
 6601SOL    HW231437   1.772   4.649   3.652  0.6404 -0.6024  0.2018
 6602SOL     OW31438   0.828   4.538   2.189 -0.1415  0.2292  0.3613
 6602SOL    HW131439   0.804   4.559   2.279 -0.1204 -0.2715  0.4841
 6602SOL    HW231440   0.837   4.624   2.150  1.9791 -0.8457 -1.5565
 6603SOL     OW31441   0.486   3.400   2.724  0.1038 -0.0233 -0.1036
 6603SOL    HW131442   0.416   3.345   2.687  0.0018 -0.2771  0.4619
 6603SOL    HW231443   0.447   3.485   2.703  0.0301 -0.3866 -1.4871
 6604SOL     OW31444   1.987   1.007   2.526  0.2284 -0.0630 -0.7386
 6604SOL    HW131445   2.047   1.015   2.451  1.1438 -0.5987 -0.0628
 6604SOL    HW231446   1.904   0.981   2.487  0.1677  0.1156 -0.7291
 6605SOL     OW31447   3.449   2.982   3.886 -0.1930  0.0714 -0.1269
 6605SOL    HW131448   3.423   2.972   3.977 -1.2600  0.1388 -0.4151
 6605SOL    HW231449   3.509   3.057   3.884  0.1878 -0.2079  1.1698
 6606SOL     OW31450   1.853   4.427  11.531 -0.2760  0.0280 -0.1923
 6606SOL    HW131451   1.894   4.343  11.550 -1.1576 -0.5216 -0.7326
 6606SOL    HW231452   1.922   4.476  11.486 -0.3189 -0.3615 -0.6818
 6607SOL     OW31453   0.167   3.184   4.189  1.0958  0.3808 -0.4958
 6607SOL    HW131454   0.255   3.154   4.212 -0.1901 -0.9524  2.5964
 6607SOL    HW231455   0.139   3.222   4.272  0.5778  1.6630 -1.2606
 6608SOL     OW31456   3.180   1.026   4.362  0.4572  0.0600 -0.3961
 6608SOL    HW131457   3.120   0.963   4.322  0.5924 -0.8027  0.7641
 6608SOL    HW231458   3.262   1.005   4.317  0.3297  1.5436 -1.3292
 6609SOL     OW31459   2.414   4.365  15.597  0.5756 -0.3255  0.2188
 6609SOL    HW131460   2.366   4.282  15.599  1.9030 -1.1302 -1.4762
 6609SOL    HW231461   2.416   4.379  15.692  1.1062 -0.7996  0.2779
 6610SOL     OW31462   3.957   4.587   9.618 -0.1849  0.0966  0.8494
 6610SOL    HW131463   3.982   4.571   9.709 -2.6649  0.7906  1.6414
 6610SOL    HW231464   3.988   4.506   9.578 -1.0338  0.8427 -1.3473
 6611SOL     OW31465   1.957   0.842   0.852 -0.0085 -0.1653 -0.2988
 6611SOL    HW131466   1.890   0.889   0.902  0.9750  0.4147  0.4775
 6611SOL    HW231467   1.902   0.772   0.817 -1.8478  0.2904  1.6711
 6612SOL     OW31468   2.392   3.804  14.189  0.3078  0.8474 -0.3266
 6612SOL    HW131469   2.357   3.892  14.184  0.2154  0.8471  0.3098
 6612SOL    HW231470   2.453   3.808  14.115  1.2978 -1.7422  0.3203
 6613SOL     OW31471   3.025   3.126   5.597  0.5521 -0.2010  0.2382
 6613SOL    HW131472   2.955   3.063   5.618  0.5373 -0.0803  0.5404
 6613SOL    HW231473   3.028   3.179   5.676 -1.0724  0.0395  0.1424
 6614SOL     OW31474   2.837   0.623  15.713  0.0703 -0.5138  0.3639
 6614SOL    HW131475   2.755   0.601  15.668  0.7291 -1.1593 -0.5325
 6614SOL    HW231476   2.801   0.679  15.782 -0.0954 -0.5911  0.3408
 6615SOL     OW31477   1.479   1.985   4.600  0.0456  0.5456  0.0234
 6615SOL    HW131478   1.560   2.017   4.639  1.6276 -2.4488 -0.7680
 6615SOL    HW231479   1.451   2.062   4.552  0.1145  0.2338 -0.5280
 6616SOL     OW31480   3.469   4.253   5.484 -0.3533  0.9872 -0.1894
 6616SOL    HW131481   3.506   4.217   5.564 -0.3675  0.2150 -0.5296
 6616SOL    HW231482   3.540   4.314   5.464 -0.3892  1.3820  0.9436
 6617SOL     OW31483   3.038   3.145  14.470 -0.2787 -0.0856  0.2210
 6617SOL    HW131484   3.065   3.201  14.398 -0.5988  2.4799  2.1021
 6617SOL    HW231485   2.992   3.075  14.424 -0.9672  0.3621  0.2368
 6618SOL     OW31486   2.741   0.327  15.720  0.1119  0.5363 -0.4063
 6618SOL    HW131487   2.778   0.349  15.635  0.3431  0.5031 -0.3154
 6618SOL    HW231488   2.663   0.382  15.723 -0.9778 -0.9563 -1.0335
 6619SOL     OW31489   1.736   2.153   5.162 -0.5584 -0.8326 -0.0977
 6619SOL    HW131490   1.645   2.126   5.147 -0.7362  1.9109 -3.8792
 6619SOL    HW231491   1.767   2.070   5.199 -1.0550 -1.1310 -0.3438
 6620SOL     OW31492   3.040   3.020  15.443 -0.1462 -0.7228 -0.5679
 6620SOL    HW131493   3.100   3.089  15.472 -2.4822  1.5622 -1.1942
 6620SOL    HW231494   3.101   2.953  15.413  0.7949 -0.9072  1.7722
 6621SOL     OW31495   1.353   3.277   5.752  0.2066  0.2152 -0.0246
 6621SOL    HW131496   1.353   3.321   5.667 -1.4835  0.3492  0.0521
 6621SOL    HW231497   1.348   3.355   5.807 -1.5402 -1.4652  2.2109
 6622SOL     OW31498   1.625   1.479   8.501 -0.3115 -0.3139 -0.1341
 6622SOL    HW131499   1.637   1.562   8.454 -0.9421 -0.2569 -0.1972
 6622SOL    HW231500   1.705   1.429   8.482 -1.2808 -1.1849 -1.8649
 6623SOL     OW31501   3.880   1.884  10.332  0.0769 -0.1849  0.1289
 6623SOL    HW131502   3.882   1.789  10.318  0.7713 -0.1833  0.2469
 6623SOL    HW231503   3.820   1.893  10.406  3.2498  1.3786  2.5195
 6624SOL     OW31504   3.332   0.812   5.484 -0.7494  0.3185  0.4099
 6624SOL    HW131505   3.327   0.861   5.402 -0.0523  0.6597  0.5710
 6624SOL    HW231506   3.423   0.783   5.493 -1.4454 -2.1392 -0.4518
 6625SOL     OW31507   3.120   0.743   4.917  0.0429 -0.8450 -0.1238
 6625SOL    HW131508   3.082   0.805   4.979 -0.1431  0.1019 -1.1831
 6625SOL    HW231509   3.087   0.772   4.832  1.0738 -0.9595 -0.5680
 6626SOL     OW31510   3.391   4.075   6.730 -0.1193 -0.0469  0.9637
 6626SOL    HW131511   3.332   4.122   6.790  0.4305  0.6823  0.9320
 6626SOL    HW231512   3.336   4.071   6.652 -0.0137  1.1483  0.8313
 6627SOL     OW31513   1.160   3.085   0.533  0.1115 -0.0222 -0.3261
 6627SOL    HW131514   1.117   3.155   0.484 -0.8094 -1.2853 -1.3433
 6627SOL    HW231515   1.213   3.042   0.465 -2.0301  0.9368 -2.6066
 6628SOL     OW31516   3.976   2.292   3.874  0.4213 -0.5129  0.4114
 6628SOL    HW131517   3.971   2.217   3.934  1.3375 -0.4766  0.5358
 6628SOL    HW231518   3.895   2.336   3.898  0.2765 -0.1470 -0.7919
 6629SOL     OW31519   1.985   4.226   8.597  0.5775 -0.3489  0.1110
 6629SOL    HW131520   1.919   4.158   8.611 -0.9228  1.4886  1.8340
 6629SOL    HW231521   2.056   4.171   8.563  1.1844 -1.5194  3.3001
 6630SOL     OW31522   2.844   1.828   6.107  0.2383  0.4028  0.4142
 6630SOL    HW131523   2.788   1.852   6.034  0.4857  0.3381  0.2037
 6630SOL    HW231524   2.921   1.778   6.078  0.3791  0.9262 -0.0969
 6631SOL     OW31525   3.257   2.001   8.588  0.0497 -0.0276 -0.0434
 6631SOL    HW131526   3.328   1.964   8.641 -0.7944 -1.2705  0.2315
 6631SOL    HW231527   3.283   2.093   8.595  0.6539 -0.3079  1.4322
 6632SOL     OW31528   3.693   0.659  15.625 -0.2544  0.4703  0.2955
 6632SOL    HW131529   3.724   0.587  15.570  1.3371  0.3220  1.4102
 6632SOL    HW231530   3.637   0.712  15.567 -0.3841  0.7891  0.7148
 6633SOL     OW31531   3.358   2.956   9.563 -0.0742 -0.9003  0.3364
 6633SOL    HW131532   3.390   2.868   9.579  0.7746 -1.1219 -2.5703
 6633SOL    HW231533   3.413   3.003   9.626 -1.7885 -0.8330  1.8064
 6634SOL     OW31534   0.921   4.374   3.229  0.5366 -0.1791 -0.4507
 6634SOL    HW131535   0.975   4.366   3.308 -0.2811 -2.5532 -0.1152
 6634SOL    HW231536   0.865   4.297   3.240 -1.1229  1.0973  0.1486
 6635SOL     OW31537   3.852   1.821   7.843  0.3923 -0.7218  0.1015
 6635SOL    HW131538   3.885   1.759   7.779  0.8375  0.1603 -0.5193
 6635SOL    HW231539   3.902   1.900   7.825  2.5238 -2.1125  0.0058
 6636SOL     OW31540   4.164   2.042   5.146 -0.3050  0.6602  0.1274
 6636SOL    HW131541   4.236   2.088   5.104 -0.1687 -0.4425 -0.8593
 6636SOL    HW231542   4.217   1.983   5.201  0.3977 -0.1868 -1.4604
 6637SOL     OW31543   1.129   3.626   9.184 -1.3090 -0.0623 -0.4148
 6637SOL    HW131544   1.102   3.627   9.092 -1.3796  1.4249 -0.3919
 6637SOL    HW231545   1.217   3.659   9.169 -0.9935 -0.6474  0.1915
 6638SOL     OW31546   3.660   3.735   9.147 -0.0884 -0.7536  0.2176
 6638SOL    HW131547   3.578   3.699   9.113 -0.6793 -0.0827  0.9319
 6638SOL    HW231548   3.727   3.707   9.084  0.3136  0.0563  0.2922
 6639SOL     OW31549   1.088   3.361   7.112  0.5044  0.1672 -0.3062
 6639SOL    HW131550   1.163   3.377   7.170  1.2891  2.9514 -2.0986
 6639SOL    HW231551   1.026   3.314   7.168  0.1893  2.2927  1.1306
 6640SOL     OW31552   0.422   1.371   6.057  0.8585 -0.3620 -0.3905
 6640SOL    HW131553   0.335   1.359   6.095  0.9706  2.0083  0.6246
 6640SOL    HW231554   0.442   1.465   6.057 -2.8887  0.4491 -0.6210
 6641SOL     OW31555   0.295   3.820   2.382  0.3041  0.4648  0.3704
 6641SOL    HW131556   0.221   3.770   2.349  1.0662 -0.2675 -0.2443
 6641SOL    HW231557   0.307   3.880   2.309 -2.2431 -0.0095 -0.4220
 6642SOL     OW31558   0.201   0.618   2.124  0.5949  0.1210  0.1107
 6642SOL    HW131559   0.236   0.529   2.137 -0.3246  0.1155  2.4867
 6642SOL    HW231560   0.166   0.630   2.212  1.7802 -0.9850  0.7524
 6643SOL     OW31561   3.693   1.615   4.095  0.3354 -0.3954 -0.0610
 6643SOL    HW131562   3.673   1.552   4.026 -3.1314  1.4430 -0.7295
 6643SOL    HW231563   3.750   1.566   4.154  0.6938  0.0930 -0.0032
 6644SOL     OW31564   3.956   3.678   6.537 -0.1040  0.5988 -0.1395
 6644SOL    HW131565   3.868   3.676   6.499 -0.8558  1.6253  1.5521
 6644SOL    HW231566   3.965   3.583   6.547  1.5813  1.0048  2.1964
 6645SOL     OW31567   0.809   2.754   3.366  0.3150  1.0496  0.0093
 6645SOL    HW131568   0.771   2.681   3.414 -1.9847  3.0253  1.1800
 6645SOL    HW231569   0.898   2.718   3.355 -0.5040 -1.0700  0.4634
 6646SOL     OW31570   2.208   2.864  13.780  0.2006  0.0505 -0.2233
 6646SOL    HW131571   2.291   2.870  13.827 -0.1713 -0.1732  0.4684
 6646SOL    HW231572   2.184   2.955  13.761 -0.4498  0.2422  1.4800
 6647SOL     OW31573   0.377   4.577   3.944 -0.0938 -0.3032  0.3227
 6647SOL    HW131574   0.341   4.514   3.881  0.1061 -0.7048  0.6154
 6647SOL    HW231575   0.321   4.551   4.017 -2.9300 -0.9024 -2.0496
 6648SOL     OW31576   0.663   3.595   0.848  0.3457 -0.2876 -0.1208
 6648SOL    HW131577   0.711   3.660   0.796 -0.3005 -0.7922 -1.3635
 6648SOL    HW231578   0.735   3.541   0.879 -0.3758  0.5707  3.0212
 6649SOL     OW31579   3.215   2.832  11.361  0.2953 -0.2731  0.4292
 6649SOL    HW131580   3.193   2.886  11.437  1.2925  1.4844 -0.5246
 6649SOL    HW231581   3.175   2.880  11.289 -0.4364  0.0880  1.0646
 6650SOL     OW31582   0.529   2.652  16.601 -0.4434  0.4030  0.6536
 6650SOL    HW131583   0.567   2.619  16.519  1.6169  2.0702  0.9196
 6650SOL    HW231584   0.439   2.647  16.571  0.3451 -1.6208 -1.4068
 6651SOL     OW31585   0.988   4.638   6.829 -0.3391 -0.1709  0.5852
 6651SOL    HW131586   0.937   4.693   6.888 -0.2206  1.1731 -0.5842
 6651SOL    HW231587   1.041   4.596   6.897  1.2269 -0.6006 -0.9077
 6652SOL     OW31588   2.112   2.383   8.528 -0.6485 -0.1438 -0.5718
 6652SOL    HW131589   2.127   2.476   8.546  1.5175 -0.1305 -2.3621
 6652SOL    HW231590   2.156   2.375   8.443 -0.4140  1.6260 -0.6223
 6653SOL     OW31591   4.270   4.158  17.559 -0.5009 -0.2088  0.1567
 6653SOL    HW131592   4.256   4.090  17.493  2.0719  0.3880 -0.9950
 6653SOL    HW231593   4.185   4.202  17.558 -2.2699 -3.5854  2.1714
 6654SOL     OW31594   0.931   0.980   0.008  0.2645  0.1132 -0.2010
 6654SOL    HW131595   0.842   0.951   0.028  0.8116 -1.0214  0.5400
 6654SOL    HW231596   0.977   0.897   0.000 -3.3493 -1.9527  0.7135
 6655SOL     OW31597   0.946   0.998   4.405 -0.5990 -0.1782  0.3590
 6655SOL    HW131598   1.010   1.035   4.344 -0.0600 -3.2714 -0.9529
 6655SOL    HW231599   0.998   0.943   4.463 -1.2433 -1.1186  0.0463
 6656SOL     OW31600   3.605   0.626  13.542 -0.3013  0.1627  0.2009
 6656SOL    HW131601   3.551   0.633  13.463 -0.5806  0.2764  0.4031
 6656SOL    HW231602   3.536   0.637  13.607  1.2103 -3.7741  2.4233
 6657SOL     OW31603   0.561   3.383   1.279 -0.4077  0.1653 -0.6306
 6657SOL    HW131604   0.568   3.353   1.370 -0.1203  1.1243 -0.3320
 6657SOL    HW231605   0.636   3.442   1.287 -0.8324  0.2518  2.7654
 6658SOL     OW31606   4.555   1.325   0.986  0.0597 -0.0209 -0.0613
 6658SOL    HW131607   4.515   1.386   1.047 -0.9687  0.0081 -0.7647
 6658SOL    HW231608   4.612   1.273   1.043  0.1631 -0.2327 -0.3530
 6659SOL     OW31609   0.603   2.390   3.142 -0.6841  0.1662 -0.2963
 6659SOL    HW131610   0.642   2.383   3.230 -3.5140 -0.0172  0.9544
 6659SOL    HW231611   0.526   2.332   3.147  0.5971 -1.5280 -0.0083
 6660SOL     OW31612   2.017   1.509   2.090 -0.0522 -0.0813  0.0252
 6660SOL    HW131613   2.092   1.451   2.092  1.0928  1.3679 -0.9862
 6660SOL    HW231614   2.036   1.570   2.018 -1.2354 -1.9904 -1.9109
 6661SOL     OW31615   1.677   1.190   2.553  0.5176 -0.7377  0.3308
 6661SOL    HW131616   1.727   1.111   2.571 -1.3917 -1.8776  0.5758
 6661SOL    HW231617   1.613   1.156   2.491 -0.6138 -1.5223  1.9353
 6662SOL     OW31618   1.142   2.130   0.523  0.0253 -0.4965 -0.7399
 6662SOL    HW131619   1.111   2.220   0.513  2.3500  0.2420 -1.3231
 6662SOL    HW231620   1.063   2.090   0.558  1.6490 -1.5139  1.7308
 6663SOL     OW31621   4.736   1.213  17.386 -0.6359 -0.1156  0.1045
 6663SOL    HW131622   0.021   1.120  17.374  0.4800  0.1122  0.3974
 6663SOL    HW231623   4.731   1.226  17.481 -0.8923 -1.6558  0.3001
 6664SOL     OW31624   4.516   1.493   6.207  0.1151  0.1711  0.2225
 6664SOL    HW131625   4.535   1.458   6.294 -2.6185 -0.6427  0.4935
 6664SOL    HW231626   4.604   1.490   6.169  0.3069 -3.1971  0.9186
 6665SOL     OW31627   2.770   2.615  11.527  0.1136  0.1004  0.1313
 6665SOL    HW131628   2.808   2.660  11.451  1.7150 -0.7290  0.4523
 6665SOL    HW231629   2.702   2.680  11.548 -1.2565 -0.4362 -2.5971
 6666SOL     OW31630   3.786   0.241   3.623 -0.5453 -0.2221 -0.2597
 6666SOL    HW131631   3.859   0.216   3.568 -0.9339  1.7042 -1.6398
 6666SOL    HW231632   3.831   0.260   3.706 -1.2871  0.6294 -0.0399
 6667SOL     OW31633   2.452   0.061   6.896 -0.5242  0.4299  0.5159
 6667SOL    HW131634   2.358   0.046   6.897 -0.4390 -0.1178  0.5652
 6667SOL    HW231635   2.489   0.025   6.977 -0.8467 -0.7487  0.1363
 6668SOL     OW31636   3.087   1.764   2.181  0.6075 -0.2340  0.5754
 6668SOL    HW131637   3.102   1.846   2.134  0.9840 -0.6485 -0.0231
 6668SOL    HW231638   3.109   1.793   2.270 -0.4503  0.6365  0.5542
 6669SOL     OW31639   3.134   2.230   8.083  0.0058  0.0304  0.4546
 6669SOL    HW131640   3.175   2.313   8.061  1.3590 -0.5182  0.8799
 6669SOL    HW231641   3.137   2.205   7.991  3.4451 -1.2939  0.9153
 6670SOL     OW31642   0.833   2.033   9.123 -0.3163  0.0310 -0.0418
 6670SOL    HW131643   0.888   2.107   9.098  0.1320  0.2658  1.6533
 6670SOL    HW231644   0.768   2.023   9.053 -0.9294  2.5958  0.1575
 6671SOL     OW31645   2.898   0.479  14.334  0.0704  0.1897  0.2715
 6671SOL    HW131646   2.896   0.443  14.245 -2.0273  1.4464 -0.1825
 6671SOL    HW231647   2.991   0.502  14.329  0.4694 -1.3490  0.6440
 6672SOL     OW31648   3.655   0.568   6.897 -0.6978 -0.1684 -0.2906
 6672SOL    HW131649   3.588   0.499   6.897  0.2897 -1.1281 -0.4628
 6672SOL    HW231650   3.733   0.517   6.919 -0.6815  1.0333  2.4828
 6673SOL     OW31651   2.631   1.706  14.057  0.6292  0.5900  0.4509
 6673SOL    HW131652   2.692   1.717  14.130  1.3967 -0.0448 -0.0899
 6673SOL    HW231653   2.623   1.611  14.068 -3.3555  0.5252 -3.0303
 6674SOL     OW31654   0.146   3.911   3.657 -0.1259  0.5108 -0.3924
 6674SOL    HW131655   0.230   3.874   3.685  0.2894  0.3086 -1.9394
 6674SOL    HW231656   0.119   3.853   3.587  1.8592 -1.1710  0.2291
 6675SOL     OW31657   2.567   3.502   8.534  0.4233  0.0858 -0.2573
 6675SOL    HW131658   2.492   3.517   8.593  1.1237  1.4398  0.2839
 6675SOL    HW231659   2.588   3.411   8.556  0.4736  0.1870  0.1197
 6676SOL     OW31660   0.656   4.672   8.447 -0.4965 -0.0766  0.2294
 6676SOL    HW131661   0.629   4.722   8.524 -2.4112 -1.8098  0.6858
 6676SOL    HW231662   0.668   4.583   8.480  1.5054  1.0962  2.5879
 6677SOL     OW31663   0.913   4.102   1.605  0.3613 -0.0547 -0.0385
 6677SOL    HW131664   0.896   4.110   1.511 -0.4310  0.8216  0.1716
 6677SOL    HW231665   0.973   4.028   1.603 -1.2085 -1.3478  0.6933
 6678SOL     OW31666   3.341   3.790  13.639 -0.1797  0.5854 -0.6452
 6678SOL    HW131667   3.437   3.785  13.634 -0.2171 -1.2532  0.7448
 6678SOL    HW231668   3.324   3.878  13.672  1.0062  0.0224  1.5046
 6679SOL     OW31669   1.205   1.128   4.298 -0.2338  0.2103 -0.0287
 6679SOL    HW131670   1.273   1.129   4.366 -0.5902  0.9039  0.3169
 6679SOL    HW231671   1.261   1.157   4.225  0.8443 -0.2998  0.5871
 6680SOL     OW31672   1.301   2.730   2.458 -0.1068  0.0904  0.1012
 6680SOL    HW131673   1.272   2.646   2.424  1.0524 -1.1806  2.3317
 6680SOL    HW231674   1.349   2.765   2.382  1.1623 -0.9947  0.4036
 6681SOL     OW31675   2.601   2.755  14.552 -0.2615 -0.1639 -0.4622
 6681SOL    HW131676   2.600   2.731  14.645 -3.2296 -0.6577 -0.6126
 6681SOL    HW231677   2.558   2.679  14.513  0.2506 -0.0470 -1.2610
 6682SOL     OW31678   1.221   3.075   3.147  0.2350 -0.2629  0.0014
 6682SOL    HW131679   1.158   3.006   3.169 -0.6864  0.4733 -0.3225
 6682SOL    HW231680   1.202   3.127   3.224  2.0445  0.3670  0.0109
 6683SOL     OW31681   0.227   4.359   9.324 -0.4643 -0.0913 -1.1939
 6683SOL    HW131682   0.242   4.412   9.246 -0.3914  0.0552 -1.0792
 6683SOL    HW231683   0.147   4.404   9.351 -0.8700 -0.5670 -1.6074
 6684SOL     OW31684   0.880   2.460  14.475  0.3813  0.2006 -0.5279
 6684SOL    HW131685   0.871   2.366  14.485  3.1052 -0.0187 -0.3040
 6684SOL    HW231686   0.930   2.462  14.393 -1.1947 -2.2786 -1.5313
 6685SOL     OW31687   1.191   0.167   2.289 -0.7282  0.1214  0.0410
 6685SOL    HW131688   1.127   0.163   2.360 -2.9110  1.1291 -1.8698
 6685SOL    HW231689   1.147   0.220   2.223  1.4119 -2.3923 -3.4189
 6686SOL     OW31690   3.715   0.759   7.902  0.4524  0.2028 -0.0264
 6686SOL    HW131691   3.631   0.782   7.861 -0.3689 -0.2396  1.4020
 6686SOL    HW231692   3.686   0.704   7.974  4.8299 -0.6468  1.0721
 6687SOL     OW31693   0.658   0.365  14.999  0.0425  0.3301 -0.1279
 6687SOL    HW131694   0.579   0.415  15.017 -0.8571 -1.3321  0.5267
 6687SOL    HW231695   0.726   0.419  15.038  1.0289 -1.3962  0.5636
 6688SOL     OW31696   2.567   4.273   6.351  0.1106  0.2055 -0.0176
 6688SOL    HW131697   2.557   4.351   6.405 -0.7287 -1.5267  2.3340
 6688SOL    HW231698   2.476   4.243   6.359  0.3037 -0.0510  1.1921
 6689SOL     OW31699   2.060   0.301   1.966  0.5890 -0.2306 -0.1682
 6689SOL    HW131700   2.059   0.258   1.880  0.3131 -0.0369 -0.2612
 6689SOL    HW231701   1.975   0.345   1.971  2.4492  4.0837 -5.7937
 6690SOL     OW31702   2.200   1.185  13.651 -0.1322  0.2906 -0.5925
 6690SOL    HW131703   2.195   1.138  13.734  1.1054  1.9413  0.4349
 6690SOL    HW231704   2.291   1.166  13.628 -0.1254  1.0173 -1.1670
 6691SOL     OW31705   0.601   3.992  10.070 -0.1109  0.3403 -0.4726
 6691SOL    HW131706   0.597   3.896  10.073  0.2435  0.3807  1.3992
 6691SOL    HW231707   0.596   4.002   9.975  1.4033  0.4494 -0.5429
 6692SOL     OW31708   2.319   3.379   4.631 -0.4279 -0.1880  0.5797
 6692SOL    HW131709   2.304   3.291   4.596 -0.1470  0.0523 -0.1285
 6692SOL    HW231710   2.394   3.405   4.578 -0.8793  1.7340  0.8693
 6693SOL     OW31711   1.775   1.067   7.621  0.2280  0.4306  0.1928
 6693SOL    HW131712   1.856   1.118   7.618  0.0161  0.7667  0.0848
 6693SOL    HW231713   1.771   1.032   7.710  1.5461 -0.5133 -0.1173
 6694SOL     OW31714   4.303   3.081  10.043  0.0734  0.0577  0.6587
 6694SOL    HW131715   4.245   3.034  10.104 -0.7197  1.2269  0.8075
 6694SOL    HW231716   4.291   3.172  10.071  1.8183  0.8276 -1.1452
 6695SOL     OW31717   2.476   2.090   9.891  0.0853  0.1052 -0.3282
 6695SOL    HW131718   2.557   2.040   9.885  0.3921  0.4330  1.0546
 6695SOL    HW231719   2.467   2.114   9.799  3.3559  0.2231 -0.6430
 6696SOL     OW31720   0.835   1.588   0.988 -0.1726  0.4769 -0.2157
 6696SOL    HW131721   0.762   1.545   1.033 -0.0598 -0.7833 -1.2263
 6696SOL    HW231722   0.796   1.673   0.970 -0.7256  0.3485  0.3731
 6697SOL     OW31723   1.712   0.039   4.975 -0.3426  0.2831  0.0140
 6697SOL    HW131724   1.724   0.130   5.003 -1.3382 -0.1275  1.7347
 6697SOL    HW231725   1.626   0.017   5.012 -0.1276  0.3996  0.5707
 6698SOL     OW31726   4.473   3.234   4.015  0.5243  0.3966 -0.6107
 6698SOL    HW131727   4.387   3.211   4.049  0.7134  0.2892 -0.2038
 6698SOL    HW231728   4.443   3.292   3.945 -2.5796  0.0313  0.4369
 6699SOL     OW31729   1.800   3.648   6.124  0.2543  0.6177 -0.1273
 6699SOL    HW131730   1.892   3.624   6.124  0.0139 -0.2800 -0.2821
 6699SOL    HW231731   1.763   3.564   6.149 -2.2210  2.2588  1.8050
 6700SOL     OW31732   0.523   4.716   5.753 -0.2118  0.6464  0.5033
 6700SOL    HW131733   0.518   4.642   5.692  2.2504  0.7827  0.1159
 6700SOL    HW231734   0.432   0.005   5.744 -0.8152 -1.5902  0.0667
 6701SOL     OW31735   3.860   3.299  15.331  0.1256  0.4619 -0.0918
 6701SOL    HW131736   3.862   3.244  15.252  1.9357 -3.0446  2.4170
 6701SOL    HW231737   3.880   3.245  15.407 -0.6588  1.7606  1.0374
 6702SOL     OW31738   1.791   4.359   4.879 -0.4365 -0.0385 -0.6857
 6702SOL    HW131739   1.780   4.266   4.860  1.5799 -0.9358  2.5538
 6702SOL    HW231740   1.697   4.381   4.878 -0.4264  0.0002 -0.7770
 6703SOL     OW31741   0.837   2.811   8.087  0.1308 -0.2527  0.4232
 6703SOL    HW131742   0.875   2.898   8.076 -0.2351 -0.0876  0.4547
 6703SOL    HW231743   0.854   2.775   8.000  1.9228 -0.9386  1.0504
 6704SOL     OW31744   1.754   4.614   4.391  0.3886  0.0008  0.0932
 6704SOL    HW131745   1.676   4.558   4.388 -0.3891  1.0636  0.6884
 6704SOL    HW231746   1.804   4.572   4.461 -1.5433  1.2624  2.2228
 6705SOL     OW31747   3.128   2.786   7.220  0.4098  0.0268 -0.4222
 6705SOL    HW131748   3.057   2.849   7.212 -2.9163 -3.7583 -0.4031
 6705SOL    HW231749   3.082   2.704   7.241 -0.6749  0.5751 -0.7112
 6706SOL     OW31750   1.346   3.438   4.846  0.1511  0.0960  1.0269
 6706SOL    HW131751   1.390   3.365   4.890  0.3614 -0.0068  0.6410
 6706SOL    HW231752   1.276   3.454   4.909 -0.6067  1.6554 -0.2189
 6707SOL     OW31753   2.634   1.422  13.984 -0.6395 -0.1786 -0.9428
 6707SOL    HW131754   2.604   1.333  13.999 -3.0686  0.6646 -0.8838
 6707SOL    HW231755   2.608   1.445  13.894 -2.1583  1.1482 -0.1616
 6708SOL     OW31756   3.564   1.004  11.071 -0.4236  0.0759  0.4719
 6708SOL    HW131757   3.474   1.008  11.104 -0.5187  1.0113  0.0974
 6708SOL    HW231758   3.559   0.927  11.015  1.2861  1.3945 -1.5279
 6709SOL     OW31759   4.154   3.436  12.152 -0.2787  0.5868 -0.5044
 6709SOL    HW131760   4.059   3.446  12.152 -0.2569  0.7526 -2.2277
 6709SOL    HW231761   4.189   3.492  12.221  0.3337 -0.0760 -0.2669
 6710SOL     OW31762   4.280   0.002   8.968  0.3364 -1.2815  0.7942
 6710SOL    HW131763   4.257   4.678   9.038 -0.1904 -0.7543  1.0783
 6710SOL    HW231764   4.314   0.084   9.005  0.0468 -0.0414 -1.7094
 6711SOL     OW31765   1.493   1.014   6.937 -0.2841  0.2925 -0.1080
 6711SOL    HW131766   1.409   1.056   6.918 -1.3173 -1.4847  0.4236
 6711SOL    HW231767   1.552   1.078   6.900 -0.7280 -0.0844 -1.4753
 6712SOL     OW31768   1.893   4.106   3.363 -0.5152  0.1739  0.0862
 6712SOL    HW131769   1.890   4.011   3.375  0.4375  0.2592  0.9608
 6712SOL    HW231770   1.926   4.113   3.274  1.0484 -1.5890  0.5286
 6713SOL     OW31771   1.258   1.154   9.500 -0.5519 -0.0125  0.0845
 6713SOL    HW131772   1.167   1.171   9.476 -1.2337 -0.9201  2.0079
 6713SOL    HW231773   1.259   1.060   9.480  0.7970  0.1452 -0.5895
 6714SOL     OW31774   3.040   2.537   2.287  0.5390 -0.0998  0.3802
 6714SOL    HW131775   3.017   2.560   2.197  1.4993 -1.4764 -0.2184
 6714SOL    HW231776   2.961   2.493   2.317 -0.3867 -0.5804 -2.7112
 6715SOL     OW31777   1.838   3.560   1.198 -0.2543 -0.1619 -0.0248
 6715SOL    HW131778   1.806   3.621   1.132  1.3433  1.1898  0.4558
 6715SOL    HW231779   1.932   3.567   1.183 -0.5544  2.0804 -0.8028
 6716SOL     OW31780   3.206   4.489   1.780 -0.0104  0.1286 -0.0828
 6716SOL    HW131781   3.264   4.538   1.838  1.7423  0.2404 -1.9650
 6716SOL    HW231782   3.236   4.531   1.699 -0.8046 -0.1429 -0.5229
 6717SOL     OW31783   2.707   2.132  10.216  0.3004 -0.3012 -0.1964
 6717SOL    HW131784   2.725   2.162  10.127  0.4294  0.3391  0.0522
 6717SOL    HW231785   2.612   2.141  10.230 -0.4474 -1.0131 -4.8684
 6718SOL     OW31786   2.027   1.566   5.346 -0.0142  0.6198 -0.4428
 6718SOL    HW131787   2.008   1.515   5.425  0.0482  0.4727 -0.5234
 6718SOL    HW231788   2.063   1.643   5.390  0.0139 -0.4681  1.4041
 6719SOL     OW31789   2.728   2.908   8.910 -0.7588  0.2113  0.3919
 6719SOL    HW131790   2.675   2.830   8.927  0.5593 -0.6581  0.4970
 6719SOL    HW231791   2.770   2.921   8.995  0.0595  0.4228 -0.0461
 6720SOL     OW31792   3.797   3.108   7.132  0.4460 -1.2932  0.2759
 6720SOL    HW131793   3.761   3.087   7.045 -0.6863 -1.5930  0.8136
 6720SOL    HW231794   3.805   3.203   7.121 -0.0178 -1.0369  2.1420
 6721SOL     OW31795   3.511   1.676   8.723 -0.5929  0.2398  0.2952
 6721SOL    HW131796   3.418   1.657   8.735 -0.7534 -0.0760 -1.5085
 6721SOL    HW231797   3.550   1.597   8.761  0.6446  0.8224  0.2212
 6722SOL     OW31798   3.835   4.176  14.409 -0.0427 -0.2247  0.3258
 6722SOL    HW131799   3.823   4.225  14.490 -1.0704  1.6977 -0.9966
 6722SOL    HW231800   3.809   4.244  14.348 -0.7099  0.5499  1.4731
 6723SOL     OW31801   0.459   1.819   3.568 -0.2896 -0.3045 -0.1979
 6723SOL    HW131802   0.463   1.915   3.568  2.5019 -0.4362  0.0167
 6723SOL    HW231803   0.378   1.808   3.618  0.1422 -3.5414 -0.2249
 6724SOL     OW31804   2.090   1.906   5.720 -0.2332  0.1171  0.3781
 6724SOL    HW131805   2.028   1.975   5.742  0.1817  0.5233  0.2753
 6724SOL    HW231806   2.052   1.831   5.766  0.5396 -0.2211  0.4584
 6725SOL     OW31807   1.177   0.105   6.159  0.6275  0.2122  0.0047
 6725SOL    HW131808   1.117   0.171   6.125  1.4270  0.8721 -0.1237
 6725SOL    HW231809   1.154   0.031   6.103 -0.9999  1.2401 -0.6927
 6726SOL     OW31810   2.795   0.933   3.538  0.7403 -0.1217  0.5381
 6726SOL    HW131811   2.731   0.870   3.572 -1.2250  1.3967 -0.3453
 6726SOL    HW231812   2.769   0.930   3.446 -0.9550  2.4082  0.9209
 6727SOL     OW31813   0.423   3.460   7.800  0.5041  0.0323 -0.8290
 6727SOL    HW131814   0.343   3.435   7.846 -0.0690  2.2390 -0.6350
 6727SOL    HW231815   0.487   3.446   7.870  2.2576  1.9538 -2.0299
 6728SOL     OW31816   3.196   3.180  11.973 -0.0690 -0.1871  0.6507
 6728SOL    HW131817   3.136   3.246  12.010  1.8191  3.3490 -2.7112
 6728SOL    HW231818   3.198   3.109  12.037  0.2174 -0.0288  0.8173
 6729SOL     OW31819   2.512   0.747  10.219  0.2048  0.4709 -0.9668
 6729SOL    HW131820   2.566   0.698  10.281  0.7265  1.1313 -0.8903
 6729SOL    HW231821   2.461   0.797  10.282 -0.3444  1.9664 -2.5818
 6730SOL     OW31822   1.083   1.271   7.686 -0.0960 -0.0465  0.0854
 6730SOL    HW131823   1.160   1.220   7.712 -1.4834 -1.9787  0.4216
 6730SOL    HW231824   1.099   1.343   7.748 -0.0488 -0.5498  0.6637
 6731SOL     OW31825   4.200   3.489   2.847 -0.0706 -0.1587 -0.6224
 6731SOL    HW131826   4.263   3.433   2.802  0.8145  0.1840  0.1986
 6731SOL    HW231827   4.169   3.544   2.775  2.7012  2.9429  0.5667
 6732SOL     OW31828   1.283   0.504   7.991 -0.3337  0.3046 -0.3271
 6732SOL    HW131829   1.319   0.422   7.958 -1.1277  0.6626 -2.0754
 6732SOL    HW231830   1.309   0.563   7.921 -0.8340 -1.0765 -1.6799
 6733SOL     OW31831   0.434   1.020   7.829 -0.2402 -0.1531  0.3003
 6733SOL    HW131832   0.369   1.006   7.897 -1.5881  0.7800 -0.7957
 6733SOL    HW231833   0.491   0.946   7.849  0.1942  0.4980  1.4782
 6734SOL     OW31834   4.729   4.408   7.291 -0.1496 -0.2542 -0.7517
 6734SOL    HW131835   4.669   4.475   7.322  0.1860 -0.6843  0.8011
 6734SOL    HW231836   0.075   4.454   7.288 -0.2397 -0.1535 -2.0612
 6735SOL     OW31837   4.585   3.926   4.631  0.0818  0.2480  0.2383
 6735SOL    HW131838   4.663   3.895   4.678  0.0685 -0.8508 -0.4537
 6735SOL    HW231839   4.577   4.011   4.674  0.2165  2.0246 -3.2226
 6736SOL     OW31840   4.446   3.955  17.285 -0.5078  0.3654  0.0715
 6736SOL    HW131841   4.423   3.958  17.192 -0.6702  0.5204  0.1148
 6736SOL    HW231842   4.519   4.016  17.298 -0.3007  0.4412 -1.5062
 6737SOL     OW31843   1.356   3.364   7.351  0.5421 -0.2824 -0.0046
 6737SOL    HW131844   1.442   3.394   7.324  0.4526  2.4575  2.8006
 6737SOL    HW231845   1.373   3.271   7.366 -1.6278 -0.7886 -0.6612
 6738SOL     OW31846   0.535   3.935   5.513 -0.5125 -0.1491  0.1581
 6738SOL    HW131847   0.616   3.937   5.462  0.7506 -0.5547  2.1420
 6738SOL    HW231848   0.552   4.010   5.570  0.2042 -0.6138  0.5593
 6739SOL     OW31849   3.255   2.157  13.968  0.2664  0.2650  0.1636
 6739SOL    HW131850   3.220   2.242  13.944 -1.2110 -0.4005 -0.0590
 6739SOL    HW231851   3.212   2.127  14.049 -0.3118  0.7953  0.0521
 6740SOL     OW31852   3.956   2.254   6.088 -0.6067 -0.0995  0.4231
 6740SOL    HW131853   3.916   2.168   6.077 -1.3562  0.3759 -0.5930
 6740SOL    HW231854   3.983   2.257   6.180  4.5430  1.1733 -1.1003
 6741SOL     OW31855   4.260   4.688   6.562  0.4523 -0.0240 -0.1043
 6741SOL    HW131856   4.221   4.614   6.516  1.0815 -1.4061  1.5613
 6741SOL    HW231857   4.192   0.018   6.555 -1.2441 -1.6018  1.1716
 6742SOL     OW31858   1.380   3.654   4.008 -0.2409  0.2116 -0.0195
 6742SOL    HW131859   1.440   3.636   3.936 -1.6048 -2.0124 -0.6033
 6742SOL    HW231860   1.419   3.734   4.044 -0.4698 -0.6376  2.1597
 6743SOL     OW31861   2.407   3.019   5.643 -1.0471 -0.2737 -0.3117
 6743SOL    HW131862   2.422   2.984   5.731 -1.6667 -1.1267 -0.5396
 6743SOL    HW231863   2.350   3.094   5.659  0.1362  0.4920  0.3667
 6744SOL     OW31864   0.065   2.304   6.758 -0.2333  0.3535  0.9125
 6744SOL    HW131865   4.730   2.361   6.734 -1.0466 -0.0792  2.3190
 6744SOL    HW231866   0.094   2.357   6.832  1.4456 -1.6770  1.7044
 6745SOL     OW31867   0.279   2.036   8.966 -0.1894  0.2606 -0.1269
 6745SOL    HW131868   0.307   2.122   8.936  0.7532 -0.2570 -0.7665
 6745SOL    HW231869   0.235   2.056   9.049 -0.1977 -2.0129  0.4296
 6746SOL     OW31870   2.039   3.386   8.196  0.2314 -0.2549  0.6433
 6746SOL    HW131871   2.132   3.381   8.216  0.4473  0.6507 -0.1063
 6746SOL    HW231872   2.006   3.310   8.244  3.4175 -2.2245 -0.2606
 6747SOL     OW31873   3.394   2.160   6.201 -0.0523 -0.5040  0.4795
 6747SOL    HW131874   3.331   2.142   6.131  0.5966 -0.9059 -0.0027
 6747SOL    HW231875   3.446   2.232   6.163 -0.1392 -0.7653 -0.1453
 6748SOL     OW31876   2.340   0.390  11.952 -0.5652 -0.4226  0.2506
 6748SOL    HW131877   2.406   0.368  12.019  0.1154 -2.0094 -0.9447
 6748SOL    HW231878   2.295   0.307  11.940 -1.1830  0.0093 -0.4416
 6749SOL     OW31879   2.475   1.089   3.407  0.0646 -0.4460 -0.1023
 6749SOL    HW131880   2.436   1.120   3.326 -1.4533  1.1454  1.2250
 6749SOL    HW231881   2.521   1.011   3.376  1.3980 -0.4564  1.8750
 6750SOL     OW31882   0.601   4.134   5.684  0.1333 -0.3710 -0.2082
 6750SOL    HW131883   0.690   4.115   5.716  0.1126  3.0889  1.8689
 6750SOL    HW231884   0.550   4.132   5.764  2.2300 -0.8431  1.1345
 6751SOL     OW31885   3.612   2.791   4.747 -0.6715  0.3579 -0.2212
 6751SOL    HW131886   3.541   2.744   4.702  1.5654 -1.6128 -1.6598
 6751SOL    HW231887   3.680   2.730   4.720  0.0741  0.2490  1.8761
 6752SOL     OW31888   1.555   2.238   1.815  0.1395  0.0657  0.5171
 6752SOL    HW131889   1.621   2.307   1.826  0.7545 -0.7629  2.0062
 6752SOL    HW231890   1.483   2.291   1.781 -0.5477 -2.3866 -1.8504
 6753SOL     OW31891   3.843   3.498   6.119  0.6462 -0.3363  0.1024
 6753SOL    HW131892   3.881   3.496   6.031 -1.4098  2.3413 -0.8697
 6753SOL    HW231893   3.757   3.535   6.098  0.6440 -0.5913 -0.3354
 6754SOL     OW31894   1.811   3.376  10.445  0.6241  0.2572 -0.0892
 6754SOL    HW131895   1.831   3.460  10.486 -0.1063  0.4770 -0.1841
 6754SOL    HW231896   1.897   3.334  10.450  1.5929  1.9559 -2.1397
 6755SOL     OW31897   3.493   4.003   9.021  0.0700 -0.0813 -0.0241
 6755SOL    HW131898   3.538   3.927   8.984 -0.0079 -0.9569  1.6576
 6755SOL    HW231899   3.513   3.983   9.113 -0.4447  1.0799  0.3353
 6756SOL     OW31900   4.430   3.044   7.018 -0.0764  0.5651 -0.5312
 6756SOL    HW131901   4.337   3.066   7.015 -0.5071 -1.1628 -0.1083
 6756SOL    HW231902   4.451   3.049   7.111 -0.6313 -0.7612 -0.3316
 6757SOL     OW31903   0.516   3.422   1.843  0.4320 -0.2614  0.0456
 6757SOL    HW131904   0.557   3.381   1.768 -0.2292 -1.4262  0.3161
 6757SOL    HW231905   0.533   3.358   1.912  1.5946 -1.3270 -1.2383
 6758SOL     OW31906   4.625   0.665  10.957  0.2724  0.8796  0.3947
 6758SOL    HW131907   4.595   0.602  11.022 -0.4986  0.9522  0.1095
 6758SOL    HW231908   4.699   0.706  11.001  1.5539  1.3071 -2.1222
 6759SOL     OW31909   1.538   4.619   5.987  0.2166  0.0528  0.0039
 6759SOL    HW131910   1.516   4.553   6.053 -0.1749  1.6658  1.4680
 6759SOL    HW231911   1.597   4.575   5.926  1.7383 -1.4322  2.5280
 6760SOL     OW31912   4.135   1.814   2.780  0.0321 -0.1212  0.4137
 6760SOL    HW131913   4.184   1.896   2.779 -1.0074  0.4959 -0.1646
 6760SOL    HW231914   4.105   1.813   2.689 -1.3859  0.3384  0.8754
 6761SOL     OW31915   1.959   4.001   2.491  0.2179  0.0362 -0.7020
 6761SOL    HW131916   1.959   4.066   2.561  1.8787  1.6613 -2.2235
 6761SOL    HW231917   2.002   3.929   2.538  2.2127  0.7751 -1.4413
 6762SOL     OW31918   1.972   3.899   0.617  0.4711 -0.7151 -0.0840
 6762SOL    HW131919   1.914   3.975   0.627 -0.3846 -1.4242  0.4016
 6762SOL    HW231920   1.927   3.830   0.666 -1.3546 -1.3215 -2.6208
 6763SOL     OW31921   1.863   2.273   6.453 -0.2973 -0.2413 -0.7415
 6763SOL    HW131922   1.912   2.220   6.390 -0.8224  0.9402 -2.1311
 6763SOL    HW231923   1.896   2.233   6.534  0.6188  0.2169 -0.8945
 6764SOL     OW31924   3.650   4.001  13.960 -0.1815  0.3555 -1.0233
 6764SOL    HW131925   3.735   4.003  14.002 -0.5237  0.8543 -0.3660
 6764SOL    HW231926   3.591   4.039  14.025 -0.6970 -1.6317 -0.3257
 6765SOL     OW31927   0.797   3.427   7.801  0.6400 -0.2316  0.7061
 6765SOL    HW131928   0.886   3.408   7.773  1.0570  1.4999  0.9218
 6765SOL    HW231929   0.755   3.341   7.810 -0.3016  0.1762  0.2457
 6766SOL     OW31930   2.185   3.743   5.842  0.6513 -0.1566 -0.1774
 6766SOL    HW131931   2.169   3.673   5.779  0.2552 -2.4394  2.4200
 6766SOL    HW231932   2.109   3.799   5.826  0.1481 -0.3253  1.6142
 6767SOL     OW31933   0.739   0.058  14.218  0.0776 -0.3751 -0.2178
 6767SOL    HW131934   0.734   4.700  14.214  0.0875 -0.4221  0.8020
 6767SOL    HW231935   0.667   0.083  14.160  1.1814  0.5423 -1.1872
 6768SOL     OW31936   4.177   2.504   4.026 -0.2216  0.3827  0.6061
 6768SOL    HW131937   4.091   2.548   4.030 -2.1408 -3.3695  0.5309
 6768SOL    HW231938   4.208   2.539   3.942 -2.7488  0.8142 -0.1518
 6769SOL     OW31939   0.140   2.259   0.599 -0.0569 -0.0383 -0.1785
 6769SOL    HW131940   0.132   2.347   0.634  0.0778  0.5182 -1.5650
 6769SOL    HW231941   0.069   2.259   0.535 -1.0593  0.1884  0.9479
 6770SOL     OW31942   0.173   3.483   7.082  0.0282  0.1051 -0.3894
 6770SOL    HW131943   0.182   3.574   7.110 -1.8433 -0.0689  0.7867
 6770SOL    HW231944   0.183   3.494   6.987 -2.3568 -1.3405 -0.8190
 6771SOL     OW31945   2.785   2.371   7.144  0.4942  0.3866 -0.2119
 6771SOL    HW131946   2.725   2.417   7.085  2.3083  1.8332 -0.8906
 6771SOL    HW231947   2.825   2.311   7.081 -0.5945  0.4541 -0.9816
 6772SOL     OW31948   1.043   3.562   6.066  0.4439 -0.4349 -0.0768
 6772SOL    HW131949   0.962   3.551   6.115 -0.0264  0.6067 -0.6067
 6772SOL    HW231950   1.097   3.492   6.103  0.9621 -0.6760 -1.2894
 6773SOL     OW31951   2.045   1.223   7.342  0.3190  0.2655  0.5965
 6773SOL    HW131952   2.057   1.256   7.253 -2.3611  1.5482  0.7148
 6773SOL    HW231953   2.114   1.263   7.395 -1.1558  1.3779  1.6801
 6774SOL     OW31954   4.204   0.787   8.271 -0.5897  0.1223 -0.0939
 6774SOL    HW131955   4.284   0.799   8.323  0.3011 -1.9305 -1.0018
 6774SOL    HW231956   4.170   0.870   8.238 -1.0522 -0.3277 -0.7383
 6775SOL     OW31957   2.546   0.562   8.198  0.2701  0.3219  0.1376
 6775SOL    HW131958   2.585   0.648   8.183 -0.2329  0.5619  0.2229
 6775SOL    HW231959   2.532   0.556   8.292  0.5069  0.2355  0.1665
 6776SOL     OW31960   1.750   1.325  12.940 -0.0216  0.0920 -0.0764
 6776SOL    HW131961   1.665   1.334  12.983 -0.3397 -0.8835 -0.5123
 6776SOL    HW231962   1.728   1.308  12.849  1.5055  1.6505 -0.7402
 6777SOL     OW31963   2.097   1.038   8.691  0.1778 -0.3121 -0.2655
 6777SOL    HW131964   2.090   1.004   8.780  1.1129 -1.7298 -0.7198
 6777SOL    HW231965   2.067   1.125   8.715  0.4360  0.4505 -2.6381
 6778SOL     OW31966   0.081   0.835  11.554  0.0030 -0.6557 -0.3914
 6778SOL    HW131967   0.095   0.849  11.648  1.4355 -0.2030 -0.6687
 6778SOL    HW231968   0.013   0.768  11.556  1.9841 -2.6866 -1.1696
 6779SOL     OW31969   0.517   0.270   4.736 -1.3531 -0.5067  0.3136
 6779SOL    HW131970   0.486   0.194   4.686 -0.5505 -0.8377  0.3090
 6779SOL    HW231971   0.460   0.260   4.812 -0.6120 -0.0693  0.9316
 6780SOL     OW31972   4.105   3.631   2.662  0.5129 -0.5728 -0.5690
 6780SOL    HW131973   4.096   3.604   2.571  0.5688 -0.9232 -0.4713
 6780SOL    HW231974   4.116   3.725   2.651 -0.4495 -0.3286  0.5426
 6781SOL     OW31975   4.406   4.566   2.805 -0.0263  0.5915  0.4681
 6781SOL    HW131976   4.457   4.570   2.724 -0.4099  1.4285  0.2686
 6781SOL    HW231977   4.398   4.659   2.823  2.5963  0.2158  3.5681
 6782SOL     OW31978   4.325   0.454   9.256  0.5236  0.4536 -0.0954
 6782SOL    HW131979   4.330   0.546   9.231  2.0312  0.1548 -0.8912
 6782SOL    HW231980   4.388   0.443   9.327  2.1345 -0.2608 -1.6168
 6783SOL     OW31981   3.146   3.316   6.452 -0.5459 -0.1914  0.1948
 6783SOL    HW131982   3.222   3.351   6.405 -0.4922 -0.7297 -0.1202
 6783SOL    HW231983   3.175   3.228   6.475 -0.5362 -0.5005 -0.9903
 6784SOL     OW31984   1.143   3.958   1.489 -0.5195 -0.0322  0.2733
 6784SOL    HW131985   1.145   4.024   1.419  2.8589  0.5851  0.9698
 6784SOL    HW231986   1.233   3.955   1.522 -0.6537  0.5342  0.6934
 6785SOL     OW31987   2.200   2.730   1.367  0.6188 -0.1639  0.2328
 6785SOL    HW131988   2.217   2.824   1.361  1.0972 -0.3021 -0.6346
 6785SOL    HW231989   2.211   2.706   1.459  0.4991  0.5916  0.4397
 6786SOL     OW31990   3.467   0.109  11.627  0.5312 -0.3995  0.0677
 6786SOL    HW131991   3.445   0.202  11.616  3.1829  0.0923 -0.9755
 6786SOL    HW231992   3.525   0.086  11.555  0.6316 -0.8253  0.2861
 6787SOL     OW31993   1.027   2.640   3.284 -0.6055 -0.3235 -0.3527
 6787SOL    HW131994   1.061   2.574   3.345  0.4023  0.2238 -0.3187
 6787SOL    HW231995   1.066   2.601   3.206 -0.2227 -0.5849 -0.0304
 6788SOL     OW31996   0.062   0.681   1.899  0.1055 -0.6083  0.1837
 6788SOL    HW131997   0.126   0.657   1.966 -1.5663 -0.0420  2.0050
 6788SOL    HW231998   0.061   0.777   1.905 -0.9285 -0.4934 -1.9348
 6789SOL     OW31999   2.710   1.750  12.791 -0.1045 -0.0581 -0.2745
 6789SOL    HW132000   2.747   1.831  12.827  0.9708  0.2864 -2.1605
 6789SOL    HW232001   2.657   1.786  12.721  0.3950 -0.4598 -0.8569
 6790SOL     OW32002   3.606   1.843   3.175 -0.0556 -0.5234 -0.0959
 6790SOL    HW132003   3.595   1.795   3.093  0.6885 -1.8235  0.5712
 6790SOL    HW232004   3.699   1.861   3.169  0.3385 -1.6617  2.6773
 6791SOL     OW32005   0.567   1.080   8.502 -0.3271 -0.3865  0.3857
 6791SOL    HW132006   0.480   1.079   8.461 -0.1254 -2.9441  0.0467
 6791SOL    HW232007   0.612   1.032   8.433 -0.3354  1.6811 -1.0439
 6792SOL     OW32008   0.326   3.607   4.835  0.1578  0.3678 -0.3993
 6792SOL    HW132009   0.367   3.565   4.911  1.0662 -0.2873 -1.2396
 6792SOL    HW232010   0.318   3.529   4.780 -0.3181  0.2941 -0.2179
 6793SOL     OW32011   1.932   3.721   2.969 -0.2810  0.3898  0.1351
 6793SOL    HW132012   2.006   3.770   2.934 -2.4689  3.8766  0.3748
 6793SOL    HW232013   1.928   3.643   2.913  1.0601  0.7193 -0.4187
 6794SOL     OW32014   1.134   4.273  16.801 -0.3258 -0.1662  0.3458
 6794SOL    HW132015   1.221   4.240  16.780 -0.0309  1.4586 -0.9369
 6794SOL    HW232016   1.084   4.225  16.734  0.0030  1.1378 -0.8384
 6795SOL     OW32017   2.438   2.513   5.065  0.7865 -0.0428  0.4228
 6795SOL    HW132018   2.369   2.548   5.009 -0.1027 -0.1477  1.4707
 6795SOL    HW232019   2.494   2.485   4.992 -0.4281 -2.6716  0.4800
 6796SOL     OW32020   0.492   3.422   5.575 -0.0352 -0.2252  0.0639
 6796SOL    HW132021   0.477   3.365   5.650  0.6461  0.2521  0.5645
 6796SOL    HW232022   0.573   3.454   5.616  0.2672  1.1954 -1.6592
 6797SOL     OW32023   4.550   4.326   0.054 -0.4767  0.2334  0.2051
 6797SOL    HW132024   4.497   4.392   0.099  2.4991  1.7729  1.4038
 6797SOL    HW232025   4.509   4.241   0.071  1.6049 -0.3925  2.0946
 6798SOL     OW32026   1.025   0.517   3.101  0.1699 -0.5878 -0.1144
 6798SOL    HW132027   0.982   0.434   3.083 -2.0735  0.4297  0.6097
 6798SOL    HW232028   1.032   0.504   3.196  1.3736  0.3852 -0.0632
 6799SOL     OW32029   3.925   1.745   7.391  0.1615  0.2777 -0.5962
 6799SOL    HW132030   3.890   1.828   7.424  1.1153  1.0095 -1.4162
 6799SOL    HW232031   3.933   1.693   7.471 -0.7324 -0.1514 -0.7860
 6800SOL     OW32032   1.326   0.785   0.889 -0.2142  0.5791  0.0044
 6800SOL    HW132033   1.245   0.824   0.925 -1.9384 -2.6715 -0.3611
 6800SOL    HW232034   1.388   0.778   0.962 -1.7343 -0.0674  1.2575
 6801SOL     OW32035   4.469   1.206   5.164 -0.6664  0.4319  0.2045
 6801SOL    HW132036   4.447   1.232   5.074 -0.2968 -1.6039 -0.4791
 6801SOL    HW232037   4.564   1.206   5.150 -0.6609  0.0713  0.2409
 6802SOL     OW32038   0.457   3.447  15.984  0.0028 -0.3200  0.5270
 6802SOL    HW132039   0.451   3.435  16.078  0.0819 -0.7688  0.4732
 6802SOL    HW232040   0.496   3.534  15.981  2.0720 -1.2709 -0.3602
 6803SOL     OW32041   0.018   0.333   3.152  0.1220 -0.5622 -0.9880
 6803SOL    HW132042   0.112   0.343   3.141  0.2099  0.1445  0.3639
 6803SOL    HW232043   4.715   0.335   3.066  0.0444 -1.7568 -0.9834
 6804SOL     OW32044   2.159   3.584   4.580 -0.0430 -0.3253 -0.3180
 6804SOL    HW132045   2.184   3.593   4.488  0.4410 -0.5330 -0.2063
 6804SOL    HW232046   2.218   3.513   4.605  1.9125  1.8610  1.2974
 6805SOL     OW32047   2.833   2.569   7.505  0.5819  0.0673  0.0564
 6805SOL    HW132048   2.904   2.513   7.537  0.2216  0.8081  2.2070
 6805SOL    HW232049   2.857   2.571   7.412  1.4193 -3.3345  0.2216
 6806SOL     OW32050   0.613   0.056  12.445 -0.2049  0.0490 -0.4432
 6806SOL    HW132051   0.635   4.734  12.517 -0.3831  0.8468  0.2565
 6806SOL    HW232052   0.670   0.130  12.464  1.0390 -1.3199  1.1125
 6807SOL     OW32053   2.086   4.401   3.047  0.2635  0.1387 -0.6644
 6807SOL    HW132054   2.107   4.443   3.130  0.3504  0.3396 -0.7871
 6807SOL    HW232055   2.175   4.376   3.023  0.3633 -0.4166  0.2816
 6808SOL     OW32056   0.737   3.998   4.246 -0.0099 -0.3097  0.2077
 6808SOL    HW132057   0.704   4.041   4.325  1.9267 -1.7461  1.7886
 6808SOL    HW232058   0.818   4.049   4.238  0.2439 -0.4758  1.7059
 6809SOL     OW32059   0.231   4.117   6.051  0.1178  0.0322  0.3643
 6809SOL    HW132060   0.249   4.029   6.084 -0.5379 -0.3074 -0.1897
 6809SOL    HW232061   0.177   4.158   6.118 -0.8191  0.7128 -0.8193
 6810SOL     OW32062   1.144   4.615  12.965  0.4293 -0.1483 -0.8056
 6810SOL    HW132063   1.124   4.581  12.878 -1.6881 -0.5763 -0.1593
 6810SOL    HW232064   1.069   4.675  12.967  0.6989  0.1662 -0.2029
 6811SOL     OW32065   4.346   1.898   8.060 -0.1422  0.2417 -0.6021
 6811SOL    HW132066   4.330   1.885   8.153  0.4640  0.3259 -0.4892
 6811SOL    HW232067   4.383   1.821   8.016 -3.3156 -0.2907 -2.3387
 6812SOL     OW32068   1.236   1.064   2.131 -0.7146  0.1689 -0.2528
 6812SOL    HW132069   1.308   1.109   2.087  1.3478 -2.0074  0.9002
 6812SOL    HW232070   1.165   1.110   2.085 -0.4225 -0.2810 -1.1701
 6813SOL     OW32071   3.349   3.181  17.715  0.0861  0.0040  0.2232
 6813SOL    HW132072   3.364   3.261   0.017  0.2931 -1.8978  3.1728
 6813SOL    HW232073   3.253   3.176  17.708  0.0186  0.4367  0.8120
 6814SOL     OW32074   2.639   0.403   2.960 -0.6570  0.2004 -0.4279
 6814SOL    HW132075   2.644   0.308   2.963 -0.8114  0.1844 -0.6689
 6814SOL    HW232076   2.691   0.431   3.035  2.2999 -3.6204 -1.0485
 6815SOL     OW32077   1.487   2.760   8.406  0.1673 -0.1132 -0.0080
 6815SOL    HW132078   1.508   2.761   8.312 -1.0884  0.9096 -0.2757
 6815SOL    HW232079   1.461   2.849   8.430  2.3688  0.5191  0.0400
 6816SOL     OW32080   0.376   2.553   2.325  0.6606  0.6124  0.9733
 6816SOL    HW132081   0.319   2.534   2.400 -0.5607 -0.8635 -0.3551
 6816SOL    HW232082   0.461   2.573   2.365  1.1658  0.0271  0.1951
 6817SOL     OW32083   2.868   3.551   9.909  0.1114 -0.2482  0.2641
 6817SOL    HW132084   2.948   3.543   9.858  1.1888  1.1550  1.7408
 6817SOL    HW232085   2.863   3.643   9.934  0.4961  0.7503 -3.4064
 6818SOL     OW32086   1.732   0.662   6.719  0.7205  0.5772  0.6067
 6818SOL    HW132087   1.805   0.600   6.720  0.4399  0.1966 -3.4493
 6818SOL    HW232088   1.763   0.730   6.779  0.3419  0.7137  0.6507
 6819SOL     OW32089   0.261   1.645  14.058  0.2684  0.0535  0.1954
 6819SOL    HW132090   0.259   1.599  14.142  0.7183  2.4037  1.4964
 6819SOL    HW232091   0.220   1.584  13.998  1.4245  0.0344 -0.5822
 6820SOL     OW32092   3.374   1.892   1.993  0.0346  0.4470 -0.1096
 6820SOL    HW132093   3.296   1.937   2.024  0.1933  0.2862  0.5266
 6820SOL    HW232094   3.343   1.816   1.944 -1.4371  0.4634  0.8156
 6821SOL     OW32095   4.268   2.078   4.157 -0.3441 -0.0257  0.1403
 6821SOL    HW132096   4.258   1.999   4.210  1.9007  0.7180  1.6277
 6821SOL    HW232097   4.289   2.046   4.069  1.1155  0.1234  0.4399
 6822SOL     OW32098   0.818   1.536   5.965 -0.2533 -0.2965 -0.1806
 6822SOL    HW132099   0.804   1.442   5.954 -0.7935  0.0219 -2.3194
 6822SOL    HW232100   0.733   1.550   6.006  0.9515  0.6799  1.9390
 6823SOL     OW32101   0.525   2.579   6.684  0.0695  0.2788  0.0749
 6823SOL    HW132102   0.597   2.539   6.635 -0.3426  0.1390 -0.4200
 6823SOL    HW232103   0.542   2.562   6.776 -1.2829  1.4999  0.5566
 6824SOL     OW32104   0.141   0.894   8.170 -0.2882 -0.0165  0.5556
 6824SOL    HW132105   0.225   0.866   8.206 -1.0958  1.1815  3.3450
 6824SOL    HW232106   0.081   0.819   8.166 -2.1866  1.6153 -1.2285
 6825SOL     OW32107   0.365   2.769  13.945  0.1454  0.2433  0.0856
 6825SOL    HW132108   0.296   2.702  13.948 -0.3039  0.6203 -2.3577
 6825SOL    HW232109   0.413   2.739  13.868  0.7267 -0.0710  0.5708
 6826SOL     OW32110   1.158   1.884   5.914 -0.2414 -0.1590  0.1338
 6826SOL    HW132111   1.141   1.888   6.008  0.6781 -1.5867  0.3556
 6826SOL    HW232112   1.236   1.939   5.911 -1.6112  1.7506 -0.5661
 6827SOL     OW32113   1.215   0.439   6.309 -0.2908  0.1538  0.0309
 6827SOL    HW132114   1.215   0.359   6.361 -1.0045 -0.0774 -0.3330
 6827SOL    HW232115   1.304   0.472   6.323 -0.4893  0.9858 -0.6430
 6828SOL     OW32116   3.651   4.159   1.417 -0.4201 -0.1147 -0.1624
 6828SOL    HW132117   3.676   4.226   1.353 -0.8194  0.3068  0.1163
 6828SOL    HW232118   3.713   4.173   1.489 -0.6192  0.7159 -0.1429
 6829SOL     OW32119   1.275   4.022   1.174 -0.4560 -0.0935  0.1124
 6829SOL    HW132120   1.205   4.075   1.211 -1.1173 -1.7868  1.2760
 6829SOL    HW232121   1.335   4.022   1.249  1.1760  3.1573 -1.1789
 6830SOL     OW32122   3.862   1.988   1.425  0.0893 -0.1438 -0.3646
 6830SOL    HW132123   3.826   1.922   1.484 -0.0062 -0.7155 -1.0665
 6830SOL    HW232124   3.943   1.952   1.388  0.4721 -0.9440  1.2749
 6831SOL     OW32125   4.096   0.107  14.685 -0.0642  0.3296 -0.3342
 6831SOL    HW132126   4.132   0.115  14.773  1.8122 -3.0864 -0.7961
 6831SOL    HW232127   4.030   0.175  14.672 -0.2411  0.4819  1.4241
 6832SOL     OW32128   0.148   3.735   8.348 -0.8303  0.1730 -0.0547
 6832SOL    HW132129   0.129   3.828   8.358  2.2098  0.9255 -1.5324
 6832SOL    HW232130   0.064   3.690   8.359 -1.3149  1.9956  3.6774
 6833SOL     OW32131   1.730   3.758   2.414 -0.0399 -0.2204  0.4210
 6833SOL    HW132132   1.668   3.687   2.397 -0.7557 -0.3281  3.5372
 6833SOL    HW232133   1.787   3.722   2.482  1.7245  0.0111 -0.9281
 6834SOL     OW32134   3.726   2.081   9.992 -0.2702 -0.2194  0.3123
 6834SOL    HW132135   3.689   2.003  10.033  0.6590 -0.1220  1.3402
 6834SOL    HW232136   3.786   2.041   9.929  0.9614  0.4312  1.0660
 6835SOL     OW32137   3.337   1.865   4.568 -0.4219  0.1634  0.0375
 6835SOL    HW132138   3.392   1.943   4.569 -1.2478  0.7252  0.8648
 6835SOL    HW232139   3.293   1.882   4.485  1.2776  1.4205 -0.6057
 6836SOL     OW32140   4.666   1.213   3.650  0.1287 -0.1237  0.2790
 6836SOL    HW132141   4.577   1.245   3.635  0.1260 -0.6404 -0.7911
 6836SOL    HW232142   4.710   1.284   3.696 -2.0830  1.7942 -0.5678
 6837SOL     OW32143   1.277   2.163   7.243 -0.6514 -0.1781 -0.1114
 6837SOL    HW132144   1.291   2.213   7.163 -0.4606 -0.3597 -0.1895
 6837SOL    HW232145   1.224   2.092   7.206 -0.7119 -0.1682 -0.0437
 6838SOL     OW32146   0.402   3.273  16.971  0.1922  0.2553  0.2625
 6838SOL    HW132147   0.491   3.283  16.936  0.0044 -1.8470 -0.8306
 6838SOL    HW232148   0.357   3.285  16.888  0.3240 -0.3609  0.0987
 6839SOL     OW32149   4.452   0.113   7.669  0.1303  0.5860 -0.0590
 6839SOL    HW132150   4.380   0.130   7.729  0.7619  2.7319  0.1005
 6839SOL    HW232151   4.434   0.175   7.598  0.4629  0.8892  0.1186
 6840SOL     OW32152   2.011   2.822   7.610  0.4376  0.1760  0.1423
 6840SOL    HW132153   1.952   2.754   7.580  0.4887  0.1318  0.1417
 6840SOL    HW232154   2.066   2.758   7.656 -0.6964  0.2449  1.5807
 6841SOL     OW32155   4.249   1.531  10.574  0.7051 -0.7474  0.2543
 6841SOL    HW132156   4.254   1.612  10.625  0.2059 -0.6790  0.1907
 6841SOL    HW232157   4.340   1.501  10.578 -0.0474 -2.9145  1.2597
 6842SOL     OW32158   4.086   4.368   7.026 -0.0056 -0.2448  0.3165
 6842SOL    HW132159   4.130   4.360   7.111 -0.6589  0.3030  0.6990
 6842SOL    HW232160   4.057   4.277   7.015 -0.9950  0.1433 -0.2579
 6843SOL     OW32161   3.041   1.283  17.381  0.1168 -0.2531  0.2885
 6843SOL    HW132162   3.084   1.217  17.326  0.1743  0.6877 -0.7929
 6843SOL    HW232163   3.086   1.276  17.465  0.5211  2.0773  0.2498
 6844SOL     OW32164   2.919   3.582   5.194  0.5061 -0.3791  0.2396
 6844SOL    HW132165   2.883   3.629   5.119  2.6374 -0.5204 -0.8633
 6844SOL    HW232166   3.006   3.563   5.159  0.7079  2.9008 -1.0820
 6845SOL     OW32167   1.900   3.397  11.884 -0.3605  0.3471  0.4847
 6845SOL    HW132168   1.861   3.313  11.908  0.7864 -0.1549  0.5770
 6845SOL    HW232169   1.984   3.396  11.930 -1.1039 -0.0414  1.8533
 6846SOL     OW32170   4.245   3.112   5.610  0.2458  0.6601  0.3880
 6846SOL    HW132171   4.317   3.146   5.557  0.5969 -0.7129 -0.0088
 6846SOL    HW232172   4.280   3.026   5.635 -2.0963 -0.7457 -1.2272
 6847SOL     OW32173   0.522   0.211   1.788 -0.0181 -0.4339  0.9536
 6847SOL    HW132174   0.484   0.285   1.834 -0.8062 -0.4899  0.3973
 6847SOL    HW232175   0.525   0.243   1.698 -1.3369 -0.0626  1.0342
 6848SOL     OW32176   0.209   4.158  13.956  0.1143 -0.9584  0.0236
 6848SOL    HW132177   0.250   4.216  14.021  0.1450 -0.7448 -0.1887
 6848SOL    HW232178   0.188   4.082  14.010 -0.4617 -0.6694  0.1963
 6849SOL     OW32179   2.322   1.309   5.428  0.3930  0.1943 -0.0620
 6849SOL    HW132180   2.232   1.275   5.429  1.4155 -2.5294 -3.3389
 6849SOL    HW232181   2.328   1.367   5.504 -0.0037 -1.1970  1.0189
 6850SOL     OW32182   4.532   3.785   1.614 -0.5240 -0.5399  0.5409
 6850SOL    HW132183   4.580   3.725   1.556  0.5141  0.9354 -0.1063
 6850SOL    HW232184   4.519   3.720   1.683  1.0784 -2.7314 -1.2071
 6851SOL     OW32185   3.471   2.335   7.128  0.1671 -0.2439 -0.5955
 6851SOL    HW132186   3.419   2.277   7.184 -1.0745  0.4792 -1.0009
 6851SOL    HW232187   3.407   2.405   7.114  0.9130  0.5925  0.2229
 6852SOL     OW32188   0.859   0.531   6.469 -0.1869  0.1765  0.2968
 6852SOL    HW132189   0.948   0.541   6.505  0.0042  0.1929 -0.1877
 6852SOL    HW232190   0.866   0.552   6.376  0.0013  0.0230  0.2762
 6853SOL     OW32191   2.306   0.651   4.727  0.2128 -0.6845  0.5034
 6853SOL    HW132192   2.326   0.603   4.808  2.0054 -0.4887  0.1814
 6853SOL    HW232193   2.215   0.627   4.711 -0.2201  1.1077  0.3018
 6854SOL     OW32194   3.387   1.932   7.859 -0.4432  0.3156 -0.3865
 6854SOL    HW132195   3.460   1.964   7.805  0.5656 -0.9135  0.2413
 6854SOL    HW232196   3.323   1.942   7.788  0.0572 -0.4016 -0.9429
 6855SOL     OW32197   2.679   3.155  15.604  0.5066 -0.2430  0.6444
 6855SOL    HW132198   2.697   3.072  15.561 -0.2061  0.3477 -0.7749
 6855SOL    HW232199   2.770   3.166  15.633  0.5044  0.6034  0.3313
 6856SOL     OW32200   0.345   1.340   1.466 -0.2498  0.0011 -0.3024
 6856SOL    HW132201   0.361   1.268   1.526  0.4385  1.6064  1.4612
 6856SOL    HW232202   0.431   1.377   1.445  0.5092 -0.1708  2.5160
 6857SOL     OW32203   1.144   2.079   4.892 -0.1738 -0.4699  0.6458
 6857SOL    HW132204   1.103   2.088   4.978 -2.0017 -1.4389 -0.1239
 6857SOL    HW232205   1.231   2.119   4.897  0.0031 -0.6076 -1.1078
 6858SOL     OW32206   0.823   3.355   2.517  0.3749 -0.3693 -0.1144
 6858SOL    HW132207   0.751   3.414   2.492  2.0086  2.0766  0.9796
 6858SOL    HW232208   0.782   3.270   2.501  1.5580 -1.1138  0.8574
 6859SOL     OW32209   2.405   1.505   0.428  0.1107 -0.5473  0.6512
 6859SOL    HW132210   2.381   1.421   0.391  1.4981 -0.9355  0.6109
 6859SOL    HW232211   2.405   1.479   0.520  2.3109 -1.5850  0.3704
 6860SOL     OW32212   3.251   2.255   4.801  0.5331 -0.4082 -0.2445
 6860SOL    HW132213   3.298   2.205   4.867 -0.1165 -1.3630 -0.5183
 6860SOL    HW232214   3.201   2.319   4.852 -1.4054 -2.1731  0.0758
 6861SOL     OW32215   3.855   2.111   3.340  0.4377  0.2364  0.1560
 6861SOL    HW132216   3.823   2.174   3.405  2.4792  1.7148 -0.2659
 6861SOL    HW232217   3.950   2.113   3.352  0.5973 -1.9583 -0.7335
 6862SOL     OW32218   1.056   1.406  11.881  0.0487 -0.1360  0.4549
 6862SOL    HW132219   0.965   1.401  11.910  0.4365  1.8253  2.0051
 6862SOL    HW232220   1.087   1.318  11.903 -0.8473 -0.1244  1.8031
 6863SOL     OW32221   1.000   1.021   8.118  0.2033  0.1454 -0.0809
 6863SOL    HW132222   0.959   1.107   8.106 -0.4830  0.0607  1.5953
 6863SOL    HW232223   1.037   1.033   8.205  1.8341 -1.2391 -0.5892
 6864SOL     OW32224   0.421   1.733  10.356 -0.1041 -0.0400 -0.1171
 6864SOL    HW132225   0.447   1.773  10.439 -0.6733 -2.2191  1.0973
 6864SOL    HW232226   0.330   1.709  10.375  0.6531 -1.1315  1.9912
 6865SOL     OW32227   1.692   1.914   8.964 -0.2695  0.3898  0.4648
 6865SOL    HW132228   1.663   1.998   8.929  1.0876  0.5426 -0.3048
 6865SOL    HW232229   1.741   1.880   8.889  0.3386  1.4198  0.3966
 6866SOL     OW32230   4.726   1.955   4.187  0.1664 -0.3537 -0.2247
 6866SOL    HW132231   4.665   1.916   4.124  1.1311 -2.2668  0.0515
 6866SOL    HW232232   4.675   2.035   4.200 -1.4750 -1.3607 -0.4227
 6867SOL     OW32233   0.041   0.240  11.031 -0.0843  0.1058  0.4345
 6867SOL    HW132234   0.015   0.266  10.943 -1.0227 -0.4180  0.5517
 6867SOL    HW232235   4.700   0.196  11.064  0.9345 -1.0879  1.2703
 6868SOL     OW32236   3.201   4.736   4.768  0.2931 -0.1336  0.0459
 6868SOL    HW132237   3.170   4.646   4.764  0.1069 -0.0786  0.2896
 6868SOL    HW232238   3.142   0.041   4.830 -0.0509  0.2106 -0.5167
 6869SOL     OW32239   2.389   2.522   8.359  0.1553 -0.4544  0.0698
 6869SOL    HW132240   2.384   2.596   8.420  2.8542  1.2825 -1.7973
 6869SOL    HW232241   2.480   2.493   8.369  0.4154  0.9718  1.8947
 6870SOL     OW32242   2.056   0.887  13.292  0.3158 -0.2947 -0.0666
 6870SOL    HW132243   2.061   0.977  13.260  0.7072 -0.8683 -1.5927
 6870SOL    HW232244   2.080   0.905  13.383 -0.4707  2.9555 -0.5119
 6871SOL     OW32245   1.315   0.304   5.584  0.3330  0.2190 -0.2380
 6871SOL    HW132246   1.271   0.329   5.665 -0.8869  1.5722 -1.3249
 6871SOL    HW232247   1.250   0.326   5.518 -2.0631 -1.7503  1.4389
 6872SOL     OW32248   2.752   0.589   5.622  0.3493 -0.2377 -0.1513
 6872SOL    HW132249   2.740   0.592   5.717  1.0136  2.6517 -0.1708
 6872SOL    HW232250   2.815   0.517   5.613 -0.0647 -0.8188  1.4349
 6873SOL     OW32251   0.276   1.536  16.157 -0.4367 -0.0836 -0.5915
 6873SOL    HW132252   0.264   1.442  16.146  1.1704 -0.0927 -2.5065
 6873SOL    HW232253   0.184   1.558  16.144 -0.4307 -0.6850 -1.6649
 6874SOL     OW32254   3.951   2.431   7.559  0.1103  0.0460  0.4658
 6874SOL    HW132255   3.906   2.511   7.529 -1.6592 -1.5189 -1.0895
 6874SOL    HW232256   4.002   2.462   7.633  2.2242 -0.9087 -0.6005
 6875SOL     OW32257   4.195   1.222   3.025  0.1191  0.4800  0.6457
 6875SOL    HW132258   4.191   1.294   2.962 -1.2405 -0.5809 -0.4989
 6875SOL    HW232259   4.265   1.241   3.087 -0.7735 -0.4947  1.9687
 6876SOL     OW32260   2.396   2.921   5.961 -0.6594 -0.5736  0.0668
 6876SOL    HW132261   2.302   2.904   5.960 -0.7931  0.2430 -1.0154
 6876SOL    HW232262   2.413   2.912   6.055 -1.7182  1.5422  0.4579
 6877SOL     OW32263   0.694   1.826   9.282  0.1187 -0.6911  0.8695
 6877SOL    HW132264   0.730   1.903   9.237  1.7776 -0.3705  2.7031
 6877SOL    HW232265   0.657   1.776   9.210  1.2363 -0.0178 -0.1813
 6878SOL     OW32266   3.163   1.569   1.987 -0.1752  0.1429  0.1206
 6878SOL    HW132267   3.100   1.543   1.920  2.3553  2.6746 -3.2326
 6878SOL    HW232268   3.114   1.601   2.063 -2.3737  0.0035 -1.2689
 6879SOL     OW32269   2.398   4.104   7.499  0.0406  0.4386 -0.1960
 6879SOL    HW132270   2.429   4.051   7.426  0.3175  1.0903 -0.5560
 6879SOL    HW232271   2.311   4.120   7.462 -1.1138  0.7612  2.6103
 6880SOL     OW32272   2.321   3.747  12.473 -0.4931 -0.2272  0.5778
 6880SOL    HW132273   2.301   3.666  12.521  1.1454 -1.3134 -0.5911
 6880SOL    HW232274   2.241   3.766  12.425  0.7283  2.1720 -0.5016
 6881SOL     OW32275   1.088   2.147   5.747 -0.2211  0.6399  0.0581
 6881SOL    HW132276   1.152   2.209   5.781  0.5822 -0.2135  0.0801
 6881SOL    HW232277   1.136   2.120   5.669 -0.1335  0.5324  0.1505
 6882SOL     OW32278   3.815   1.592  14.843 -0.1465  0.2813 -0.3091
 6882SOL    HW132279   3.788   1.510  14.802  1.0627 -0.6190  0.6756
 6882SOL    HW232280   3.826   1.643  14.763 -0.0825 -0.5312 -0.8249
 6883SOL     OW32281   0.720   0.499   9.245  0.4162  0.1815  0.0619
 6883SOL    HW132282   0.665   0.569   9.210  1.1875  1.0315  0.5756
 6883SOL    HW232283   0.724   0.433   9.175 -0.5873  0.5568 -0.3533
 6884SOL     OW32284   3.217   2.462   3.685 -0.1846 -0.1400 -0.0934
 6884SOL    HW132285   3.222   2.518   3.608  1.8621  0.2521  0.3260
 6884SOL    HW232286   3.308   2.462   3.714  0.9212  1.7387 -3.5647
 6885SOL     OW32287   4.044   2.018   8.946 -0.0915 -0.0683  0.5527
 6885SOL    HW132288   3.987   2.065   8.886 -0.0220  0.5299  0.9603
 6885SOL    HW232289   4.002   1.932   8.947 -3.0208  1.3753  1.3282
 6886SOL     OW32290   2.176   3.233  17.539 -0.0538  0.2280 -1.4587
 6886SOL    HW132291   2.212   3.196  17.620 -2.0831  0.7218 -0.3292
 6886SOL    HW232292   2.120   3.159  17.515 -0.3946  0.3162 -0.9351
 6887SOL     OW32293   3.527   3.394   6.092 -0.0349  0.1758 -0.2852
 6887SOL    HW132294   3.582   3.323   6.061  1.0676  0.6911  0.4824
 6887SOL    HW232295   3.578   3.468   6.060  0.2079 -1.1356 -2.8789
 6888SOL     OW32296   0.130   4.193   3.199 -0.2109  0.2467 -0.2011
 6888SOL    HW132297   0.077   4.178   3.277 -0.0211 -1.8660 -0.4817
 6888SOL    HW232298   0.215   4.165   3.234 -1.0215  0.9780  2.3320
 6889SOL     OW32299   1.375   3.415  11.360  0.5578 -0.3009 -0.1461
 6889SOL    HW132300   1.442   3.347  11.367  0.8428 -0.1653 -1.5038
 6889SOL    HW232301   1.397   3.482  11.425  1.0000  0.1704 -0.7950
 6890SOL     OW32302   3.209   4.656  12.502  0.4161 -0.0869 -0.7355
 6890SOL    HW132303   3.186   4.582  12.559  1.7236 -1.3663 -1.8943
 6890SOL    HW232304   3.260   4.614  12.433  2.1535 -1.1418  1.1865
 6891SOL     OW32305   0.474   2.935   8.361 -0.1177  0.0924  0.5346
 6891SOL    HW132306   0.448   2.900   8.276 -0.1614  2.1602 -0.3056
 6891SOL    HW232307   0.516   3.020   8.345 -0.2795 -0.2705 -1.8125
 6892SOL     OW32308   0.137   3.728   4.327 -0.0145 -0.4403  0.2974
 6892SOL    HW132309   0.197   3.673   4.277  1.4541  1.7444 -0.3418
 6892SOL    HW232310   0.194   3.742   4.402 -1.4806  1.0421  1.1413
 6893SOL     OW32311   4.490   2.921  15.604  0.0324 -0.1125 -0.3236
 6893SOL    HW132312   4.407   2.969  15.602  0.4856  0.6005 -2.3655
 6893SOL    HW232313   4.511   2.926  15.697  1.6432  0.0862 -0.6953
 6894SOL     OW32314   2.553   3.899  15.595 -0.0651  0.2033 -0.0654
 6894SOL    HW132315   2.527   3.816  15.635 -1.4094  1.8182  2.3810
 6894SOL    HW232316   2.504   3.952  15.657 -1.2863 -0.6935 -0.2754
 6895SOL     OW32317   1.101   1.911   6.231 -0.6075  0.3813  0.2947
 6895SOL    HW132318   1.025   1.955   6.270 -1.8196 -1.5334  0.0907
 6895SOL    HW232319   1.102   1.832   6.284  1.4645  0.4833  0.4154
 6896SOL     OW32320   3.959   2.032   8.330  0.2559 -0.4088  0.4308
 6896SOL    HW132321   3.884   2.082   8.363 -0.7201 -2.6307  1.5584
 6896SOL    HW232322   3.978   2.071   8.245 -1.3498 -0.5229  0.0127
 6897SOL     OW32323   0.099   2.662  11.389  0.1139  0.0131 -0.2781
 6897SOL    HW132324   0.122   2.596  11.324 -0.0721  1.3267 -1.6918
 6897SOL    HW232325   0.128   2.623  11.471 -0.1710  1.2682  0.4268
 6898SOL     OW32326   4.656   2.236   5.646  0.6250 -0.2077 -0.2015
 6898SOL    HW132327   4.576   2.247   5.698  0.1927  1.0748 -1.1429
 6898SOL    HW232328   4.612   2.246   5.562  2.1594 -0.7589 -1.0629
 6899SOL     OW32329   0.872   3.767  13.908 -0.4346 -0.7511 -0.2601
 6899SOL    HW132330   0.938   3.748  13.974 -0.4983  0.9714  0.3055
 6899SOL    HW232331   0.804   3.801  13.966 -1.2050 -1.9022 -0.4852
 6900SOL     OW32332   0.601   4.081   9.211 -0.0955  0.4584  0.0658
 6900SOL    HW132333   0.537   4.123   9.269 -1.3890 -1.2408 -0.1117
 6900SOL    HW232334   0.548   4.015   9.166  0.3811 -1.6860  2.5760
 6901SOL     OW32335   3.000   3.753   6.345 -0.5324 -0.0156  0.4682
 6901SOL    HW132336   2.961   3.813   6.281 -1.1444  0.2602  1.1044
 6901SOL    HW232337   3.070   3.713   6.292 -0.3801  1.4030 -0.3901
 6902SOL     OW32338   1.140   2.635   2.793 -0.3820  0.4593 -0.1934
 6902SOL    HW132339   1.128   2.572   2.722  1.6460 -2.4552  2.0778
 6902SOL    HW232340   1.216   2.681   2.757  0.6778 -1.1283  0.0476
 6903SOL     OW32341   4.088   3.063   9.852 -0.6085 -1.0510  0.0916
 6903SOL    HW132342   4.080   2.967   9.855 -2.0863 -0.9859 -1.8793
 6903SOL    HW232343   4.164   3.067   9.910  0.6471 -0.8396 -1.5820
 6904SOL     OW32344   1.185   1.765  12.469  0.1764  0.2104 -0.3518
 6904SOL    HW132345   1.157   1.714  12.545 -1.5501  0.8184 -0.5883
 6904SOL    HW232346   1.230   1.838  12.511  0.3362  0.6237 -1.2478
 6905SOL     OW32347   0.799   2.424   4.198 -0.1298 -0.1906  0.0579
 6905SOL    HW132348   0.770   2.415   4.289  0.3522  0.9483  0.3315
 6905SOL    HW232349   0.717   2.444   4.152 -1.2298 -1.5862  1.4151
 6906SOL     OW32350   1.227   0.780   3.235  0.2699 -0.0127  0.2818
 6906SOL    HW132351   1.297   0.754   3.175  0.2348 -0.0847  0.2711
 6906SOL    HW232352   1.277   0.822   3.304  0.8519 -0.2185 -0.0167
 6907SOL     OW32353   3.270   4.339   4.700 -0.0995 -0.8118  0.2505
 6907SOL    HW132354   3.296   4.263   4.649  0.4603  0.5424 -1.4995
 6907SOL    HW232355   3.228   4.297   4.775  1.7558 -1.6365  0.8237
 6908SOL     OW32356   3.089   1.575  13.702  0.2686  0.4291 -0.1850
 6908SOL    HW132357   3.008   1.555  13.656  1.1847  0.3578 -1.7849
 6908SOL    HW232358   3.153   1.567  13.631  0.7531  0.3803  0.2584
 6909SOL     OW32359   4.448   4.126   7.320  0.5241  0.3706  1.0267
 6909SOL    HW132360   4.533   4.081   7.322  0.1117 -0.5028 -1.2372
 6909SOL    HW232361   4.440   4.170   7.236 -2.7832 -2.0762  0.0552
 6910SOL     OW32362   3.939   0.634  10.633  0.5586  0.1325  0.3260
 6910SOL    HW132363   3.941   0.553  10.684  0.7000  0.0301  0.1567
 6910SOL    HW232364   3.882   0.607  10.561  1.6909 -2.8134  0.5385
 6911SOL     OW32365   0.960   1.834   1.749  0.0173  0.5143 -0.6852
 6911SOL    HW132366   1.029   1.769   1.765 -2.0120 -1.7376 -1.1578
 6911SOL    HW232367   1.024   1.901   1.725  1.4515 -0.4147  0.5499
 6912SOL     OW32368   3.693   2.537   5.074  0.2224 -0.2631 -0.7496
 6912SOL    HW132369   3.722   2.469   5.135 -0.8686  2.4027  2.7591
 6912SOL    HW232370   3.769   2.595   5.066 -0.1579  0.2047 -0.9517
 6913SOL     OW32371   3.904   0.225   2.452 -0.1146  0.5198 -0.8430
 6913SOL    HW132372   3.937   0.294   2.510  0.8576 -2.0073  1.6451
 6913SOL    HW232373   3.835   0.272   2.406 -1.3104 -1.4291 -1.0587
 6914SOL     OW32374   2.008   3.249   0.039  0.1985  0.1790  0.4637
 6914SOL    HW132375   2.097   3.215   0.044  0.9694  2.2502  0.6665
 6914SOL    HW232376   2.024   3.332  17.742  1.5842 -0.9893 -1.2197
 6915SOL     OW32377   0.961   3.574   2.325  0.0412  0.7012  0.2899
 6915SOL    HW132378   1.012   3.547   2.401  1.9234  0.8159 -0.9273
 6915SOL    HW232379   0.872   3.582   2.358 -0.9628 -1.0341 -1.9653
 6916SOL     OW32380   1.027   2.816   5.392  0.5365  0.4131 -0.3849
 6916SOL    HW132381   1.119   2.805   5.370  0.4413 -3.7934  1.3582
 6916SOL    HW232382   1.034   2.836   5.485 -2.6337 -0.4125  0.0418
 6917SOL     OW32383   3.880   4.670   5.550 -0.3035  0.5453  0.4967
 6917SOL    HW132384   3.930   4.589   5.537  0.7174  1.4602 -1.4140
 6917SOL    HW232385   3.909   4.722   5.475 -0.6786 -0.7619 -0.5720
 6918SOL     OW32386   0.647   3.453  16.603 -0.2760  0.3780 -0.5678
 6918SOL    HW132387   0.680   3.443  16.513 -0.1454 -2.0044 -0.2486
 6918SOL    HW232388   0.685   3.539  16.618 -1.6803  0.5632  1.8688
 6919SOL     OW32389   1.981   3.628   8.886  0.4898 -0.9403  0.1520
 6919SOL    HW132390   2.017   3.632   8.797  0.9652  3.3729  0.5393
 6919SOL    HW232391   2.017   3.705   8.929  0.3511 -1.6376  1.5141
 6920SOL     OW32392   4.431   0.267   3.757  0.0052  0.1003  0.1983
 6920SOL    HW132393   4.412   0.182   3.797  0.2772  0.3205  0.7943
 6920SOL    HW232394   4.508   0.287   3.811  0.6936  1.6444 -1.3924
 6921SOL     OW32395   1.733   0.033   2.859 -0.3360 -0.3260  0.0745
 6921SOL    HW132396   1.732   4.681   2.826  1.3923  0.4603 -2.1469
 6921SOL    HW232397   1.802   0.018   2.924 -0.2583 -0.4499 -0.0372
 6922SOL     OW32398   2.483   4.169   2.012  0.5324 -0.0032  0.0136
 6922SOL    HW132399   2.557   4.215   2.053  1.2362 -2.0650  1.0989
 6922SOL    HW232400   2.417   4.238   2.017 -0.2342 -0.7676  0.4305
 6923SOL     OW32401   0.070   3.177  17.446 -0.0570  0.5423 -0.0109
 6923SOL    HW132402   0.132   3.238  17.407 -0.3740  0.9683  0.1525
 6923SOL    HW232403   0.063   3.112  17.377 -0.5804  0.8443 -0.2395
 6924SOL     OW32404   2.610   1.707   4.828  0.1944 -0.2246 -0.4654
 6924SOL    HW132405   2.607   1.616   4.800 -1.0667  0.1375 -1.4732
 6924SOL    HW232406   2.658   1.748   4.756  0.4521  1.0509  0.4255
 6925SOL     OW32407   3.279   4.197  17.693 -0.2321  0.4121  0.1235
 6925SOL    HW132408   3.206   4.166  17.746 -0.4158 -1.5873 -1.3143
 6925SOL    HW232409   3.237   4.232  17.615  1.5297  0.0759 -0.9838
 6926SOL     OW32410   3.489   3.166  16.070  0.5942  0.1767 -0.0411
 6926SOL    HW132411   3.507   3.173  16.164 -1.6586  1.8638  0.2866
 6926SOL    HW232412   3.505   3.073  16.053  0.5700  0.0979  0.3568
 6927SOL     OW32413   3.717   1.497   4.561 -0.1373 -0.8452  0.3165
 6927SOL    HW132414   3.807   1.518   4.584 -0.0060  0.1364 -1.0707
 6927SOL    HW232415   3.737   1.414   4.517 -0.6450  0.5553 -2.5707
 6928SOL     OW32416   2.157   4.417   8.747  0.0049 -0.0276 -0.3211
 6928SOL    HW132417   2.216   4.352   8.783  1.6894  1.5434 -0.2323
 6928SOL    HW232418   2.107   4.365   8.684  1.3871 -2.9557  1.0103
 6929SOL     OW32419   0.338   1.791   9.967  0.3660  0.4007 -0.1612
 6929SOL    HW132420   0.340   1.826  10.056 -1.8887 -1.1593  0.4993
 6929SOL    HW232421   0.331   1.870   9.914 -0.0153  1.6575  1.7789
 6930SOL     OW32422   3.114   0.307   8.268 -0.5045  0.0285 -0.2057
 6930SOL    HW132423   3.037   0.349   8.307  0.1789  2.3223 -1.3935
 6930SOL    HW232424   3.113   0.343   8.180  0.3009 -2.0424 -1.0702
 6931SOL     OW32425   3.247   4.001   4.138 -0.3114  0.0101 -0.3539
 6931SOL    HW132426   3.168   3.948   4.150  0.5138 -0.8378  1.3359
 6931SOL    HW232427   3.253   4.036   4.227  0.2059 -1.1776  0.0730
 6932SOL     OW32428   4.439   1.726   4.750 -0.9787  0.1951 -0.0970
 6932SOL    HW132429   4.415   1.648   4.699 -1.6777 -0.5256  1.3251
 6932SOL    HW232430   4.454   1.678   4.832  0.8434  2.5746  0.9715
 6933SOL     OW32431   2.381   3.415   5.447 -0.1619  0.2831  0.1220
 6933SOL    HW132432   2.388   3.438   5.354  0.4616  0.9926  0.3491
 6933SOL    HW232433   2.397   3.321   5.439  0.1566  0.4312 -1.0143
 6934SOL     OW32434   0.225   2.672  16.287 -0.3429  0.2640  0.1744
 6934SOL    HW132435   0.162   2.704  16.223  2.0525  2.8170 -0.9261
 6934SOL    HW232436   0.233   2.578  16.275 -0.2798  0.0014  2.2975
 6935SOL     OW32437   3.858   1.750  12.146  0.1721 -0.5799  0.7182
 6935SOL    HW132438   3.768   1.783  12.144  0.5629  0.5363  1.3077
 6935SOL    HW232439   3.911   1.817  12.189 -1.8085  1.7164 -0.4567
 6936SOL     OW32440   2.448   3.672   2.757  0.2645  0.0035 -0.4669
 6936SOL    HW132441   2.413   3.647   2.843 -0.3685  0.5645 -0.5626
 6936SOL    HW232442   2.518   3.605   2.752  0.2047 -0.0243 -0.8903
 6937SOL     OW32443   1.129   1.747   8.351  0.1125  0.2828  0.4429
 6937SOL    HW132444   1.168   1.664   8.380  0.1456  0.5428  1.1370
 6937SOL    HW232445   1.052   1.711   8.307  0.3329 -0.2982  0.5222
 6938SOL     OW32446   3.214   2.391   3.982 -0.7595  0.3194 -0.6981
 6938SOL    HW132447   3.140   2.331   3.989 -0.7624  0.2936 -0.9712
 6938SOL    HW232448   3.186   2.439   3.904  2.8968  0.3635 -2.0015
 6939SOL     OW32449   2.222   4.604  16.513  0.2835 -0.7770 -0.4776
 6939SOL    HW132450   2.153   4.555  16.469 -0.9481 -0.3242  0.9553
 6939SOL    HW232451   2.289   4.536  16.520  0.8591 -0.3207 -1.5565
 6940SOL     OW32452   2.524   0.092   8.054  0.0271 -0.0438  0.0617
 6940SOL    HW132453   2.543   0.133   8.139  2.4935  1.5244 -1.2760
 6940SOL    HW232454   2.566   0.006   8.062 -2.0895 -0.7924  3.1349
 6941SOL     OW32455   4.337   3.186   4.610  0.2474  0.1657  0.0228
 6941SOL    HW132456   4.281   3.264   4.613 -0.4595 -0.3702  0.8639
 6941SOL    HW232457   4.415   3.207   4.660  2.7303  0.6387 -3.9961
 6942SOL     OW32458   0.361   2.750   5.198 -0.2277  0.0511  0.2067
 6942SOL    HW132459   0.429   2.811   5.169  0.4953  0.3985  2.5680
 6942SOL    HW232460   0.308   2.745   5.119  0.4586  0.6610 -0.2831
 6943SOL     OW32461   0.421   1.533   5.734 -1.1903  0.3106 -0.3657
 6943SOL    HW132462   0.347   1.493   5.689  0.6572  1.3391 -4.4190
 6943SOL    HW232463   0.437   1.616   5.688 -2.3301  2.8427  3.8718
 6944SOL     OW32464   1.833   2.314   3.546  0.3120 -0.0423 -0.3949
 6944SOL    HW132465   1.752   2.287   3.589  1.7356 -1.3944  1.4681
 6944SOL    HW232466   1.870   2.236   3.505 -3.3081 -0.7379 -2.2538
 6945SOL     OW32467   1.262   4.675   4.999 -0.1719  0.6438 -0.2226
 6945SOL    HW132468   1.338   4.709   5.046  1.3028  0.0529 -2.2188
 6945SOL    HW232469   1.292   4.588   4.974  0.3551  0.5528  0.7269
 6946SOL     OW32470   0.333   3.659   0.998 -0.0294 -0.1253 -0.2483
 6946SOL    HW132471   0.352   3.602   1.073 -1.0312 -0.8166 -0.5204
 6946SOL    HW232472   0.377   3.601   0.936 -0.2486 -1.0804  0.4914
 6947SOL     OW32473   2.876   4.674   5.896 -0.2236  0.0122  0.2940
 6947SOL    HW132474   2.818   4.600   5.878 -1.7795  1.1943  0.5364
 6947SOL    HW232475   2.930   4.682   5.817  0.0941  0.5361  0.5674
 6948SOL     OW32476   3.971   1.489   8.912  0.5868  0.2574  0.0164
 6948SOL    HW132477   3.905   1.444   8.964  0.1054  2.7340  1.5028
 6948SOL    HW232478   4.049   1.485   8.968  2.4068 -0.3435 -2.5117
 6949SOL     OW32479   2.376   4.122   1.751  0.3652  0.1391 -0.6149
 6949SOL    HW132480   2.437   4.140   1.680 -0.3485  2.0374 -0.7568
 6949SOL    HW232481   2.417   4.169   1.824  0.3494  1.0237 -1.1825
 6950SOL     OW32482   2.787   4.317  10.539  0.1579  0.4321 -0.4976
 6950SOL    HW132483   2.703   4.276  10.557  0.5030 -0.7619 -1.6031
 6950SOL    HW232484   2.808   4.264  10.462  1.8042  0.3120  0.0292
 6951SOL     OW32485   3.054   1.240   9.087  0.4635  0.2662  0.3074
 6951SOL    HW132486   3.103   1.163   9.117  0.5253 -0.0570 -0.6204
 6951SOL    HW232487   3.047   1.221   8.993  2.1009 -0.4078  0.3285
 6952SOL     OW32488   1.885   2.978  14.706  0.0259  0.1129 -0.2829
 6952SOL    HW132489   1.927   3.059  14.678  1.8390 -0.3907  0.9741
 6952SOL    HW232490   1.922   2.916  14.643 -1.6575 -0.1674 -0.9844
 6953SOL     OW32491   4.604   2.849  17.490  0.1297  0.0873 -0.4237
 6953SOL    HW132492   4.626   2.836  17.582  0.4069  0.1265 -0.4846
 6953SOL    HW232493   4.533   2.787  17.473 -2.0511  2.3107  0.6412
 6954SOL     OW32494   0.368   0.682   7.970  0.1740 -0.4276 -0.4589
 6954SOL    HW132495   0.286   0.731   7.963  0.6545  0.1991 -1.8482
 6954SOL    HW232496   0.330   0.610   8.020 -4.2053  1.5775 -0.9338
 6955SOL     OW32497   1.530   1.449   7.125 -0.1687 -0.2179 -0.5188
 6955SOL    HW132498   1.520   1.374   7.183  0.3075 -1.6663 -2.3118
 6955SOL    HW232499   1.539   1.519   7.190  0.7479  2.2996 -3.3869
 6956SOL     OW32500   3.381   1.596   3.511  0.3331  0.1844 -0.0770
 6956SOL    HW132501   3.285   1.590   3.515  0.4201 -1.9230 -1.1738
 6956SOL    HW232502   3.390   1.685   3.546  1.6637  0.1681 -0.3777
 6957SOL     OW32503   4.176   0.303   8.119  0.2390 -0.1261  0.0722
 6957SOL    HW132504   4.203   0.388   8.085  0.5910  0.1682  1.0890
 6957SOL    HW232505   4.202   0.316   8.211 -1.2053  3.4802 -0.0366
 6958SOL     OW32506   1.733   3.976   7.338  0.5234 -0.2014  0.1006
 6958SOL    HW132507   1.655   3.982   7.394  0.4263  1.3514 -0.2068
 6958SOL    HW232508   1.790   3.922   7.393  3.2477  1.8216 -0.7909
 6959SOL     OW32509   3.186   1.964   3.137 -0.2663 -0.7110 -0.3611
 6959SOL    HW132510   3.245   1.980   3.064 -0.5754  2.0020  0.0068
 6959SOL    HW232511   3.099   1.989   3.105 -1.1783 -0.9928  1.8938
 6960SOL     OW32512   1.719   1.345  15.685  0.3429  0.1815  0.0114
 6960SOL    HW132513   1.711   1.440  15.697 -2.1695 -0.2357  1.8172
 6960SOL    HW232514   1.724   1.328  15.779  3.0038  0.2633 -0.1189
 6961SOL     OW32515   0.686   2.608   9.113  0.3699 -0.2985 -0.0565
 6961SOL    HW132516   0.752   2.544   9.139 -0.4322 -1.9313 -2.0611
 6961SOL    HW232517   0.739   2.668   9.060  1.7505  0.6711  2.4444
 6962SOL     OW32518   1.802   2.695   7.215  0.2315  0.5319 -0.0099
 6962SOL    HW132519   1.796   2.730   7.303 -1.5722 -0.8620  0.4144
 6962SOL    HW232520   1.810   2.777   7.167  0.3511  0.5519  0.0445
 6963SOL     OW32521   3.497   2.966   0.096  0.1729  0.6354 -0.0032
 6963SOL    HW132522   3.439   3.030   0.054  0.7079  2.8845  2.6743
 6963SOL    HW232523   3.461   2.986   0.183  1.3851  3.3127 -0.1259
 6964SOL     OW32524   3.556   4.370   1.165  0.6205  0.3084 -0.2876
 6964SOL    HW132525   3.544   4.457   1.201  0.5049 -0.3717  1.3270
 6964SOL    HW232526   3.647   4.366   1.135  0.9173  0.0583  0.6599
 6965SOL     OW32527   4.318   2.055   6.385  0.5604  0.3903 -0.0560
 6965SOL    HW132528   4.358   2.023   6.465  0.6774  1.4240  0.2995
 6965SOL    HW232529   4.362   2.138   6.366  1.4250 -0.2988 -1.0608
 6966SOL     OW32530   2.149   2.240   0.719 -0.1551  0.7280  0.2594
 6966SOL    HW132531   2.244   2.240   0.708 -0.2617 -0.6605 -0.6904
 6966SOL    HW232532   2.126   2.332   0.716 -0.9259  0.4227 -3.0194
 6967SOL     OW32533   1.095   0.008   9.265  0.3548 -0.5575 -0.3857
 6967SOL    HW132534   1.024   4.703   9.217 -0.1745 -1.1163  0.8911
 6967SOL    HW232535   1.073   4.722   9.355  1.4921  2.3066  0.6292
 6968SOL     OW32536   4.187   1.716   6.925  0.1893 -0.2598 -0.1390
 6968SOL    HW132537   4.242   1.793   6.914 -0.0173 -0.1215 -0.2020
 6968SOL    HW232538   4.136   1.743   7.001  0.3048  0.8638 -0.4668
 6969SOL     OW32539   3.376   3.801  14.983 -0.0667  0.4948 -1.3111
 6969SOL    HW132540   3.387   3.706  14.975  0.9805  0.5108  0.0015
 6969SOL    HW232541   3.449   3.826  15.040 -0.6413  0.5842 -0.6219
 6970SOL     OW32542   3.302   4.431   2.140 -0.1677  0.4064  0.1337
 6970SOL    HW132543   3.218   4.472   2.160  0.0404  1.2035 -0.6325
 6970SOL    HW232544   3.338   4.493   2.077  0.4874 -0.7481 -0.6361
 6971SOL     OW32545   3.948   1.137   3.403  0.4660  0.0051 -0.0717
 6971SOL    HW132546   3.857   1.119   3.427  0.5691  0.7617  0.8868
 6971SOL    HW232547   3.936   1.127   3.309  3.3588  0.5678 -0.5060
 6972SOL     OW32548   2.625   4.406   8.250 -0.0583  0.0754  0.5422
 6972SOL    HW132549   2.622   4.450   8.335  0.2123  1.3308 -0.1070
 6972SOL    HW232550   2.635   4.485   8.198 -1.7097  1.2676  2.0381
 6973SOL     OW32551   3.139   0.368   2.109  0.3282 -0.3957 -0.8114
 6973SOL    HW132552   3.139   0.461   2.086  0.2814  0.4177  2.4894
 6973SOL    HW232553   3.219   0.350   2.060  0.1919 -2.1324 -0.4002
 6974SOL     OW32554   1.967   0.727  13.950  1.0346 -0.2985 -0.3931
 6974SOL    HW132555   1.898   0.703  14.012  0.3888  0.4089 -0.8302
 6974SOL    HW232556   1.978   0.815  13.986  0.4733 -1.6704  3.0929
 6975SOL     OW32557   3.453   0.668   7.504 -0.3819 -0.3334  0.0897
 6975SOL    HW132558   3.398   0.701   7.432 -0.2841  1.8892  1.0304
 6975SOL    HW232559   3.486   0.588   7.464 -0.3976 -0.0542 -0.4921
 6976SOL     OW32560   0.179   2.108  15.577 -0.2194  0.7451 -0.3428
 6976SOL    HW132561   0.170   2.086  15.485  0.1194  0.1066 -0.2325
 6976SOL    HW232562   0.271   2.085  15.591 -0.0607  0.1982 -2.2715
 6977SOL     OW32563   0.165   1.810  12.811  0.0168 -0.3393 -0.2750
 6977SOL    HW132564   0.178   1.897  12.774 -2.8682  0.6589  1.0259
 6977SOL    HW232565   0.154   1.755  12.733 -2.6039 -0.4052  0.1145
 6978SOL     OW32566   1.372   1.545   5.842 -0.7522  0.0835  0.1102
 6978SOL    HW132567   1.281   1.574   5.843 -1.0783 -0.9211 -1.1412
 6978SOL    HW232568   1.371   1.493   5.762  2.5311  2.1401 -1.2843
 6979SOL     OW32569   3.244   1.176   6.248  0.0588  0.4931 -0.2449
 6979SOL    HW132570   3.265   1.244   6.184 -0.3059  0.7133 -0.1345
 6979SOL    HW232571   3.148   1.187   6.249 -0.2706 -2.3780 -2.2229
 6980SOL     OW32572   2.332   0.270   4.677 -0.0548 -0.0666  0.2622
 6980SOL    HW132573   2.306   0.274   4.769  1.2081  1.4291  0.5586
 6980SOL    HW232574   2.425   0.252   4.684 -0.3278 -2.3404 -1.9759
 6981SOL     OW32575   0.229   2.701   1.771  0.3477  0.4564 -0.2052
 6981SOL    HW132576   0.228   2.788   1.810  0.2292  0.8323 -1.0319
 6981SOL    HW232577   0.153   2.661   1.814  2.1852 -1.3752  1.3293
 6982SOL     OW32578   3.591   3.608  16.297 -0.1660 -0.1187 -0.2303
 6982SOL    HW132579   3.533   3.570  16.363 -1.4996 -0.1210 -1.3963
 6982SOL    HW232580   3.582   3.701  16.318 -0.3459 -0.0397 -0.6386
 6983SOL     OW32581   1.395   1.947   4.105 -0.1723  0.2846 -0.5682
 6983SOL    HW132582   1.443   1.992   4.174  1.5387  0.5731 -1.9244
 6983SOL    HW232583   1.305   1.965   4.131  0.0824  0.9867 -0.1896
 6984SOL     OW32584   2.880   3.091  17.325 -0.2652  0.2963 -0.4859
 6984SOL    HW132585   2.900   3.014  17.379  0.9365  0.9124 -0.0558
 6984SOL    HW232586   2.817   3.047  17.267 -1.5862 -0.5971  1.6170
 6985SOL     OW32587   4.546   3.750   6.554 -0.2613 -0.2150 -1.0048
 6985SOL    HW132588   4.592   3.814   6.609  0.9751 -0.7919 -1.3719
 6985SOL    HW232589   4.541   3.804   6.475 -2.5680 -0.4052 -0.9849
 6986SOL     OW32590   2.731   1.799   4.593 -0.0341 -0.1219  0.5995
 6986SOL    HW132591   2.684   1.790   4.510  0.1634 -2.6250  0.7751
 6986SOL    HW232592   2.743   1.894   4.588  1.8137 -0.3526  0.7153
 6987SOL     OW32593   4.632   2.112  13.514 -0.0606 -0.1192  0.0166
 6987SOL    HW132594   4.674   2.073  13.590  3.9679 -1.8655 -3.0596
 6987SOL    HW232595   4.590   2.190  13.549 -0.8426 -0.7015  0.3596
 6988SOL     OW32596   0.970   2.410   2.236 -0.2054  0.1675 -0.0829
 6988SOL    HW132597   1.040   2.353   2.201  0.3643 -1.0257  3.0366
 6988SOL    HW232598   0.918   2.343   2.279  0.9339  0.0556  1.1218
 6989SOL     OW32599   3.680   1.341   9.862  0.0974 -0.4568 -0.0014
 6989SOL    HW132600   3.718   1.299   9.784 -0.1927 -0.2721 -0.2436
 6989SOL    HW232601   3.600   1.294   9.884 -0.5067  1.3996  1.7859
 6990SOL     OW32602   4.545   0.327   1.910 -0.4338  0.9855 -0.3403
 6990SOL    HW132603   4.623   0.299   1.864  0.7535  1.9430  1.0793
 6990SOL    HW232604   4.572   0.408   1.953  2.4096  0.5295 -1.2631
 6991SOL     OW32605   1.659   4.238   4.546  0.3311 -0.0260  0.6451
 6991SOL    HW132606   1.699   4.324   4.536 -0.8697  0.5762  1.0280
 6991SOL    HW232607   1.720   4.200   4.610  1.9528 -0.0461 -0.9042
 6992SOL     OW32608   0.883   1.468   7.779 -0.5492 -0.1569 -0.3236
 6992SOL    HW132609   0.901   1.376   7.757 -0.2091 -0.0929 -0.3229
 6992SOL    HW232610   0.801   1.457   7.825  0.2850 -1.1399  0.9337
 6993SOL     OW32611   1.107   0.323   2.079  0.0422 -0.0978  0.5251
 6993SOL    HW132612   1.034   0.311   2.019  0.2233 -0.0134  0.2857
 6993SOL    HW232613   1.120   0.414   2.051 -0.5142 -0.0434  0.4480
 6994SOL     OW32614   2.123   3.609   9.362 -0.3738 -0.0431  0.5029
 6994SOL    HW132615   2.135   3.678   9.297 -2.1334  0.2353  0.4709
 6994SOL    HW232616   2.181   3.629   9.436  1.5249  0.1884 -1.0596
 6995SOL     OW32617   3.726   2.198   7.256  0.3031 -0.2628 -0.0203
 6995SOL    HW132618   3.682   2.280   7.235 -1.6985 -1.3165  0.0677
 6995SOL    HW232619   3.649   2.147   7.282 -0.5271  0.9081 -0.2262
 6996SOL     OW32620   2.268   0.843   1.742 -0.5474  0.1887  0.2557
 6996SOL    HW132621   2.354   0.860   1.704 -0.4760 -0.5918  0.0709
 6996SOL    HW232622   2.272   0.751   1.768 -0.2328  1.0212  3.2290
 6997SOL     OW32623   0.776   3.610  10.536  0.8186 -0.3518 -0.2332
 6997SOL    HW132624   0.851   3.646  10.583  1.5341  0.8412 -2.2884
 6997SOL    HW232625   0.770   3.673  10.464 -1.1536  2.1028  2.0848
 6998SOL     OW32626   3.483   2.226  17.657  0.2225  0.1795  0.5891
 6998SOL    HW132627   3.448   2.279  17.586 -0.1372 -0.3225  0.3912
 6998SOL    HW232628   3.546   2.168  17.615 -0.9597 -0.2122 -0.6204
 6999SOL     OW32629   0.498   1.360   4.248  0.3863  0.3743 -0.2344
 6999SOL    HW132630   0.510   1.270   4.218 -1.0925  0.4292 -0.9900
 6999SOL    HW232631   0.499   1.351   4.343  1.1404 -1.2672 -0.3975
 7000SOL     OW32632   3.396   4.456  13.941 -0.2772  0.6716  0.1031
 7000SOL    HW132633   3.392   4.449  13.845 -1.4705 -0.4824  0.2314
 7000SOL    HW232634   3.309   4.425  13.965  0.0135  1.5059  2.1739
 7001SOL     OW32635   2.193   2.817  17.489  0.2950 -0.4251  0.3133
 7001SOL    HW132636   2.190   2.789  17.397  3.7208  1.0580 -0.2466
 7001SOL    HW232637   2.126   2.885  17.497  0.6777  0.0187 -0.2558
 7002SOL     OW32638   3.642   0.549   0.573 -0.9199  0.1448 -0.1225
 7002SOL    HW132639   3.560   0.506   0.550 -0.8693  0.3367 -0.6527
 7002SOL    HW232640   3.671   0.503   0.652 -1.4000  0.5959  0.3186
 7003SOL     OW32641   3.308   0.909   6.170 -0.1292 -0.2980  0.7318
 7003SOL    HW132642   3.281   1.000   6.181  0.2273  0.2595 -2.8559
 7003SOL    HW232643   3.391   0.914   6.121  0.7175 -1.5492  2.0558
 7004SOL     OW32644   2.726   0.055   2.960 -0.3706  0.0144 -0.1947
 7004SOL    HW132645   2.790   0.009   3.014 -1.2365 -0.4445  0.4377
 7004SOL    HW232646   2.734   0.003   2.880  0.4933  0.5500 -0.4585
 7005SOL     OW32647   4.733   3.020  14.567 -0.2895 -0.0685 -0.3193
 7005SOL    HW132648   4.733   2.949  14.503  3.9937 -1.2558  0.9748
 7005SOL    HW232649   0.056   3.079  14.521  1.1204 -2.3111 -1.3255
 7006SOL     OW32650   0.470   3.746   7.204  0.6819 -0.0193  0.2445
 7006SOL    HW132651   0.388   3.747   7.155  0.3766  3.0715  0.7863
 7006SOL    HW232652   0.443   3.796   7.282 -0.8864 -2.1734  1.0850
 7007SOL     OW32653   3.232   4.373   8.444 -0.2077 -0.0328  0.1885
 7007SOL    HW132654   3.307   4.352   8.499 -0.3428 -1.6955 -0.2633
 7007SOL    HW232655   3.275   4.423   8.374  0.5099 -1.4588 -0.3925
 7008SOL     OW32656   0.254   3.014   5.732 -0.6328  0.5013  0.6427
 7008SOL    HW132657   0.242   2.998   5.639 -1.8530 -1.5863  1.1734
 7008SOL    HW232658   0.292   2.932   5.762  0.2015  0.0281 -1.7215
 7009SOL     OW32659   2.455   0.149  11.486 -0.0022  0.1679 -0.0274
 7009SOL    HW132660   2.387   0.175  11.548 -1.6264  0.1093 -1.7716
 7009SOL    HW232661   2.471   0.057  11.508  1.5221 -0.4656 -3.7415
 7010SOL     OW32662   3.301   3.172   2.918  0.3409 -0.0327 -0.1714
 7010SOL    HW132663   3.333   3.089   2.952 -0.3774 -0.3116 -0.1670
 7010SOL    HW232664   3.285   3.144   2.828 -0.7677  0.8313 -0.2481
 7011SOL     OW32665   4.077   2.641   8.611 -0.2899  0.2596 -0.1358
 7011SOL    HW132666   4.120   2.725   8.621 -1.5276  0.7176  1.3092
 7011SOL    HW232667   4.035   2.633   8.697  0.0367 -2.6072 -0.2554
 7012SOL     OW32668   1.608   4.518   6.810  0.0189  0.1044  0.0391
 7012SOL    HW132669   1.668   4.544   6.740  0.3555 -0.2146  0.2064
 7012SOL    HW232670   1.647   4.551   6.891  0.6185  1.0023 -0.6090
 7013SOL     OW32671   0.717   0.690  10.282 -0.2651  0.0199  0.4664
 7013SOL    HW132672   0.660   0.655  10.350  1.3613 -0.5971  1.5262
 7013SOL    HW232673   0.697   0.784  10.280 -0.1638  0.0209 -0.5117
 7014SOL     OW32674   1.738   3.395  11.658 -0.1954 -0.6106  0.4227
 7014SOL    HW132675   1.726   3.301  11.664 -1.3622 -0.5142 -0.3395
 7014SOL    HW232676   1.800   3.418  11.727 -0.7170  0.2532  0.6164
 7015SOL     OW32677   2.888   1.286   2.354  0.0628  0.1778 -0.5953
 7015SOL    HW132678   2.810   1.249   2.312 -0.3335 -1.1942  1.3538
 7015SOL    HW232679   2.936   1.330   2.284 -1.1088  0.7203 -1.0680
 7016SOL     OW32680   3.569   4.116   7.868  0.2176  0.4407 -0.4053
 7016SOL    HW132681   3.522   4.092   7.948 -1.4811 -0.6317 -1.7170
 7016SOL    HW232682   3.648   4.163   7.894  2.5974 -2.9945 -1.3951
 7017SOL     OW32683   1.651   2.128   6.062  0.1691 -0.0779 -0.1763
 7017SOL    HW132684   1.669   2.219   6.088  0.6892  0.2955 -1.8611
 7017SOL    HW232685   1.654   2.137   5.967 -0.5352  0.2689 -0.1720
 7018SOL     OW32686   3.535   3.312   0.981 -0.2710 -0.1643  0.7549
 7018SOL    HW132687   3.512   3.364   1.058 -2.1096  1.3640 -0.8174
 7018SOL    HW232688   3.623   3.280   1.000 -1.8422 -3.4569  2.5200
 7019SOL     OW32689   2.968   1.597   7.607 -0.4019  0.2232  0.0298
 7019SOL    HW132690   2.900   1.602   7.675  0.6485  1.6197  0.9842
 7019SOL    HW232691   3.040   1.650   7.641 -2.0125  3.2586 -1.2591
 7020SOL     OW32692   1.635   3.128   2.091 -0.1153 -0.0571  0.3686
 7020SOL    HW132693   1.579   3.051   2.100 -0.2113  0.0497  0.6915
 7020SOL    HW232694   1.712   3.102   2.142  0.0005  1.3204  0.8943
 7021SOL     OW32695   3.161   3.264   9.196  0.5294 -0.4636 -0.0631
 7021SOL    HW132696   3.220   3.188   9.191 -0.2641 -0.9536 -2.1073
 7021SOL    HW232697   3.222   3.326   9.236  1.6005 -1.0297 -0.8042
 7022SOL     OW32698   1.591   2.999   0.634  0.5874  0.1223 -0.6121
 7022SOL    HW132699   1.579   2.994   0.729  1.4617  2.3632 -0.3999
 7022SOL    HW232700   1.566   2.907   0.622 -0.6507 -0.1123  3.8596
 7023SOL     OW32701   0.334   4.605   6.413  0.1873  0.1636  0.2345
 7023SOL    HW132702   0.425   4.586   6.392  0.0438 -0.5634  0.2555
 7023SOL    HW232703   0.328   4.700   6.417  0.8371  0.1609  1.4725
 7024SOL     OW32704   0.327   2.675   7.567  0.2294  0.9253 -0.0723
 7024SOL    HW132705   0.234   2.697   7.575  0.3282  2.9846 -4.8292
 7024SOL    HW232706   0.316   2.580   7.570 -2.8081  1.2143 -1.4085
 7025SOL     OW32707   3.677   0.540   8.129 -0.2092 -0.3926 -0.0160
 7025SOL    HW132708   3.618   0.477   8.088  1.4096 -1.1184 -1.2628
 7025SOL    HW232709   3.767   0.516   8.108 -1.1311 -4.6841  1.0598
 7026SOL     OW32710   0.574   0.710   9.117 -0.4042  0.7815  0.1389
 7026SOL    HW132711   0.497   0.714   9.061  0.1143 -1.3447 -0.6954
 7026SOL    HW232712   0.569   0.795   9.162 -2.6204  1.4086 -1.3344
 7027SOL     OW32713   3.894   2.044   8.741 -0.0695 -0.0609  0.3284
 7027SOL    HW132714   3.963   2.019   8.679  0.0703  1.7426 -0.2380
 7027SOL    HW232715   3.839   2.104   8.692  0.9640 -0.4483 -1.3400
 7028SOL     OW32716   3.855   2.596   8.448  0.0436 -0.2236 -0.6792
 7028SOL    HW132717   3.788   2.544   8.491  1.0189 -1.7103 -0.9469
 7028SOL    HW232718   3.915   2.628   8.516 -2.2343 -0.2876  1.3425
 7029SOL     OW32719   0.009   4.036   0.747 -0.2773 -0.2154  0.5077
 7029SOL    HW132720   0.006   3.941   0.735 -0.1419 -0.4029  1.9438
 7029SOL    HW232721   4.728   4.064   0.658 -0.6822 -2.7227 -0.1999
 7030SOL     OW32722   0.270   1.712   9.618  0.3270  0.7740 -0.3135
 7030SOL    HW132723   0.318   1.785   9.656  1.4217 -0.3560  0.4785
 7030SOL    HW232724   0.323   1.644   9.659  1.0147 -0.5641 -3.3910
 7031SOL     OW32725   2.771   4.467   1.438 -0.4182  0.4014 -0.0057
 7031SOL    HW132726   2.744   4.443   1.350 -2.1485  0.6562  0.4557
 7031SOL    HW232727   2.704   4.432   1.497 -0.1118  0.4945  0.4027
 7032SOL     OW32728   4.585   1.509   8.005 -0.4296 -0.6697 -0.3889
 7032SOL    HW132729   4.545   1.454   7.938  0.3034 -1.6230 -0.0449
 7032SOL    HW232730   4.589   1.445   8.076  0.0217  0.6190  0.7480
 7033SOL     OW32731   0.202   0.483  10.314  0.6482 -0.0663  0.1219
 7033SOL    HW132732   0.295   0.478  10.291  0.3785 -3.2727 -0.3018
 7033SOL    HW232733   0.188   0.576  10.334 -3.7805 -0.4049 -1.4161
 7034SOL     OW32734   4.516   1.964   3.940 -0.5431 -0.0647  0.2555
 7034SOL    HW132735   4.476   1.897   3.995  0.0783 -1.0005 -0.4365
 7034SOL    HW232736   4.469   1.941   3.859 -0.6844 -1.1412  0.6394
 7035SOL     OW32737   3.060   3.606   1.713 -0.2060  0.2760 -0.4308
 7035SOL    HW132738   2.973   3.585   1.747 -0.2905  0.3342 -0.6106
 7035SOL    HW232739   3.038   3.644   1.628  0.7646  0.0304 -0.8049
 7036SOL     OW32740   4.671   4.376   0.507 -0.1603 -0.3110  0.0488
 7036SOL    HW132741   4.662   4.285   0.479  1.2956 -0.4411 -0.0053
 7036SOL    HW232742   4.590   4.380   0.557 -0.8128  0.1794 -1.0514
 7037SOL     OW32743   2.396   1.429   0.680  0.2074  0.3763  0.3948
 7037SOL    HW132744   2.301   1.419   0.680  0.1170  1.2753 -1.5787
 7037SOL    HW232745   2.421   1.416   0.772  0.7496 -1.2329  0.0160
 7038SOL     OW32746   3.977   2.944   1.619 -0.0607  0.1747  0.0662
 7038SOL    HW132747   4.000   3.033   1.647 -0.6740  0.4774 -0.3947
 7038SOL    HW232748   3.941   2.918   1.703 -0.1390  0.9753  0.2857
 7039SOL     OW32749   3.924   0.495   8.037 -0.2230  0.3421 -0.2225
 7039SOL    HW132750   4.018   0.478   8.044  0.0572  1.3701 -1.4417
 7039SOL    HW232751   3.901   0.470   7.947 -1.6533  2.0860 -0.3433
 7040SOL     OW32752   1.934   1.514   7.245  0.9300 -0.1503 -0.1826
 7040SOL    HW132753   2.016   1.505   7.293  1.1147  0.9584 -0.3033
 7040SOL    HW232754   1.963   1.549   7.160 -1.4751  1.1593 -0.4623
 7041SOL     OW32755   4.351   3.946   2.147 -0.1960 -0.4122  1.2004
 7041SOL    HW132756   4.312   3.907   2.068  2.5943  1.4122 -1.0902
 7041SOL    HW232757   4.354   3.866   2.199 -1.2600 -1.5041 -0.4000
 7042SOL     OW32758   4.609   4.244  11.494 -0.3874  0.4010 -0.7280
 7042SOL    HW132759   4.629   4.311  11.560 -2.2178  1.3156 -1.1087
 7042SOL    HW232760   4.559   4.191  11.557  0.5057  0.6036  0.1515
 7043SOL     OW32761   2.527   1.750  12.569  0.1243  0.3391  0.1337
 7043SOL    HW132762   2.475   1.674  12.597  0.2554 -0.3360 -1.4867
 7043SOL    HW232763   2.574   1.706  12.499  2.0163  2.0319  0.3385
 7044SOL     OW32764   2.936   3.177  15.779 -0.2246  0.1398  0.3337
 7044SOL    HW132765   2.890   3.124  15.843  1.3016 -1.0479  0.4326
 7044SOL    HW232766   2.923   3.267  15.809  0.1958  0.0949  0.6459
 7045SOL     OW32767   4.716   0.828   2.626  0.2629 -0.1964 -0.2995
 7045SOL    HW132768   0.051   0.770   2.649  0.8812  0.0675 -1.5573
 7045SOL    HW232769   4.712   0.877   2.708  0.1491  1.6257 -1.3946
 7046SOL     OW32770   0.353   2.804  15.110 -0.1999  0.0583 -0.0293
 7046SOL    HW132771   0.355   2.834  15.201  1.3523 -2.5499  0.7647
 7046SOL    HW232772   0.425   2.741  15.111  0.7001  1.0899  0.4324
 7047SOL     OW32773   3.041   2.442  13.394 -0.4439  0.1725 -0.3292
 7047SOL    HW132774   3.071   2.416  13.481 -1.1004  2.1002  0.4758
 7047SOL    HW232775   3.123   2.420  13.350 -1.6244 -0.4566 -2.2330
 7048SOL     OW32776   3.610   1.463   9.564  0.9391 -0.3863  0.0331
 7048SOL    HW132777   3.600   1.369   9.547  3.5733 -0.7104  0.2069
 7048SOL    HW232778   3.704   1.463   9.584  1.0710 -1.9704 -0.5758
 7049SOL     OW32779   0.628   3.932   8.645 -0.2501 -0.2154  0.1701
 7049SOL    HW132780   0.572   3.857   8.626  0.7959 -1.4310  1.8827
 7049SOL    HW232781   0.582   3.983   8.711 -0.1173 -0.2623  0.3009
 7050SOL     OW32782   3.628   3.224   5.492  0.1257  0.7641  0.1273
 7050SOL    HW132783   3.670   3.140   5.476  0.5255  0.4615  2.8026
 7050SOL    HW232784   3.699   3.278   5.528  2.4080 -1.7546 -0.5984
 7051SOL     OW32785   1.027   3.428   1.455 -0.0393 -0.4039 -0.1978
 7051SOL    HW132786   0.975   3.372   1.512 -1.9370  2.8743  1.2692
 7051SOL    HW232787   0.998   3.395   1.369 -2.3854 -2.1051  1.2522
 7052SOL     OW32788   0.414   4.605  11.542 -0.3096  0.1678  0.2551
 7052SOL    HW132789   0.492   4.619  11.595 -1.2206  1.8201  1.1656
 7052SOL    HW232790   0.379   4.694  11.537 -0.6306  0.0090 -0.2932
 7053SOL     OW32791   1.638   0.572   4.528  0.3121 -0.5530  0.2146
 7053SOL    HW132792   1.654   0.492   4.579  1.7199 -0.9661 -0.8648
 7053SOL    HW232793   1.654   0.644   4.589  1.1132 -1.3376  0.9340
 7054SOL     OW32794   4.383   0.281  17.535  0.4007  0.2792 -0.0641
 7054SOL    HW132795   4.332   0.223  17.478  0.6591  0.0160 -0.0329
 7054SOL    HW232796   4.442   0.214  17.571 -1.9327  0.2017  3.7096
 7055SOL     OW32797   3.932   1.822   4.351 -0.0840  0.4858 -0.3733
 7055SOL    HW132798   3.945   1.830   4.445  0.3611 -4.2287 -0.0488
 7055SOL    HW232799   3.980   1.740   4.338 -0.6288  0.1390 -0.1832
 7056SOL     OW32800   1.781   3.493   0.643 -0.3254 -0.0633  0.4574
 7056SOL    HW132801   1.835   3.491   0.564 -0.0018  0.2159  0.6695
 7056SOL    HW232802   1.743   3.406   0.641  1.4194 -0.8356  0.3891
 7057SOL     OW32803   2.881   4.061   5.952 -0.4243  0.0411  0.5727
 7057SOL    HW132804   2.904   4.096   5.866 -1.7286  1.3481  0.7538
 7057SOL    HW232805   2.787   4.045   5.944 -0.6201  2.0352 -1.2005
 7058SOL     OW32806   2.335   3.843   9.250  0.5467 -0.3363  0.8439
 7058SOL    HW132807   2.349   3.916   9.190  0.9358  0.9249  2.4682
 7058SOL    HW232808   2.410   3.792   9.220  0.3443  0.0493 -0.3034
 7059SOL     OW32809   2.084   0.381  12.301 -0.2251 -0.3771  0.0813
 7059SOL    HW132810   2.164   0.344  12.264 -1.5911 -1.9609 -1.2401
 7059SOL    HW232811   2.024   0.388  12.227  0.0362  2.2779  0.1136
 7060SOL     OW32812   2.823   2.238   3.593 -0.1027 -0.4028  0.1787
 7060SOL    HW132813   2.813   2.329   3.564  2.2559  0.0754  0.8474
 7060SOL    HW232814   2.919   2.230   3.591 -0.1054  0.0968 -1.6508
 7061SOL     OW32815   3.745   2.260   1.358 -0.5454  0.4356 -0.5824
 7061SOL    HW132816   3.662   2.281   1.401 -1.2022 -2.3904 -0.4243
 7061SOL    HW232817   3.726   2.172   1.323  0.0166  0.2844 -0.4977
 7062SOL     OW32818   2.178   3.943   6.471 -0.4563  0.1342  0.6423
 7062SOL    HW132819   2.125   4.006   6.423 -2.6657 -2.2068  0.0004
 7062SOL    HW232820   2.268   3.975   6.469  0.4981 -2.5561 -0.1168
 7063SOL     OW32821   4.407   1.031  13.162  0.1987  0.0835 -0.0247
 7063SOL    HW132822   4.474   1.083  13.207  1.8021 -1.2830 -0.8341
 7063SOL    HW232823   4.449   1.021  13.077 -0.8157 -2.2023 -0.2599
 7064SOL     OW32824   4.245   2.351   4.862  0.8102 -0.1977  0.3770
 7064SOL    HW132825   4.226   2.367   4.954  2.0862  1.0679  0.4015
 7064SOL    HW232826   4.181   2.280   4.850 -1.3792  1.8382  0.1058
 7065SOL     OW32827   0.022   2.497  16.631 -0.2861 -0.4019  0.4428
 7065SOL    HW132828   4.677   2.542  16.649 -0.4513 -0.6935  0.4215
 7065SOL    HW232829   0.075   2.528  16.704  0.6347 -0.8435 -0.0336
 7066SOL     OW32830   1.060   1.384   5.193 -0.1166  0.0156 -0.4073
 7066SOL    HW132831   1.111   1.452   5.238  1.1490 -0.6953 -0.7567
 7066SOL    HW232832   1.106   1.303   5.216 -0.8880 -0.7917 -1.7339
 7067SOL     OW32833   3.997   3.669   8.058 -0.0508  0.2856 -0.3339
 7067SOL    HW132834   4.043   3.589   8.032 -0.7516 -0.8364  1.8203
 7067SOL    HW232835   3.909   3.631   8.063 -0.5362  1.2934 -1.3535
 7068SOL     OW32836   3.088   1.681   3.592  0.4775  0.0850 -0.0952
 7068SOL    HW132837   2.996   1.709   3.590 -0.0045 -1.4633  0.3381
 7068SOL    HW232838   3.079   1.592   3.558  1.2364  0.7948 -2.1629
 7069SOL     OW32839   0.295   1.927  11.650 -0.1916 -0.0099 -0.4348
 7069SOL    HW132840   0.353   1.874  11.705  0.6691  1.3642 -0.0160
 7069SOL    HW232841   0.362   1.981  11.609  0.8215 -0.1141  1.0949
 7070SOL     OW32842   1.449   1.183   1.576  0.9123  0.1344  0.1122
 7070SOL    HW132843   1.431   1.102   1.624  0.2204  0.7391  0.8770
 7070SOL    HW232844   1.378   1.198   1.514  1.4676  1.7164 -0.1602
 7071SOL     OW32845   3.202   0.788   9.047 -0.1242 -0.0664 -0.0852
 7071SOL    HW132846   3.293   0.761   9.037 -0.5482 -0.6168 -2.4617
 7071SOL    HW232847   3.139   0.717   9.032 -0.5630  0.2490  0.2591
 7072SOL     OW32848   3.707   3.486   4.496  0.0947  0.5399 -0.0462
 7072SOL    HW132849   3.788   3.535   4.513 -1.0354  2.3208  0.2981
 7072SOL    HW232850   3.691   3.518   4.407  2.5097 -0.9317 -1.0048
 7073SOL     OW32851   2.811   3.915   4.316  0.1841 -0.1278  0.6400
 7073SOL    HW132852   2.827   3.916   4.411 -0.2457 -1.2235  0.7233
 7073SOL    HW232853   2.727   3.869   4.312  0.0476  0.3056 -1.1315
 7074SOL     OW32854   1.495   1.734  11.804  0.5739 -0.5916  0.0542
 7074SOL    HW132855   1.531   1.823  11.810 -0.5438 -0.1730  0.6036
 7074SOL    HW232856   1.540   1.692  11.731  0.6706 -1.4938  0.6422
 7075SOL     OW32857   3.290   2.927  14.396 -0.0727  0.1579 -0.4104
 7075SOL    HW132858   3.208   2.902  14.353  1.1070  1.4714 -3.4428
 7075SOL    HW232859   3.301   3.021  14.382 -0.2639  0.0669 -1.1931
 7076SOL     OW32860   1.754   2.763   7.748  0.5954 -0.0547  0.1823
 7076SOL    HW132861   1.699   2.790   7.675 -0.2386 -0.4028  0.6710
 7076SOL    HW232862   1.766   2.672   7.722 -0.2495  0.1916 -1.0490
 7077SOL     OW32863   3.393   1.389   6.079 -0.3523  0.7077 -0.0418
 7077SOL    HW132864   3.477   1.432   6.061  0.2705 -0.5563 -0.1782
 7077SOL    HW232865   3.346   1.462   6.119 -0.7774 -0.0036  0.7631
 7078SOL     OW32866   2.027   2.464   6.262  0.0292  0.0217  0.4909
 7078SOL    HW132867   2.069   2.458   6.176  0.0324  1.8326  0.3569
 7078SOL    HW232868   1.934   2.445   6.248  0.7367 -1.2309 -2.5846
 7079SOL     OW32869   0.302   3.777   5.481 -0.8179  0.5629  0.1829
 7079SOL    HW132870   0.397   3.786   5.477 -0.9027  0.7345 -1.1782
 7079SOL    HW232871   0.290   3.871   5.492  1.9503  0.9300  0.0872
 7080SOL     OW32872   0.659   0.386  17.099 -0.4120 -0.2447 -0.0287
 7080SOL    HW132873   0.590   0.360  17.161 -1.2459 -0.8105 -1.1860
 7080SOL    HW232874   0.600   0.384  17.024  1.4328  0.8863 -1.4724
 7081SOL     OW32875   4.342   4.107  15.283  0.4369  0.2079  0.3983
 7081SOL    HW132876   4.363   4.072  15.196  0.0820 -2.9679  1.5980
 7081SOL    HW232877   4.379   4.044  15.344 -0.4724 -1.4348 -0.7422
 7082SOL     OW32878   2.161   3.063   2.921  0.4182 -0.5132 -0.1653
 7082SOL    HW132879   2.250   3.029   2.914  1.1640  1.0931  1.4704
 7082SOL    HW232880   2.132   3.060   2.830  3.0592  2.3302 -1.0879
 7083SOL     OW32881   0.817   1.815   4.795 -0.3428 -0.1015  0.1782
 7083SOL    HW132882   0.730   1.811   4.755 -0.7549 -0.2428  1.0661
 7083SOL    HW232883   0.805   1.759   4.872  0.7416 -0.2387  0.2455
 7084SOL     OW32884   1.358   2.066  10.439 -0.2557  0.2326 -0.3355
 7084SOL    HW132885   1.411   2.001  10.485 -3.0045 -1.6195  0.2050
 7084SOL    HW232886   1.325   2.127  10.505 -0.7959 -1.1217  0.6508
 7085SOL     OW32887   2.577   1.253   7.354  0.2413 -0.1946  0.4715
 7085SOL    HW132888   2.551   1.262   7.446 -0.2571  3.7654 -0.0286
 7085SOL    HW232889   2.669   1.229   7.366 -0.0710 -1.5919  0.0715
 7086SOL     OW32890   3.356   0.542   9.216 -0.1574 -0.1116 -0.2237
 7086SOL    HW132891   3.378   0.572   9.128  0.6479 -1.0962 -0.3519
 7086SOL    HW232892   3.312   0.461   9.190  1.1424 -1.3384  1.4023
 7087SOL     OW32893   0.082   4.365   0.087 -0.2284  0.4972 -0.2879
 7087SOL    HW132894   0.133   4.296   0.046  0.1511 -0.3787  1.6216
 7087SOL    HW232895   4.728   4.342   0.070 -0.4295  1.3022 -0.3159
 7088SOL     OW32896   4.549   1.016   4.195 -0.5322  0.2015  0.2506
 7088SOL    HW132897   4.643   1.006   4.210 -0.3539 -1.6796 -2.1890
 7088SOL    HW232898   4.549   1.100   4.241  0.0439  0.1669  0.3071
 7089SOL     OW32899   0.748   3.253  15.251 -0.0504  0.0808  0.3904
 7089SOL    HW132900   0.753   3.339  15.292 -1.9969  1.2705 -1.8783
 7089SOL    HW232901   0.837   3.238  15.220 -0.1816 -0.8137  0.4498
 7090SOL     OW32902   0.201   0.708  12.599  0.0046 -0.0176  0.1536
 7090SOL    HW132903   0.134   0.640  12.594  0.1356  0.0319 -2.0817
 7090SOL    HW232904   0.181   0.750  12.683 -2.0721  0.7639 -0.7154
 7091SOL     OW32905   2.189   1.464   6.658  0.5262 -0.7146  0.3087
 7091SOL    HW132906   2.280   1.468   6.628  1.3359  1.1116  2.9766
 7091SOL    HW232907   2.168   1.372   6.674 -0.2517 -0.9785 -2.2606
 7092SOL     OW32908   1.943   2.908  10.522 -0.1175 -0.1008 -0.0811
 7092SOL    HW132909   1.968   2.958  10.445  2.2536  0.4913  1.0862
 7092SOL    HW232910   1.874   2.964  10.558 -0.5115 -0.3569 -0.4445
 7093SOL     OW32911   2.236   0.170   0.931  0.1110  0.3494 -0.3130
 7093SOL    HW132912   2.176   0.145   1.002  0.0426  0.2678 -0.4006
 7093SOL    HW232913   2.188   0.131   0.859 -0.8987 -1.3284  1.2586
 7094SOL     OW32914   3.401   0.660   2.238 -0.4605  0.0849 -0.1996
 7094SOL    HW132915   3.336   0.705   2.291  0.0666  1.0230 -0.3546
 7094SOL    HW232916   3.469   0.664   2.305  0.9733 -0.4919 -1.6283
 7095SOL     OW32917   2.051   0.130   1.113 -0.0044 -0.2182 -0.6369
 7095SOL    HW132918   1.971   0.179   1.132  0.8316  1.3847 -1.1661
 7095SOL    HW232919   2.120   0.169   1.168 -0.0272 -0.9287 -0.1103
 7096SOL     OW32920   0.957   4.232   4.760 -0.0653 -0.1459  0.3341
 7096SOL    HW132921   0.908   4.184   4.826 -1.5852  1.0076  0.0265
 7096SOL    HW232922   0.987   4.154   4.714 -3.4129 -1.8925  1.1465
 7097SOL     OW32923   1.212   2.774   2.014 -0.5616  0.0548  0.4136
 7097SOL    HW132924   1.118   2.758   2.018 -0.8654  2.1471  1.8645
 7097SOL    HW232925   1.203   2.863   1.980 -0.5952 -0.9786 -2.2709
 7098SOL     OW32926   4.215   4.261   1.995  0.1100 -1.0394 -0.2346
 7098SOL    HW132927   4.134   4.265   2.046  1.4723 -0.6977  1.8552
 7098SOL    HW232928   4.245   4.351   2.006  0.7425 -1.2136 -0.5862
 7099SOL     OW32929   1.602   3.976   6.709  0.1991 -0.3292  0.4247
 7099SOL    HW132930   1.521   3.974   6.658  0.0215 -0.5440  0.7107
 7099SOL    HW232931   1.649   4.051   6.673 -0.1137 -1.0516 -1.4623
 7100SOL     OW32932   4.451   1.829  13.139  0.5766  0.1617  0.6700
 7100SOL    HW132933   4.429   1.896  13.204  0.8277 -1.5969  2.5755
 7100SOL    HW232934   4.538   1.858  13.111 -0.0550  0.7823 -0.6407
 7101SOL     OW32935   3.930   3.436  17.095  0.7970  0.1556  0.0266
 7101SOL    HW132936   3.900   3.363  17.041 -1.3039  0.3859  0.9027
 7101SOL    HW232937   3.852   3.492  17.101  1.2274  0.8700 -0.9449
 7102SOL     OW32938   2.695   0.873   8.059  0.1247 -0.3614  0.9877
 7102SOL    HW132939   2.666   0.960   8.088 -0.4433 -0.0001 -0.6540
 7102SOL    HW232940   2.619   0.837   8.012 -0.7048  1.6862  0.7476
 7103SOL     OW32941   4.324   1.650  11.963 -0.5052  0.2145 -0.3144
 7103SOL    HW132942   4.254   1.653  12.027 -0.1755 -2.6062  0.2034
 7103SOL    HW232943   4.284   1.669  11.878  0.8461 -0.8500 -1.2047
 7104SOL     OW32944   4.624   2.057  11.246 -0.0160 -0.0120 -0.0159
 7104SOL    HW132945   4.709   2.068  11.286  0.6899 -0.4737 -1.3794
 7104SOL    HW232946   4.616   1.966  11.216  2.0197  0.4066 -1.8572
 7105SOL     OW32947   2.996   2.662   5.503 -0.1296 -0.2642 -0.0215
 7105SOL    HW132948   2.928   2.722   5.471  0.4171  0.3359 -0.0625
 7105SOL    HW232949   3.058   2.732   5.523  1.9066 -1.8618 -0.8019
 7106SOL     OW32950   0.075   1.230   1.070  0.4937 -0.0557 -0.4181
 7106SOL    HW132951   0.103   1.320   1.086  0.8542 -0.3251  0.4864
 7106SOL    HW232952   0.044   1.229   0.980  1.5919 -0.5000 -0.7840
 7107SOL     OW32953   1.278   3.544   7.568  0.0725 -0.1740 -0.4508
 7107SOL    HW132954   1.353   3.601   7.551  0.6913 -1.2265 -1.3283
 7107SOL    HW232955   1.272   3.509   7.479 -0.2661 -1.4470  0.0689
 7108SOL     OW32956   2.348   1.119   2.740 -0.1426 -0.0444 -0.1178
 7108SOL    HW132957   2.267   1.077   2.770 -0.3333 -0.1011 -0.7097
 7108SOL    HW232958   2.312   1.167   2.665 -1.7505 -0.7393  0.2065
 7109SOL     OW32959   0.223   1.492  11.087  0.4623  0.7118  0.2359
 7109SOL    HW132960   0.137   1.477  11.127 -1.1688  2.6606 -2.4861
 7109SOL    HW232961   0.208   1.583  11.062 -2.7990  0.0687 -0.1488
 7110SOL     OW32962   3.530   4.092   2.024 -0.2147 -0.2947  0.2522
 7110SOL    HW132963   3.476   4.029   1.975  1.3804  0.1709 -2.0982
 7110SOL    HW232964   3.453   4.119   2.075 -0.1279 -0.7469  0.6219
 7111SOL     OW32965   0.716   3.946  12.421 -0.0798  0.4996  0.2231
 7111SOL    HW132966   0.670   3.964  12.339 -1.2468 -0.1234  0.7411
 7111SOL    HW232967   0.802   3.927  12.385 -0.6842  0.9767 -1.4827
 7112SOL     OW32968   0.324   1.789   2.907 -0.3375  0.1483  0.3269
 7112SOL    HW132969   0.411   1.819   2.881  0.6461 -1.6820  1.5066
 7112SOL    HW232970   0.325   1.707   2.858  1.0425 -1.5605  3.2095
 7113SOL     OW32971   2.413   2.049   6.584  0.2275  0.2042  0.0356
 7113SOL    HW132972   2.499   2.011   6.567  0.7463  0.6584  1.7090
 7113SOL    HW232973   2.395   2.027   6.675 -0.9712 -1.5271 -0.6079
 7114SOL     OW32974   1.383   2.991   8.498  0.1738  0.1100  0.3389
 7114SOL    HW132975   1.347   3.071   8.460  1.4431  1.9582  3.0726
 7114SOL    HW232976   1.371   3.011   8.590 -0.6959  0.4313  0.1600
 7115SOL     OW32977   3.274   3.358   7.049 -0.3128  0.6149 -0.2388
 7115SOL    HW132978   3.269   3.391   7.139  0.7196  0.8459 -0.2734
 7115SOL    HW232979   3.340   3.411   7.005  0.7672 -0.3332  0.2485
 7116SOL     OW32980   2.336   1.898   6.810 -0.1947 -0.0491  0.0962
 7116SOL    HW132981   2.409   1.887   6.871  0.3510 -1.6494 -0.8491
 7116SOL    HW232982   2.352   1.834   6.741 -2.9695 -0.1959 -0.3893
 7117SOL     OW32983   0.288   2.644  12.968  0.1477  0.1932 -0.1385
 7117SOL    HW132984   0.194   2.634  12.983  0.2301 -3.2053 -2.0610
 7117SOL    HW232985   0.293   2.630  12.873 -0.2534 -3.3574  0.3919
 7118SOL     OW32986   1.217   3.723  12.610 -0.1171 -0.3776 -0.5625
 7118SOL    HW132987   1.307   3.712  12.578 -0.2328  1.4389 -1.5626
 7118SOL    HW232988   1.173   3.658  12.555  0.2708 -0.1444 -1.1573
 7119SOL     OW32989   3.325   4.564  11.822  0.3710  0.3300 -0.5073
 7119SOL    HW132990   3.235   4.593  11.829  0.8087  0.7573  3.1337
 7119SOL    HW232991   3.353   4.655  11.817 -0.3507  0.6382  1.0961
 7120SOL     OW32992   3.837   0.758  13.549 -0.6488  0.4684  0.8182
 7120SOL    HW132993   3.849   0.777  13.456  0.1176  1.6555  1.1568
 7120SOL    HW232994   3.758   0.704  13.554 -1.3674  1.5286  0.9502
 7121SOL     OW32995   0.971   2.682   2.183  0.0411  0.7267 -0.0649
 7121SOL    HW132996   0.992   2.598   2.226  1.9261  0.2220 -2.0186
 7121SOL    HW232997   0.879   2.665   2.160  0.8880  1.8218 -4.0799
 7122SOL     OW32998   4.556   1.280  16.970 -0.2933  0.4411 -0.1786
 7122SOL    HW132999   4.468   1.248  16.949 -0.2711 -1.8010  3.1489
 7122SOL    HW233000   4.554   1.375  16.957 -0.8808  0.6245  1.2931
 7123SOL     OW33001   0.663   2.864   6.670  0.0817 -0.3442 -0.2263
 7123SOL    HW133002   0.597   2.861   6.601 -1.4567 -2.6670  1.3419
 7123SOL    HW233003   0.676   2.774   6.702 -0.1336 -0.4245 -0.3667
 7124SOL     OW33004   1.073   3.573  11.558 -0.3363 -0.1234 -0.6651
 7124SOL    HW133005   1.003   3.630  11.587 -0.7674 -1.4342  0.8668
 7124SOL    HW233006   1.158   3.612  11.579  0.0907 -1.5454  0.2930
 7125SOL     OW33007   1.723   0.056   8.380 -0.2343 -0.1363  0.1837
 7125SOL    HW133008   1.708   0.136   8.331 -2.8700 -0.4580  0.4794
 7125SOL    HW233009   1.722   4.728   8.310  3.0686 -1.6432  1.5183
 7126SOL     OW33010   2.590   0.530   4.156 -0.3063 -0.0738  0.8579
 7126SOL    HW133011   2.502   0.527   4.195 -0.4378  2.6910  0.7995
 7126SOL    HW233012   2.628   0.450   4.193  0.6396 -0.2424 -0.4935
 7127SOL     OW33013   3.713   2.935   8.142 -0.0772  0.1990 -0.2679
 7127SOL    HW133014   3.683   2.880   8.069  0.6022  0.0269 -0.4166
 7127SOL    HW233015   3.807   2.923   8.126 -0.0733 -0.6759  0.3792
 7128SOL     OW33016   1.296   1.693   2.626 -0.1283  0.1903  0.6797
 7128SOL    HW133017   1.356   1.729   2.691 -1.3267  0.6973  1.4997
 7128SOL    HW233018   1.289   1.767   2.566 -2.7543  0.0740  0.8049
 7129SOL     OW33019   1.938   2.915   4.487 -0.3961 -0.2898 -0.6259
 7129SOL    HW133020   1.865   2.885   4.433 -2.0193  1.6079  0.4869
 7129SOL    HW233021   1.947   3.008   4.470 -1.5983  0.3967  2.3447
 7130SOL     OW33022   3.477   1.346   1.628  0.2863 -0.1632 -0.1370
 7130SOL    HW133023   3.472   1.308   1.540 -1.3129  0.7329 -0.4393
 7130SOL    HW233024   3.532   1.423   1.613 -0.4936  0.6133  1.0594
 7131SOL     OW33025   0.663   3.243   1.054 -0.5767 -0.0195  0.1128
 7131SOL    HW133026   0.613   3.264   1.133 -1.2382 -0.5890 -0.1541
 7131SOL    HW233027   0.597   3.206   0.995 -1.1246  0.8658  0.1661
 7132SOL     OW33028   2.801   1.732   3.816  0.3149 -0.3283  0.5841
 7132SOL    HW133029   2.796   1.677   3.738  0.6988  1.4153 -0.6821
 7132SOL    HW233030   2.787   1.816   3.772  1.4331  0.4513  1.7043
 7133SOL     OW33031   4.210   2.460   8.403 -0.2363 -0.6080 -0.1739
 7133SOL    HW133032   4.186   2.471   8.495  0.5824 -0.1772 -0.0120
 7133SOL    HW233033   4.301   2.433   8.417  0.8467  2.7615 -0.6782
 7134SOL     OW33034   3.490   0.305   4.721 -0.2271  0.0419 -0.4836
 7134SOL    HW133035   3.443   0.362   4.782 -4.0601 -1.3298 -2.1453
 7134SOL    HW233036   3.422   0.241   4.701  0.2711 -0.6894  0.1722
 7135SOL     OW33037   3.784   0.720   6.483  0.0503  0.1979 -0.3941
 7135SOL    HW133038   3.868   0.678   6.501  0.1352  1.8931  3.1217
 7135SOL    HW233039   3.770   0.708   6.389  1.4023  0.1913 -0.5869
 7136SOL     OW33040   3.708   3.220   6.000 -0.4655 -0.0551 -0.0228
 7136SOL    HW133041   3.762   3.243   5.925  0.4155 -1.1816  0.2685
 7136SOL    HW233042   3.777   3.181   6.054  0.8600  1.8771 -0.3052
 7137SOL     OW33043   1.670   0.159   8.102  0.1480 -0.0385 -0.0890
 7137SOL    HW133044   1.675   0.066   8.125 -0.7770  0.2042  1.0536
 7137SOL    HW233045   1.743   0.161   8.039  0.9675 -0.8327  0.8413
 7138SOL     OW33046   3.160   3.598   1.081  0.1986 -0.2674  0.1553
 7138SOL    HW133047   3.147   3.645   0.999  0.0637 -1.2480 -0.3744
 7138SOL    HW233048   3.102   3.523   1.077 -1.6084  1.1720 -0.5415
 7139SOL     OW33049   2.817   1.959   4.265  0.0086  0.0070 -0.3397
 7139SOL    HW133050   2.759   1.895   4.304 -0.2938  0.0916 -0.6537
 7139SOL    HW233051   2.811   1.941   4.171 -0.4102 -0.9856 -0.1187
 7140SOL     OW33052   2.245   1.742   1.496 -0.3803  0.2856 -0.2828
 7140SOL    HW133053   2.263   1.836   1.488 -0.0466  0.0923 -1.7986
 7140SOL    HW233054   2.177   1.714   1.436 -0.6568 -1.7644  0.9636
 7141SOL     OW33055   2.885   1.253   6.128  0.2844  0.5295 -0.3629
 7141SOL    HW133056   2.796   1.287   6.126  0.4894  1.0517 -0.4565
 7141SOL    HW233057   2.928   1.330   6.091 -0.2169  0.4637 -1.0746
 7142SOL     OW33058   3.656   3.629   5.961 -0.8827 -0.5515  0.4395
 7142SOL    HW133059   3.630   3.588   5.879  2.2510  1.1420 -1.3884
 7142SOL    HW233060   3.691   3.715   5.936 -0.3452 -0.5168  1.3010
 7143SOL     OW33061   1.793   2.652   8.970 -0.1663 -0.6419 -0.0274
 7143SOL    HW133062   1.771   2.743   8.989 -0.0793 -0.8519  1.0651
 7143SOL    HW233063   1.835   2.631   9.053 -0.5349  1.2603  0.6408
 7144SOL     OW33064   0.227   3.532  16.291  0.1031  0.1829 -0.0139
 7144SOL    HW133065   0.196   3.602  16.348  1.5081 -0.3973  1.4577
 7144SOL    HW233066   0.193   3.559  16.206 -1.4796 -1.0525  0.2417
 7145SOL     OW33067   3.654   2.320   9.384 -0.6114 -0.3241 -0.2490
 7145SOL    HW133068   3.717   2.375   9.337 -0.0914  1.2664  2.3310
 7145SOL    HW233069   3.706   2.242   9.401 -1.0198 -0.8229 -1.2609
 7146SOL     OW33070   2.154   3.827  13.215  0.2202 -0.8984  0.2040
 7146SOL    HW133071   2.206   3.756  13.252  0.3005 -0.2230  1.3685
 7146SOL    HW233072   2.067   3.794  13.237  0.4319 -0.7836  1.2093
 7147SOL     OW33073   3.240   3.229  15.277 -0.4270  0.2227  0.1333
 7147SOL    HW133074   3.172   3.296  15.285 -0.1087  0.5423  0.1547
 7147SOL    HW233075   3.258   3.219  15.371  0.7112 -0.5759 -0.1650
 7148SOL     OW33076   2.383   2.260   8.716  0.5951 -0.3924 -0.4265
 7148SOL    HW133077   2.415   2.344   8.747  0.3892 -1.2622  2.1126
 7148SOL    HW233078   2.447   2.249   8.645 -0.7166  1.2243 -1.8846
 7149SOL     OW33079   0.552   0.210   9.255  0.3920  0.2623  0.7215
 7149SOL    HW133080   0.485   0.174   9.197  1.6009 -0.9159  0.0643
 7149SOL    HW233081   0.505   0.233   9.335  0.3300 -0.9241  1.0384
 7150SOL     OW33082   1.257   3.946  11.206  0.2920 -0.0454 -0.1425
 7150SOL    HW133083   1.231   3.906  11.289 -1.7682 -0.1626 -0.8389
 7150SOL    HW233084   1.224   3.881  11.143  2.1376 -1.7923  0.6931
 7151SOL     OW33085   2.720   2.768   0.413 -0.2626  0.1782 -0.2087
 7151SOL    HW133086   2.660   2.698   0.440 -1.3277  0.1336 -2.6810
 7151SOL    HW233087   2.749   2.733   0.329  1.9521 -1.7043  1.3412
 7152SOL     OW33088   4.677   1.914   4.921  0.5588 -0.2170 -0.2022
 7152SOL    HW133089   4.733   1.932   4.846  1.0573  0.0031  0.2245
 7152SOL    HW233090   4.703   1.822   4.930 -0.9557 -0.7765 -1.4860
 7153SOL     OW33091   2.101   1.119   4.171 -0.5050  0.6921 -0.3059
 7153SOL    HW133092   2.010   1.134   4.198 -0.8494  0.1886 -1.2173
 7153SOL    HW233093   2.138   1.059   4.236  1.6850  0.4019 -1.8469
 7154SOL     OW33094   2.725   2.873  11.865 -0.2251 -0.7587  0.3979
 7154SOL    HW133095   2.784   2.933  11.910  0.3229 -0.4289 -0.7654
 7154SOL    HW233096   2.686   2.822  11.936 -2.3826  1.9523  1.1604
 7155SOL     OW33097   0.379   4.279   8.966 -0.4024  0.5442  0.1677
 7155SOL    HW133098   0.304   4.293   8.907 -0.0798 -2.3678 -0.9362
 7155SOL    HW233099   0.419   4.365   8.965  3.0689 -1.0742  1.4039
 7156SOL     OW33100   4.468   0.078   6.394  0.4050 -0.7822 -0.1442
 7156SOL    HW133101   4.446   0.025   6.318  3.0331 -0.2060 -1.3146
 7156SOL    HW233102   4.399   0.043   6.450  0.2032 -0.5084 -0.2235
 7157SOL     OW33103   0.092   3.671   3.583 -0.0878 -0.6643 -0.1658
 7157SOL    HW133104   0.090   3.679   3.678 -0.8725  1.4982 -0.3758
 7157SOL    HW233105   0.055   3.583   3.578  0.1512 -0.7337 -0.7512
 7158SOL     OW33106   3.743   2.252   6.972  0.2855 -0.5981  0.0521
 7158SOL    HW133107   3.650   2.232   6.982  0.7023 -2.8989 -0.5282
 7158SOL    HW233108   3.766   2.231   7.063 -0.6100  0.4196  0.5172
 7159SOL     OW33109   1.336   2.024   0.080  0.3945 -0.5632 -0.1081
 7159SOL    HW133110   1.331   2.033  17.733  1.8274  0.8389 -0.0540
 7159SOL    HW233111   1.375   2.105   0.114  0.1028  0.3296 -1.9105
 7160SOL     OW33112   0.448   0.431   9.133  0.4059  0.2974 -0.1359
 7160SOL    HW133113   0.512   0.387   9.189  1.3310  0.3223 -1.1598
 7160SOL    HW233114   0.500   0.489   9.077 -0.9701  1.2385 -0.4236
 7161SOL     OW33115   1.307   2.805  16.151  0.0560 -0.0105  0.0345
 7161SOL    HW133116   1.219   2.832  16.177 -0.1294 -0.0669 -0.5335
 7161SOL    HW233117   1.310   2.722  16.200 -0.2172 -0.7532 -1.2017
 7162SOL     OW33118   1.199   0.829   7.776 -0.2463 -0.0046 -0.1404
 7162SOL    HW133119   1.284   0.786   7.761 -0.0821  0.0846  0.4904
 7162SOL    HW233120   1.214   0.861   7.865 -0.9460  1.2424 -0.4781
 7163SOL     OW33121   1.351   3.345   3.488 -0.3309  0.1434 -0.2892
 7163SOL    HW133122   1.364   3.390   3.571 -1.4044  1.4412 -0.8123
 7163SOL    HW233123   1.386   3.412   3.428  2.7490 -1.4458 -0.2730
 7164SOL     OW33124   1.859   3.505   1.489 -0.4200 -0.1516  0.2446
 7164SOL    HW133125   1.803   3.580   1.511  0.4870  0.4694  0.4419
 7164SOL    HW233126   1.864   3.513   1.393  0.9722  0.2407  0.3508
 7165SOL     OW33127   0.461   2.545  16.835 -0.7508  0.3461 -0.2649
 7165SOL    HW133128   0.476   2.631  16.876 -0.5554 -1.6879  3.8495
 7165SOL    HW233129   0.474   2.583  16.748 -0.4081 -0.6114 -0.6304
 7166SOL     OW33130   0.175   2.615   5.718  0.1160  0.0947  0.2813
 7166SOL    HW133131   0.209   2.645   5.634 -1.1301 -2.8050 -1.2951
 7166SOL    HW233132   0.154   2.526   5.688 -1.0514 -0.3414  2.3389
 7167SOL     OW33133   0.354   0.874   1.837  0.3425  0.2276 -0.3441
 7167SOL    HW133134   0.279   0.926   1.866  0.6373  0.5116 -0.0990
 7167SOL    HW233135   0.368   0.814   1.911 -0.7849 -0.9925 -1.1008
 7168SOL     OW33136   1.197   4.620   2.090  1.3202  0.0481  0.2824
 7168SOL    HW133137   1.174   4.625   2.183  1.1822 -3.6018  0.4146
 7168SOL    HW233138   1.282   4.663   2.088  1.5493 -0.2938  2.7266
 7169SOL     OW33139   1.206   3.636   3.504 -0.4084  0.2822 -0.5421
 7169SOL    HW133140   1.135   3.596   3.554 -0.0534  0.5252  0.1564
 7169SOL    HW233141   1.283   3.587   3.532  0.5253  1.5438 -0.8553
 7170SOL     OW33142   0.973   1.786   9.140 -0.1309 -0.1052 -0.0372
 7170SOL    HW133143   0.918   1.856   9.105  1.7693  1.6444  0.4482
 7170SOL    HW233144   1.037   1.837   9.190  1.9126 -0.8276 -1.9371
 7171SOL     OW33145   3.231   0.150   9.755  0.0800 -0.6474 -0.0014
 7171SOL    HW133146   3.154   0.206   9.762 -0.2379 -1.1886  0.9740
 7171SOL    HW233147   3.295   0.205   9.799 -0.6376 -1.1127  1.6303
 7172SOL     OW33148   0.461   1.995   6.013  0.3383 -0.4684  0.1978
 7172SOL    HW133149   0.554   2.015   6.017  0.4255 -0.4899 -1.8782
 7172SOL    HW233150   0.434   1.994   6.105 -1.2609 -0.2146 -0.2734
 7173SOL     OW33151   1.162   4.212   4.463 -0.2846  0.6593 -0.0314
 7173SOL    HW133152   1.129   4.301   4.457  1.6701  1.4879  1.9638
 7173SOL    HW233153   1.239   4.220   4.518 -0.0927 -1.0004 -0.0564
 7174SOL     OW33154   2.467   0.304   0.530 -0.1983  0.0917 -0.1330
 7174SOL    HW133155   2.486   0.372   0.595  3.4281 -0.3127 -0.7610
 7174SOL    HW233156   2.491   0.228   0.582 -3.4277 -1.5102 -0.9565
 7175SOL     OW33157   3.422   3.107   7.143 -0.7080  0.1593  0.1289
 7175SOL    HW133158   3.429   3.102   7.238 -0.9155 -0.9341  0.0914
 7175SOL    HW233159   3.353   3.170   7.125 -0.9927  0.4392  2.2233
 7176SOL     OW33160   1.714   0.982   7.107  0.1161 -0.6261 -0.0560
 7176SOL    HW133161   1.633   0.999   7.058 -0.2329  1.9055  1.4169
 7176SOL    HW233162   1.732   1.056   7.165  3.7774  0.1532 -2.2121
 7177SOL     OW33163   2.948   3.220   1.396  0.3610  0.1398  0.3649
 7177SOL    HW133164   2.917   3.130   1.396 -1.7158  0.8439  0.9324
 7177SOL    HW233165   3.025   3.213   1.340  1.3189 -0.7097  1.8121
 7178SOL     OW33166   3.433   0.365   6.623 -0.3429 -0.6100  0.5110
 7178SOL    HW133167   3.525   0.379   6.643 -0.2982  1.4279 -1.1150
 7178SOL    HW233168   3.384   0.443   6.647  0.2630 -0.3544  0.9000
 7179SOL     OW33169   1.381   2.418   5.571 -0.6368  0.5876 -0.6952
 7179SOL    HW133170   1.431   2.457   5.642 -3.5697  0.7966  1.2599
 7179SOL    HW233171   1.442   2.424   5.497  2.8704 -1.0855  2.0721
 7180SOL     OW33172   2.387   0.812   8.242 -0.5072 -0.0588 -0.0426
 7180SOL    HW133173   2.337   0.758   8.181  1.1780  0.2895 -1.7298
 7180SOL    HW233174   2.347   0.777   8.322  0.9563 -0.0522  0.6910
 7181SOL     OW33175   1.347   2.824  15.450  0.4983  0.3060 -0.3266
 7181SOL    HW133176   1.429   2.856  15.488  1.1326 -2.3820  0.5871
 7181SOL    HW233177   1.285   2.897  15.450 -0.8428 -0.8272 -3.8972
 7182SOL     OW33178   1.143   2.025   1.706 -0.1085 -0.2390 -0.1785
 7182SOL    HW133179   1.109   2.109   1.675  0.2504 -0.0421 -0.0389
 7182SOL    HW233180   1.233   2.042   1.676  0.9670 -3.3691  1.3153
 7183SOL     OW33181   3.945   4.408   2.020  0.1243  0.9002 -0.0774
 7183SOL    HW133182   3.956   4.486   1.965  2.6829 -1.4435 -2.9203
 7183SOL    HW233183   3.915   4.448   2.101 -3.8353 -1.0317 -0.5781
 7184SOL     OW33184   2.822   0.917   3.823 -0.5326 -0.3235 -0.5388
 7184SOL    HW133185   2.812   0.932   3.729 -0.7183 -0.8443 -0.6039
 7184SOL    HW233186   2.731   0.921   3.853 -0.3819  1.7136 -0.3549
 7185SOL     OW33187   0.528   2.111   9.825 -0.2887 -0.1704 -0.0334
 7185SOL    HW133188   0.509   2.195   9.783  1.4351 -0.7918 -2.0413
 7185SOL    HW233189   0.596   2.140   9.886 -0.7478 -0.6688  0.7132
 7186SOL     OW33190   1.548   4.438   7.638 -0.6894  1.0965  0.6256
 7186SOL    HW133191   1.487   4.460   7.708 -0.7950 -0.4265  1.0281
 7186SOL    HW233192   1.527   4.494   7.563  0.8559 -0.5885 -1.1088
 7187SOL     OW33193   1.322   0.746  13.442 -0.0874  0.6604 -0.0202
 7187SOL    HW133194   1.338   0.770  13.533  0.0089 -0.9681  0.3869
 7187SOL    HW233195   1.259   0.676  13.457  1.0534 -0.7024 -1.5803
 7188SOL     OW33196   3.605   3.574   2.516 -0.1576  0.1872  0.3922
 7188SOL    HW133197   3.697   3.564   2.490 -0.8419  0.4454 -2.1079
 7188SOL    HW233198   3.575   3.512   2.450  0.3937  0.9341 -0.5642
 7189SOL     OW33199   1.702   2.953   3.823 -0.2981  0.1518  0.0246
 7189SOL    HW133200   1.715   2.975   3.916 -1.1039  1.6014 -0.2190
 7189SOL    HW233201   1.607   2.960   3.821  0.0092  3.5375 -1.0943
 7190SOL     OW33202   3.800   4.530  12.506  0.0825  0.0695 -0.4918
 7190SOL    HW133203   3.797   4.617  12.545  1.5351  0.2573 -0.8154
 7190SOL    HW233204   3.733   4.498  12.566  2.1172  0.0235  1.7120
 7191SOL     OW33205   3.438   0.133   8.953 -0.3316 -0.2540  0.4056
 7191SOL    HW133206   3.513   0.186   8.924  0.1961 -0.9914  0.4270
 7191SOL    HW233207   3.476   0.046   8.964 -1.1203 -0.7352 -0.6003
 7192SOL     OW33208   4.730   4.701   9.118 -0.2086 -0.4118  0.4063
 7192SOL    HW133209   0.081   4.699   9.082 -0.8068  0.7568 -1.1671
 7192SOL    HW233210   4.719   0.046   9.166  2.2531  0.1711 -0.0212
 7193SOL     OW33211   2.920   3.332   3.513  0.9534 -0.0918  0.6674
 7193SOL    HW133212   2.897   3.425   3.508 -0.3166 -0.4651 -0.5782
 7193SOL    HW233213   2.838   3.298   3.549  0.6042 -0.6457 -0.6411
 7194SOL     OW33214   1.198   2.416   0.740 -0.3364 -0.1744 -0.7065
 7194SOL    HW133215   1.228   2.371   0.819  0.4265 -1.1401 -1.5570
 7194SOL    HW233216   1.116   2.371   0.718  0.2668 -1.0797 -1.0691
 7195SOL     OW33217   2.688   4.432   3.638  0.5773 -0.3837  0.2054
 7195SOL    HW133218   2.691   4.416   3.732  0.0943  0.5570  0.3782
 7195SOL    HW233219   2.773   4.469   3.613 -0.2319  1.4388  0.1059
 7196SOL     OW33220   2.672   2.720   2.231 -0.2602 -0.0742 -0.7954
 7196SOL    HW133221   2.739   2.657   2.203 -1.3369 -2.9539  3.0560
 7196SOL    HW233222   2.602   2.669   2.272 -0.4664  0.9019  0.0297
 7197SOL     OW33223   2.786   1.741   6.404 -1.0318  0.2460 -0.2473
 7197SOL    HW133224   2.822   1.680   6.468 -0.9442  1.4708  0.8698
 7197SOL    HW233225   2.847   1.813   6.426 -2.7755  1.7356 -0.3071
 7198SOL     OW33226   4.615   0.522   6.605  0.4424  0.1631  0.0086
 7198SOL    HW133227   4.591   0.564   6.688 -0.6843 -0.1014 -0.1881
 7198SOL    HW233228   4.652   0.604   6.571 -0.7092  0.2112 -1.1182
 7199SOL     OW33229   1.870   1.065   3.065  0.4292  0.1143 -0.7296
 7199SOL    HW133230   1.951   1.095   3.107  0.9691  0.4621 -2.0178
 7199SOL    HW233231   1.878   0.971   3.085 -1.4002  0.6973  2.8060
 7200SOL     OW33232   2.515   4.435   9.569  0.0797 -0.5049  0.1705
 7200SOL    HW133233   2.494   4.525   9.596 -1.6781 -0.9102  0.1985
 7200SOL    HW233234   2.511   4.397   9.656  1.3562  0.8108  0.8022
 7201SOL     OW33235   3.146   0.551   3.830 -0.1992 -0.0036 -0.3653
 7201SOL    HW133236   3.113   0.621   3.887 -1.1566  0.8453 -1.9560
 7201SOL    HW233237   3.223   0.538   3.885 -1.3781  0.1466  1.3263
 7202SOL     OW33238   3.401   3.931  16.874 -0.3014 -0.1102  0.3960
 7202SOL    HW133239   3.402   3.963  16.964  0.3735  1.3476 -0.1313
 7202SOL    HW233240   3.422   4.009  16.822  2.7650  0.0191  1.8120
 7203SOL     OW33241   2.808   4.038   5.638  0.2836  0.6361 -0.3233
 7203SOL    HW133242   2.830   3.945   5.649 -0.2239  0.2117 -2.9768
 7203SOL    HW233243   2.887   4.084   5.607  1.9106 -3.8626 -2.9139
 7204SOL     OW33244   2.406   2.172   5.134  0.6536 -0.3683 -0.1604
 7204SOL    HW133245   2.371   2.125   5.058 -0.0669  0.2992 -0.2329
 7204SOL    HW233246   2.335   2.233   5.151  1.5765  1.5804 -3.2482
 7205SOL     OW33247   1.823   1.325   2.068  0.2726 -0.0346 -0.3841
 7205SOL    HW133248   1.869   1.241   2.065 -0.2527 -0.3343 -0.1767
 7205SOL    HW233249   1.896   1.386   2.064  0.4298 -0.2336 -0.5343
 7206SOL     OW33250   3.108   2.555   7.563  0.3260 -0.6320  0.0408
 7206SOL    HW133251   3.183   2.546   7.505  0.7207 -1.6646  0.7100
 7206SOL    HW233252   3.151   2.586   7.643  0.2348  1.1374 -0.6005
 7207SOL     OW33253   4.636   2.843   2.270 -0.1933  0.5020  0.5813
 7207SOL    HW133254   4.590   2.855   2.353 -1.0281  1.4954 -0.0163
 7207SOL    HW233255   4.574   2.867   2.201  0.8409  0.7123 -0.2662
 7208SOL     OW33256   2.988   4.156   7.063 -0.0159  0.1712  0.3965
 7208SOL    HW133257   2.976   4.076   7.113  0.7575 -0.5982 -0.6507
 7208SOL    HW233258   3.042   4.202   7.128  0.3221  0.1451  0.1354
 7209SOL     OW33259   2.153   1.296   4.707  0.4981  0.0841 -0.3646
 7209SOL    HW133260   2.238   1.254   4.705  0.7667  0.5436  1.0367
 7209SOL    HW233261   2.096   1.239   4.655 -0.7599 -0.2515  1.3849
 7210SOL     OW33262   2.820   2.550   6.219  0.4760 -0.3839  0.4965
 7210SOL    HW133263   2.813   2.515   6.131 -0.0975 -1.1926  0.8623
 7210SOL    HW233264   2.853   2.475   6.270 -2.8479 -1.4014  1.1582
 7211SOL     OW33265   1.002   0.095   2.531 -0.2302 -0.1392 -0.0001
 7211SOL    HW133266   0.986   0.031   2.602  2.1451 -0.1003  0.5461
 7211SOL    HW233267   0.910   0.120   2.538 -0.8998 -2.0752 -1.7621
 7212SOL     OW33268   4.553   2.506   0.560 -0.1803  0.4192  0.0285
 7212SOL    HW133269   4.524   2.588   0.520  0.5949 -0.5998 -2.6466
 7212SOL    HW233270   4.482   2.495   0.623  0.2077  1.1102  0.5891
 7213SOL     OW33271   4.714   1.822   8.346 -0.0762 -0.0424 -0.3424
 7213SOL    HW133272   4.698   1.732   8.374 -0.9276  0.6657  1.4686
 7213SOL    HW233273   4.710   1.817   8.251  3.8420  0.7655 -0.5377
 7214SOL     OW33274   1.815   1.355   4.769  0.4140 -0.7452 -0.2436
 7214SOL    HW133275   1.839   1.271   4.807 -1.8333 -1.3666 -0.1729
 7214SOL    HW233276   1.729   1.331   4.735  0.1020 -0.7826  0.5781
 7215SOL     OW33277   0.651   3.207  10.935 -0.4236 -0.5409  0.2874
 7215SOL    HW133278   0.688   3.293  10.950  1.6373 -0.9283 -2.6914
 7215SOL    HW233279   0.560   3.224  10.960 -0.1365 -0.5685  1.3483
 7216SOL     OW33280   1.812   1.866   5.241 -0.2240 -0.1256 -0.4171
 7216SOL    HW133281   1.907   1.877   5.229  0.0600 -2.2873 -0.2239
 7216SOL    HW233282   1.800   1.835   5.151 -1.7683 -0.1633 -0.1893
 7217SOL     OW33283   0.566   0.824   2.813 -0.6985  0.0653  0.0763
 7217SOL    HW133284   0.518   0.778   2.882 -1.3488  0.0055 -0.4137
 7217SOL    HW233285   0.627   0.879   2.862 -1.6632 -0.2520  1.6324
 7218SOL     OW33286   2.825   0.697   1.991  0.0638  0.4229 -0.1094
 7218SOL    HW133287   2.873   0.725   1.913 -0.9450  2.3520 -0.0572
 7218SOL    HW233288   2.809   0.605   1.974  0.5553  0.5873 -1.4526
 7219SOL     OW33289   3.102   2.542   9.529 -0.3532 -0.4525  0.3593
 7219SOL    HW133290   3.129   2.608   9.465  0.3635  0.2607  1.3829
 7219SOL    HW233291   3.056   2.606   9.583 -1.4020 -2.6254  2.0461
 7220SOL     OW33292   3.160   0.057   1.708 -0.0552 -0.5395  0.2002
 7220SOL    HW133293   3.119   0.005   1.638  1.0999  0.4100 -1.1838
 7220SOL    HW233294   3.084   0.072   1.763  0.7815 -0.3438  1.3003
 7221SOL     OW33295   4.453   3.773   2.468 -0.6163 -0.2692 -0.2146
 7221SOL    HW133296   4.359   3.788   2.473 -0.7020 -0.0574 -2.4759
 7221SOL    HW233297   4.471   3.809   2.555 -3.2664 -0.6875  0.4970
 7222SOL     OW33298   3.514   1.403   4.852  0.3476 -0.2146  0.4765
 7222SOL    HW133299   3.473   1.330   4.806  2.0456 -1.8297  1.5428
 7222SOL    HW233300   3.586   1.360   4.898  1.1149 -0.8853 -1.3191
 7223SOL     OW33301   0.918   3.296   9.609 -0.5801  0.1858  0.5438
 7223SOL    HW133302   0.888   3.354   9.679 -1.1661  1.2633 -0.5995
 7223SOL    HW233303   1.006   3.333   9.616 -0.4116  0.0722 -0.9890
 7224SOL     OW33304   0.361   1.217  17.517 -0.0739  0.0629 -0.0502
 7224SOL    HW133305   0.384   1.124  17.517 -0.6262 -0.0736 -0.3284
 7224SOL    HW233306   0.361   1.227  17.612 -1.0623 -0.7450  0.0315
 7225SOL     OW33307   4.690   3.986   0.274 -0.1909 -0.2830 -0.2218
 7225SOL    HW133308   4.734   3.993   0.189 -1.9727  1.4992 -0.9986
 7225SOL    HW233309   0.023   3.934   0.313 -0.0072 -0.5715 -0.9289
 7226SOL     OW33310   4.197   0.586   0.306  0.1239  0.1145  0.4121
 7226SOL    HW133311   4.284   0.585   0.265  0.4411  0.4542  1.0860
 7226SOL    HW233312   4.180   0.677   0.284 -0.3932 -0.3674 -1.2351
 7227SOL     OW33313   4.329   0.321  14.194  0.1078  0.2027  0.0539
 7227SOL    HW133314   4.250   0.276  14.163  0.2008  0.6488 -0.8109
 7227SOL    HW233315   4.390   0.247  14.190 -0.0514  0.0563  0.3033
 7228SOL     OW33316   3.214   4.473   9.170  0.2564 -0.0895 -0.2880
 7228SOL    HW133317   3.181   4.559   9.197 -0.0908 -0.2164 -0.3155
 7228SOL    HW233318   3.244   4.491   9.081  1.1797  1.1104  0.2703
 7229SOL     OW33319   3.121   0.849  13.165  0.2066  0.1759  0.3975
 7229SOL    HW133320   3.062   0.792  13.214  1.0200  0.2394  1.4667
 7229SOL    HW233321   3.113   0.797  13.086 -0.6714 -0.9063  1.2009
 7230SOL     OW33322   1.893   2.555  15.142  0.0175  0.5529  0.7864
 7230SOL    HW133323   1.891   2.483  15.205  1.1321  0.7026  0.9888
 7230SOL    HW233324   1.987   2.571  15.130  0.1218 -1.2194 -0.6216
 7231SOL     OW33325   1.721   3.561   9.210 -0.0479  0.0885 -0.4226
 7231SOL    HW133326   1.759   3.569   9.297  0.5328  0.7826 -0.7359
 7231SOL    HW233327   1.702   3.468   9.215 -0.6459  0.2064 -0.5566
 7232SOL     OW33328   4.707   2.087  11.988  0.0151 -0.3704 -0.5799
 7232SOL    HW133329   4.713   2.181  12.004 -0.6244 -0.9138  2.8003
 7232SOL    HW233330   0.055   2.071  11.947 -0.4511  1.5045 -2.2518
 7233SOL     OW33331   0.118   0.195  13.271 -0.1345 -0.6230  0.1734
 7233SOL    HW133332   0.068   0.131  13.321 -1.7870  2.2416  2.1753
 7233SOL    HW233333   0.193   0.142  13.243  0.7108  0.5046  0.2987
 7234SOL     OW33334   4.642   2.963   6.816  0.1665 -0.4142  0.2013
 7234SOL    HW133335   4.705   2.997   6.880 -0.4542 -1.4779  1.3707
 7234SOL    HW233336   4.558   2.966   6.862  0.5690 -2.4526  1.0514
 7235SOL     OW33337   2.820   0.457   3.962 -0.4113 -0.6923 -0.4294
 7235SOL    HW133338   2.788   0.519   4.028  0.4769 -0.7590  0.0565
 7235SOL    HW233339   2.861   0.392   4.019  1.2031 -1.6565 -2.6867
 7236SOL     OW33340   4.157   2.302   9.499  0.1353  0.0838 -0.3354
 7236SOL    HW133341   4.200   2.377   9.540 -0.0876 -0.0579  0.1556
 7236SOL    HW233342   4.212   2.233   9.534 -0.0395  1.1910  2.1165
 7237SOL     OW33343   0.532   1.182   8.779 -0.0190 -0.6588 -0.7627
 7237SOL    HW133344   0.506   1.270   8.750  4.3011  0.6896 -0.6519
 7237SOL    HW233345   0.520   1.138   8.695  1.4992  1.8162 -2.2948
 7238SOL     OW33346   2.838   0.253  16.330 -0.4102 -0.4751  0.2894
 7238SOL    HW133347   2.913   0.312  16.328 -0.2463 -0.6163  1.8366
 7238SOL    HW233348   2.767   0.317  16.323  0.4728  0.5348  0.5861
 7239SOL     OW33349   1.837   4.030  13.396 -0.3965 -0.5141 -0.8565
 7239SOL    HW133350   1.742   4.028  13.382 -0.6248  1.4426  0.4156
 7239SOL    HW233351   1.831   3.980  13.477  0.2006 -0.6410 -0.8876
 7240SOL     OW33352   2.783   0.922   2.673 -0.0856 -0.4624 -0.4823
 7240SOL    HW133353   2.757   0.886   2.758  2.0321  2.1754  1.2638
 7240SOL    HW233354   2.704   0.975   2.662  0.8711  0.9669 -0.5143
 7241SOL     OW33355   1.858   1.593   3.969  0.2943 -0.3814 -0.4126
 7241SOL    HW133356   1.907   1.540   3.906 -0.1719  0.6486 -1.6386
 7241SOL    HW233357   1.886   1.681   3.942  1.5339 -1.0686 -1.3619
 7242SOL     OW33358   0.643   2.455   4.853  0.2181  0.0509  0.1709
 7242SOL    HW133359   0.654   2.415   4.939  1.4649 -0.7041 -0.3283
 7242SOL    HW233360   0.715   2.518   4.845  0.2924  0.0826  1.1278
 7243SOL     OW33361   1.940   0.197   3.934  0.1435  0.0534 -0.3688
 7243SOL    HW133362   1.989   0.277   3.917  0.2271  0.6857  2.7213
 7243SOL    HW233363   2.013   0.138   3.956  0.5575  0.4820 -0.6043
 7244SOL     OW33364   1.914   3.425   3.613  0.1078  1.0304  0.2655
 7244SOL    HW133365   1.862   3.349   3.586  0.9960 -0.5299  2.9352
 7244SOL    HW233366   1.850   3.492   3.588 -0.8323 -1.4620 -3.9774
 7245SOL     OW33367   0.942   2.786  14.712 -0.6610 -0.2276 -0.3490
 7245SOL    HW133368   0.870   2.847  14.728  0.4524  1.3859 -1.4589
 7245SOL    HW233369   0.984   2.787  14.798 -0.5699  1.4551 -0.4130
 7246SOL     OW33370   2.817   0.175  17.470 -0.2528  0.6500 -0.0098
 7246SOL    HW133371   2.754   0.244  17.447 -0.5330  0.7764  1.1542
 7246SOL    HW233372   2.896   0.227  17.458  0.1569  0.1784  0.6934
 7247SOL     OW33373   2.847   3.100  11.959 -0.6017 -0.3182  0.3597
 7247SOL    HW133374   2.918   3.156  11.990  0.3721 -0.8478 -0.8506
 7247SOL    HW233375   2.765   3.136  11.991 -0.2961  0.1646  0.6093
 7248SOL     OW33376   3.208   4.362   2.600 -0.1532  0.2525  0.0956
 7248SOL    HW133377   3.208   4.281   2.548  2.2624  1.5688 -1.9538
 7248SOL    HW233378   3.269   4.417   2.551 -1.6064  0.8620 -1.0474
 7249SOL     OW33379   1.444   4.132   3.017  0.4656 -0.8694  0.0726
 7249SOL    HW133380   1.490   4.208   3.053  0.3285 -0.5430 -0.4366
 7249SOL    HW233381   1.442   4.162   2.926  0.5306 -2.6426 -0.5121
 7250SOL     OW33382   1.887   0.865   1.695 -0.1962  0.2588 -0.3586
 7250SOL    HW133383   1.920   0.831   1.778 -1.9090  0.7415  0.5154
 7250SOL    HW233384   1.947   0.938   1.678  0.2290  0.2878  1.2865
 7251SOL     OW33385   0.515   3.245   6.502 -0.3402 -0.1323  0.7662
 7251SOL    HW133386   0.563   3.328   6.512 -0.1172 -0.0538 -0.9018
 7251SOL    HW233387   0.422   3.268   6.509 -0.5161  0.0784 -2.0994
 7252SOL     OW33388   0.812   0.459  17.391  0.2867 -0.4967 -0.6900
 7252SOL    HW133389   0.851   0.446  17.304  1.1236  3.9654 -0.9818
 7252SOL    HW233390   0.726   0.491  17.363  1.2376  3.6958  1.2252
 7253SOL     OW33391   2.656   2.142   4.989 -0.1366  0.3268 -0.2491
 7253SOL    HW133392   2.721   2.132   5.058  0.4316  0.0798 -0.8173
 7253SOL    HW233393   2.590   2.199   5.028  0.5393  2.0451 -1.5926
 7254SOL     OW33394   2.378   2.154   7.429 -0.5523  0.0085  0.1341
 7254SOL    HW133395   2.408   2.229   7.379 -0.3481 -0.3118 -0.2281
 7254SOL    HW233396   2.452   2.096   7.409 -0.9526 -0.8565  1.1660
 7255SOL     OW33397   2.375   1.831   4.798  0.0966 -0.1343 -0.2841
 7255SOL    HW133398   2.419   1.913   4.779  0.7641 -0.0188  1.7937
 7255SOL    HW233399   2.447   1.775   4.828 -1.1421 -1.2239  0.6586
 7256SOL     OW33400   1.811   2.965   2.728  0.0370  0.0466  0.1237
 7256SOL    HW133401   1.814   2.969   2.824 -1.1085  1.0430  0.1034
 7256SOL    HW233402   1.887   3.022   2.713  3.7389 -4.0624  3.1338
 7257SOL     OW33403   0.207   3.818  10.150  0.0496  0.4314  0.1885
 7257SOL    HW133404   0.120   3.851  10.129  0.2764  0.8721 -0.0428
 7257SOL    HW233405   0.256   3.899  10.152  0.9197 -0.0714 -1.3070
 7258SOL     OW33406   0.649   0.598   8.631  0.3314  0.1453 -0.0654
 7258SOL    HW133407   0.633   0.585   8.538  0.1233 -1.7441  0.2353
 7258SOL    HW233408   0.737   0.634   8.619  0.8307 -1.0045  0.0772
 7259SOL     OW33409   2.700   3.329   1.384  0.6906 -0.2092  0.2475
 7259SOL    HW133410   2.791   3.300   1.382 -0.1530 -2.7472 -1.2924
 7259SOL    HW233411   2.704   3.372   1.469 -0.5792 -3.1702  1.8332
 7260SOL     OW33412   1.435   3.547  11.076 -0.3149 -0.3885 -0.4196
 7260SOL    HW133413   1.466   3.508  10.995 -0.1797  0.6616 -0.8781
 7260SOL    HW233414   1.437   3.461  11.119 -1.3212 -0.0260  0.3741
 7261SOL     OW33415   1.212   3.558   7.830  0.3327 -0.6592  0.3383
 7261SOL    HW133416   1.192   3.652   7.824 -0.3690 -0.7956  0.4954
 7261SOL    HW233417   1.238   3.536   7.741 -4.7780 -1.7088 -0.8791
 7262SOL     OW33418   2.068   2.435   9.371  0.3392  0.2756  0.0943
 7262SOL    HW133419   2.065   2.370   9.441 -1.9236  2.0802  1.6880
 7262SOL    HW233420   2.163   2.435   9.365  0.4145 -0.0780  1.1831
 7263SOL     OW33421   2.607   3.333   4.228  0.2041  0.3588 -0.3150
 7263SOL    HW133422   2.631   3.423   4.206  0.1680  0.2402 -0.8367
 7263SOL    HW233423   2.647   3.330   4.315 -2.6038  3.5103  1.1010
 7264SOL     OW33424   3.031   1.478  10.016 -0.2813 -0.2799 -0.6095
 7264SOL    HW133425   2.954   1.526  10.046 -0.9908 -2.2095  0.6310
 7264SOL    HW233426   3.007   1.446   9.929 -2.2529 -3.4793  1.1199
 7265SOL     OW33427   0.180   2.534  16.850 -0.3800  0.5450  0.2337
 7265SOL    HW133428   0.272   2.507  16.844 -0.4945  0.4356 -1.1631
 7265SOL    HW233429   0.166   2.507  16.941 -0.8791  0.7732  0.2240
 7266SOL     OW33430   0.705   3.139   6.313  0.1001 -0.1480 -0.2213
 7266SOL    HW133431   0.768   3.126   6.383 -3.9825 -2.8298  3.0326
 7266SOL    HW233432   0.629   3.179   6.357  1.0507  1.7666 -0.3289
 7267SOL     OW33433   3.882   4.720   1.810  0.4465  0.0620 -0.0528
 7267SOL    HW133434   3.876   4.709   1.715  2.2939 -0.9283 -0.0531
 7267SOL    HW233435   3.936   0.061   1.820  0.8308 -0.1372 -0.5593
 7268SOL     OW33436   2.520   4.041   3.445  0.2058  0.3197 -0.3479
 7268SOL    HW133437   2.579   4.113   3.422  0.5065  0.3373  0.4506
 7268SOL    HW233438   2.566   3.965   3.410  0.1343 -0.6084  1.5345
 7269SOL     OW33439   1.995   0.529   3.852  0.3169  0.3892  0.3463
 7269SOL    HW133440   2.026   0.560   3.767  0.5016 -0.6134  0.0497
 7269SOL    HW233441   1.903   0.513   3.831 -0.2905  2.1991  1.6415
 7270SOL     OW33442   4.627   3.075   4.889 -0.2138 -0.5446 -0.1090
 7270SOL    HW133443   4.590   3.156   4.923 -1.7481 -1.1244 -0.4093
 7270SOL    HW233444   4.551   3.017   4.880  1.6649 -2.8657 -1.2984
 7271SOL     OW33445   2.225   4.520  10.055  0.5871  0.3989 -0.2212
 7271SOL    HW133446   2.261   4.495  10.140  2.0941  2.6270 -0.1914
 7271SOL    HW233447   2.132   4.500  10.062  0.5596  0.5714 -0.0819
 7272SOL     OW33448   2.317   3.247  16.476  0.3438 -0.3772  0.5074
 7272SOL    HW133449   2.226   3.244  16.507  0.2479 -1.2836  0.1538
 7272SOL    HW233450   2.335   3.153  16.464 -2.7847 -1.0479  0.9464
 7273SOL     OW33451   3.304   4.147   6.472 -0.1927  0.7208  0.0490
 7273SOL    HW133452   3.359   4.211   6.516  0.5063  0.4445 -0.4242
 7273SOL    HW233453   3.279   4.198   6.394  2.0998  1.6650 -0.0710
 7274SOL     OW33454   2.350   1.016   8.543  1.0436  0.1325 -0.1451
 7274SOL    HW133455   2.323   0.937   8.498  1.6363 -0.1812  0.0487
 7274SOL    HW233456   2.267   1.054   8.571  0.5531  0.4171 -2.0082
 7275SOL     OW33457   2.141   2.508   7.340 -0.3582  0.0684  0.3293
 7275SOL    HW133458   2.232   2.494   7.364  0.2649  2.1761 -0.8347
 7275SOL    HW233459   2.097   2.462   7.411 -0.2814 -2.4638 -1.2575
 7276SOL     OW33460   0.814   0.617   3.958 -0.4329  0.2965  0.5445
 7276SOL    HW133461   0.736   0.666   3.934  0.2218  1.3513  0.5891
 7276SOL    HW233462   0.874   0.690   3.974  2.2334 -1.5899 -0.8898
 7277SOL     OW33463   2.064   2.318   5.708  0.1770  0.6682 -0.4653
 7277SOL    HW133464   2.062   2.409   5.738  0.2777  0.2857  0.7197
 7277SOL    HW233465   2.062   2.283   5.797 -1.8321  1.4934 -0.2032
 7278SOL     OW33466   0.056   2.314  13.267 -0.0285  0.4152  0.2956
 7278SOL    HW133467   4.698   2.321  13.260 -0.1631  0.1846  1.8430
 7278SOL    HW233468   0.085   2.405  13.272 -1.3457  0.9722 -1.9405
 7279SOL     OW33469   2.072   3.453   1.962 -0.1952 -0.1513 -0.2592
 7279SOL    HW133470   1.986   3.414   1.974 -0.2738 -0.0238 -0.4131
 7279SOL    HW233471   2.096   3.428   1.873 -1.7573 -0.4752 -0.5758
 7280SOL     OW33472   4.663   1.314   4.654 -0.1185  1.2779  0.2355
 7280SOL    HW133473   4.595   1.258   4.692  1.0265  0.4292  1.0364
 7280SOL    HW233474   4.732   1.252   4.631 -1.4985  0.2043 -0.9782
 7281SOL     OW33475   2.142   0.936   1.943 -0.1464  0.2742 -0.5062
 7281SOL    HW133476   2.074   0.870   1.959  0.0882  0.4286  1.1428
 7281SOL    HW233477   2.193   0.899   1.870  0.7418 -2.6663  1.6285
 7282SOL     OW33478   2.235   4.556   9.789  0.1317 -0.2319  0.2708
 7282SOL    HW133479   2.295   4.631   9.797  0.1714  0.3010 -4.8681
 7282SOL    HW233480   2.227   4.542   9.883  1.2195  0.8646  0.5352
 7283SOL     OW33481   2.713   0.332   2.388 -0.5228 -0.6332 -0.1729
 7283SOL    HW133482   2.673   0.387   2.455  1.7743 -0.2442  0.8520
 7283SOL    HW233483   2.804   0.357   2.400 -1.5548  2.5410  1.0770
 7284SOL     OW33484   0.141   1.611   2.472 -0.0574  0.4862  0.9522
 7284SOL    HW133485   0.195   1.689   2.482 -0.0113  0.6346 -0.4090
 7284SOL    HW233486   0.115   1.611   2.380  0.4065  0.6470  0.8233
 7285SOL     OW33487   4.218   3.940   9.886 -0.5127  0.0150 -0.0901
 7285SOL    HW133488   4.156   3.872   9.910 -2.9412  1.7601 -1.4274
 7285SOL    HW233489   4.160   4.003   9.843 -0.8996 -0.9080 -0.9235
 7286SOL     OW33490   3.668   4.541   8.601 -0.3015 -0.6126  0.0414
 7286SOL    HW133491   3.724   4.501   8.667  0.0218 -1.2003 -0.5877
 7286SOL    HW233492   3.592   4.483   8.594  0.5621 -1.5667 -1.3551
 7287SOL     OW33493   0.947   2.481   8.055 -0.2128  0.3249  0.1278
 7287SOL    HW133494   0.925   2.560   8.006  1.1874  0.4122 -0.3571
 7287SOL    HW233495   0.961   2.523   8.140  0.8254 -1.6956  0.9826
 7288SOL     OW33496   3.208   0.240   3.863  0.5105  0.2084  0.4589
 7288SOL    HW133497   3.228   0.269   3.952  0.2084  1.2765  0.1794
 7288SOL    HW233498   3.259   0.159   3.855  1.7518  0.8773  1.5404
 7289SOL     OW33499   4.229   2.832   3.443  0.1905 -0.2561 -0.0374
 7289SOL    HW133500   4.246   2.759   3.383  0.7414 -0.9081  0.9153
 7289SOL    HW233501   4.171   2.882   3.386  2.0376  3.7174  1.5935
 7290SOL     OW33502   0.034   1.417   9.823  0.0589 -0.5972  0.4526
 7290SOL    HW133503   0.039   1.490   9.762 -0.8395 -0.7545  0.1912
 7290SOL    HW233504   0.026   1.349   9.757 -0.2057  2.5246 -2.7120
 7291SOL     OW33505   0.391   3.060   8.118 -0.2039  0.2647  0.0360
 7291SOL    HW133506   0.302   3.025   8.117  0.6104 -1.7901 -0.2171
 7291SOL    HW233507   0.428   3.020   8.039 -1.2890 -1.1011  0.2166
 7292SOL     OW33508   2.279   0.227   8.132  0.4122  0.5717  0.9138
 7292SOL    HW133509   2.287   0.165   8.205 -0.5514 -1.8251 -1.0394
 7292SOL    HW233510   2.320   0.176   8.062 -1.9121 -1.1017  0.7962
 7293SOL     OW33511   0.765   1.901   7.331  0.6796  0.2083  0.3041
 7293SOL    HW133512   0.674   1.872   7.320  1.0872  0.0017 -2.5424
 7293SOL    HW233513   0.813   1.827   7.367  0.6451 -0.0555 -0.1880
 7294SOL     OW33514   2.753   0.443   1.894  0.1060  0.3182  0.1958
 7294SOL    HW133515   2.783   0.428   1.805 -0.4400  1.8186 -0.2399
 7294SOL    HW233516   2.773   0.356   1.929  1.6088  1.5875  2.4673
 7295SOL     OW33517   3.747   4.317   8.759  0.1536  0.0365  0.1556
 7295SOL    HW133518   3.666   4.284   8.799  0.3310  1.1653  1.4318
 7295SOL    HW233519   3.810   4.246   8.775  2.4388  2.1495  0.4556
 7296SOL     OW33520   0.356   1.179   1.097 -0.7449  0.6618 -0.5111
 7296SOL    HW133521   0.378   1.089   1.122 -0.3820  0.9893  0.3314
 7296SOL    HW233522   0.261   1.192   1.098 -1.2108 -2.5309 -3.1294
 7297SOL     OW33523   1.116   0.720   8.403  0.0327  0.6276  0.2867
 7297SOL    HW133524   1.178   0.716   8.330  2.9961  0.5459  2.7920
 7297SOL    HW233525   1.149   0.797   8.450 -0.9880  1.3555 -0.1910
 7298SOL     OW33526   4.050   0.045   4.573 -0.3435  0.2564 -0.1836
 7298SOL    HW133527   4.033   4.691   4.551 -0.4371 -0.1396  1.5450
 7298SOL    HW233528   3.965   0.076   4.605  0.6572 -0.6046  3.3197
 7299SOL     OW33529   1.338   2.548   4.369 -0.4851  0.2913 -0.2514
 7299SOL    HW133530   1.245   2.531   4.384 -0.1744 -1.3819 -0.2610
 7299SOL    HW233531   1.367   2.601   4.443  0.5845 -0.5024 -0.1058
 7300SOL     OW33532   1.983   4.008   2.234  0.3278  0.1786  0.2736
 7300SOL    HW133533   1.987   4.102   2.213 -0.6489  0.8559  3.0854
 7300SOL    HW233534   1.988   4.023   2.329 -1.9315  1.4258  0.2117
 7301SOL     OW33535   3.792   1.585   4.916  0.3679  0.1137 -0.1738
 7301SOL    HW133536   3.779   1.504   4.965  0.5762  0.8583  1.1261
 7301SOL    HW233537   3.829   1.541   4.839 -2.4449  2.0298 -2.5989
 7302SOL     OW33538   1.253   2.301   8.712  0.0410  0.1936 -0.4396
 7302SOL    HW133539   1.278   2.351   8.790  0.0229 -1.7072  0.8001
 7302SOL    HW233540   1.332   2.317   8.661  1.1329 -1.9800  0.5321
 7303SOL     OW33541   2.477   1.057   6.471  0.6473  0.3078  0.1029
 7303SOL    HW133542   2.489   1.145   6.506 -2.9778  1.4315 -1.5190
 7303SOL    HW233543   2.534   1.065   6.394 -0.8443 -0.0081 -1.0296
 7304SOL     OW33544   2.173   4.371   2.647  0.7186 -0.2323  0.6409
 7304SOL    HW133545   2.233   4.397   2.718 -1.0331 -0.4801  2.2042
 7304SOL    HW233546   2.212   4.289   2.616 -1.7254 -0.3595 -2.0433
 7305SOL     OW33547   0.771   4.139   3.268  0.4494 -0.3823 -0.1534
 7305SOL    HW133548   0.733   4.186   3.342  0.6369  1.3994 -1.1858
 7305SOL    HW233549   0.737   4.050   3.272  1.9120 -1.0231 -1.4595
 7306SOL     OW33550   0.593   0.354   5.538  0.4367 -0.1642 -0.7939
 7306SOL    HW133551   0.530   0.351   5.610  0.9305 -1.7862 -0.4282
 7306SOL    HW233552   0.668   0.320   5.587 -0.3240  2.7026  2.3607
 7307SOL     OW33553   3.289   0.428   3.031 -0.6788 -0.1219 -0.2430
 7307SOL    HW133554   3.268   0.337   3.052  1.9441 -0.8425 -0.7439
 7307SOL    HW233555   3.337   0.450   3.111 -1.1780  1.3123 -0.3361
 7308SOL     OW33556   2.407   3.972  15.825  0.4025  0.1622  0.6601
 7308SOL    HW133557   2.314   3.980  15.844  0.7936  1.1911  2.1466
 7308SOL    HW233558   2.420   3.889  15.870 -1.9414  1.4411  3.7236
 7309SOL     OW33559   4.180   1.326   2.461  0.4033  0.4179  0.1620
 7309SOL    HW133560   4.220   1.369   2.536 -0.2820 -1.6422  1.7032
 7309SOL    HW233561   4.118   1.277   2.515  0.7244 -0.4729 -0.2787
 7310SOL     OW33562   2.158   3.470   5.608  0.0599  0.0559  0.0219
 7310SOL    HW133563   2.233   3.444   5.555  0.0583  0.4070 -0.1536
 7310SOL    HW233564   2.120   3.389   5.642 -1.8495  1.1925  0.5611
 7311SOL     OW33565   1.946   2.593   9.909  0.2316  0.2184 -0.0113
 7311SOL    HW133566   2.034   2.560   9.925  0.1239 -0.3150 -0.5411
 7311SOL    HW233567   1.904   2.509   9.926  1.2005  0.0028  1.3442
 7312SOL     OW33568   1.909   4.488   8.445 -0.6351 -0.2573 -0.8227
 7312SOL    HW133569   1.922   4.395   8.431  2.5129  0.1427 -0.5089
 7312SOL    HW233570   1.829   4.491   8.496 -0.2784 -1.1981 -0.2107
 7313SOL     OW33571   0.080   3.274   6.768 -0.2278 -0.4657 -0.4147
 7313SOL    HW133572   0.109   3.220   6.841  1.3167  0.6226 -0.2323
 7313SOL    HW233573   0.132   3.353   6.778  0.6446 -0.9446 -1.2511
 7314SOL     OW33574   4.106   4.193   4.338  0.1179 -0.0761  0.0835
 7314SOL    HW133575   4.170   4.185   4.408  2.5786 -0.3758 -2.2135
 7314SOL    HW233576   4.169   4.212   4.269 -0.6283 -0.1705 -0.6329
 7315SOL     OW33577   1.789   0.886   2.403 -0.1891  0.0451  0.5171
 7315SOL    HW133578   1.712   0.838   2.371  0.8496  0.1857 -2.1748
 7315SOL    HW233579   1.852   0.852   2.340  0.4960  0.8867  0.7530
 7316SOL     OW33580   3.669   0.330   3.306  0.1400 -0.5919  0.4861
 7316SOL    HW133581   3.758   0.353   3.279  0.9638 -2.4956  1.5808
 7316SOL    HW233582   3.631   0.400   3.253 -1.2172 -0.1903  2.0066
 7317SOL     OW33583   4.687   0.725   5.629  0.6569 -0.3108 -0.2567
 7317SOL    HW133584   0.022   0.751   5.685  1.3790  0.9734 -1.7828
 7317SOL    HW233585   4.633   0.804   5.632  0.2405 -0.4919 -3.1113
 7318SOL     OW33586   3.912   2.424   9.824  0.0707  0.1962 -0.2918
 7318SOL    HW133587   3.971   2.460   9.891  1.7478  0.3281 -1.8586
 7318SOL    HW233588   3.935   2.331   9.830 -1.9594 -0.2873  0.0223
 7319SOL     OW33589   1.112   0.253   6.974 -0.4256  0.1762 -0.1957
 7319SOL    HW133590   1.116   0.246   6.878  1.8270 -0.7072 -0.0552
 7319SOL    HW233591   1.084   0.344   6.975  1.5495  0.7835  0.3602
 7320SOL     OW33592   3.624   0.310   9.449  0.6301 -0.1647 -0.4731
 7320SOL    HW133593   3.622   0.220   9.417 -1.9917  0.2548 -1.4840
 7320SOL    HW233594   3.642   0.362   9.370  0.1650  1.6780  0.6228
 7321SOL     OW33595   1.684   1.547  14.646 -0.4646  0.4319  0.3946
 7321SOL    HW133596   1.649   1.584  14.565  1.4603  1.0673 -0.1702
 7321SOL    HW233597   1.707   1.623  14.699 -1.9399  2.1805 -1.4546
 7322SOL     OW33598   3.018   1.938  13.137 -0.2390 -0.6076 -0.3850
 7322SOL    HW133599   3.050   2.018  13.179 -1.1518 -0.6611  0.4148
 7322SOL    HW233600   3.094   1.922  13.081  2.3435  3.1798  1.9995
 7323SOL     OW33601   4.099   2.039   1.114  0.3169  0.3285 -0.3693
 7323SOL    HW133602   4.043   1.970   1.149 -0.1018  1.1782  0.6440
 7323SOL    HW233603   4.058   2.117   1.152 -0.4646  0.4969 -1.5779
 7324SOL     OW33604   2.136   0.551   3.390 -0.3247  0.5028  0.7918
 7324SOL    HW133605   2.152   0.465   3.352 -0.9752  1.0047 -0.6182
 7324SOL    HW233606   2.220   0.563   3.434 -0.4654  0.3787  1.0976
 7325SOL     OW33607   1.464   3.267  13.512 -0.3314  0.1299  0.1528
 7325SOL    HW133608   1.529   3.199  13.492  0.9203  1.0553  1.0650
 7325SOL    HW233609   1.513   3.309  13.583 -2.1031 -0.2114  1.5605
 7326SOL     OW33610   1.829   3.289   2.716 -0.1791 -0.2312  0.0314
 7326SOL    HW133611   1.794   3.334   2.638 -0.9926 -0.1016  0.4701
 7326SOL    HW233612   1.747   3.252   2.750  0.0166 -1.3280 -0.7229
 7327SOL     OW33613   2.853   2.307  15.731 -0.0030  0.1184 -0.5158
 7327SOL    HW133614   2.763   2.340  15.734 -0.5510 -1.4702  0.8829
 7327SOL    HW233615   2.859   2.273  15.821  0.2516  3.2687  0.6533
 7328SOL     OW33616   3.050   3.218   1.690 -0.2468  0.0731 -0.6062
 7328SOL    HW133617   3.005   3.272   1.625 -0.1483  2.5769  1.3845
 7328SOL    HW233618   3.021   3.133   1.657  0.0549  0.6910 -2.4980
 7329SOL     OW33619   4.285   0.340  13.860  0.0727 -0.3476  0.5137
 7329SOL    HW133620   4.298   0.422  13.908 -1.3454  1.0736 -1.5363
 7329SOL    HW233621   4.266   0.277  13.929  1.0129 -0.4370  0.6885
 7330SOL     OW33622   1.339   2.099   8.293 -0.1053  0.1483 -0.2381
 7330SOL    HW133623   1.329   2.027   8.355 -0.3245  1.8087  1.6346
 7330SOL    HW233624   1.435   2.103   8.290 -0.0758  0.6160  1.9752
 7331SOL     OW33625   1.111   0.735   2.100  0.0638 -0.1713 -0.3919
 7331SOL    HW133626   1.016   0.741   2.111  0.5994  1.8525  3.3232
 7331SOL    HW233627   1.131   0.688   2.181 -2.1741 -1.9115 -0.8410
 7332SOL     OW33628   0.734   2.807   5.489  0.0852 -0.4696 -0.3017
 7332SOL    HW133629   0.780   2.832   5.408  0.2900  1.0659  0.2992
 7332SOL    HW233630   0.793   2.737   5.519  1.2492  0.9544  0.7411
 7333SOL     OW33631   3.036   3.828   4.155 -0.3996 -0.2586 -0.0879
 7333SOL    HW133632   2.968   3.873   4.206  1.1152  0.9791  0.8065
 7333SOL    HW233633   2.987   3.745   4.157 -0.6410 -0.1034  0.7540
 7334SOL     OW33634   0.997   0.956   0.785  0.4043 -0.5575  0.0258
 7334SOL    HW133635   1.002   0.959   0.689 -1.3303  1.4162  0.0151
 7334SOL    HW233636   0.913   0.997   0.804  0.1963 -2.2265  2.6623
 7335SOL     OW33637   1.717   4.200  16.742  0.3607 -0.5238  0.1458
 7335SOL    HW133638   1.780   4.155  16.685  1.7419  2.5255 -0.7419
 7335SOL    HW233639   1.742   4.292  16.730 -1.7004 -0.1154 -0.9041
 7336SOL     OW33640   0.721   2.087   8.191  0.5723 -0.2324  0.5321
 7336SOL    HW133641   0.702   2.054   8.103 -2.5694 -1.2152  1.5813
 7336SOL    HW233642   0.642   2.060   8.238 -0.7484  0.2020 -1.4646
 7337SOL     OW33643   0.951   2.314   1.920 -0.2691  0.2145 -0.2253
 7337SOL    HW133644   0.994   2.331   2.003 -2.0070  0.0160  0.7213
 7337SOL    HW233645   0.879   2.375   1.937 -0.7474 -0.5457  0.4676
 7338SOL     OW33646   3.549   3.650  12.274 -0.5734 -0.0313 -0.3276
 7338SOL    HW133647   3.497   3.575  12.246 -1.5124 -0.3297  2.1835
 7338SOL    HW233648   3.618   3.601  12.319 -2.2160 -2.1513 -0.1368
 7339SOL     OW33649   0.100   3.862  13.839 -0.3082  0.0394 -0.3600
 7339SOL    HW133650   0.056   3.847  13.756  1.9026  1.4219 -1.7762
 7339SOL    HW233651   0.190   3.834  13.819 -0.3855  1.1860 -2.2821
 7340SOL     OW33652   2.189   3.523   0.809 -0.0009  0.6986  0.2974
 7340SOL    HW133653   2.260   3.475   0.851  1.5520  0.9202 -2.0713
 7340SOL    HW233654   2.149   3.458   0.752  1.3955  0.7820 -0.7968
 7341SOL     OW33655   2.359   2.564   5.316  0.4820  0.2912  0.6841
 7341SOL    HW133656   2.308   2.627   5.266  0.8344  0.6611  0.7821
 7341SOL    HW233657   2.369   2.500   5.246 -0.7560  0.2235  0.5707
 7342SOL     OW33658   2.993   1.080  13.771 -0.0865 -0.0755  0.3291
 7342SOL    HW133659   3.044   1.162  13.775  0.7106 -0.4964 -1.1976
 7342SOL    HW233660   2.963   1.075  13.681 -3.1392 -0.5019  1.3751
 7343SOL     OW33661   0.800   0.759  17.507  0.1740 -0.0570 -0.1295
 7343SOL    HW133662   0.862   0.822  17.545 -0.9646  1.2332 -0.3925
 7343SOL    HW233663   0.799   0.783  17.414  1.1863  2.2067  0.4277
 7344SOL     OW33664   0.589   2.827   2.259  0.4864 -0.2317 -0.4777
 7344SOL    HW133665   0.603   2.909   2.306  0.1573 -0.8422  0.6868
 7344SOL    HW233666   0.579   2.765   2.332  0.0735  0.8477  0.3832
 7345SOL     OW33667   4.536   1.502   5.546  0.5170  0.1415 -0.2494
 7345SOL    HW133668   4.581   1.547   5.475  3.9327  0.2820  2.0132
 7345SOL    HW233669   4.496   1.575   5.594 -2.8128 -0.8143 -1.5230
 7346SOL     OW33670   4.248   0.289   2.424 -0.4403  0.2632  0.3960
 7346SOL    HW133671   4.197   0.355   2.377  2.1478  0.7555 -1.7092
 7346SOL    HW233672   4.293   0.344   2.488  1.5788  0.7184 -1.4371
 7347SOL     OW33673   2.188   2.751   8.920 -0.1697 -0.5104  0.2328
 7347SOL    HW133674   2.195   2.669   8.969 -0.4668 -1.3978 -1.1951
 7347SOL    HW233675   2.105   2.782   8.956  1.0850  1.1290  1.7436
 7348SOL     OW33676   1.009   0.133   2.846 -0.5381  0.5033  0.3324
 7348SOL    HW133677   1.094   0.160   2.811 -0.8545 -1.1369 -1.6967
 7348SOL    HW233678   1.001   0.042   2.819 -2.4040  0.5271  0.8093
 7349SOL     OW33679   1.390   1.752   4.710 -0.8330  0.0985 -0.2972
 7349SOL    HW133680   1.441   1.828   4.683 -0.1014 -0.2748  0.0530
 7349SOL    HW233681   1.345   1.724   4.629 -2.9706  2.1890  0.1661
 7350SOL     OW33682   0.709   3.452   7.144  0.0673 -0.1362  0.0359
 7350SOL    HW133683   0.679   3.380   7.199 -0.6160 -0.0581 -0.2357
 7350SOL    HW233684   0.801   3.429   7.155 -0.2615 -0.9961  1.0103
 7351SOL     OW33685   3.402   4.137   8.106 -0.3585  0.1523  0.4853
 7351SOL    HW133686   3.487   4.100   8.127 -0.2655  1.8337  3.0162
 7351SOL    HW233687   3.344   4.072   8.146  1.6368  0.5947  4.0614
 7352SOL     OW33688   3.150   1.160   8.388 -0.0730 -0.0108 -0.6320
 7352SOL    HW133689   3.183   1.237   8.341  0.8553 -0.2806 -0.4286
 7352SOL    HW233690   3.090   1.213   8.439 -0.4608  0.0641 -1.1589
 7353SOL     OW33691   4.357   4.731   9.901 -0.0968 -0.0441  0.3825
 7353SOL    HW133692   4.407   0.076   9.904 -0.3777  0.1932 -2.0832
 7353SOL    HW233693   4.272   0.022   9.866 -0.8412 -2.0371  0.5803
 7354SOL     OW33694   0.242   2.914   2.508 -0.0027  0.0276  0.4757
 7354SOL    HW133695   0.326   2.962   2.511  0.5676 -1.0199  1.2406
 7354SOL    HW233696   0.277   2.825   2.510 -2.3029 -0.9329 -1.9194
 7355SOL     OW33697   4.612   3.606   8.331  0.1559  0.1656 -0.2516
 7355SOL    HW133698   4.646   3.559   8.407 -1.8441  0.1699  0.6398
 7355SOL    HW233699   4.523   3.623   8.360 -0.2910 -2.0998 -0.3699
 7356SOL     OW33700   1.170   0.591   7.185  0.1182  0.2658  0.2056
 7356SOL    HW133701   1.258   0.570   7.216  0.2855 -0.7222 -0.9372
 7356SOL    HW233702   1.132   0.655   7.246 -1.1352  0.3244 -0.6469
 7357SOL     OW33703   3.941   1.453   6.150  0.3173  0.5659  0.1949
 7357SOL    HW133704   3.925   1.473   6.242  0.3750  0.1249  0.2982
 7357SOL    HW233705   3.962   1.541   6.116 -0.2036  0.5390 -0.2008
 7358SOL     OW33706   1.600   1.069   3.086 -0.3313  0.4575 -0.3145
 7358SOL    HW133707   1.609   1.036   3.176  2.6038  1.2227 -0.3191
 7358SOL    HW233708   1.685   1.109   3.069 -0.0695 -0.3037 -0.8338
 7359SOL     OW33709   3.225   0.454   5.775  0.1301  0.2099  0.0870
 7359SOL    HW133710   3.241   0.535   5.823  0.5544 -0.7893  1.6340
 7359SOL    HW233711   3.205   0.403   5.853  0.2900 -3.2711 -2.1370
 7360SOL     OW33712   3.469   1.964   9.758 -0.2132  0.2362 -0.2000
 7360SOL    HW133713   3.471   2.051   9.720 -0.6530  0.6946  0.8322
 7360SOL    HW233714   3.477   1.900   9.687  0.9796  0.6277 -0.4192
 7361SOL     OW33715   3.178   2.091   0.404  0.4646  0.1566 -0.9686
 7361SOL    HW133716   3.162   2.010   0.354 -1.7925 -1.0568  1.7192
 7361SOL    HW233717   3.180   2.158   0.336 -0.2336  2.0124  0.8606
 7362SOL     OW33718   2.314   1.278   6.037  0.7635 -0.3118 -0.2665
 7362SOL    HW133719   2.406   1.303   6.042  1.0828 -0.9625 -2.7548
 7362SOL    HW233720   2.309   1.186   6.013 -3.2603  0.1186 -1.0731
 7363SOL     OW33721   4.653   4.387   5.843  0.7426  0.4091 -0.0311
 7363SOL    HW133722   4.730   4.358   5.793  1.4239  0.8106  0.7916
 7363SOL    HW233723   4.665   4.481   5.857 -3.3967  0.9211  0.0768
 7364SOL     OW33724   4.318   3.362   3.245 -0.4238 -0.5497 -0.3126
 7364SOL    HW133725   4.327   3.271   3.272  0.7074 -0.1533  0.6217
 7364SOL    HW233726   4.396   3.362   3.189  0.1237 -0.1773  0.4396
 7365SOL     OW33727   3.331   0.249  13.763 -0.3296  0.5718 -0.1746
 7365SOL    HW133728   3.236   0.245  13.753 -0.4161 -0.8844  1.4045
 7365SOL    HW233729   3.342   0.335  13.803 -2.0916 -0.0429  1.6234
 7366SOL     OW33730   4.451   1.188  16.271 -0.1148 -0.1369 -0.4587
 7366SOL    HW133731   4.394   1.226  16.205 -2.1308 -2.7556 -0.2079
 7366SOL    HW233732   4.411   1.222  16.352 -2.5192 -2.1510 -0.8100
 7367SOL     OW33733   1.461   3.675   6.641  0.4470 -0.2377  0.1399
 7367SOL    HW133734   1.421   3.745   6.692 -0.0771  0.8553 -1.7847
 7367SOL    HW233735   1.544   3.721   6.624 -0.0461  1.4564  2.2295
 7368SOL     OW33736   0.700   0.768   5.543  0.6073  0.0411 -0.4752
 7368SOL    HW133737   0.666   0.713   5.472  2.9361 -0.3111 -1.3462
 7368SOL    HW233738   0.627   0.780   5.603  1.5410  2.4919  0.1980
 7369SOL     OW33739   3.415   1.439   9.767 -0.6579  0.1051 -0.3442
 7369SOL    HW133740   3.445   1.352   9.796 -0.5633 -0.1038 -1.0649
 7369SOL    HW233741   3.489   1.470   9.714 -1.1784  0.8645 -0.6242
 7370SOL     OW33742   4.699   1.581   4.640  0.5135 -0.4542 -0.6025
 7370SOL    HW133743   4.677   1.489   4.631  0.9460 -0.4123 -2.2217
 7370SOL    HW233744   4.630   1.625   4.590  1.4028  1.5729 -0.0835
 7371SOL     OW33745   3.228   1.888   4.331  0.5692  0.3632 -0.1885
 7371SOL    HW133746   3.166   1.924   4.268  2.7984  0.9905 -2.0125
 7371SOL    HW233747   3.263   1.824   4.269  0.8148 -1.2343  1.5610
 7372SOL     OW33748   4.633   0.714   0.868 -0.5527  0.2035 -0.5744
 7372SOL    HW133749   4.701   0.776   0.895 -0.0621 -0.2654 -0.7350
 7372SOL    HW233750   4.580   0.770   0.811  0.0206  1.2876 -0.0398
 7373SOL     OW33751   1.123   0.535   4.802  0.1358  0.1361 -0.4059
 7373SOL    HW133752   1.168   0.553   4.719 -0.6150 -0.6060 -0.9702
 7373SOL    HW233753   1.099   0.622   4.833  2.7286 -0.4910  3.2671
 7374SOL     OW33754   3.390   3.059   5.551  0.2920 -0.1442 -0.0420
 7374SOL    HW133755   3.443   3.067   5.631  0.0008  0.9547  0.0488
 7374SOL    HW233756   3.415   3.132   5.495  0.0808 -0.5858 -0.7066
 7375SOL     OW33757   0.254   0.939   0.348  0.0469 -0.0381  0.2148
 7375SOL    HW133758   0.220   0.919   0.435  1.1344  0.3813  0.7409
 7375SOL    HW233759   0.269   0.852   0.309  0.0232 -0.0579  0.2504
 7376SOL     OW33760   0.858   1.492   1.306  0.0433 -0.9360  0.6188
 7376SOL    HW133761   0.893   1.426   1.366  1.6981 -0.4704  0.1560
 7376SOL    HW233762   0.933   1.515   1.253 -1.7827  0.1294 -1.4703
 7377SOL     OW33763   2.761   0.854   6.991 -0.5324  0.0088 -0.1244
 7377SOL    HW133764   2.731   0.923   6.931  1.8033  0.3956 -0.8546
 7377SOL    HW233765   2.779   0.912   7.066 -0.5212  0.8657 -0.7888
 7378SOL     OW33766   4.531   4.079   0.932 -0.7300  0.2903 -0.2903
 7378SOL    HW133767   4.620   4.060   0.902  0.3203  2.7350  1.2845
 7378SOL    HW233768   4.535   4.065   1.026  2.0328  0.9152 -0.3305
 7379SOL     OW33769   2.322   3.174   9.138  0.0983  0.2412  0.4317
 7379SOL    HW133770   2.274   3.256   9.149 -0.4048 -0.1942  1.5497
 7379SOL    HW233771   2.378   3.191   9.063  0.6264  0.2561  0.8256
 7380SOL     OW33772   2.688   4.632  15.552 -1.2653 -0.3741  0.0015
 7380SOL    HW133773   2.599   4.643  15.586 -1.2017  0.3487 -0.0556
 7380SOL    HW233774   2.702   4.718  15.512 -0.2530  0.4644  2.1403
 7381SOL     OW33775   1.446   4.239   7.175 -0.2518  0.3149 -0.0512
 7381SOL    HW133776   1.530   4.203   7.148 -1.0186 -0.2940 -1.5795
 7381SOL    HW233777   1.388   4.164   7.171  0.3231  0.0290 -3.0868
 7382SOL     OW33778   4.324   0.083   1.489  0.0686 -0.3486  0.2256
 7382SOL    HW133779   4.328   0.156   1.428 -0.6708  0.6020  1.3179
 7382SOL    HW233780   4.232   0.061   1.470  0.1576 -2.1900  1.7966
 7383SOL     OW33781   4.044   3.336   3.313 -0.1785 -0.3597  0.0613
 7383SOL    HW133782   4.122   3.390   3.301  0.4076 -1.1645  0.2206
 7383SOL    HW233783   4.041   3.291   3.229  0.8151  1.2852 -0.8366
 7384SOL     OW33784   0.577   0.630  17.613  0.3797  0.1283 -0.0195
 7384SOL    HW133785   0.649   0.660  17.558 -1.1295  1.8016 -1.0828
 7384SOL    HW233786   0.612   0.548  17.648 -0.2807 -0.2584 -0.2628
 7385SOL     OW33787   1.995   4.295   3.579 -0.2621 -0.1025  0.8517
 7385SOL    HW133788   2.006   4.229   3.510 -0.2059 -0.9101  1.6272
 7385SOL    HW233789   1.985   4.379   3.535 -0.6485 -1.6385 -1.9898
 7386SOL     OW33790   2.834   2.037   4.699  0.2187 -0.1480 -0.9834
 7386SOL    HW133791   2.894   2.030   4.774  0.7835 -0.1966 -1.4431
 7386SOL    HW233792   2.884   2.092   4.639  0.0398 -1.6903 -2.5430
 7387SOL     OW33793   1.793   0.591   7.616 -0.2194 -0.2615  0.3567
 7387SOL    HW133794   1.807   0.511   7.565  0.6666  0.8223 -1.1387
 7387SOL    HW233795   1.835   0.655   7.558 -2.0431  1.8480  1.3954
 7388SOL     OW33796   4.692   2.099   0.750  0.5038  0.0632 -0.3848
 7388SOL    HW133797   0.000   2.064   0.827  3.6196  0.5424 -2.0461
 7388SOL    HW233798   0.030   2.134   0.703 -0.9669  2.4640 -0.9912
 7389SOL     OW33799   1.491   4.476   7.275  0.4778  0.0438 -0.0205
 7389SOL    HW133800   1.471   4.389   7.240  0.5671  0.6762 -1.6271
 7389SOL    HW233801   1.413   4.521   7.243  0.2054 -1.7704 -1.9385
 7390SOL     OW33802   2.586   0.233   6.466  0.2657 -0.1044 -0.1332
 7390SOL    HW133803   2.510   0.291   6.453  1.6338  1.0678 -2.8782
 7390SOL    HW233804   2.661   0.292   6.469 -0.5367  1.0121 -1.8144
 7391SOL     OW33805   2.107   1.009   2.764 -0.5521  0.5978  0.5575
 7391SOL    HW133806   2.030   1.016   2.819 -1.4950 -2.0485 -0.4102
 7391SOL    HW233807   2.066   1.030   2.680  3.6628  0.8206 -1.4488
 7392SOL     OW33808   0.581   0.450  10.614  0.4781 -0.4662  0.1549
 7392SOL    HW133809   0.621   0.407  10.539  0.6755  0.3069 -0.1898
 7392SOL    HW233810   0.612   0.390  10.682  0.6088 -0.0155  0.4978
 7393SOL     OW33811   2.271   4.464  17.570  0.1244  0.3397  0.8065
 7393SOL    HW133812   2.219   4.543  17.557 -0.9996 -0.3158  1.3360
 7393SOL    HW233813   2.251   4.464  17.664 -2.7661  1.6802  0.1944
 7394SOL     OW33814   1.349   0.377   2.418  0.1600 -0.4678  0.8652
 7394SOL    HW133815   1.298   0.360   2.497  1.3692  1.6668  2.0846
 7394SOL    HW233816   1.340   0.294   2.371 -0.3040  1.5962 -2.7101
 7395SOL     OW33817   2.638   1.532   2.992  0.1614 -0.5076  0.0020
 7395SOL    HW133818   2.638   1.606   2.931 -0.7526 -1.7620 -1.5297
 7395SOL    HW233819   2.551   1.542   3.031  0.3531  1.4151 -0.0338
 7396SOL     OW33820   3.823   4.025   7.685 -0.7591 -0.4924  0.4890
 7396SOL    HW133821   3.840   3.985   7.770  2.9774  1.3846  0.5929
 7396SOL    HW233822   3.761   4.096   7.704 -1.7490 -1.5499  1.2320
 7397SOL     OW33823   0.638   2.764   1.944  0.0323  0.3487 -0.5366
 7397SOL    HW133824   0.636   2.705   2.019 -0.9843  0.0078 -0.8276
 7397SOL    HW233825   0.570   2.721   1.892  0.1167 -0.4402  0.0097
 7398SOL     OW33826   1.245   4.056   0.187  0.2625  0.2738 -0.5636
 7398SOL    HW133827   1.164   4.015   0.156  0.2165  0.2003 -0.3507
 7398SOL    HW233828   1.318   3.998   0.168  1.5230  2.2396 -1.7162
 7399SOL     OW33829   2.614   0.588   3.798 -0.0719 -0.8726  0.1635
 7399SOL    HW133830   2.661   0.526   3.853  2.6408  0.3726 -0.7848
 7399SOL    HW233831   2.534   0.601   3.849  2.0013  2.3460  2.5841
 7400SOL     OW33832   1.405   3.932  10.443  0.0629 -0.2446 -0.2029
 7400SOL    HW133833   1.344   3.975  10.503  0.6550  0.4512 -0.0992
 7400SOL    HW233834   1.419   3.849  10.489  1.7386  0.6573  0.9111
 7401SOL     OW33835   1.871   4.075   6.104 -0.2094 -0.5414  0.1899
 7401SOL    HW133836   1.905   4.040   6.022 -1.5811 -0.3621 -0.4515
 7401SOL    HW233837   1.828   4.157   6.079 -1.7746 -1.2045  0.7548
 7402SOL     OW33838   1.429   3.426  12.642 -0.2628  0.3646  0.3746
 7402SOL    HW133839   1.511   3.398  12.601 -0.3999  1.2450 -0.4858
 7402SOL    HW233840   1.435   3.520  12.628 -2.4190  0.5601  0.8841
 7403SOL     OW33841   3.373   1.958   7.013  0.4909  0.2915  0.4524
 7403SOL    HW133842   3.412   1.888   6.961 -0.5831  1.9838 -2.6549
 7403SOL    HW233843   3.382   1.922   7.101 -3.8142  0.1842  0.8574
 7404SOL     OW33844   0.108   3.829   6.354  0.0783 -0.3145  0.2262
 7404SOL    HW133845   0.171   3.865   6.292  1.7481 -0.7351  1.6649
 7404SOL    HW233846   0.137   3.876   6.433  0.0940  0.1319 -0.0458
 7405SOL     OW33847   1.959   1.897   4.859  0.5912  0.4951 -0.5984
 7405SOL    HW133848   1.882   1.863   4.905 -0.1396  0.2200 -2.0213
 7405SOL    HW233849   2.033   1.859   4.907 -1.8138 -2.1794  1.0277
 7406SOL     OW33850   3.605   4.132  16.721  0.4641  0.1178  0.2774
 7406SOL    HW133851   3.538   4.121  16.654 -0.9441  1.1050  1.5476
 7406SOL    HW233852   3.657   4.205  16.687  0.0066  0.5513  0.5082
 7407SOL     OW33853   0.323   3.514   8.286 -0.1199 -0.0710 -0.0264
 7407SOL    HW133854   0.370   3.492   8.366 -0.0541 -2.8023 -0.8222
 7407SOL    HW233855   0.257   3.577   8.316  0.7302  0.8070 -0.0228
 7408SOL     OW33856   0.326   1.977   6.258  0.2582  0.1861  0.3126
 7408SOL    HW133857   0.276   2.035   6.315  1.5168 -0.9228  2.5711
 7408SOL    HW233858   0.254   1.933   6.213 -0.1397  0.0698  1.0620
 7409SOL     OW33859   2.186   3.662   6.372  0.5772  0.4018  0.0566
 7409SOL    HW133860   2.191   3.643   6.465  1.1449  2.1153  0.3828
 7409SOL    HW233861   2.204   3.755   6.388 -1.3705  0.6914  0.6265
 7410SOL     OW33862   1.192   2.415   5.751 -0.1194 -0.0768  0.4561
 7410SOL    HW133863   1.144   2.494   5.726  1.9206  1.6400  1.9824
 7410SOL    HW233864   1.259   2.408   5.682  1.4248 -0.4557  2.0055
 7411SOL     OW33865   4.515   1.938  16.805 -0.1075 -0.4158  0.0041
 7411SOL    HW133866   4.453   1.991  16.756  0.9352  1.5552  0.8324
 7411SOL    HW233867   4.556   1.994  16.871 -0.2727 -2.4268  1.8155
 7412SOL     OW33868   2.321   4.339   7.198 -0.0193 -0.5098 -0.0410
 7412SOL    HW133869   2.265   4.313   7.271  0.3309  2.3104  1.2262
 7412SOL    HW233870   2.334   4.255   7.155  0.7894 -0.7802  0.7126
 7413SOL     OW33871   1.247   0.200   7.446 -0.2479  0.0240  0.2049
 7413SOL    HW133872   1.212   0.271   7.498 -1.1586 -0.3405  0.0864
 7413SOL    HW233873   1.170   0.161   7.404  0.2715  2.9629 -3.4700
 7414SOL     OW33874   4.627   2.207   2.361 -0.6995 -0.9194 -0.3321
 7414SOL    HW133875   4.723   2.207   2.357 -0.6054  0.0423  2.2216
 7414SOL    HW233876   4.595   2.220   2.272  1.1101 -0.5939 -0.9216
 7415SOL     OW33877   4.028   3.823   1.478 -0.0701 -0.4914  0.3114
 7415SOL    HW133878   4.116   3.812   1.514 -0.2659 -1.8763  0.3529
 7415SOL    HW233879   4.009   3.901   1.530  0.4862  0.2717 -0.6312
 7416SOL     OW33880   3.773   3.442   1.866  0.0945  0.7107  0.2841
 7416SOL    HW133881   3.786   3.431   1.771  0.9640 -0.4428  0.5332
 7416SOL    HW233882   3.686   3.406   1.879  1.4266 -3.0326 -1.2387
 7417SOL     OW33883   1.744   1.387   5.926  0.1239 -0.5024 -0.3340
 7417SOL    HW133884   1.746   1.414   6.018 -0.3664  0.5269 -0.6340
 7417SOL    HW233885   1.770   1.465   5.877 -1.0098  1.0013  1.4530
 7418SOL     OW33886   1.495   1.041   7.541 -0.3961 -0.2153 -0.5039
 7418SOL    HW133887   1.576   1.091   7.531 -0.2910 -0.4802 -0.9741
 7418SOL    HW233888   1.458   1.045   7.453 -3.0797  1.2366  0.6971
 7419SOL     OW33889   3.009   4.081  17.641  0.4246 -0.3697  0.1819
 7419SOL    HW133890   3.049   4.015  17.585  2.3475 -0.8345  2.0915
 7419SOL    HW233891   3.019   4.038  17.726  0.5684 -0.0002  0.3526
 7420SOL     OW33892   0.729   4.649  17.582 -0.0091  0.4662  0.2445
 7420SOL    HW133893   0.767   4.705  17.514 -0.8295 -0.6586 -1.1447
 7420SOL    HW233894   0.781   4.674  17.659 -1.0529 -0.2309  1.1676
 7421SOL     OW33895   4.109   1.737   3.712 -0.2809 -0.0656  0.0059
 7421SOL    HW133896   4.132   1.646   3.693 -2.8458 -0.0915 -2.9565
 7421SOL    HW233897   4.048   1.720   3.783 -1.4610 -2.7469 -1.6692
 7422SOL     OW33898   0.005   1.503   7.176  0.0179  0.2078 -0.5902
 7422SOL    HW133899   0.044   1.577   7.131  0.3084 -0.2733 -1.1373
 7422SOL    HW233900   0.059   1.429   7.148 -0.8290 -1.2238  1.5768
 7423SOL     OW33901   2.640   0.865   5.829  0.3303  0.3669  0.2309
 7423SOL    HW133902   2.575   0.885   5.761 -1.7798 -1.9684  1.5938
 7423SOL    HW233903   2.701   0.939   5.826  1.3837 -0.5168 -0.3111
 7424SOL     OW33904   2.368   2.856   7.619 -0.1699  0.7018 -0.2297
 7424SOL    HW133905   2.354   2.852   7.714  1.7393  1.1173  0.0651
 7424SOL    HW233906   2.356   2.949   7.603  1.1769  1.0647  0.9127
 7425SOL     OW33907   1.690   2.215  10.837  0.1397 -0.4052 -0.3829
 7425SOL    HW133908   1.744   2.285  10.800  1.8035 -2.0810 -1.1306
 7425SOL    HW233909   1.705   2.234  10.929  1.6478 -0.2634 -0.6620
 7426SOL     OW33910   3.420   1.883   4.865 -0.0898  0.3197 -0.4097
 7426SOL    HW133911   3.507   1.845   4.848 -1.1596 -1.7486 -1.2615
 7426SOL    HW233912   3.372   1.805   4.838  0.3686 -0.9344  2.4005
 7427SOL     OW33913   3.659   0.512  11.000 -0.2112  0.0008 -0.0687
 7427SOL    HW133914   3.738   0.566  11.005 -0.0996 -0.3636  2.1924
 7427SOL    HW233915   3.685   0.444  11.062  0.3311  0.0916 -0.1936
 7428SOL     OW33916   2.242   0.244   3.888  0.3931 -0.6717  0.3404
 7428SOL    HW133917   2.222   0.163   3.935 -3.6502  0.4143  0.5366
 7428SOL    HW233918   2.329   0.269   3.919 -0.5711  0.3079  2.2501
 7429SOL     OW33919   1.203   3.594  13.922 -0.4338 -0.3210  0.3725
 7429SOL    HW133920   1.134   3.635  13.975 -1.1894  1.6729 -2.1265
 7429SOL    HW233921   1.207   3.512  13.971  1.6047  0.0428  0.7863
 7430SOL     OW33922   3.329   3.207   3.671 -0.2907 -0.5597 -0.9573
 7430SOL    HW133923   3.422   3.221   3.651 -0.3340 -0.3078 -0.9803
 7430SOL    HW233924   3.309   3.289   3.716  1.6205  0.0081 -1.1462
 7431SOL     OW33925   2.493   4.641   8.677  0.6151 -0.2286  0.1797
 7431SOL    HW133926   2.565   4.689   8.636  1.9279 -0.7302  1.8761
 7431SOL    HW233927   2.523   4.555   8.645 -0.5233  0.1426 -1.8746
 7432SOL     OW33928   1.950   1.569   1.767 -0.6251  0.1482 -0.4602
 7432SOL    HW133929   1.932   1.654   1.806  0.9488  0.7774 -1.0998
 7432SOL    HW233930   1.864   1.536   1.789 -0.7474  2.4876  2.4923
 7433SOL     OW33931   3.607   0.049   1.888  0.5977 -0.1443 -0.0412
 7433SOL    HW133932   3.700   0.049   1.865  0.3532  1.8917 -0.9888
 7433SOL    HW233933   3.615   0.104   1.967 -0.0524  0.2898 -0.2746
 7434SOL     OW33934   0.288   0.100   5.162  0.1700 -0.0075  0.2098
 7434SOL    HW133935   0.254   0.178   5.206  0.3421  1.7468 -2.7709
 7434SOL    HW233936   0.284   0.041   5.237  2.3167 -1.3076 -0.6966
 7435SOL     OW33937   3.015   0.115   2.086  0.5430 -0.1573 -0.3425
 7435SOL    HW133938   2.922   0.130   2.103  0.7846  1.7340 -0.6607
 7435SOL    HW233939   3.056   0.195   2.119 -1.1278 -0.0181  1.3596
 7436SOL     OW33940   1.374   3.047   8.171  0.0561 -0.9824  0.1031
 7436SOL    HW133941   1.312   2.987   8.130  0.4712 -1.4667  0.1791
 7436SOL    HW233942   1.317   3.103   8.223 -0.9510 -0.7082 -1.3106
 7437SOL     OW33943   3.746   0.453  17.541  0.1533 -0.5645 -0.5899
 7437SOL    HW133944   3.770   0.531  17.492  0.6095 -0.0132  0.5147
 7437SOL    HW233945   3.811   0.384  17.527 -0.1042 -0.4855 -2.1299
 7438SOL     OW33946   2.971   0.660   0.627  0.5481  0.1430 -0.0938
 7438SOL    HW133947   3.026   0.649   0.704 -0.1796  1.5451  0.6264
 7438SOL    HW233948   3.021   0.610   0.562  0.2765  0.5115 -0.5881
 7439SOL     OW33949   4.099   2.389   8.871  0.3555  0.3191  0.0620
 7439SOL    HW133950   4.130   2.395   8.961 -1.1186  0.2275  0.5752
 7439SOL    HW233951   4.180   2.361   8.829  1.1191  0.9740  1.1204
 7440SOL     OW33952   4.633   1.390   6.443 -0.1157 -0.0609  0.1193
 7440SOL    HW133953   4.628   1.356   6.532  0.9191  0.6522  0.4531
 7440SOL    HW233954   4.725   1.414   6.433  0.4987 -2.8467 -0.8321
 7441SOL     OW33955   1.545   4.575  13.767 -0.0728  0.4456  0.7108
 7441SOL    HW133956   1.485   4.508  13.735 -3.8454  3.8240  0.6956
 7441SOL    HW233957   1.631   4.532  13.774 -0.9979 -1.7486 -1.4409
 7442SOL     OW33958   3.230   4.107   9.653  0.2531  0.0433 -0.0766
 7442SOL    HW133959   3.296   4.063   9.599  0.9567 -0.1600  0.9616
 7442SOL    HW233960   3.258   4.197   9.668 -1.9706  0.6769  0.3024
 7443SOL     OW33961   3.463   2.694   9.593 -0.0162 -0.9029  0.0439
 7443SOL    HW133962   3.539   2.639   9.573  1.3210  1.1902 -0.5948
 7443SOL    HW233963   3.443   2.658   9.680  1.8799 -2.9716 -0.3705
 7444SOL     OW33964   3.614   4.657  13.036  0.7436 -0.5425  0.1879
 7444SOL    HW133965   3.700   4.694  13.013  0.5696  0.8247  1.7390
 7444SOL    HW233966   3.642   4.574  13.074  2.6738 -0.2378 -0.5567
 7445SOL     OW33967   2.439   4.123   7.978 -0.5842  0.9953  0.6213
 7445SOL    HW133968   2.400   4.051   8.027  0.6188 -0.5105 -0.6227
 7445SOL    HW233969   2.369   4.133   7.913 -1.6093 -1.7939  1.2577
 7446SOL     OW33970   3.493   2.080   7.333  0.2305  0.2645  0.1123
 7446SOL    HW133971   3.455   1.994   7.351 -2.2110  1.2264 -0.4318
 7446SOL    HW233972   3.408   2.124   7.328  0.5882  0.9865  0.2716
 7447SOL     OW33973   1.510   2.441   6.110  0.3400 -0.6588  0.5037
 7447SOL    HW133974   1.462   2.522   6.091 -1.3500 -1.3796  1.6508
 7447SOL    HW233975   1.460   2.418   6.188 -0.3179  2.3117  0.9658
 7448SOL     OW33976   1.277   4.677  11.802 -0.2356 -0.0584 -0.2994
 7448SOL    HW133977   1.266   4.689  11.896  0.4908 -1.2385 -0.0709
 7448SOL    HW233978   1.349   4.614  11.797 -1.4777 -1.4535 -0.2712
 7449SOL     OW33979   0.683   3.358   1.558  0.2384  0.0675 -0.0365
 7449SOL    HW133980   0.759   3.324   1.605  1.5201  2.1470 -0.5992
 7449SOL    HW233981   0.703   3.451   1.559  0.5475  0.0043 -0.3563
 7450SOL     OW33982   3.294   0.828   3.661 -0.4078 -0.2197 -0.0922
 7450SOL    HW133983   3.342   0.756   3.619  1.2720  1.2521 -0.6566
 7450SOL    HW233984   3.219   0.836   3.602  1.5038  0.0668 -2.4456
 7451SOL     OW33985   4.731   3.248   3.865 -0.0433  0.0837 -0.2398
 7451SOL    HW133986   4.703   3.305   3.793 -1.6628  1.4841  1.5044
 7451SOL    HW233987   4.644   3.234   3.900 -0.2754  0.1782 -0.7707
 7452SOL     OW33988   2.904   2.656  16.852 -0.8410 -0.2526 -0.5284
 7452SOL    HW133989   2.904   2.744  16.814  0.6920  0.4385  1.0528
 7452SOL    HW233990   2.923   2.607  16.773  2.4567 -0.1070  0.2000
 7453SOL     OW33991   0.278   3.368   6.267  0.4275  0.0745  0.3834
 7453SOL    HW133992   0.208   3.430   6.242  0.1629 -0.5598 -0.4527
 7453SOL    HW233993   0.248   3.320   6.344  1.2177  2.2077  2.0211
 7454SOL     OW33994   0.603   1.565   3.300 -0.5483  0.3689  0.3943
 7454SOL    HW133995   0.561   1.498   3.246 -0.1683  1.2511 -0.9828
 7454SOL    HW233996   0.530   1.619   3.330 -0.2548  1.3933 -0.7743
 7455SOL     OW33997   3.173   0.707   6.308  0.1652 -0.1868  0.0293
 7455SOL    HW133998   3.178   0.776   6.242 -0.7737  0.5916  0.7809
 7455SOL    HW233999   3.258   0.663   6.309  0.2336  0.0006  1.5426
 7456SOL     OW34000   0.216   1.977   8.121  0.2098 -0.0054 -0.4183
 7456SOL    HW134001   0.228   1.923   8.200 -0.3531  0.2595 -0.1521
 7456SOL    HW234002   0.161   1.918   8.070 -0.3514  0.9636 -0.9221
 7457SOL     OW34003   2.602   4.006   6.272  0.1042  0.2500 -0.0572
 7457SOL    HW134004   2.578   4.087   6.318 -0.2047 -0.6796  1.4234
 7457SOL    HW234005   2.658   3.953   6.329  1.5078  2.1365  0.3326
 7458SOL     OW34006   0.987   1.278   2.257  0.2694  0.5150 -1.0239
 7458SOL    HW134007   0.938   1.196   2.266 -2.4491  2.1334 -0.9157
 7458SOL    HW234008   0.928   1.328   2.201 -0.6214  0.6857  0.0601
 7459SOL     OW34009   0.291   3.564   3.432  0.5495  0.0851  0.0689
 7459SOL    HW134010   0.257   3.576   3.344  4.2709  2.9248 -0.9972
 7459SOL    HW234011   0.227   3.608   3.488 -0.3070 -0.7567 -0.2535
 7460SOL     OW34012   2.905   2.784  17.719 -0.1684  0.9060 -0.1189
 7460SOL    HW134013   2.893   2.691  17.741  1.0568  0.8600  0.3224
 7460SOL    HW234014   2.937   2.815   0.055  0.4999  1.2356 -0.4925
 7461SOL     OW34015   0.519   2.739   3.830  0.2127 -0.1993  0.1933
 7461SOL    HW134016   0.492   2.774   3.915 -0.5343 -1.5519  0.5306
 7461SOL    HW234017   0.457   2.780   3.770 -0.3520 -2.6681 -0.9553
 7462SOL     OW34018   3.941   1.510   9.693 -0.3078 -0.1744 -0.3425
 7462SOL    HW134019   3.898   1.589   9.726  0.2001 -0.2026  0.3717
 7462SOL    HW234020   3.962   1.464   9.774  1.7748 -0.4882 -1.0683
 7463SOL     OW34021   4.621   3.575  15.406  0.0585  0.3035  0.3783
 7463SOL    HW134022   4.667   3.658  15.392  0.0228  0.2534 -0.0256
 7463SOL    HW234023   4.702   3.523  15.407 -0.4814 -0.5442 -0.4079
 7464SOL     OW34024   1.931   1.828   1.901  0.7186  0.3419  0.5626
 7464SOL    HW134025   1.987   1.864   1.970 -0.2140 -0.4307  1.7347
 7464SOL    HW234026   1.900   1.903   1.851 -3.1634  0.0345  2.5031
 7465SOL     OW34027   3.422   4.396   6.181  0.4481 -0.1261  0.5141
 7465SOL    HW134028   3.404   4.471   6.238  0.6742 -0.8090  1.4862
 7465SOL    HW234029   3.337   4.354   6.171  0.4584 -0.0469  0.0905
 7466SOL     OW34030   3.546   1.558  11.106 -0.0839 -0.1782 -0.2105
 7466SOL    HW134031   3.532   1.467  11.080 -0.1353 -0.0742 -0.5481
 7466SOL    HW234032   3.641   1.553  11.104 -0.1232 -0.6279 -0.6703
 7467SOL     OW34033   4.494   3.417   3.800  0.6422 -0.1994  0.2820
 7467SOL    HW134034   4.554   3.487   3.773  2.4650 -0.7657  2.8224
 7467SOL    HW234035   4.420   3.445   3.745  0.4230  1.3430  1.3432
 7468SOL     OW34036   3.415   2.227  15.349 -0.0998  0.2482  0.5599
 7468SOL    HW134037   3.426   2.216  15.255 -0.5131 -0.7647  0.6255
 7468SOL    HW234038   3.446   2.146  15.390  2.4008  1.4468  1.0079
 7469SOL     OW34039   3.354   4.646   1.974  0.1246 -0.5376 -0.1398
 7469SOL    HW134040   3.331   4.726   2.021 -2.2078 -2.0916  1.3312
 7469SOL    HW234041   3.440   4.670   1.940 -0.5264  0.4679 -1.1091
 7470SOL     OW34042   1.636   2.563  15.023  0.2425  0.2002 -0.1783
 7470SOL    HW134043   1.598   2.624  15.086  2.5958 -1.7292  3.0843
 7470SOL    HW234044   1.724   2.553  15.061 -0.0091 -2.0447 -0.1716
 7471SOL     OW34045   3.688   2.334  10.057  0.6346 -0.2038 -0.2416
 7471SOL    HW134046   3.633   2.338   9.979 -0.8719 -1.5758  0.7392
 7471SOL    HW234047   3.710   2.241  10.051  1.6263  0.0314 -0.2042
 7472SOL     OW34048   0.891   3.828   2.603  0.1003 -0.7793 -0.0873
 7472SOL    HW134049   0.963   3.771   2.578 -0.3015 -0.0350 -2.9643
 7472SOL    HW234050   0.935   3.903   2.644 -1.7153 -0.6812  1.6895
 7473SOL     OW34051   3.711   1.294   2.699 -0.1355  0.1337  0.2526
 7473SOL    HW134052   3.656   1.367   2.670 -1.0693 -0.6954 -0.0603
 7473SOL    HW234053   3.642   1.234   2.725 -0.5981  1.7945  2.9343
 7474SOL     OW34054   0.835   0.327   7.469  0.3237  0.2571 -0.9426
 7474SOL    HW134055   0.889   0.360   7.397 -0.2289  0.9933 -1.0150
 7474SOL    HW234056   0.873   0.375   7.542 -0.4896 -0.0577 -0.3132
 7475SOL     OW34057   2.396   2.969   1.172  0.5584 -0.2261  0.0235
 7475SOL    HW134058   2.468   2.989   1.232  0.9926 -1.0126 -0.2260
 7475SOL    HW234059   2.316   2.983   1.223 -0.2655 -1.5214 -0.9259
 7476SOL     OW34060   2.018   4.116   7.035 -0.2025 -0.0857 -0.5452
 7476SOL    HW134061   2.019   4.123   6.940 -1.6763 -1.5816 -0.6646
 7476SOL    HW234062   2.061   4.198   7.060 -1.5320  0.1455  0.9921
 7477SOL     OW34063   0.438   1.005   7.218  0.0973  0.2882 -0.1435
 7477SOL    HW134064   0.450   1.094   7.250  2.6849 -0.2899  0.5361
 7477SOL    HW234065   0.501   0.954   7.269 -0.6957 -1.7115 -1.1615
 7478SOL     OW34066   3.460   3.722  11.519  0.3913 -0.3972 -0.8091
 7478SOL    HW134067   3.549   3.750  11.537  0.0829  0.7699 -1.1074
 7478SOL    HW234068   3.471   3.627  11.516  1.5250 -0.3688  2.1605
 7479SOL     OW34069   1.006   4.687  17.717  0.5605  0.1273 -0.4601
 7479SOL    HW134070   0.982   4.595  17.730  0.6859  0.0866 -0.5160
 7479SOL    HW234071   1.031   4.706   0.059  2.3769  1.1813 -1.1982
 7480SOL     OW34072   4.539   2.973   9.725 -0.0205 -0.0580  0.0782
 7480SOL    HW134073   4.544   3.068   9.711 -0.3483 -0.0494  0.0331
 7480SOL    HW234074   4.559   2.958   9.818  1.5040  0.8231 -0.0915
 7481SOL     OW34075   2.837   2.469   4.676  0.1534  0.6250 -0.2449
 7481SOL    HW134076   2.877   2.382   4.675  0.9752  1.0003  0.3080
 7481SOL    HW234077   2.753   2.459   4.631 -0.1838 -0.7170  0.6869
 7482SOL     OW34078   2.450   2.705  10.082  0.2732  0.2640  0.4043
 7482SOL    HW134079   2.526   2.665  10.039  0.5963  2.0972 -0.7288
 7482SOL    HW234080   2.398   2.748  10.014  0.1959 -2.4102 -1.2260
 7483SOL     OW34081   2.241   0.275   9.700 -0.5106  0.2697  0.3816
 7483SOL    HW134082   2.232   0.308   9.790 -1.3344  0.8852  0.0729
 7483SOL    HW234083   2.256   0.181   9.710 -1.4554  0.2188  1.2583
 7484SOL     OW34084   2.986   0.655  12.650 -0.0411  0.0929 -0.2234
 7484SOL    HW134085   3.003   0.572  12.605 -1.9970  0.5135 -1.7140
 7484SOL    HW234086   3.070   0.682  12.686 -0.8278  2.0520  0.0918
 7485SOL     OW34087   2.732   1.264  12.721  0.2455  0.3117  0.0250
 7485SOL    HW134088   2.827   1.261  12.729  0.2321  1.2003  0.4778
 7485SOL    HW234089   2.706   1.183  12.765  0.1647 -0.0295 -0.6368
 7486SOL     OW34090   3.402   1.552   3.883  0.0373 -0.1994  0.0711
 7486SOL    HW134091   3.360   1.575   3.966 -2.6148  1.1194 -1.6282
 7486SOL    HW234092   3.358   1.628   3.847 -0.3496 -0.9118 -0.9582
 7487SOL     OW34093   0.446   0.950   5.414  0.1759 -0.0529  0.5209
 7487SOL    HW134094   0.486   0.981   5.495  1.5449 -1.8289  0.5217
 7487SOL    HW234095   0.391   1.025   5.389  2.2110  1.0516 -0.6329
 7488SOL     OW34096   2.819   3.046   8.678  0.3205 -0.0428 -0.2725
 7488SOL    HW134097   2.793   3.120   8.733  0.1516 -0.6193  0.4116
 7488SOL    HW234098   2.805   2.972   8.737  4.2656  0.4045  1.1974
 7489SOL     OW34099   1.439   1.650   9.483 -0.1289 -0.3556  0.2194
 7489SOL    HW134100   1.392   1.568   9.502 -1.4468  0.0200 -1.4519
 7489SOL    HW234101   1.480   1.661   9.569  2.7473 -0.5641 -1.1236
 7490SOL     OW34102   0.501   1.894   9.684  0.4705 -0.3654 -0.9351
 7490SOL    HW134103   0.518   1.914   9.592 -0.4046  0.3952 -0.9277
 7490SOL    HW234104   0.525   1.981   9.718  0.7906 -0.0828 -1.8713
 7491SOL     OW34105   1.891   1.741   9.297  0.1636  0.2000 -0.2236
 7491SOL    HW134106   1.952   1.779   9.361  0.6678  1.7210 -1.6240
 7491SOL    HW234107   1.948   1.734   9.221  0.4605 -0.6202  0.0717
 7492SOL     OW34108   3.389   0.003   4.570 -0.5700 -0.3382  0.5120
 7492SOL    HW134109   3.321   4.711   4.632 -1.2711  0.4365  0.1093
 7492SOL    HW234110   3.458   4.680   4.599 -2.3938 -0.5129  4.5967
 7493SOL     OW34111   2.976   0.017   4.959  0.0474  0.0974 -0.2476
 7493SOL    HW134112   2.883   0.002   4.975 -0.0735 -0.7159 -1.7142
 7493SOL    HW234113   2.988   4.672   4.912 -2.1433 -0.1575 -0.3424
 7494SOL     OW34114   0.708   4.451   6.840 -0.0179 -0.1591  0.1967
 7494SOL    HW134115   0.762   4.425   6.765 -2.1540  1.5301 -1.9558
 7494SOL    HW234116   0.651   4.521   6.807 -2.4747 -1.5278  1.5541
 7495SOL     OW34117   3.251   0.909   3.912  0.2215  0.0735  0.2992
 7495SOL    HW134118   3.158   0.929   3.916 -0.1779 -1.8826  0.9393
 7495SOL    HW234119   3.267   0.874   3.824 -1.1693  2.8900 -1.0441
 7496SOL     OW34120   1.707   2.328   4.573 -0.1755 -0.0513 -0.0938
 7496SOL    HW134121   1.771   2.340   4.643  0.5699  2.0514 -1.1006
 7496SOL    HW234122   1.684   2.238   4.594  1.6467 -1.1151 -2.6406
 7497SOL     OW34123   3.537   0.116   9.874  1.0859  0.2572 -0.0982
 7497SOL    HW134124   3.624   0.091   9.906  0.4770 -0.0209  1.3359
 7497SOL    HW234125   3.506   0.179   9.940  0.6200  2.2307 -2.2061
 7498SOL     OW34126   1.401   4.030  12.383 -0.0123 -0.3839  0.3600
 7498SOL    HW134127   1.313   4.056  12.408  0.1026 -0.1534  0.5239
 7498SOL    HW234128   1.412   4.083  12.304  2.2217 -0.4397  0.6342
 7499SOL     OW34129   0.051   4.476   7.623 -0.1459 -0.8600  0.1256
 7499SOL    HW134130   0.124   4.533   7.643 -1.6193  0.3035  2.2316
 7499SOL    HW234131   4.721   4.532   7.584  0.5617 -0.5765 -0.6799
 7500SOL     OW34132   0.885   0.905   1.724  0.8593  0.0198  0.3788
 7500SOL    HW134133   0.911   0.936   1.637  3.0037 -0.3829  0.8902
 7500SOL    HW234134   0.795   0.874   1.711  2.1313 -2.2774 -3.0988
 7501SOL     OW34135   4.391   3.981   7.840  0.4860  0.1798 -0.8787
 7501SOL    HW134136   4.388   4.031   7.759  1.2203  2.5468  0.5344
 7501SOL    HW234137   4.402   3.894   7.803  1.9098  0.9462 -2.2929
 7502SOL     OW34138   4.057   0.659  16.936 -0.1839 -0.0220 -0.3434
 7502SOL    HW134139   4.085   0.570  16.961 -1.1906 -0.0508  0.6949
 7502SOL    HW234140   3.985   0.672  16.998 -0.9080 -1.7147 -0.8151
 7503SOL     OW34141   0.473   0.562   3.149  0.3838  0.6844 -0.1562
 7503SOL    HW134142   0.451   0.649   3.117  0.7931  0.9298  0.2399
 7503SOL    HW234143   0.566   0.559   3.126  0.8082  1.6877  1.4288
 7504SOL     OW34144   1.037   1.034   6.173  0.2930 -0.3238  0.1786
 7504SOL    HW134145   1.062   1.127   6.175 -0.2268 -0.1907  0.5695
 7504SOL    HW234146   0.952   1.046   6.130 -0.1060 -2.4019  0.3801
 7505SOL     OW34147   3.635   2.591   9.029  1.2914 -0.3957  0.0726
 7505SOL    HW134148   3.610   2.634   8.947  1.9675  0.0601  0.1050
 7505SOL    HW234149   3.652   2.672   9.078 -0.2181 -0.4537  0.6860
 7506SOL     OW34150   3.627   4.286  14.098  0.6225  0.3103  0.0239
 7506SOL    HW134151   3.561   4.356  14.096  0.0873 -0.1565  1.0401
 7506SOL    HW234152   3.613   4.253  14.009 -2.8593  2.1278 -0.1063
 7507SOL     OW34153   3.819   4.628   7.231  0.1315  0.8646 -0.4223
 7507SOL    HW134154   3.767   4.643   7.310  1.0823  1.0503  0.1688
 7507SOL    HW234155   3.847   4.539   7.251  3.5246  2.0981  0.2695
 7508SOL     OW34156   3.153   2.420  12.053 -0.3543 -0.0873 -0.0969
 7508SOL    HW134157   3.186   2.501  12.014  0.4155  0.5112  1.8330
 7508SOL    HW234158   3.058   2.412  12.047 -0.4367  1.6428 -0.9142
 7509SOL     OW34159   1.202   1.563   6.180 -0.0185  0.0831  0.1178
 7509SOL    HW134160   1.142   1.618   6.230 -0.4237 -0.5562  0.3340
 7509SOL    HW234161   1.146   1.540   6.106 -0.0774 -3.1460  1.1405
 7510SOL     OW34162   0.998   1.600  10.200  0.0053 -0.0475  0.2310
 7510SOL    HW134163   1.004   1.549  10.120  1.3583 -0.6168  0.6998
 7510SOL    HW234164   1.041   1.681  10.174  0.4332 -0.6429 -0.9084
 7511SOL     OW34165   0.961   3.855   7.120  0.1290 -0.1306 -0.3982
 7511SOL    HW134166   0.971   3.941   7.159  2.1062 -0.2777 -0.6000
 7511SOL    HW234167   0.886   3.817   7.166  0.7575 -0.5131  0.3120
 7512SOL     OW34168   2.196   0.613  13.946 -0.7392  0.6777  0.4463
 7512SOL    HW134169   2.113   0.661  13.940 -1.7648 -1.2597 -1.0539
 7512SOL    HW234170   2.203   0.618  14.041  0.8336  0.2336  0.3519
 7513SOL     OW34171   0.077   3.742  16.399 -0.7465  0.4011  0.1727
 7513SOL    HW134172   4.723   3.715  16.409 -1.5589  3.0710 -0.0642
 7513SOL    HW234173   0.068   3.817  16.341 -2.1958  1.4185  1.7276
 7514SOL     OW34174   3.304   3.654   6.313 -0.2972  0.1778  0.4772
 7514SOL    HW134175   3.340   3.674   6.226  0.1419 -1.7061  0.2237
 7514SOL    HW234176   3.318   3.741   6.350  0.2999  0.6457 -0.8169
 7515SOL     OW34177   0.689   4.184   4.919 -0.2294  0.0706  0.1402
 7515SOL    HW134178   0.651   4.232   4.846 -0.6158 -2.3058 -1.2266
 7515SOL    HW234179   0.611   4.133   4.939 -1.2835  1.6176 -0.1160
 7516SOL     OW34180   3.617   1.184   3.152 -0.4887  0.1771 -0.1675
 7516SOL    HW134181   3.613   1.176   3.247 -0.5247  1.2900 -0.0729
 7516SOL    HW234182   3.562   1.261   3.137 -0.6803  0.1468  0.3875
 7517SOL     OW34183   3.630   3.495   0.454 -0.4653  0.2782  0.1235
 7517SOL    HW134184   3.554   3.530   0.500 -1.9929  0.4242 -2.5146
 7517SOL    HW234185   3.697   3.530   0.513 -0.4132 -1.3895  1.0520
 7518SOL     OW34186   0.404   1.256  13.966 -0.3058  1.0665  0.5786
 7518SOL    HW134187   0.397   1.260  14.061 -0.5379 -0.4055  0.6101
 7518SOL    HW234188   0.410   1.163  13.947 -0.1187  0.8977  1.4835
 7519SOL     OW34189   3.428   4.348   0.665 -0.4044  0.0294  0.1084
 7519SOL    HW134190   3.372   4.272   0.651  1.3819 -1.0750 -0.9689
 7519SOL    HW234191   3.395   4.410   0.600  0.5327  1.2675  0.8020
 7520SOL     OW34192   3.140   2.271  13.071 -0.3797  0.2490 -0.1307
 7520SOL    HW134193   3.202   2.321  13.017  1.1037 -0.1370  1.2276
 7520SOL    HW234194   3.193   2.228  13.138  1.4304  1.6342 -0.6580
 7521SOL     OW34195   1.507   4.683   4.701  0.1184  0.1378 -0.0754
 7521SOL    HW134196   1.545   4.709   4.617  5.1199 -2.5212  1.3898
 7521SOL    HW234197   1.411   4.684   4.689 -0.0425 -2.3404  1.0115
 7522SOL     OW34198   3.569   3.110   2.328  0.7210  0.1273 -0.1074
 7522SOL    HW134199   3.556   3.204   2.312  0.7641  0.0971 -0.3099
 7522SOL    HW234200   3.539   3.078   2.243 -2.7596  2.2989  0.2807
 7523SOL     OW34201   0.916   3.299   7.346  0.2386  0.5532 -0.9264
 7523SOL    HW134202   0.845   3.352   7.381 -0.0119  0.8217 -1.8267
 7523SOL    HW234203   0.980   3.292   7.417  0.7474  2.2770 -1.2186
 7524SOL     OW34204   1.788   0.339   4.774  0.4375  0.0794  0.6252
 7524SOL    HW134205   1.856   0.276   4.750 -3.2182 -2.4147 -3.3092
 7524SOL    HW234206   1.710   0.296   4.738  0.3998 -0.6878  1.6395
 7525SOL     OW34207   1.363   3.419   2.229  0.1037 -0.6613 -0.2568
 7525SOL    HW134208   1.298   3.366   2.276  0.8087 -2.0015 -0.8023
 7525SOL    HW234209   1.304   3.487   2.195  2.8067  0.4230 -2.7720
 7526SOL     OW34210   2.076   3.551   3.437  0.4192 -0.5156  0.0145
 7526SOL    HW134211   2.038   3.525   3.353 -1.8052  1.0024  0.5660
 7526SOL    HW234212   2.012   3.505   3.490 -0.6177  2.6174  1.4612
 7527SOL     OW34213   0.199   2.777   2.907  0.3949  0.9001 -0.3564
 7527SOL    HW134214   0.174   2.820   2.825  0.9696  0.7665 -0.6007
 7527SOL    HW234215   0.257   2.704   2.885 -0.7542  0.2768 -1.2803
 7528SOL     OW34216   4.232   1.511   8.669  0.3561 -0.4056 -0.1570
 7528SOL    HW134217   4.189   1.481   8.589 -0.4331  0.5396 -0.0732
 7528SOL    HW234218   4.196   1.599   8.676  0.2062 -0.4480 -0.4074
 7529SOL     OW34219   4.029   3.729   9.876  0.1451 -0.5169 -0.2120
 7529SOL    HW134220   4.013   3.653   9.822  0.0709  0.2150 -1.2159
 7529SOL    HW234221   3.979   3.789   9.821 -1.7654 -1.0647  0.8902
 7530SOL     OW34222   2.562   2.561   3.131  0.3549 -0.2540 -0.3584
 7530SOL    HW134223   2.628   2.630   3.119  0.0730 -0.0666 -0.8564
 7530SOL    HW234224   2.545   2.558   3.225  0.3264 -1.5780 -0.4136
 7531SOL     OW34225   2.350   0.846  10.419 -0.1218 -0.2011 -0.1039
 7531SOL    HW134226   2.373   0.914  10.483 -0.5299  0.0980 -0.2709
 7531SOL    HW234227   2.256   0.837  10.439 -0.0512 -2.4208 -0.8042
 7532SOL     OW34228   3.570   0.791  16.568 -0.3398  0.4454  0.4123
 7532SOL    HW134229   3.529   0.876  16.557  0.2827  0.7355  0.3306
 7532SOL    HW234230   3.655   0.823  16.598  1.4855 -0.6372 -3.6653
 7533SOL     OW34231   1.145   2.755   8.489 -0.2404  0.5547  0.8926
 7533SOL    HW134232   1.114   2.794   8.571 -1.5560  1.9107 -0.2634
 7533SOL    HW234233   1.192   2.827   8.449 -0.4835 -0.7082 -1.6405
 7534SOL     OW34234   3.479   1.514   2.407 -0.2959 -0.0584 -0.1334
 7534SOL    HW134235   3.420   1.552   2.471 -0.9746  1.6686 -1.8020
 7534SOL    HW234236   3.493   1.424   2.437 -0.8407 -0.5067 -1.2075
 7535SOL     OW34237   4.594   0.025   8.576 -0.3656  0.1144 -0.4193
 7535SOL    HW134238   4.576   0.009   8.669  1.6362  2.5792  0.3932
 7535SOL    HW234239   4.538   0.094   8.540 -2.2396 -2.0744 -1.7033
 7536SOL     OW34240   1.884   3.267   6.855  0.2026 -0.1893 -0.0104
 7536SOL    HW134241   1.914   3.325   6.925  0.0724 -0.7464  0.5058
 7536SOL    HW234242   1.970   3.234   6.831 -0.1357 -1.8679  1.0566
 7537SOL     OW34243   2.592   0.596  16.583 -0.0568 -0.7669 -0.1927
 7537SOL    HW134244   2.635   0.599  16.669 -0.3819  2.2739 -0.1358
 7537SOL    HW234245   2.663   0.629  16.528 -1.5873  0.1059 -1.6565
 7538SOL     OW34246   3.681   2.567   7.180 -0.2248  0.0286 -0.7887
 7538SOL    HW134247   3.702   2.549   7.088  0.4417  0.8287 -0.7903
 7538SOL    HW234248   3.595   2.526   7.190 -0.2346 -0.0185 -1.0465
 7539SOL     OW34249   0.434   2.949   6.476 -0.5072  0.2799 -0.3511
 7539SOL    HW134250   0.406   2.995   6.555 -1.4340  2.0564 -1.7186
 7539SOL    HW234251   0.488   3.020   6.442 -0.1633 -0.2510 -0.9167
 7540SOL     OW34252   2.016   3.748  15.933 -0.2522 -0.4084  0.5001
 7540SOL    HW134253   2.069   3.669  15.939  0.2148 -0.4084 -3.7002
 7540SOL    HW234254   1.986   3.738  15.842 -2.5274  3.4225  0.8360
 7541SOL     OW34255   0.823   2.288  17.199 -0.3570 -0.0359  0.1052
 7541SOL    HW134256   0.749   2.336  17.161  0.3254  0.8372 -0.1282
 7541SOL    HW234257   0.838   2.335  17.281  1.7375 -1.1467  0.3411
 7542SOL     OW34258   1.943   3.494   2.827  0.3503 -0.3897 -0.6071
 7542SOL    HW134259   1.897   3.414   2.802  0.7575 -1.0574  0.7755
 7542SOL    HW234260   2.034   3.462   2.827 -0.3378 -2.3493  1.6142
 7543SOL     OW34261   2.614   4.412   4.348 -0.0410 -0.1994  0.5766
 7543SOL    HW134262   2.528   4.432   4.384 -0.2612 -0.8860  0.4352
 7543SOL    HW234263   2.635   4.501   4.320  0.1767 -0.4674 -0.1087
 7544SOL     OW34264   2.555   3.602  14.571  0.0467 -1.1972  0.6747
 7544SOL    HW134265   2.495   3.531  14.548 -0.5069 -1.2615  2.2633
 7544SOL    HW234266   2.603   3.621  14.491  0.3339  0.9608  1.3323
 7545SOL     OW34267   0.871   3.596   9.524 -0.3555  0.4030 -0.4967
 7545SOL    HW134268   0.896   3.682   9.557 -1.1121  0.5149 -0.2080
 7545SOL    HW234269   0.835   3.554   9.602  0.2859  0.2408 -0.2910
 7546SOL     OW34270   4.022   3.823   6.786  0.0637 -0.1584 -0.4135
 7546SOL    HW134271   3.999   3.783   6.702  2.6691 -0.8713 -0.7910
 7546SOL    HW234272   3.977   3.762   6.845  0.3729  1.6083  1.6413
 7547SOL     OW34273   0.718   0.690   4.869 -0.5858 -0.3640 -0.2111
 7547SOL    HW134274   0.676   0.767   4.908  1.3739  0.4505  0.2445
 7547SOL    HW234275   0.797   0.676   4.920 -0.2361 -1.4762 -1.0595
 7548SOL     OW34276   1.443   3.253   0.498  0.6344 -0.0051 -0.0511
 7548SOL    HW134277   1.458   3.283   0.587  0.1090  2.0334 -0.6460
 7548SOL    HW234278   1.496   3.173   0.498  0.5474 -0.0633 -0.2693
 7549SOL     OW34279   0.175   1.647  16.746  0.3506 -0.4596 -0.4524
 7549SOL    HW134280   0.103   1.676  16.803  0.0265  0.2691 -1.2448
 7549SOL    HW234281   0.254   1.683  16.786  0.5371 -0.0477 -1.1937
 7550SOL     OW34282   2.480   2.336   7.147  0.1448 -0.5681  0.0460
 7550SOL    HW134283   2.415   2.286   7.098 -0.9224  0.1415  0.7098
 7550SOL    HW234284   2.537   2.371   7.079 -0.8314  2.4563  0.7554
 7551SOL     OW34285   3.736   3.572  14.407  0.4359 -0.5577 -0.2329
 7551SOL    HW134286   3.700   3.488  14.380 -0.4682  0.4138 -2.0790
 7551SOL    HW234287   3.788   3.557  14.486  0.7824 -1.4368 -0.6424
 7552SOL     OW34288   4.401   1.466   8.872  0.0848  0.1707  0.2878
 7552SOL    HW134289   4.347   1.477   8.794 -0.4582 -1.5644  0.4153
 7552SOL    HW234290   4.367   1.536   8.927  0.8639  1.2034 -0.5429
 7553SOL     OW34291   0.859   1.009   3.684  0.8022  0.3676 -0.1324
 7553SOL    HW134292   0.869   1.075   3.752  1.2412 -0.7400  0.8749
 7553SOL    HW234293   0.810   1.058   3.619 -0.5977  1.0013  1.4229
 7554SOL     OW34294   3.144   4.509  16.591  0.0873 -0.4400 -0.0602
 7554SOL    HW134295   3.125   4.586  16.537 -0.8247  0.0413  0.9504
 7554SOL    HW234296   3.101   4.534  16.673  0.1255 -0.7265  0.0485
 7555SOL     OW34297   1.481   1.703  10.735  0.1481  0.8461 -0.0088
 7555SOL    HW134298   1.459   1.783  10.783  1.1921  1.2770 -0.2597
 7555SOL    HW234299   1.539   1.666  10.803 -0.5750  2.7998  1.6649
 7556SOL     OW34300   3.304   3.248   1.831 -0.0716 -0.9178  0.5101
 7556SOL    HW134301   3.319   3.160   1.868 -0.6727 -0.9720  0.6390
 7556SOL    HW234302   3.229   3.234   1.774 -1.3898 -1.6373  2.3921
 7557SOL     OW34303   1.296   4.172   8.216  0.2100 -0.6783  0.4639
 7557SOL    HW134304   1.321   4.215   8.298  0.2208  2.9978 -1.4711
 7557SOL    HW234305   1.306   4.078   8.236 -2.1185 -0.7665  1.2338
 7558SOL     OW34306   0.257   1.795   1.822 -0.5386  0.0636  0.0596
 7558SOL    HW134307   0.270   1.754   1.737 -0.5072  0.1273  0.0342
 7558SOL    HW234308   0.184   1.741   1.852 -1.0219 -0.3672 -1.9076
 7559SOL     OW34309   2.163   2.979   4.995 -0.0153  0.1687 -0.4979
 7559SOL    HW134310   2.208   2.989   4.912 -0.8064  2.5087 -0.6454
 7559SOL    HW234311   2.084   3.032   4.981 -0.7539 -0.4903  1.1258
 7560SOL     OW34312   2.644   0.365  17.424 -0.1209 -0.5890 -0.2510
 7560SOL    HW134313   2.606   0.359  17.512  1.0252 -0.8356  0.2329
 7560SOL    HW234314   2.620   0.454  17.401  1.2947  0.2122  1.3960
 7561SOL     OW34315   0.250   0.918   8.766 -0.0849 -0.3002 -0.3574
 7561SOL    HW134316   0.325   0.898   8.710 -2.0328  1.0710 -3.4455
 7561SOL    HW234317   0.295   0.975   8.828  0.2035 -0.4029 -0.4722
 7562SOL     OW34318   0.120   1.852   2.700  0.3056  0.0539 -0.1492
 7562SOL    HW134319   0.025   1.841   2.700  0.3519 -0.3909 -1.0583
 7562SOL    HW234320   0.151   1.819   2.784  1.2238  1.2800 -0.0002
 7563SOL     OW34321   2.711   2.486  11.975  0.0095 -0.2416 -0.2788
 7563SOL    HW134322   2.642   2.433  11.936 -1.8228  1.1018  1.1611
 7563SOL    HW234323   2.765   2.414  12.006 -0.1224  0.5681  1.7996
 7564SOL     OW34324   2.003   2.593  13.024  0.0549  0.1015  0.2065
 7564SOL    HW134325   2.082   2.605  13.076  0.6062 -2.5149 -0.0439
 7564SOL    HW234326   1.928   2.625  13.074  1.2985  0.5331  1.7632
 7565SOL     OW34327   3.129   0.041   5.481  0.2559  0.3563 -0.4026
 7565SOL    HW134328   3.073   0.111   5.515  1.2510  1.4668 -1.0477
 7565SOL    HW234329   3.216   0.074   5.501 -0.3354  2.0829 -0.6930
 7566SOL     OW34330   3.912   0.441   1.946 -0.2378 -0.2629 -0.1769
 7566SOL    HW134331   3.839   0.479   1.897 -0.4531 -1.1020 -0.5213
 7566SOL    HW234332   3.984   0.463   1.888 -0.3745  2.6846  0.8085
 7567SOL     OW34333   3.871   0.334  12.659 -0.5646  0.5732 -0.4975
 7567SOL    HW134334   3.844   0.259  12.605  0.7533 -0.9825  0.9822
 7567SOL    HW234335   3.944   0.298  12.710 -1.4828 -1.1565 -0.3889
 7568SOL     OW34336   3.841   0.952   6.123 -0.3369  0.3458 -0.2678
 7568SOL    HW134337   3.848   1.037   6.167  0.7526  0.6934 -1.1083
 7568SOL    HW234338   3.888   0.981   6.045 -0.9110 -1.0315 -1.1281
 7569SOL     OW34339   2.294   0.100   4.911 -0.6374 -0.0038  0.2867
 7569SOL    HW134340   2.232   0.059   4.850 -0.4283 -0.3486  0.3013
 7569SOL    HW234341   2.254   0.066   4.991  3.0891 -0.8321  1.7748
 7570SOL     OW34342   1.734   2.496   2.584 -1.1782  0.4411  0.5569
 7570SOL    HW134343   1.710   2.585   2.612 -0.2376  0.4409  1.3611
 7570SOL    HW234344   1.738   2.507   2.489  0.2140  0.1018  0.5836
 7571SOL     OW34345   1.316   4.319   4.249  0.2863  0.3282 -0.4299
 7571SOL    HW134346   1.268   4.285   4.324 -0.0209 -0.7800 -1.1172
 7571SOL    HW234347   1.243   4.349   4.194  0.6259 -0.0093 -1.0773
 7572SOL     OW34348   1.858   4.309   6.700  0.2353 -0.2044  0.4795
 7572SOL    HW134349   1.771   4.270   6.704 -0.0562  0.6301  2.2825
 7572SOL    HW234350   1.837   4.402   6.694  0.6268 -0.2580 -1.5589
 7573SOL     OW34351   4.391   4.227  13.920  0.2432 -0.4643 -0.5397
 7573SOL    HW134352   4.385   4.321  13.934 -2.3709 -1.1876  3.1907
 7573SOL    HW234353   4.485   4.212  13.928  0.3736  0.5081 -0.3280
 7574SOL     OW34354   2.746   2.239   5.699 -0.6280  0.3866 -0.2253
 7574SOL    HW134355   2.693   2.303   5.652 -0.3026 -0.0605 -1.1868
 7574SOL    HW234356   2.707   2.162   5.658 -1.4948  0.2348  0.8701
 7575SOL     OW34357   3.986   1.170  14.260 -0.4735 -0.5904  0.1941
 7575SOL    HW134358   3.946   1.215  14.334  0.3928  3.1053 -1.5796
 7575SOL    HW234359   4.008   1.086  14.301 -1.5070 -1.0901 -0.2551
 7576SOL     OW34360   3.553   3.954   4.326 -0.3658  0.1054  0.3317
 7576SOL    HW134361   3.642   3.988   4.317 -0.5960 -0.0687 -2.4284
 7576SOL    HW234362   3.513   4.030   4.368  0.6053  0.3123  0.8859
 7577SOL     OW34363   2.902   1.434   9.766  0.5061  0.5872 -0.4215
 7577SOL    HW134364   2.873   1.343   9.764  0.4766  0.5502  1.2987
 7577SOL    HW234365   2.891   1.464   9.676 -0.3686  1.9227  0.1241
 7578SOL     OW34366   3.041   4.118   4.459  0.2294  0.3163  0.1954
 7578SOL    HW134367   2.957   4.162   4.448  0.4210  0.2407 -1.4989
 7578SOL    HW234368   3.023   4.040   4.513 -0.2461 -1.0218 -1.9010
 7579SOL     OW34369   1.057   0.341   6.116 -0.0655 -0.0179 -0.3201
 7579SOL    HW134370   1.111   0.409   6.155 -2.9997  1.1576  1.6147
 7579SOL    HW234371   0.973   0.352   6.160  0.4183  0.8307  0.3773
 7580SOL     OW34372   2.624   3.376   9.321  0.1631 -0.6552  0.3774
 7580SOL    HW134373   2.582   3.401   9.239 -0.4060  0.1595  0.9217
 7580SOL    HW234374   2.675   3.452   9.349 -0.5412  0.7246 -2.0651
 7581SOL     OW34375   3.157   1.277  13.733  0.4399  0.3844  0.1914
 7581SOL    HW134376   3.137   1.352  13.788 -0.6230 -1.3351  2.1625
 7581SOL    HW234377   3.187   1.318  13.652 -0.6920  1.7741  0.4808
 7582SOL     OW34378   3.120   1.598  12.895 -0.0895  0.1693 -0.1844
 7582SOL    HW134379   3.057   1.662  12.861 -0.1791 -0.9468 -2.1032
 7582SOL    HW234380   3.081   1.583  12.981 -1.1216  1.3964 -0.4451
 7583SOL     OW34381   1.590   3.577   5.480  0.1353 -0.1609  0.0329
 7583SOL    HW134382   1.682   3.595   5.464  0.3613 -0.4653  0.9654
 7583SOL    HW234383   1.593   3.482   5.467 -1.9923  0.0914 -2.2364
 7584SOL     OW34384   0.261   0.013   9.796  0.2878 -0.0556 -0.3605
 7584SOL    HW134385   0.350   0.020   9.828  0.0254  0.8969  0.1652
 7584SOL    HW234386   0.237   0.106   9.790 -1.0955 -0.3789  0.2098
 7585SOL     OW34387   2.561   3.320  15.359  0.5324  0.3718 -0.1333
 7585SOL    HW134388   2.599   3.262  15.425  0.4806  0.1621 -0.2863
 7585SOL    HW234389   2.611   3.401  15.360  0.2764  0.5279  0.5876
 7586SOL     OW34390   3.587   2.657   8.763 -0.5495 -0.1555 -0.4869
 7586SOL    HW134391   3.601   2.735   8.710  0.2490  0.0511  0.0206
 7586SOL    HW234392   3.640   2.598   8.709  0.7763  0.1609  0.4484
 7587SOL     OW34393   2.985   3.422  16.777  0.3533  0.4391 -0.5489
 7587SOL    HW134394   3.045   3.451  16.708 -0.1615 -0.2159 -1.2848
 7587SOL    HW234395   3.038   3.441  16.854 -0.7215 -0.5897  0.4510
 7588SOL     OW34396   1.009   1.306   9.292  0.0426 -0.2704 -0.0624
 7588SOL    HW134397   0.915   1.321   9.282  0.1573  1.0760  0.8743
 7588SOL    HW234398   1.023   1.237   9.227 -3.9806 -0.8988 -0.2750
 7589SOL     OW34399   2.732   0.156   1.824 -0.2392 -0.4474  0.1340
 7589SOL    HW134400   2.825   0.177   1.831 -0.6528  1.3297  0.3475
 7589SOL    HW234401   2.740   0.078   1.771 -1.8184  0.5117 -1.5339
 7590SOL     OW34402   1.745   3.781   6.540  0.3923  0.1330  0.1299
 7590SOL    HW134403   1.805   3.822   6.603  2.4132 -1.2496 -0.9050
 7590SOL    HW234404   1.782   3.830   6.466 -0.6381 -0.5662 -0.8368
 7591SOL     OW34405   2.250   2.951  11.348 -0.6442 -0.4027 -0.3000
 7591SOL    HW134406   2.237   2.858  11.330 -0.2607 -0.6656  0.7953
 7591SOL    HW234407   2.160   2.981  11.340 -0.2187 -0.1603 -4.0652
 7592SOL     OW34408   1.806   1.880   4.105 -0.4163 -0.3192 -0.2744
 7592SOL    HW134409   1.836   1.882   4.014 -1.4738  1.9590 -0.5829
 7592SOL    HW234410   1.810   1.790   4.137 -0.1250  0.1738  1.0779
 7593SOL     OW34411   3.366   0.691  16.895 -0.1889 -0.3701  0.0062
 7593SOL    HW134412   3.400   0.602  16.890  4.1496  1.1432  2.1728
 7593SOL    HW234413   3.449   0.739  16.897  0.1369 -0.9031 -0.6046
 7594SOL     OW34414   0.246   0.084   4.050  0.2473  0.5889  0.1793
 7594SOL    HW134415   0.273   0.037   3.971  1.1058  2.7486 -0.8208
 7594SOL    HW234416   0.319   0.146   4.059  1.4095 -1.3618  3.8923
 7595SOL     OW34417   0.163   2.274   9.820 -0.3511 -0.3689 -0.2234
 7595SOL    HW134418   0.102   2.348   9.820  0.9821  0.7553  1.2350
 7595SOL    HW234419   0.203   2.283   9.734 -0.7625  0.8050 -0.2917
 7596SOL     OW34420   1.330   4.421   3.327  0.3260  0.4869  0.1428
 7596SOL    HW134421   1.337   4.467   3.244 -0.6262  1.4821  0.6021
 7596SOL    HW234422   1.419   4.439   3.356  0.7150 -0.0033 -0.7401
 7597SOL     OW34423   3.675   0.509   7.395 -0.1271 -0.4401 -0.2785
 7597SOL    HW134424   3.726   0.439   7.355  0.6988  0.1694 -0.2761
 7597SOL    HW234425   3.598   0.519   7.340  0.9526 -0.0628 -1.7076
 7598SOL     OW34426   3.088   4.535   3.340  0.2682 -0.5580 -0.1093
 7598SOL    HW134427   3.096   4.440   3.349  0.5263 -0.5850 -0.6233
 7598SOL    HW234428   3.035   4.554   3.417  0.7544 -1.7847  0.5260
 7599SOL     OW34429   4.707   2.321  16.439  0.2355 -0.4261 -0.0510
 7599SOL    HW134430   4.723   2.387  16.506  0.3404  0.8987 -1.3813
 7599SOL    HW234431   4.720   2.240  16.490  1.2477 -1.2519 -1.6109
 7600SOL     OW34432   1.250   4.049   2.188  0.7379 -0.1700  0.0232
 7600SOL    HW134433   1.213   4.124   2.142  2.2370 -0.5240 -1.7218
 7600SOL    HW234434   1.189   3.976   2.175 -0.3845  0.0828  3.6532
 7601SOL     OW34435   2.707   4.625  13.988  0.4709 -0.2212  0.5878
 7601SOL    HW134436   2.618   4.613  13.956  0.7253 -1.6881  0.3933
 7601SOL    HW234437   2.691   4.596  14.078 -2.0901 -0.4875  0.0510
 7602SOL     OW34438   4.180   1.149   5.840  0.3668 -0.2312 -0.5765
 7602SOL    HW134439   4.252   1.094   5.809 -0.1687 -0.5196 -1.3177
 7602SOL    HW234440   4.115   1.146   5.770  0.1054 -0.0910 -0.3388
 7603SOL     OW34441   0.894   1.272   0.977  0.4331 -0.3015 -0.1881
 7603SOL    HW134442   0.888   1.197   0.917 -1.1462 -1.0900  0.9484
 7603SOL    HW234443   0.802   1.292   0.995  0.3728 -1.5091  0.8913
 7604SOL     OW34444   0.571   0.899   4.982  0.4863  0.5601  0.2162
 7604SOL    HW134445   0.591   0.988   4.953  2.3954  0.4550  1.1819
 7604SOL    HW234446   0.613   0.898   5.068 -0.2241 -1.6290  0.5453
 7605SOL     OW34447   2.948   3.545  11.924  0.0492  0.0608 -0.2509
 7605SOL    HW134448   3.028   3.588  11.955 -0.6843  0.1860  1.4815
 7605SOL    HW234449   2.889   3.619  11.936 -1.3685 -0.7343 -2.3364
 7606SOL     OW34450   4.617   0.805  12.041  0.0056  0.0115 -0.3134
 7606SOL    HW134451   4.679   0.845  12.101 -1.3673  3.0188 -0.8946
 7606SOL    HW234452   4.659   0.818  11.956 -1.2086 -2.5806 -1.3101
 7607SOL     OW34453   0.758   2.189  17.525 -0.2922  0.4215 -0.1173
 7607SOL    HW134454   0.810   2.258  17.483  1.9050  0.1844  2.2248
 7607SOL    HW234455   0.695   2.249  17.564 -1.0248 -1.4153  1.4695
 7608SOL     OW34456   2.110   3.316   0.623  0.6785  0.7994  0.1579
 7608SOL    HW134457   2.026   3.322   0.579 -0.8443  0.7740  3.0606
 7608SOL    HW234458   2.164   3.290   0.548 -0.5638 -1.6261  0.1103
 7609SOL     OW34459   3.268   3.535   1.881  0.6042  0.1381  0.2384
 7609SOL    HW134460   3.213   3.582   1.818  0.4219  0.3660  0.5717
 7609SOL    HW234461   3.278   3.452   1.834 -1.4840  0.7859 -1.3623
 7610SOL     OW34462   2.295   0.077   7.152  0.8170 -0.0698 -0.2395
 7610SOL    HW134463   2.379   0.122   7.165 -0.3349  1.1280  2.8972
 7610SOL    HW234464   2.300   0.001   7.210 -1.4874  1.2269  1.6313
 7611SOL     OW34465   2.214   0.628   8.064  0.6549 -0.0968 -0.4390
 7611SOL    HW134466   2.191   0.565   8.132  0.4140  0.3096 -0.1447
 7611SOL    HW234467   2.269   0.570   8.012  0.1134 -2.0131  1.1250
 7612SOL     OW34468   1.888   2.456   4.098 -0.3670 -0.7962 -0.3986
 7612SOL    HW134469   1.901   2.426   4.188 -1.2357 -1.4033 -0.4739
 7612SOL    HW234470   1.805   2.504   4.102  0.1613  0.0948 -0.1491
 7613SOL     OW34471   1.056   0.333   0.254 -1.2390  0.2636 -0.4076
 7613SOL    HW134472   1.136   0.385   0.251 -0.2804 -1.1917 -0.0548
 7613SOL    HW234473   1.089   0.244   0.241  1.3786  0.9903  1.1843
 7614SOL     OW34474   0.816   1.125   8.591  0.1091  0.1620  0.3114
 7614SOL    HW134475   0.727   1.123   8.556  0.3265  0.2985 -0.2592
 7614SOL    HW234476   0.838   1.218   8.597  2.0502 -0.3682  1.3977
 7615SOL     OW34477   3.334   0.974   0.305 -0.2722 -0.0042 -0.1245
 7615SOL    HW134478   3.251   0.964   0.351 -0.5037  1.9137 -0.1164
 7615SOL    HW234479   3.336   0.887   0.267 -0.5059  0.1092 -0.3978
 7616SOL     OW34480   1.340   1.958   3.586 -0.0299  0.2426 -0.6807
 7616SOL    HW134481   1.321   2.034   3.531  1.0122 -0.0476 -1.4289
 7616SOL    HW234482   1.375   1.904   3.516  0.2035  0.8810 -1.0612
 7617SOL     OW34483   1.551   2.668   8.009 -0.1502  0.1633 -0.5308
 7617SOL    HW134484   1.600   2.598   7.964 -0.6667 -1.0491  0.7970
 7617SOL    HW234485   1.466   2.627   8.020 -0.3232  1.0406  1.3323
 7618SOL     OW34486   2.860   1.043   5.567 -0.2074 -0.4774 -0.4251
 7618SOL    HW134487   2.805   1.044   5.645 -1.6032 -0.1961 -1.4272
 7618SOL    HW234488   2.937   0.996   5.600  0.9312  1.0130 -0.9593
 7619SOL     OW34489   2.109   1.031  10.709  0.5132  0.0628  0.4620
 7619SOL    HW134490   2.044   0.962  10.704  0.6770 -0.1469  1.2128
 7619SOL    HW234491   2.099   1.057  10.800 -0.5842 -1.5395  0.7847
 7620SOL     OW34492   2.992   1.666  13.930  0.2103 -0.0475  0.2034
 7620SOL    HW134493   3.016   1.624  13.847 -0.8406 -0.2851  0.0198
 7620SOL    HW234494   2.928   1.731  13.898  0.2378  0.6416  1.5596
 7621SOL     OW34495   3.451   0.029   6.728 -0.3126  0.8972 -0.2390
 7621SOL    HW134496   3.513   4.727   6.666 -1.3257  2.7867 -2.4486
 7621SOL    HW234497   3.448   4.711   6.805 -1.6057 -1.0724 -1.6950
 7622SOL     OW34498   4.719   4.049   5.463  0.4301 -0.0193  0.0701
 7622SOL    HW134499   0.068   4.021   5.493  1.0513  2.2736  0.4081
 7622SOL    HW234500   4.669   4.043   5.544  0.5487  1.9459  0.2700
 7623SOL     OW34501   4.579   3.620  14.694  0.7757 -0.7068  0.5954
 7623SOL    HW134502   4.486   3.596  14.697  0.8674 -1.2717 -1.7947
 7623SOL    HW234503   4.586   3.711  14.725 -2.9717 -1.2292  3.0753
 7624SOL     OW34504   4.011   0.359   8.579 -0.0570  0.0558 -0.1330
 7624SOL    HW134505   3.991   0.452   8.567 -1.4663  0.0458  2.1109
 7624SOL    HW234506   4.053   0.353   8.665 -1.5231 -1.3416  0.4717
 7625SOL     OW34507   0.551   4.377   2.397 -0.1922 -0.2975  0.2889
 7625SOL    HW134508   0.593   4.414   2.320 -1.6405  0.1633 -0.2738
 7625SOL    HW234509   0.631   4.353   2.444 -0.9367 -1.9074  0.7402
 7626SOL     OW34510   1.938   2.718  17.023  0.5933  0.6036  0.3105
 7626SOL    HW134511   1.958   2.657  16.952 -0.2100 -0.5864  1.1068
 7626SOL    HW234512   1.854   2.751  16.992  0.6046  0.9873  0.6956
 7627SOL     OW34513   2.069   3.141   1.876 -0.9316 -0.3059 -0.2085
 7627SOL    HW134514   2.163   3.157   1.892 -0.7880 -0.9396 -0.4429
 7627SOL    HW234515   2.032   3.172   1.958  0.9252  0.4613  0.3584
 7628SOL     OW34516   0.708   3.198   5.600  0.1187  0.1310 -0.5852
 7628SOL    HW134517   0.688   3.214   5.508  0.9458  1.7211 -0.4881
 7628SOL    HW234518   0.767   3.273   5.608 -0.2018  0.2406  0.8612
 7629SOL     OW34519   1.964   2.335   9.105  0.3779 -0.5569  0.1982
 7629SOL    HW134520   1.942   2.341   9.198  0.1080 -0.5527  0.1354
 7629SOL    HW234521   1.879   2.311   9.066 -0.8660  1.5199  1.6542
 7630SOL     OW34522   3.288   2.520   4.606 -0.1846 -0.9400 -1.1307
 7630SOL    HW134523   3.318   2.509   4.696 -1.5507  1.8883 -0.3271
 7630SOL    HW234524   3.351   2.472   4.552  0.9788 -0.7834  0.0758
 7631SOL     OW34525   0.801   0.591  15.125 -0.6497  0.1262 -0.3713
 7631SOL    HW134526   0.752   0.628  15.199  3.1061  0.8938  1.7575
 7631SOL    HW234527   0.792   0.669  15.070  0.5819 -0.1636 -0.9843
 7632SOL     OW34528   1.453   2.246   5.153 -0.1667 -0.4693  0.2622
 7632SOL    HW134529   1.458   2.231   5.059 -0.4758  0.6246  0.0693
 7632SOL    HW234530   1.455   2.159   5.192 -1.3251 -0.3968  0.5029
 7633SOL     OW34531   0.871   4.523   1.802 -0.9042  1.0094 -0.3106
 7633SOL    HW134532   0.929   4.591   1.837 -0.2467 -0.3014  1.1328
 7633SOL    HW234533   0.828   4.581   1.739  1.0884  2.5153 -0.2722
 7634SOL     OW34534   0.408   4.182   1.011  0.0174 -0.5298 -0.6122
 7634SOL    HW134535   0.350   4.170   0.935  0.5415  2.8093 -1.5280
 7634SOL    HW234536   0.350   4.154   1.081 -2.6727  2.9909 -1.4096
 7635SOL     OW34537   0.074   2.735   4.083 -0.0808 -0.2871  0.2893
 7635SOL    HW134538   0.050   2.818   4.042 -1.6192 -1.2118 -0.6451
 7635SOL    HW234539   0.088   2.765   4.173  0.6976  0.1139  0.0397
 7636SOL     OW34540   3.232   4.674   8.049  0.3611 -0.7679  0.8305
 7636SOL    HW134541   3.160   4.714   8.001 -1.7389 -2.4730  2.5890
 7636SOL    HW234542   3.285   4.630   7.983  1.3760 -0.6478  1.5551
 7637SOL     OW34543   0.048   1.346  17.151 -0.7259 -0.4901  0.1141
 7637SOL    HW134544   4.716   1.307  17.098 -1.2330  1.7601 -0.8846
 7637SOL    HW234545   0.033   1.309  17.238 -1.7194  2.6854  1.2751
 7638SOL     OW34546   3.980   0.052  16.393  0.2958 -0.0031 -0.2542
 7638SOL    HW134547   4.033   0.114  16.344 -0.3241  0.3267 -0.5142
 7638SOL    HW234548   3.929   0.117  16.443  1.5871 -0.2957  1.4574
 7639SOL     OW34549   2.787   0.800  15.133  0.5632 -0.4049  0.1714
 7639SOL    HW134550   2.785   0.873  15.071  0.9825 -0.2336  0.3617
 7639SOL    HW234551   2.862   0.802  15.193 -0.1783  2.5646  0.9887
 7640SOL     OW34552   4.545   4.364   7.079 -0.1066 -0.5294 -0.2371
 7640SOL    HW134553   4.539   4.417   7.158  0.9629 -0.9586  0.1420
 7640SOL    HW234554   4.636   4.332   7.081 -0.0178 -0.3065 -0.7287
 7641SOL     OW34555   4.124   0.469   6.982  0.1000 -0.2117 -0.3815
 7641SOL    HW134556   4.099   0.554   6.944  1.0374 -0.2212 -1.0354
 7641SOL    HW234557   4.211   0.457   6.943 -0.5434  0.7896 -2.1074
 7642SOL     OW34558   0.008   2.108   3.841 -0.2449 -0.6133  0.2785
 7642SOL    HW134559   4.677   2.073   3.898 -1.8281 -0.0902 -1.3017
 7642SOL    HW234560   4.703   2.124   3.757  0.1586  2.3365  0.6269
 7643SOL     OW34561   0.887   3.600   5.213  0.1159  0.1248 -0.5219
 7643SOL    HW134562   0.822   3.602   5.283  0.2466  1.8002 -0.4409
 7643SOL    HW234563   0.864   3.679   5.163  1.4052  1.3037  0.7332
 7644SOL     OW34564   0.477   4.622   1.820  0.3377  0.0214 -0.4558
 7644SOL    HW134565   0.414   4.690   1.841  1.7406  0.9884  0.6570
 7644SOL    HW234566   0.430   4.539   1.829 -0.0137  0.4147  1.4020
 7645SOL     OW34567   0.502   0.105   2.699 -0.6344  0.5254 -0.2271
 7645SOL    HW134568   0.480   0.058   2.780 -0.9437 -0.2467 -0.7630
 7645SOL    HW234569   0.412   0.123   2.671 -0.4509 -1.0841 -1.8329
 7646SOL     OW34570   4.449   3.492   0.739  0.0105 -0.0172 -0.2446
 7646SOL    HW134571   4.527   3.439   0.751  0.2340  0.1047 -1.1496
 7646SOL    HW234572   4.419   3.497   0.830  1.1853 -0.7464  0.1808
 7647SOL     OW34573   4.076   2.536  12.805  0.5337 -0.7162 -0.3361
 7647SOL    HW134574   4.102   2.452  12.765  0.8256 -1.6196  1.7746
 7647SOL    HW234575   4.061   2.503  12.894 -0.2233 -0.9492 -0.5433
 7648SOL     OW34576   2.546   3.487   4.515 -0.0652  0.0349  0.7213
 7648SOL    HW134577   2.588   3.566   4.479 -0.7739 -0.8409 -1.9767
 7648SOL    HW234578   2.622   3.431   4.529  0.5231  1.0527  1.6291
 7649SOL     OW34579   2.749   4.300   6.164  0.6869  0.4870  0.2267
 7649SOL    HW134580   2.699   4.349   6.099  2.3812  1.6194 -0.2133
 7649SOL    HW234581   2.684   4.298   6.235 -0.6144  1.5295 -0.9426
 7650SOL     OW34582   4.011   3.580   3.899 -0.5295  0.4930  0.0712
 7650SOL    HW134583   4.047   3.643   3.836  0.5618 -1.5233 -1.3253
 7650SOL    HW234584   3.989   3.635   3.974 -0.3028 -0.2131  0.6477
 7651SOL     OW34585   3.866   3.273   8.713 -0.6410 -0.3689 -0.3201
 7651SOL    HW134586   3.788   3.323   8.690 -0.0711  0.1313 -1.1476
 7651SOL    HW234587   3.893   3.238   8.628  0.3351 -1.8750  0.5930
 7652SOL     OW34588   2.438   1.458   3.635 -0.4055 -0.0310 -0.4961
 7652SOL    HW134589   2.425   1.532   3.694 -1.5019 -1.2196  0.7823
 7652SOL    HW234590   2.372   1.401   3.677  0.2976 -1.0165 -0.7228
 7653SOL     OW34591   3.805   2.045   5.542  0.3025  0.2397 -0.3005
 7653SOL    HW134592   3.855   2.072   5.464 -0.7415  1.6472 -0.4698
 7653SOL    HW234593   3.878   2.006   5.591 -1.6494  0.3410  2.6830
 7654SOL     OW34594   3.834   4.094  15.053  0.3195  0.0050 -0.2923
 7654SOL    HW134595   3.803   4.006  15.076  1.3756 -0.3492 -0.2307
 7654SOL    HW234596   3.876   4.117  15.135 -1.3041  0.6274  0.3593
 7655SOL     OW34597   2.681   3.296   3.628 -0.0504 -0.1525  0.2208
 7655SOL    HW134598   2.608   3.237   3.649 -1.3434 -0.3066 -4.7235
 7655SOL    HW234599   2.718   3.314   3.715 -0.3067  2.1638 -0.1407
 7656SOL     OW34600   4.535   3.371   3.061 -0.3053 -0.2835  0.1622
 7656SOL    HW134601   4.600   3.441   3.072 -0.6042 -0.0171  0.2439
 7656SOL    HW234602   4.560   3.315   3.135  0.0459 -0.0100  0.2540
 7657SOL     OW34603   3.452   3.285  15.125 -0.3194 -0.0084 -0.7175
 7657SOL    HW134604   3.385   3.260  15.189 -0.1686 -0.6595 -0.8190
 7657SOL    HW234605   3.508   3.318  15.196  0.8379  0.0531 -1.6517
 7658SOL     OW34606   0.509   2.456   8.505  0.1133 -0.2200  0.1303
 7658SOL    HW134607   0.515   2.549   8.528 -0.4359 -1.0713  3.5581
 7658SOL    HW234608   0.601   2.428   8.497  0.2929  0.9503 -1.9757
 7659SOL     OW34609   4.356   3.208   9.441 -0.0125  0.2085 -0.2853
 7659SOL    HW134610   4.441   3.235   9.407  0.6224 -0.3662  0.8440
 7659SOL    HW234611   4.340   3.134   9.382  2.3344  0.4293 -1.1736
 7660SOL     OW34612   3.239   3.654   3.929  0.4509  0.1162 -0.1380
 7660SOL    HW134613   3.203   3.705   3.856 -0.9026 -1.1189 -0.3445
 7660SOL    HW234614   3.221   3.720   3.995 -0.4144  0.9877 -1.2372
 7661SOL     OW34615   0.163   2.927   0.178  0.6666 -0.1222 -0.1718
 7661SOL    HW134616   0.115   2.848   0.153 -1.8960  1.2191  0.5029
 7661SOL    HW234617   0.169   2.969   0.092  0.1526 -2.6106 -1.4183
 7662SOL     OW34618   3.376   3.773   1.677  0.3669  0.3407  0.3444
 7662SOL    HW134619   3.413   3.763   1.590  0.4157  1.7581  0.1927
 7662SOL    HW234620   3.289   3.811   1.661  0.7424  0.8540 -0.4395
 7663SOL     OW34621   0.815   0.433  12.405  0.3112  0.0230 -0.2090
 7663SOL    HW134622   0.749   0.427  12.474  0.0960 -2.4333 -0.6423
 7663SOL    HW234623   0.884   0.490  12.440 -1.1249  1.5864  0.0939
 7664SOL     OW34624   0.684   1.048   6.770 -0.7443  0.1640 -0.3209
 7664SOL    HW134625   0.628   0.998   6.829  0.7205 -1.8501 -0.6288
 7664SOL    HW234626   0.711   1.119   6.828 -0.5150 -0.7159  0.6578
 7665SOL     OW34627   0.590   2.337  15.090  0.0670 -0.3364 -0.1991
 7665SOL    HW134628   0.534   2.271  15.049  3.0870 -1.3783 -2.7131
 7665SOL    HW234629   0.655   2.282  15.134  0.1881 -0.5098 -0.5888
 7666SOL     OW34630   2.009   1.842   8.069  0.4303 -0.5143 -0.6694
 7666SOL    HW134631   1.988   1.911   8.005  0.1234  1.6257  1.7621
 7666SOL    HW234632   2.102   1.838   8.046  0.7160  2.2114  0.0135
 7667SOL     OW34633   0.299   3.185   3.755  0.0152  0.1814  0.5257
 7667SOL    HW134634   0.336   3.254   3.701 -0.2052  1.1667  1.6370
 7667SOL    HW234635   0.298   3.234   3.837 -3.1519  0.4287  0.3679
 7668SOL     OW34636   1.989   1.818  16.043 -0.3577 -0.0418 -0.1632
 7668SOL    HW134637   2.017   1.816  16.135  1.2493 -2.0535 -0.6937
 7668SOL    HW234638   1.963   1.726  16.034 -0.6055 -0.0028  0.1538
 7669SOL     OW34639   4.076   1.664   5.335 -0.0948  0.2211 -0.6225
 7669SOL    HW134640   4.150   1.724   5.338  1.1691 -1.3813  0.5387
 7669SOL    HW234641   4.110   1.577   5.312  0.4874 -0.1521  1.5984
 7670SOL     OW34642   3.877   4.152   1.905  0.4784  0.1390  0.1622
 7670SOL    HW134643   3.787   4.172   1.929 -1.1068 -0.9820 -4.9156
 7670SOL    HW234644   3.922   4.231   1.935  2.1178 -0.7372  0.0169
 7671SOL     OW34645   0.502   0.065   7.680  0.3842 -0.2745  0.7591
 7671SOL    HW134646   0.509   4.724   7.734 -0.1058 -1.5180 -0.9721
 7671SOL    HW234647   0.595   0.081   7.666  0.4907  0.5656  2.5026
 7672SOL     OW34648   0.998   2.917   7.125 -0.7288  0.0108  0.8165
 7672SOL    HW134649   1.057   2.843   7.137  1.2826  1.4179 -0.3851
 7672SOL    HW234650   1.023   2.967   7.203 -0.3579  2.1233 -0.6717
 7673SOL     OW34651   1.677   4.445   8.597 -0.6020 -0.6540  0.1623
 7673SOL    HW134652   1.619   4.521   8.583  0.5873  0.0741 -0.8617
 7673SOL    HW234653   1.682   4.432   8.692 -2.0783  1.3781  0.5292
 7674SOL     OW34654   2.858   4.236   2.525 -0.6740 -0.3013  0.4250
 7674SOL    HW134655   2.906   4.294   2.465 -0.7771 -0.9766 -0.3197
 7674SOL    HW234656   2.888   4.150   2.496  1.2583  0.5881 -0.2437
 7675SOL     OW34657   1.861   4.546  16.155 -0.4170 -0.1949 -0.7925
 7675SOL    HW134658   1.893   4.508  16.073  0.6930  0.0007 -0.4495
 7675SOL    HW234659   1.770   4.515  16.150 -0.7617  0.5311  0.8098
 7676SOL     OW34660   2.505   2.189   7.781 -0.1085  0.3474  0.6567
 7676SOL    HW134661   2.466   2.105   7.757 -2.0929  1.3926  0.2536
 7676SOL    HW234662   2.452   2.215   7.856  0.1524  0.9854  0.6153
 7677SOL     OW34663   2.833   3.447  10.363  0.7377 -0.3643  0.2506
 7677SOL    HW134664   2.808   3.533  10.397 -0.0197 -0.0499 -1.0972
 7677SOL    HW234665   2.852   3.396  10.442 -1.3054  2.9344  2.8770
 7678SOL     OW34666   1.745   0.235   7.443 -0.2100  0.6053  0.2552
 7678SOL    HW134667   1.660   0.191   7.443 -0.4920  1.1288 -1.1476
 7678SOL    HW234668   1.744   0.263   7.351  1.2977  0.8368  0.3117
 7679SOL     OW34669   3.471   1.064  12.699  0.1007  0.4192 -0.5316
 7679SOL    HW134670   3.510   1.033  12.618 -3.7789 -1.2096 -1.8101
 7679SOL    HW234671   3.382   1.030  12.687 -0.5109  2.0284 -0.5150
 7680SOL     OW34672   0.611   1.053  12.473 -0.1792  0.3870 -0.5426
 7680SOL    HW134673   0.588   1.142  12.499  1.9891  1.2261 -1.5419
 7680SOL    HW234674   0.566   0.998  12.537 -0.8126  0.1308 -1.2049
 7681SOL     OW34675   1.551   0.593   2.415 -0.3157  0.0521  0.2541
 7681SOL    HW134676   1.630   0.540   2.421 -0.8401 -0.6881  0.5469
 7681SOL    HW234677   1.488   0.525   2.439 -0.4527  0.0255 -0.1847
 7682SOL     OW34678   2.892   0.282   6.590 -0.3195 -0.2269 -0.3335
 7682SOL    HW134679   2.953   0.279   6.664  1.0735  2.7206 -1.3548
 7682SOL    HW234680   2.894   0.190   6.567  0.0479  0.1686 -1.8501
 7683SOL     OW34681   0.656   3.274   4.065 -0.6014  0.0459  0.1829
 7683SOL    HW134682   0.631   3.193   4.021 -2.5699  1.1896 -0.8392
 7683SOL    HW234683   0.598   3.339   4.024 -0.7904  1.9338  3.5221
 7684SOL     OW34684   2.354   2.854   9.876  0.0467 -0.0282 -0.8847
 7684SOL    HW134685   2.384   2.945   9.887 -2.9030  0.7668  0.5934
 7684SOL    HW234686   2.422   2.833   9.812  0.9815  1.8677 -0.5088
 7685SOL     OW34687   3.513   1.202   7.921 -0.2297  0.2992 -0.0987
 7685SOL    HW134688   3.536   1.126   7.975 -1.7579  1.2432  1.8820
 7685SOL    HW234689   3.426   1.232   7.948 -0.0436  1.7954 -1.1719
 7686SOL     OW34690   1.992   1.127   4.563 -0.0141 -0.5603  0.2824
 7686SOL    HW134691   1.935   1.072   4.618  0.8077 -0.1392  1.5647
 7686SOL    HW234692   2.053   1.061   4.530  0.6732  1.1796 -1.9048
 7687SOL     OW34693   0.925   2.265   6.594  0.0321  0.3769  0.2030
 7687SOL    HW134694   0.999   2.283   6.652  0.0263  1.1522 -0.0228
 7687SOL    HW234695   0.881   2.197   6.645 -0.1475  2.1409  2.3765
 7688SOL     OW34696   2.620   2.853   7.481 -0.1605  0.6050 -0.2268
 7688SOL    HW134697   2.543   2.834   7.534 -0.4389  0.8286 -0.5500
 7688SOL    HW234698   2.587   2.806   7.404  0.7664 -1.3505  0.5825
 7689SOL     OW34699   3.298   1.665   4.750 -0.4859  0.3554  0.9667
 7689SOL    HW134700   3.314   1.736   4.688  1.6612 -1.7234 -0.8735
 7689SOL    HW234701   3.275   1.597   4.688  2.0068 -0.2574  0.6999
 7690SOL     OW34702   3.328   1.552  10.013  0.2071 -0.1758  0.0420
 7690SOL    HW134703   3.368   1.504   9.941  0.9904  0.3652  0.1149
 7690SOL    HW234704   3.237   1.523  10.000  0.4592 -1.1842  0.5731
 7691SOL     OW34705   1.050   2.194  13.766  0.1693  0.4411  0.6771
 7691SOL    HW134706   0.979   2.209  13.702 -0.4143 -2.3260  0.6710
 7691SOL    HW234707   1.065   2.100  13.755 -1.0820  0.1614  1.3181
 7692SOL     OW34708   0.057   2.779   5.276  0.3511  0.1830  0.3833
 7692SOL    HW134709   0.011   2.799   5.358 -2.3695 -2.0190 -0.5908
 7692SOL    HW234710   0.109   2.859   5.267  0.3167  0.7110  4.8320
 7693SOL     OW34711   1.157   0.822   1.397  0.6751 -0.4979 -0.2329
 7693SOL    HW134712   1.192   0.824   1.486 -0.1610 -0.0698  0.0820
 7693SOL    HW234713   1.104   0.900   1.413  0.6897 -1.1353  3.0764
 7694SOL     OW34714   4.340   2.426   7.846  0.1457  0.2187  0.6889
 7694SOL    HW134715   4.377   2.481   7.915 -2.1121  0.6176  1.5721
 7694SOL    HW234716   4.353   2.337   7.879 -0.0490 -0.2857 -0.5965
 7695SOL     OW34717   4.725   1.825  14.088  0.0013  0.0163 -0.4264
 7695SOL    HW134718   4.647   1.878  14.104  0.0383 -0.1756  0.4186
 7695SOL    HW234719   4.689   1.737  14.078 -2.2679  0.7393  1.2207
 7696SOL     OW34720   4.571   3.400   2.625  0.3099  0.2065 -0.7461
 7696SOL    HW134721   4.617   3.447   2.695 -1.5710 -0.6721  1.0585
 7696SOL    HW234722   4.645   3.356   2.583  1.7168  0.3909  1.5207
 7697SOL     OW34723   1.062   4.002   4.697 -0.0096 -0.1837  0.4331
 7697SOL    HW134724   1.144   3.985   4.650 -0.0618 -0.4325  0.4287
 7697SOL    HW234725   1.015   3.931   4.652 -0.5526  0.4028  0.0891
 7698SOL     OW34726   4.078   0.501   9.124  0.5043 -0.3533 -0.3602
 7698SOL    HW134727   4.077   0.590   9.088  2.9810  0.4552  1.5906
 7698SOL    HW234728   4.147   0.506   9.190 -0.6698  0.6556  0.7775
 7699SOL     OW34729   1.381   4.201  16.750  0.0363  0.2625 -0.4050
 7699SOL    HW134730   1.381   4.108  16.774 -0.7302  0.3921  0.0901
 7699SOL    HW234731   1.472   4.227  16.769 -0.4370  1.7897 -0.2229
 7700SOL     OW34732   1.851   0.745  10.622 -0.2345  0.6757  0.2065
 7700SOL    HW134733   1.766   0.745  10.577  0.3809 -2.7119 -0.9492
 7700SOL    HW234734   1.838   0.694  10.702  1.6313  0.6114  0.4703
 7701SOL     OW34735   2.259   4.355   5.891 -0.2162 -0.1776 -0.2183
 7701SOL    HW134736   2.233   4.275   5.843 -1.2196  1.8213 -3.0407
 7701SOL    HW234737   2.252   4.419   5.820 -1.2836  0.1226  0.1560
 7702SOL     OW34738   4.389   1.974   6.077 -0.3336  0.9733 -0.0248
 7702SOL    HW134739   4.365   1.885   6.105  0.7650  0.2705 -1.3198
 7702SOL    HW234740   4.361   2.013   6.161  1.1783 -2.9292  2.2918
 7703SOL     OW34741   4.579   0.054   6.807  0.2293 -0.0387  0.1400
 7703SOL    HW134742   4.603   0.122   6.744 -1.9172 -1.1500 -1.8559
 7703SOL    HW234743   4.647   4.724   6.801 -1.0022 -1.3304  0.6886
 7704SOL     OW34744   2.492   4.354  13.189 -0.0808 -0.0410 -0.3363
 7704SOL    HW134745   2.459   4.364  13.100  0.7015 -0.0169 -0.6251
 7704SOL    HW234746   2.582   4.380  13.168 -0.6048 -0.1570 -2.7317
 7705SOL     OW34747   3.647   1.567   3.247 -0.3797  0.6136  0.1315
 7705SOL    HW134748   3.603   1.608   3.172 -1.7295 -0.1169  0.5360
 7705SOL    HW234749   3.658   1.639   3.309 -2.2081  0.4098  0.7078
 7706SOL     OW34750   1.541   2.807  16.486 -0.1924  0.1062 -0.6049
 7706SOL    HW134751   1.590   2.747  16.543  0.3255  1.6812  0.6331
 7706SOL    HW234752   1.449   2.804  16.512  0.2634  0.7273  1.1597
 7707SOL     OW34753   2.256   0.814   2.224  0.6366 -0.2939 -0.1794
 7707SOL    HW134754   2.339   0.767   2.222  0.9157  0.1560  1.1600
 7707SOL    HW234755   2.209   0.761   2.288  0.9778  0.4393  0.6775
 7708SOL     OW34756   0.996   1.068   3.037  0.9926 -0.8666  0.5057
 7708SOL    HW134757   0.939   1.093   3.110  1.2896 -0.9813  0.7733
 7708SOL    HW234758   1.053   1.145   3.039 -0.7688  0.4492  0.0460
 7709SOL     OW34759   1.638   2.827   6.435 -0.1759 -0.1411 -0.6783
 7709SOL    HW134760   1.666   2.766   6.367  2.2937  2.3085 -1.8623
 7709SOL    HW234761   1.629   2.909   6.386  1.1894  0.1485 -0.4300
 7710SOL     OW34762   0.275   1.789   8.368 -0.6739  0.1421 -0.6500
 7710SOL    HW134763   0.352   1.782   8.423 -0.6641 -0.1661 -0.7029
 7710SOL    HW234764   0.212   1.833   8.424 -1.5710 -0.5364 -1.1168
 7711SOL     OW34765   1.632   2.460   2.294  0.3405  0.2455  0.9677
 7711SOL    HW134766   1.586   2.392   2.344 -1.6704  1.0327  0.1666
 7711SOL    HW234767   1.561   2.517   2.265 -0.4500 -0.3198  1.7862
 7712SOL     OW34768   2.738   1.858   9.209  0.0637 -0.0134  0.1460
 7712SOL    HW134769   2.668   1.921   9.224 -0.3125 -0.7419  1.4994
 7712SOL    HW234770   2.800   1.877   9.279 -1.1998  0.6435  1.0821
 7713SOL     OW34771   1.715   1.614   1.523 -0.4718  0.1508  0.2564
 7713SOL    HW134772   1.642   1.591   1.465 -1.9755 -0.1783  2.2646
 7713SOL    HW234773   1.729   1.528   1.562  1.3159 -0.2683 -1.3357
 7714SOL     OW34774   4.468   4.012   3.717 -0.3044 -0.1561 -0.0887
 7714SOL    HW134775   4.408   4.079   3.683 -0.3946 -0.3001 -0.2162
 7714SOL    HW234776   4.511   3.967   3.644 -0.3119 -0.2290 -0.0488
 7715SOL     OW34777   1.899   0.790   3.067 -0.4313  0.1739  0.2370
 7715SOL    HW134778   1.975   0.733   3.077 -0.5807 -0.1841 -0.6467
 7715SOL    HW234779   1.832   0.723   3.055 -0.2980 -0.1874  1.4598
 7716SOL     OW34780   2.948   0.849   5.087  0.3102  0.4322  0.1271
 7716SOL    HW134781   2.963   0.931   5.135 -1.1067  1.0544 -0.4807
 7716SOL    HW234782   2.863   0.865   5.045  0.5974  0.7124 -0.3354
 7717SOL     OW34783   3.233   1.183  10.003  0.4791 -0.1620 -0.2598
 7717SOL    HW134784   3.158   1.239  10.025 -0.1948 -1.0629 -0.2543
 7717SOL    HW234785   3.203   1.137   9.925 -0.1284 -0.0726 -0.0771
 7718SOL     OW34786   3.515   2.224   3.237  0.1338 -0.3730  0.6531
 7718SOL    HW134787   3.560   2.290   3.184 -4.1244 -0.8074 -3.4747
 7718SOL    HW234788   3.557   2.219   3.323  0.3401 -2.6387  0.4194
 7719SOL     OW34789   3.090   1.275   4.753 -0.0694  0.3268  0.2737
 7719SOL    HW134790   3.157   1.282   4.821  0.7229 -0.7517 -0.3942
 7719SOL    HW234791   3.111   1.354   4.703 -0.1590 -0.6709 -1.3281
 7720SOL     OW34792   2.581   2.722  14.807  0.2348  0.1610 -0.1343
 7720SOL    HW134793   2.631   2.731  14.888 -1.4369  2.6601  0.6297
 7720SOL    HW234794   2.519   2.794  14.823  0.3993  0.3695 -0.4293
 7721SOL     OW34795   0.989   3.972   4.951  0.1561  0.4006  0.5426
 7721SOL    HW134796   1.055   3.908   4.977  1.7730  0.9791 -2.2065
 7721SOL    HW234797   1.019   3.999   4.865  0.0514 -1.7426 -0.1540
 7722SOL     OW34798   2.793   1.995   6.938  0.6166 -0.2264  0.2174
 7722SOL    HW134799   2.859   2.065   6.937 -0.0219  0.3814  1.0480
 7722SOL    HW234800   2.854   1.922   6.950 -1.1019 -1.6679  0.0998
 7723SOL     OW34801   2.602   2.787   2.618  0.3098 -0.0888  0.5674
 7723SOL    HW134802   2.635   2.877   2.611 -0.4887  0.0387 -1.7208
 7723SOL    HW234803   2.507   2.798   2.622  0.4255  1.4875 -0.7473
 7724SOL     OW34804   0.756   1.088   4.820  0.1088  0.1161 -0.0947
 7724SOL    HW134805   0.712   1.086   4.736 -0.9914  0.7222  0.4778
 7724SOL    HW234806   0.847   1.076   4.792  0.1950 -0.6013  0.4910
 7725SOL     OW34807   2.988   0.246   1.857 -0.0618 -0.3663  0.0186
 7725SOL    HW134808   3.023   0.335   1.853  0.8259 -0.6695  0.9765
 7725SOL    HW234809   3.015   0.233   1.948 -1.4332 -0.4933  0.4015
 7726SOL     OW34810   2.371   2.920   8.323  0.2660  0.0767 -0.5984
 7726SOL    HW134811   2.434   2.922   8.395 -1.4557  4.1175  0.8088
 7726SOL    HW234812   2.317   2.849   8.360 -1.6379  1.5554 -0.5111
 7727SOL     OW34813   1.083   3.277   4.540 -0.2690 -0.5297 -0.3860
 7727SOL    HW134814   1.101   3.303   4.450  3.0350 -0.8306  0.1688
 7727SOL    HW234815   1.172   3.272   4.576 -1.4732 -0.1141  2.6713
 7728SOL     OW34816   2.387   0.420   4.469 -0.1525 -0.1579  0.0345
 7728SOL    HW134817   2.468   0.459   4.504  0.2982 -1.1051  0.0445
 7728SOL    HW234818   2.350   0.384   4.549 -0.2526 -0.1750 -0.0201
 7729SOL     OW34819   0.448   4.315  16.335  0.1301 -0.6751  0.6874
 7729SOL    HW134820   0.360   4.350  16.324 -0.0386 -1.7352 -1.2612
 7729SOL    HW234821   0.484   4.402  16.351 -0.3709 -0.1990 -0.7551
 7730SOL     OW34822   4.152   2.515   8.160  0.2294  0.5067  0.0078
 7730SOL    HW134823   4.184   2.499   8.249  1.2821  3.7103  0.2232
 7730SOL    HW234824   4.067   2.541   8.194 -0.1635 -1.0225  0.2121
 7731SOL     OW34825   2.121   1.663   4.313 -0.2089  0.6038  0.1303
 7731SOL    HW134826   2.176   1.685   4.237 -2.7293  2.7400 -1.0753
 7731SOL    HW234827   2.183   1.658   4.385 -2.0203 -0.2164  1.6064
 7732SOL     OW34828   1.036   1.036   5.365 -0.0338 -0.2243  0.0312
 7732SOL    HW134829   1.121   1.064   5.398  0.2578  1.3568 -2.0514
 7732SOL    HW234830   1.040   1.040   5.269 -1.2817  0.0215 -0.0113
 7733SOL     OW34831   2.375   2.326   1.650 -0.1171  0.3768 -0.8049
 7733SOL    HW134832   2.297   2.319   1.706  0.0749 -3.0201 -0.9788
 7733SOL    HW234833   2.339   2.381   1.580  0.0254  2.2357  0.5791
 7734SOL     OW34834   4.145   0.742   1.618  0.3887 -0.3903 -0.0014
 7734SOL    HW134835   4.209   0.804   1.652  1.2818 -1.2796 -0.0782
 7734SOL    HW234836   4.087   0.799   1.567  0.8968  0.1573  0.0409
 7735SOL     OW34837   3.539   1.031  17.250 -0.0896 -0.4224 -0.1349
 7735SOL    HW134838   3.496   1.116  17.260  0.3507 -0.1345 -0.7050
 7735SOL    HW234839   3.470   0.974  17.284 -0.4245  0.4046  0.5627
 7736SOL     OW34840   4.413   3.109   2.577  1.0690  0.5337 -0.4739
 7736SOL    HW134841   4.387   3.059   2.655  0.1991  0.3865 -0.8563
 7736SOL    HW234842   4.476   3.046   2.541  2.7997  1.1310  1.4975
 7737SOL     OW34843   1.036   3.045  15.898  0.1563  0.2370 -0.4443
 7737SOL    HW134844   1.115   3.041  15.846 -0.5562  0.2678 -1.5250
 7737SOL    HW234845   1.016   2.953  15.878  0.0823  0.1684 -0.0575
 7738SOL     OW34846   1.315   3.405   9.163  0.1963  0.4536  0.2684
 7738SOL    HW134847   1.279   3.414   9.251  2.0887  0.1556  1.0891
 7738SOL    HW234848   1.336   3.496   9.140 -2.2809  1.8860  3.6536
 7739SOL     OW34849   0.370   2.417  13.067  0.3679 -0.5101 -1.1689
 7739SOL    HW134850   0.331   2.420  13.154 -0.0912 -1.2560 -1.3551
 7739SOL    HW234851   0.360   2.508  13.040  0.0613 -0.5660 -1.2420
 7740SOL     OW34852   3.594   1.432  13.541 -0.3912  0.4910 -0.0507
 7740SOL    HW134853   3.573   1.339  13.532 -2.7721  0.8549  1.6779
 7740SOL    HW234854   3.519   1.469  13.588  0.2788  0.6204  0.9259
 7741SOL     OW34855   0.486   4.024   4.937  0.6242 -0.4243  0.0669
 7741SOL    HW134856   0.404   4.072   4.944  0.7469 -0.5702  2.2411
 7741SOL    HW234857   0.472   3.973   4.857 -1.9504 -2.0324  1.5409
 7742SOL     OW34858   4.346   4.657   6.217  0.3972 -0.0474  1.1792
 7742SOL    HW134859   4.402   4.590   6.256 -2.3272 -1.3384  2.9198
 7742SOL    HW234860   4.263   4.611   6.230 -1.0408  1.4357 -2.7977
 7743SOL     OW34861   1.270   0.446   4.010  0.1735 -0.2545 -0.0758
 7743SOL    HW134862   1.338   0.504   4.042  0.5938 -1.7223  1.7087
 7743SOL    HW234863   1.200   0.465   4.073 -0.7663 -2.3425 -0.4695
 7744SOL     OW34864   4.535   0.653   2.500 -0.4111 -0.3422  0.3685
 7744SOL    HW134865   4.577   0.726   2.545  0.5907 -1.2159  0.8228
 7744SOL    HW234866   4.489   0.702   2.430  1.5985  1.5089  0.3421
 7745SOL     OW34867   0.923   0.498   4.518  0.1349 -0.3701 -0.2629
 7745SOL    HW134868   0.934   0.420   4.464 -1.0935 -1.7998  1.5426
 7745SOL    HW234869   0.850   0.469   4.573  0.1446  0.2941  0.1089
 7746SOL     OW34870   0.127   3.469   5.927 -0.1686  0.2960  0.2172
 7746SOL    HW134871   0.132   3.524   6.006 -0.0896 -0.7501  0.9299
 7746SOL    HW234872   0.186   3.395   5.941  2.5887  2.7480  1.5772
 7747SOL     OW34873   3.526   0.456   2.837  0.0599  0.0864  0.2829
 7747SOL    HW134874   3.436   0.463   2.871 -0.4417  0.8647 -1.2034
 7747SOL    HW234875   3.519   0.364   2.811 -0.8136  0.7301 -1.7642
 7748SOL     OW34876   2.238   3.147   8.770 -0.3783 -0.4808 -0.2642
 7748SOL    HW134877   2.297   3.178   8.839  0.5502  0.0502 -1.2990
 7748SOL    HW234878   2.295   3.171   8.697 -0.5441  0.5035 -0.0745
 7749SOL     OW34879   1.639   2.259   7.380 -0.0156  0.3579  0.4181
 7749SOL    HW134880   1.622   2.183   7.324  0.8306  1.2458 -1.0587
 7749SOL    HW234881   1.713   2.298   7.333  1.1239 -0.7168  1.3317
 7750SOL     OW34882   3.179   1.880   5.558 -0.4760  0.5676  0.0236
 7750SOL    HW134883   3.204   1.787   5.554 -1.3814  0.3953 -1.5052
 7750SOL    HW234884   3.215   1.923   5.481 -0.8871  0.2220 -0.3639
 7751SOL     OW34885   2.729   2.469   5.292 -0.7167 -0.1848 -0.0289
 7751SOL    HW134886   2.797   2.403   5.304 -0.9005 -0.2429  0.7295
 7751SOL    HW234887   2.654   2.418   5.324 -1.1786  0.7697  0.4013
 7752SOL     OW34888   1.467   4.692   7.504  0.2776  0.4416  0.5026
 7752SOL    HW134889   1.464   4.656   7.415 -3.8799  4.5940 -1.0110
 7752SOL    HW234890   1.377   4.726   7.511 -0.4835 -1.4709  0.0386
 7753SOL     OW34891   2.687   2.301   9.750 -0.5161  0.5000  0.3477
 7753SOL    HW134892   2.663   2.237   9.682  1.5642  0.7301 -0.5822
 7753SOL    HW234893   2.721   2.372   9.695 -0.0265  0.9980  1.3101
 7754SOL     OW34894   0.972   1.116   9.541  0.3463  0.3226 -0.3895
 7754SOL    HW134895   0.902   1.180   9.559 -0.7219 -0.7691 -0.6898
 7754SOL    HW234896   0.941   1.062   9.469  0.8042 -2.4579  1.4889
 7755SOL     OW34897   0.145   1.233   8.821  0.5667  0.6338  0.2714
 7755SOL    HW134898   0.240   1.236   8.832  0.6137  0.8735 -0.2277
 7755SOL    HW234899   0.118   1.212   8.911 -2.3406 -0.3057 -0.8098
 7756SOL     OW34900   3.709   4.611   8.095 -0.0743  0.0768  0.1528
 7756SOL    HW134901   3.752   4.621   8.180  0.7001  0.4327 -0.2775
 7756SOL    HW234902   3.631   4.561   8.118  0.6675 -0.9995  0.3381
 7757SOL     OW34903   2.827   3.346   2.504 -0.1078  0.1898  0.1566
 7757SOL    HW134904   2.855   3.316   2.417 -0.7566  1.1242 -0.3805
 7757SOL    HW234905   2.871   3.281   2.558 -1.7163 -1.8726 -0.9965
 7758SOL     OW34906   3.666   3.866   8.863 -0.5852 -0.0793 -0.1226
 7758SOL    HW134907   3.722   3.792   8.841 -1.1238 -0.5745  0.1607
 7758SOL    HW234908   3.620   3.887   8.782 -1.1321 -0.3365  0.1161
 7759SOL     OW34909   0.873   2.242   4.016 -0.1620  0.3729 -0.4146
 7759SOL    HW134910   0.852   2.312   4.078 -1.1806  0.5860 -0.9878
 7759SOL    HW234911   0.799   2.182   4.021  1.0490 -0.9911  0.8303
 7760SOL     OW34912   0.844   3.948   6.043  0.3235  0.3880  0.3056
 7760SOL    HW134913   0.923   3.972   6.093  1.2119  0.9318 -1.3587
 7760SOL    HW234914   0.864   4.012   5.975 -3.1696  1.7270  0.5779
 7761SOL     OW34915   3.224   3.632   8.564  0.4704  0.4588 -0.0757
 7761SOL    HW134916   3.230   3.703   8.501  0.8914 -1.8321 -2.6103
 7761SOL    HW234917   3.171   3.673   8.633 -0.5565  0.1779 -0.6943
 7762SOL     OW34918   0.216   1.394   2.024  0.0802 -0.1240 -0.0866
 7762SOL    HW134919   0.210   1.482   2.060 -1.1655  0.4820 -1.7780
 7762SOL    HW234920   0.234   1.410   1.931 -0.8188  1.4655  0.0249
 7763SOL     OW34921   2.218   2.233  11.514 -0.0372 -0.1300  0.4338
 7763SOL    HW134922   2.227   2.320  11.551  0.2119 -0.6051  1.4982
 7763SOL    HW234923   2.263   2.244  11.430  0.7470  0.3346  0.9128
 7764SOL     OW34924   2.357   0.467   9.079  0.3942 -0.2058  0.5972
 7764SOL    HW134925   2.307   0.415   9.141  1.0855 -1.2233  0.3035
 7764SOL    HW234926   2.362   0.400   9.011  2.8927  0.3637  0.2036
 7765SOL     OW34927   2.737   2.426  13.094  0.0400 -0.1790  0.4172
 7765SOL    HW134928   2.652   2.464  13.071 -1.5700 -2.4564  2.6923
 7765SOL    HW234929   2.795   2.503  13.096 -0.2503  0.0025  1.9339
 7766SOL     OW34930   3.117   0.871   7.577  0.4986  0.4995  0.4568
 7766SOL    HW134931   3.077   0.880   7.491 -0.7797  2.6340  1.2762
 7766SOL    HW234932   3.052   0.916   7.631 -0.3559  0.5533 -0.6110
 7767SOL     OW34933   3.837   0.786  14.314  0.1370 -0.5972 -0.0939
 7767SOL    HW134934   3.898   0.856  14.336  0.1879 -0.8564  0.5923
 7767SOL    HW234935   3.769   0.829  14.365  0.9543  0.7993 -0.1770
 7768SOL     OW34936   3.760   2.599   3.692 -0.2595  0.3429  0.2079
 7768SOL    HW134937   3.827   2.613   3.759  0.1281  1.7613 -0.4886
 7768SOL    HW234938   3.800   2.612   3.606 -0.8458 -2.4642 -0.4896
 7769SOL     OW34939   2.345   1.420  16.337 -0.2234 -0.4453 -0.4666
 7769SOL    HW134940   2.330   1.444  16.429 -0.5918  2.0387 -1.1885
 7769SOL    HW234941   2.429   1.375  16.341 -0.1637 -0.1173  1.8148
 7770SOL     OW34942   4.494   4.658   8.237 -0.8127  0.4235  0.5512
 7770SOL    HW134943   4.450   4.623   8.159 -0.3909  1.2685 -0.0718
 7770SOL    HW234944   4.423   4.712   8.271  0.2961  2.0313  0.3176
 7771SOL     OW34945   0.748   0.209  15.225 -0.1508 -0.0565  0.3251
 7771SOL    HW134946   0.769   0.254  15.144  1.5602 -0.9520  0.2685
 7771SOL    HW234947   0.689   0.273  15.266  2.1463  0.4856  2.7682
 7772SOL     OW34948   1.635   0.082   7.689  0.1482  0.3398  0.2642
 7772SOL    HW134949   1.610   0.023   7.761 -0.7683 -0.5432 -0.7697
 7772SOL    HW234950   1.587   0.043   7.616 -1.3579  0.1382  1.3509
 7773SOL     OW34951   3.794   4.407   5.899 -0.7460  0.3942  0.2569
 7773SOL    HW134952   3.723   4.344   5.905 -0.4929  0.2052  1.1526
 7773SOL    HW234953   3.765   4.474   5.961 -0.7877  0.4879  0.1361
 7774SOL     OW34954   1.104   2.188  17.183  0.4338 -0.0711  0.0946
 7774SOL    HW134955   1.037   2.228  17.128 -0.9778  1.5128  3.0050
 7774SOL    HW234956   1.046   2.160  17.253 -0.6606  0.3610 -0.6453
 7775SOL     OW34957   3.763   1.986  17.242  0.8295 -0.3203 -0.4757
 7775SOL    HW134958   3.853   1.973  17.272  0.9320 -0.6807 -0.9506
 7775SOL    HW234959   3.723   2.039  17.311 -0.1744  0.7608 -1.8888
 7776SOL     OW34960   1.918   2.741   2.164 -0.1583  0.3411  0.0464
 7776SOL    HW134961   1.891   2.763   2.075 -0.9224 -1.1008 -0.0672
 7776SOL    HW234962   1.918   2.829   2.202 -1.2781  0.3142  0.1091
 7777SOL     OW34963   0.327   1.618   5.217  0.3997 -0.2092 -0.3526
 7777SOL    HW134964   0.407   1.618   5.269  1.1682  0.1546 -1.5530
 7777SOL    HW234965   0.303   1.709   5.201  0.3609 -0.3570 -1.1307
 7778SOL     OW34966   3.003   3.964   9.027  0.1698  0.0556 -0.3083
 7778SOL    HW134967   3.089   3.922   9.027 -1.2920 -2.9381 -0.1292
 7778SOL    HW234968   2.964   3.905   9.092  1.2523  0.2581  0.5428
 7779SOL     OW34969   4.061   1.022   6.709  0.6630  0.3597  0.1888
 7779SOL    HW134970   4.038   0.967   6.634  2.8430  1.3264 -1.1669
 7779SOL    HW234971   3.996   1.092   6.702  1.1434  0.7317 -0.5823
 7780SOL     OW34972   4.022   2.019   2.976 -0.3889 -0.5621 -0.2992
 7780SOL    HW134973   4.117   2.022   2.967 -0.3777 -2.0273 -0.5910
 7780SOL    HW234974   4.002   2.097   3.029 -0.5443 -1.9877  1.7311
 7781SOL     OW34975   0.717   1.992   8.516 -0.3944  0.0864  0.1670
 7781SOL    HW134976   0.809   1.979   8.494 -0.3353 -0.2019  0.5676
 7781SOL    HW234977   0.696   2.041   8.437 -1.9842  0.3722  0.7693
 7782SOL     OW34978   4.535   2.257   5.095 -0.5280 -0.1565 -0.5883
 7782SOL    HW134979   4.470   2.201   5.053  0.4689 -0.5865 -1.5850
 7782SOL    HW234980   4.615   2.237   5.046  0.6414  0.9896  0.8428
 7783SOL     OW34981   0.727   0.309  12.770 -0.3196 -0.0632 -0.4631
 7783SOL    HW134982   0.747   0.379  12.831 -0.8521  0.8380 -1.3104
 7783SOL    HW234983   0.742   0.231  12.822 -0.0815  0.6745  0.5613
 7784SOL     OW34984   0.721   4.338   6.580  0.1279 -0.0664  0.3844
 7784SOL    HW134985   0.722   4.395   6.503  0.4250 -1.1068 -0.3718
 7784SOL    HW234986   0.811   4.320   6.606  0.4774 -0.2565 -0.9602
 7785SOL     OW34987   3.806   0.588  12.659  0.4098  0.0333 -0.0793
 7785SOL    HW134988   3.821   0.606  12.567 -1.8101  1.3434 -0.1851
 7785SOL    HW234989   3.821   0.493  12.659 -3.4534 -0.5749  0.1789
 7786SOL     OW34990   2.055   2.102  11.689 -0.2639 -0.9772 -0.4867
 7786SOL    HW134991   2.104   2.083  11.609 -1.7548 -1.3915 -1.2958
 7786SOL    HW234992   1.968   2.118  11.651  0.0401 -1.4647 -1.3584
 7787SOL     OW34993   2.324   4.716   6.293  0.0624 -0.0195 -0.1046
 7787SOL    HW134994   2.419   4.718   6.308 -0.3362  0.4211  2.3624
 7787SOL    HW234995   2.289   4.635   6.330 -1.1242  1.1899  1.4266
 7788SOL     OW34996   3.711   3.669   5.037  0.3783  0.2839 -0.0407
 7788SOL    HW134997   3.788   3.613   5.033 -0.3061 -0.8294  2.1830
 7788SOL    HW234998   3.707   3.702   4.947 -0.6351 -2.0161 -0.8263
 7789SOL     OW34999   1.548   2.663   5.414  0.1488 -0.1968 -0.2311
 7789SOL    HW135000   1.585   2.662   5.502 -0.9569 -2.3759  0.2096
 7789SOL    HW235001   1.554   2.570   5.393 -0.9467 -0.7280  1.8042
 7790SOL     OW35002   3.592   0.350   7.637 -0.8061  0.0628 -0.5940
 7790SOL    HW135003   3.623   0.408   7.568 -0.6124  0.5607 -0.0824
 7790SOL    HW235004   3.511   0.314   7.600 -1.4244  0.2776  0.5398
 7791SOL     OW35005   2.800   1.355   3.365  0.5795 -0.2529 -0.1558
 7791SOL    HW135006   2.710   1.333   3.341  0.9153  0.4078 -2.0231
 7791SOL    HW235007   2.849   1.315   3.293 -1.4586 -0.9188 -1.1717
 7792SOL     OW35008   1.843   1.310  17.220  0.1926 -0.6355  0.5038
 7792SOL    HW135009   1.896   1.231  17.212 -0.6290 -0.9869 -1.6871
 7792SOL    HW235010   1.908   1.378  17.234  0.0818 -0.3923 -0.1229
 7793SOL     OW35011   3.445   0.856   4.530  0.4541 -0.4958  0.6144
 7793SOL    HW135012   3.451   0.892   4.441 -1.6054 -1.1517  0.2135
 7793SOL    HW235013   3.427   0.937   4.577 -2.0709 -0.8452  0.2317
 7794SOL     OW35014   3.010   0.272   2.928 -0.6405 -0.1852  0.0305
 7794SOL    HW135015   3.088   0.239   2.882 -0.7397 -0.6252  0.1773
 7794SOL    HW235016   3.020   0.226   3.011  1.7238  0.3556  0.0584
 7795SOL     OW35017   3.070   0.845   5.590  0.0917  0.6284 -0.4806
 7795SOL    HW135018   3.022   0.806   5.517  0.1841 -2.4540  1.0877
 7795SOL    HW235019   3.160   0.824   5.562  0.2718 -0.4008  0.8825
 7796SOL     OW35020   4.540   4.482   6.271  0.3325  0.4095  0.7814
 7796SOL    HW135021   4.517   4.470   6.363 -1.0569 -1.0658  0.2365
 7796SOL    HW235022   4.617   4.538   6.276  2.1780 -2.0066 -1.1454
 7797SOL     OW35023   3.696   1.360  14.750 -0.2735 -0.0005  0.5221
 7797SOL    HW135024   3.668   1.273  14.779  0.4892  0.3071  2.1724
 7797SOL    HW235025   3.638   1.372  14.675  0.1792  2.0004  0.4915
 7798SOL     OW35026   1.467   0.412   3.787 -0.2059 -0.2882  0.3798
 7798SOL    HW135027   1.415   0.482   3.747  0.4720  0.0517  0.0928
 7798SOL    HW235028   1.414   0.365   3.852  0.1359 -0.3185  0.6348
 7799SOL     OW35029   1.475   4.531   9.655 -0.0487  0.2354  0.4202
 7799SOL    HW135030   1.488   4.569   9.742  0.1039  1.3712 -0.1063
 7799SOL    HW235031   1.399   4.474   9.669  0.7957 -0.4230  2.4327
 7800SOL     OW35032   2.935   2.332   6.337  0.2508 -0.2168 -0.2493
 7800SOL    HW135033   3.003   2.321   6.404 -0.6044  0.3980  0.7200
 7800SOL    HW235034   2.875   2.258   6.352  0.2527 -0.8725 -3.4621
 7801SOL     OW35035   3.604   2.858   5.291 -0.0637  0.0909 -0.0099
 7801SOL    HW135036   3.606   2.847   5.196 -3.1699 -1.0193  0.0783
 7801SOL    HW235037   3.673   2.924   5.302  1.6002 -1.5474 -0.6169
 7802SOL     OW35038   3.604   2.248   2.415 -0.1650 -0.2055 -0.0251
 7802SOL    HW135039   3.645   2.168   2.450  1.3309  0.5803  0.0455
 7802SOL    HW235040   3.657   2.314   2.459  0.4559 -0.9737  0.3784
 7803SOL     OW35041   3.862   3.143   8.448 -0.5048 -0.4186 -0.1429
 7803SOL    HW135042   3.805   3.067   8.440 -0.3206 -0.4422 -1.2418
 7803SOL    HW235043   3.949   3.114   8.422 -1.3094 -0.0504 -3.2922
 7804SOL     OW35044   1.016   3.077   5.008 -0.5869 -0.4862  0.1542
 7804SOL    HW135045   0.953   3.041   5.070  0.3563  2.3039  2.7361
 7804SOL    HW235046   1.006   3.018   4.933 -1.5094 -0.6632  0.4220
 7805SOL     OW35047   3.577   1.535   2.152 -0.1150  0.2441  0.0762
 7805SOL    HW135048   3.546   1.534   2.243  0.1513 -0.2802  0.1596
 7805SOL    HW235049   3.590   1.628   2.132  0.7776  0.1017  0.0185
 7806SOL     OW35050   3.693   1.006  16.362 -0.0137 -0.1430 -1.0763
 7806SOL    HW135051   3.761   0.989  16.427 -0.5580  2.7357  0.2480
 7806SOL    HW235052   3.665   0.923  16.324 -0.8715 -0.2609 -0.1745
 7807SOL     OW35053   2.453   2.997   3.047  0.5715  0.3625 -0.5709
 7807SOL    HW135054   2.538   2.982   3.089  2.0278  1.8010 -2.9845
 7807SOL    HW235055   2.434   2.911   3.011 -0.6208 -0.8999  3.1130
 7808SOL     OW35056   2.095   3.823   2.661  0.1130  0.2879  0.3826
 7808SOL    HW135057   2.114   3.859   2.747 -1.0045  1.8876 -0.0282
 7808SOL    HW235058   2.177   3.843   2.616 -0.0211 -1.5692 -0.6741
 7809SOL     OW35059   4.368   0.338   7.236 -0.5482 -0.0109 -0.0929
 7809SOL    HW135060   4.391   0.327   7.144  2.0537  1.0008  0.4345
 7809SOL    HW235061   4.357   0.431   7.255  0.3587  0.0731  0.0153
 7810SOL     OW35062   4.139   2.238   0.489 -0.2229  0.1134  0.1692
 7810SOL    HW135063   4.190   2.166   0.453 -1.3272 -1.0929  1.0117
 7810SOL    HW235064   4.075   2.190   0.541 -0.8819  0.8155  0.0042
 7811SOL     OW35065   3.238   1.202   4.979 -0.1223  0.6316  0.5236
 7811SOL    HW135066   3.169   1.145   5.012  0.8864 -1.4712 -0.9300
 7811SOL    HW235067   3.296   1.148   4.925 -0.1300 -0.0456  1.1990
 7812SOL     OW35068   1.419   2.445  10.391  0.1137  0.4140 -0.5623
 7812SOL    HW135069   1.472   2.431  10.470  0.0488 -1.0836 -0.7887
 7812SOL    HW235070   1.369   2.524  10.407  0.9759  1.0317 -0.9024
 7813SOL     OW35071   1.336   0.797  13.703 -0.1650 -0.4283 -0.1860
 7813SOL    HW135072   1.302   0.711  13.725  0.2224  0.2112  2.9592
 7813SOL    HW235073   1.386   0.816  13.783 -1.2087 -0.3284  0.4365
 7814SOL     OW35074   0.394   3.830   3.740 -0.1695 -0.3974  0.0422
 7814SOL    HW135075   0.427   3.918   3.721 -3.1767  0.8852  0.6773
 7814SOL    HW235076   0.476   3.783   3.754 -0.6962 -1.1936  0.5098
 7815SOL     OW35077   4.412   0.542   8.521 -0.1056  0.0177  0.3807
 7815SOL    HW135078   4.501   0.509   8.535 -0.8199 -1.3212  1.7780
 7815SOL    HW235079   4.377   0.539   8.610 -1.6852 -0.8560 -0.2707
 7816SOL     OW35080   1.411   3.913  14.402 -0.8393 -0.3061  0.2395
 7816SOL    HW135081   1.427   4.007  14.394 -2.9046  0.1552  1.4235
 7816SOL    HW235082   1.444   3.893  14.489  1.8916 -0.5975 -0.8864
 7817SOL     OW35083   1.935   2.500  17.229 -0.4263  0.1387 -0.5255
 7817SOL    HW135084   1.976   2.550  17.300 -0.9268  0.7634 -0.6744
 7817SOL    HW235085   1.943   2.559  17.154 -1.1950  0.9955  0.0680
 7818SOL     OW35086   0.555   1.527   7.628 -0.4619  0.3487  0.4572
 7818SOL    HW135087   0.584   1.504   7.716 -0.2060 -1.1261 -0.0150
 7818SOL    HW235088   0.463   1.538   7.649 -0.1653 -0.8139  2.2662
 7819SOL     OW35089   3.035   2.174   7.824 -0.5485  0.2774  0.3630
 7819SOL    HW135090   2.963   2.236   7.837  1.1010  1.5741  3.2978
 7819SOL    HW235091   3.019   2.155   7.731 -0.6726 -0.4437  0.5338
 7820SOL     OW35092   0.518   0.084   9.889 -0.8645  0.0599  0.3527
 7820SOL    HW135093   0.530   0.126   9.974 -0.6097  0.9944 -0.1409
 7820SOL    HW235094   0.595   0.116   9.841 -0.7072 -2.0815 -0.8087
 7821SOL     OW35095   3.443   0.009   5.076  0.0031  0.2055  0.4630
 7821SOL    HW135096   3.493   4.684   5.127  1.7715 -0.2107 -1.7736
 7821SOL    HW235097   3.454   4.712   4.988  0.1127 -0.2989  0.6792
 7822SOL     OW35098   4.165   0.920  16.987  0.2662  0.3496  0.1636
 7822SOL    HW135099   4.075   0.953  16.986  0.3543  0.6212  1.1996
 7822SOL    HW235100   4.136   0.829  16.995 -3.0261  1.2554 -1.1283
 7823SOL     OW35101   1.136   1.122   3.645  0.1866  0.4019 -0.2327
 7823SOL    HW135102   1.069   1.067   3.685  1.2458  0.6935  1.9692
 7823SOL    HW235103   1.180   1.162   3.720 -0.8608 -1.5883  1.4228
 7824SOL     OW35104   4.252   0.904   4.573  0.4536 -0.0568  0.3886
 7824SOL    HW135105   4.239   0.818   4.612  1.2828  0.4801  1.8417
 7824SOL    HW235106   4.289   0.879   4.488  1.0166 -0.3976  0.7415
 7825SOL     OW35107   3.373   1.932   6.565  0.3576 -0.4347  0.2423
 7825SOL    HW135108   3.324   2.003   6.524  2.9207  0.6519 -0.9272
 7825SOL    HW235109   3.423   1.979   6.632 -1.7578  1.5833  0.4091
 7826SOL     OW35110   3.800   0.895  12.061  0.2600  0.3231  0.5707
 7826SOL    HW135111   3.884   0.910  12.019 -0.4159  0.2555 -0.7944
 7826SOL    HW235112   3.771   0.814  12.018 -0.0691  0.3311  0.7785
 7827SOL     OW35113   1.416   2.896  13.417 -0.1864 -0.4062  0.0454
 7827SOL    HW135114   1.359   2.819  13.418 -1.7340  0.7345 -2.2719
 7827SOL    HW235115   1.461   2.885  13.501 -1.3227 -1.1357  0.5544
 7828SOL     OW35116   2.199   1.540   7.360 -0.0377 -0.3094 -0.2212
 7828SOL    HW135117   2.237   1.478   7.297 -1.6062 -1.4155 -0.0972
 7828SOL    HW235118   2.276   1.589   7.387  0.2175 -0.6659 -0.3034
 7829SOL     OW35119   2.187   0.086   4.539  0.6481 -0.1459  0.0254
 7829SOL    HW135120   2.132   0.151   4.496  2.0414  1.3656  0.5398
 7829SOL    HW235121   2.222   0.141   4.609 -0.0857 -2.0445  1.9036
 7830SOL     OW35122   2.447   3.838   5.973  0.1941  0.1318  0.4818
 7830SOL    HW135123   2.460   3.768   6.037  1.1838 -1.3440 -1.3351
 7830SOL    HW235124   2.357   3.833   5.942  0.4776  1.2268 -0.5580
 7831SOL     OW35125   3.531   3.806   5.530  0.0346  0.1201  0.0371
 7831SOL    HW135126   3.456   3.756   5.499 -0.7164  1.5265 -0.3988
 7831SOL    HW235127   3.592   3.782   5.461 -0.5861  0.6033 -0.6724
 7832SOL     OW35128   3.912   4.699  12.917 -0.8898  0.1317 -0.0634
 7832SOL    HW135129   3.893   0.048  12.952 -0.3073  0.7423 -1.2667
 7832SOL    HW235130   4.007   4.700  12.921 -0.9178 -2.5467  1.1893
 7833SOL     OW35131   0.016   3.232   0.042  0.2905  1.2311  0.1625
 7833SOL    HW135132   4.729   3.315   0.001  0.9855  0.1175 -2.4463
 7833SOL    HW235133   4.676   3.226   0.098  0.2157  1.0055  0.0308
 7834SOL     OW35134   3.143   3.477  14.568  0.4406 -0.0120 -0.7028
 7834SOL    HW135135   3.091   3.449  14.492  1.2071  0.7296 -1.5122
 7834SOL    HW235136   3.179   3.397  14.604 -3.2849 -1.0167  0.7887
 7835SOL     OW35137   4.613   1.721   6.018 -0.1526 -0.0609  0.4649
 7835SOL    HW135138   4.533   1.707   6.069  0.7573  1.1034  2.2388
 7835SOL    HW235139   4.604   1.813   5.992 -0.5980 -0.1924  0.1648
 7836SOL     OW35140   3.295   0.668   0.386  0.3463  0.5446  0.5733
 7836SOL    HW135141   3.205   0.643   0.410  1.2236 -0.8528  2.4864
 7836SOL    HW235142   3.266   0.699   0.301 -0.7100 -1.7321  0.0874
 7837SOL     OW35143   3.153   2.024   0.666 -0.3103 -0.7215  0.0319
 7837SOL    HW135144   3.174   2.037   0.573 -0.3305 -2.4037 -0.2108
 7837SOL    HW235145   3.146   1.928   0.663 -1.7687 -0.5343 -3.0164
 7838SOL     OW35146   2.135   2.074   6.375 -0.0321  0.3420 -0.5942
 7838SOL    HW135147   2.049   2.070   6.334  0.1765 -3.8525 -0.5559
 7838SOL    HW235148   2.123   2.004   6.439 -0.7395 -0.5717 -1.7235
 7839SOL     OW35149   0.262   2.054  11.925  0.5695  0.6983  0.3001
 7839SOL    HW135150   0.287   1.973  11.880  1.1379  0.9054  0.2385
 7839SOL    HW235151   0.318   2.114  11.875  1.2628 -0.8274 -0.7748
 7840SOL     OW35152   3.998   3.332   7.078 -0.0798  0.3133  0.3604
 7840SOL    HW135153   3.913   3.365   7.050 -0.2384 -0.0383  0.4262
 7840SOL    HW235154   4.005   3.381   7.160  0.2878 -0.1691  0.6148
 7841SOL     OW35155   0.148   3.379   4.994 -0.1304 -0.3577  0.2200
 7841SOL    HW135156   0.233   3.421   5.003 -0.4517  0.3918 -0.3020
 7841SOL    HW235157   0.097   3.443   5.044 -0.0167 -1.3283  1.6076
 7842SOL     OW35158   1.890   2.548   3.287  0.5480  0.2044  0.4271
 7842SOL    HW135159   1.797   2.536   3.305 -0.0208  0.2959 -2.3850
 7842SOL    HW235160   1.899   2.479   3.221 -2.8714 -1.4793  1.7463
 7843SOL     OW35161   4.512   0.841  16.562 -0.6904  0.7767  0.4425
 7843SOL    HW135162   4.464   0.892  16.627 -1.5997  0.5830 -0.0802
 7843SOL    HW235163   4.493   0.749  16.581 -1.8048  1.2449  1.6229
 7844SOL     OW35164   4.027   1.639   1.588 -0.2869 -0.1614  0.1498
 7844SOL    HW135165   3.933   1.623   1.592  0.2161 -2.6316  1.8481
 7844SOL    HW235166   4.038   1.712   1.527  0.8660 -0.2635  0.2300
 7845SOL     OW35167   2.643   0.389   5.303 -0.6422 -0.2478 -0.0949
 7845SOL    HW135168   2.605   0.442   5.373  0.5203 -0.2681  0.5626
 7845SOL    HW235169   2.713   0.352   5.357 -1.6541 -1.2644  0.5027
 7846SOL     OW35170   0.598   1.307   5.299 -0.2926 -0.0856  0.0333
 7846SOL    HW135171   0.512   1.269   5.316  0.4591  0.2789  4.6094
 7846SOL    HW235172   0.621   1.272   5.213  1.1255  0.3739  0.2127
 7847SOL     OW35173   3.016   4.620   7.550  0.7582 -0.2996  0.2013
 7847SOL    HW135174   3.055   4.661   7.473 -1.1243  1.0250 -0.0564
 7847SOL    HW235175   2.982   4.699   7.592 -0.3876 -0.0906 -1.0959
 7848SOL     OW35176   2.601   0.711   2.340 -0.4375 -0.3996 -0.0879
 7848SOL    HW135177   2.596   0.626   2.384 -2.8613 -0.7016 -0.9353
 7848SOL    HW235178   2.578   0.682   2.252  1.3058 -0.3293 -0.5524
 7849SOL     OW35179   1.638   0.161   2.620  0.3948 -0.1571  0.4263
 7849SOL    HW135180   1.550   0.124   2.620  0.6391 -0.7436  0.4655
 7849SOL    HW235181   1.663   0.139   2.710 -0.8009 -0.5214  0.6635
 7850SOL     OW35182   1.926   1.983  10.951  0.0201 -0.0884  0.0587
 7850SOL    HW135183   1.975   1.928  11.011  0.1344 -0.6501 -0.5528
 7850SOL    HW235184   1.904   1.924  10.879 -1.0631  0.4263 -0.0383
 7851SOL     OW35185   2.041   1.951   8.868  0.0626  0.0494 -0.0992
 7851SOL    HW135186   2.027   2.007   8.945  1.8096  1.1336 -0.5777
 7851SOL    HW235187   2.091   2.013   8.814  0.8796  1.6087  2.4002
 7852SOL     OW35188   2.579   4.324   3.186  0.1943 -0.3869 -0.1398
 7852SOL    HW135189   2.622   4.279   3.259  1.7992  0.5396 -0.5181
 7852SOL    HW235190   2.619   4.410   3.192  0.3267 -0.3399 -1.5642
 7853SOL     OW35191   1.563   1.810   1.628 -0.2662  0.3314 -0.1965
 7853SOL    HW135192   1.632   1.749   1.602 -2.2330 -2.4603  1.1241
 7853SOL    HW235193   1.493   1.745   1.629 -0.5321  0.6530  1.7909
 7854SOL     OW35194   0.369   0.786   4.888 -0.1999  0.2776 -0.8578
 7854SOL    HW135195   0.438   0.819   4.946 -1.2356  0.4494  0.2694
 7854SOL    HW235196   0.413   0.721   4.833 -0.4161  0.7054 -1.5334
 7855SOL     OW35197   1.769   2.846  14.911  0.7643 -0.3037  0.6510
 7855SOL    HW135198   1.796   2.893  14.832  0.5999 -2.5940 -0.7987
 7855SOL    HW235199   1.701   2.788  14.876 -0.2003  1.8358 -0.9445
 7856SOL     OW35200   3.099   0.361   8.583 -0.2822  0.1215  0.5119
 7856SOL    HW135201   3.048   0.395   8.509 -0.8794  0.4168  1.0580
 7856SOL    HW235202   3.190   0.382   8.563  0.3963 -0.9341  2.4710
 7857SOL     OW35203   1.224   1.395  17.225 -0.4671  0.3794  0.1798
 7857SOL    HW135204   1.225   1.446  17.306 -1.0162  0.5596  0.0737
 7857SOL    HW235205   1.144   1.346  17.245 -0.7028 -0.1869 -2.0972
 7858SOL     OW35206   1.041   0.832   4.594  0.3671  0.0900  0.3284
 7858SOL    HW135207   0.960   0.782   4.592  0.4165 -0.0304  1.1872
 7858SOL    HW235208   1.064   0.833   4.688 -0.2325 -1.3300  0.4796
 7859SOL     OW35209   2.781   4.630   7.849  0.3197  0.2810 -0.6913
 7859SOL    HW135210   2.801   4.548   7.893 -1.9188  0.2260  0.2074
 7859SOL    HW235211   2.689   4.625   7.825  0.1938 -1.3763  0.1555
 7860SOL     OW35212   2.441   1.233  17.183  0.2908  0.2680  0.1340
 7860SOL    HW135213   2.500   1.188  17.244 -0.9708  1.3957  2.1706
 7860SOL    HW235214   2.409   1.158  17.133  0.5557 -0.6416  1.3244
 7861SOL     OW35215   3.469   2.722   8.231 -0.3984  0.6231 -0.1102
 7861SOL    HW135216   3.551   2.733   8.181  0.2448  0.3160  0.8898
 7861SOL    HW235217   3.433   2.644   8.190  1.4399 -0.8189  1.0350
 7862SOL     OW35218   1.523   3.118  14.366  0.5419  0.6294 -0.9724
 7862SOL    HW135219   1.583   3.083  14.432 -0.0685 -1.2525 -1.3936
 7862SOL    HW235220   1.538   3.061  14.291 -1.0376 -0.5748 -0.3744
 7863SOL     OW35221   0.002   4.021   1.286  0.3391  0.0841  0.2777
 7863SOL    HW135222   4.649   4.048   1.274 -0.4949 -2.9854 -0.3935
 7863SOL    HW235223   4.725   3.931   1.256 -2.1078  0.6664 -0.2518
 7864SOL     OW35224   0.569   1.168  11.952  0.0582 -0.1761 -0.2251
 7864SOL    HW135225   0.566   1.125  12.038 -1.2815  0.7415  0.1801
 7864SOL    HW235226   0.631   1.106  11.914  0.7450 -1.3971  2.8767
 7865SOL     OW35227   4.493   0.811   2.288  0.1646  0.0527 -0.2397
 7865SOL    HW135228   4.586   0.832   2.300  0.0037  1.8257 -2.0221
 7865SOL    HW235229   4.447   0.895   2.281  0.9087  0.5361  0.6584
 7866SOL     OW35230   4.668   2.630  10.024 -0.3261  0.2982  0.1917
 7866SOL    HW135231   0.012   2.676  10.045 -0.1068 -0.0525  0.0986
 7866SOL    HW235232   4.604   2.698  10.044 -1.4136  0.2556 -3.2266
 7867SOL     OW35233   1.684   2.386   8.018  0.4577  0.3763 -0.3851
 7867SOL    HW135234   1.635   2.362   7.940  0.2360 -1.0320  0.1874
 7867SOL    HW235235   1.617   2.399   8.085 -0.8198 -2.1240 -1.1979
 7868SOL     OW35236   1.454   0.510   7.281 -0.1608 -0.0916 -0.2024
 7868SOL    HW135237   1.464   0.415   7.288 -1.2080 -0.3670 -2.3027
 7868SOL    HW235238   1.455   0.524   7.186 -1.2586 -1.7711 -0.4546
 7869SOL     OW35239   3.649   3.175   9.572 -0.2304 -0.0923  0.0196
 7869SOL    HW135240   3.715   3.192   9.639 -0.3755 -1.6417  0.5435
 7869SOL    HW235241   3.581   3.135   9.626 -0.2165  2.1474  1.6907
 7870SOL     OW35242   1.289   4.399   4.868 -0.3903  0.1135 -0.5148
 7870SOL    HW135243   1.291   4.332   4.799 -1.6825  0.9543 -1.3716
 7870SOL    HW235244   1.205   4.374   4.906  0.0130 -1.2968 -0.5571
 7871SOL     OW35245   4.165   2.909   6.860 -0.0299 -0.0518 -0.2156
 7871SOL    HW135246   4.249   2.939   6.827 -0.2016  0.3017 -0.3324
 7871SOL    HW235247   4.128   2.985   6.906 -0.9511 -1.3526  1.2180
 7872SOL     OW35248   0.736   0.867   7.057 -0.2072 -0.4102 -0.4348
 7872SOL    HW135249   0.798   0.938   7.073  0.0581 -0.8978  0.6918
 7872SOL    HW235250   0.686   0.855   7.137 -1.6947  0.1158 -1.2733
 7873SOL     OW35251   3.589   0.769   3.090  0.0162  0.0153  0.4102
 7873SOL    HW135252   3.671   0.760   3.139  1.1280 -0.6691 -1.5763
 7873SOL    HW235253   3.620   0.836   3.030 -1.9506  3.3084  3.0512
 7874SOL     OW35254   0.203   0.930  10.500  0.0716  0.1137  0.2931
 7874SOL    HW135255   0.278   0.878  10.528 -2.2923 -3.2394  0.3187
 7874SOL    HW235256   0.247   0.994  10.444 -0.5331 -0.3530 -0.7306
 7875SOL     OW35257   3.525   2.466   3.444 -0.0555 -0.1532  0.1582
 7875SOL    HW135258   3.503   2.512   3.525 -0.1204  0.6934 -0.3462
 7875SOL    HW235259   3.581   2.393   3.473  0.5878  1.4248  2.8865
 7876SOL     OW35260   2.939   2.968   1.574  0.1161  0.0596  0.4197
 7876SOL    HW135261   2.897   2.884   1.593 -0.7617  0.7214  1.4291
 7876SOL    HW235262   2.954   2.966   1.480 -1.9099 -1.1924  0.1139
 7877SOL     OW35263   1.535   0.218  10.843  0.6599  0.9772 -0.4319
 7877SOL    HW135264   1.443   0.199  10.859  0.8222  0.4681 -0.1215
 7877SOL    HW235265   1.526   0.309  10.815 -2.1461  0.9810  0.5056
 7878SOL     OW35266   0.312   1.171   5.061  0.4248 -0.0709 -0.5986
 7878SOL    HW135267   0.311   1.262   5.033  1.0618  0.6385  1.6969
 7878SOL    HW235268   0.405   1.154   5.073  0.2354  0.2895  1.2550
 7879SOL     OW35269   2.294   2.272  14.192  0.1372  0.1275 -0.0910
 7879SOL    HW135270   2.306   2.246  14.283  1.6260 -0.4343 -0.4465
 7879SOL    HW235271   2.287   2.185  14.151  0.3383 -0.1304  0.4139
 7880SOL     OW35272   1.496   0.786   6.107  0.3114 -0.1670 -0.3677
 7880SOL    HW135273   1.404   0.790   6.134  0.8100  0.0906  1.3243
 7880SOL    HW235274   1.511   0.698   6.141  0.0625 -0.1748 -0.2767
 7881SOL     OW35275   2.700   3.492  16.751  0.1365 -0.0984  0.0225
 7881SOL    HW135276   2.648   3.418  16.783  2.1527 -2.1665 -1.4545
 7881SOL    HW235277   2.788   3.470  16.783 -0.1335 -1.7794 -0.4117
 7882SOL     OW35278   4.428   2.009  13.328  0.2885 -0.0730  0.4179
 7882SOL    HW135279   4.427   1.939  13.392 -0.7905  0.5343  1.0696
 7882SOL    HW235280   4.502   2.056  13.367 -0.2619  2.0404 -1.0496
 7883SOL     OW35281   2.072   0.862   3.925  0.6348  0.6321 -0.1259
 7883SOL    HW135282   2.020   0.782   3.912  1.7769 -0.1703  0.2502
 7883SOL    HW235283   2.120   0.823   3.998  1.5110  1.7635 -0.0910
 7884SOL     OW35284   0.120   0.907   4.320  0.0136 -0.6214 -0.2702
 7884SOL    HW135285   0.193   0.874   4.372  0.5865  2.6707  1.0181
 7884SOL    HW235286   0.062   0.834   4.299 -1.8742  1.2745 -1.6798
 7885SOL     OW35287   4.095   2.109   3.448  0.7574  0.1084 -0.2562
 7885SOL    HW135288   4.089   2.016   3.425  0.6905 -0.1694  0.8884
 7885SOL    HW235289   4.078   2.101   3.542 -1.3640  0.6566 -0.5878
 7886SOL     OW35290   4.400   2.318   6.316 -0.0088  0.2300 -0.2272
 7886SOL    HW135291   4.484   2.316   6.272 -0.6270 -0.5974 -1.3659
 7886SOL    HW235292   4.426   2.369   6.393  1.3363 -2.6867  1.2640
 7887SOL     OW35293   0.236   2.001   4.327 -0.2910  0.3214  0.2043
 7887SOL    HW135294   0.263   1.913   4.300  0.0551  0.4570  0.0968
 7887SOL    HW235295   0.149   2.009   4.288  0.4948 -0.3441 -1.6769
 7888SOL     OW35296   1.125   2.664   6.830  0.0193 -0.9681 -0.3708
 7888SOL    HW135297   1.202   2.662   6.888  0.8936 -2.5104 -1.5913
 7888SOL    HW235298   1.167   2.689   6.747 -2.2016  0.6090 -1.0116
 7889SOL     OW35299   3.716   0.389   2.372  0.0853 -0.2001 -0.3020
 7889SOL    HW135300   3.643   0.357   2.319  1.5168  0.1661 -2.5157
 7889SOL    HW235301   3.710   0.484   2.357 -0.9480 -0.0243  1.2111
 7890SOL     OW35302   0.766   4.387   8.451  0.2257 -0.4603  0.1556
 7890SOL    HW135303   0.850   4.394   8.495 -0.0892  0.6260  0.5782
 7890SOL    HW235304   0.804   4.365   8.366 -0.8337 -3.1985  0.3887
 7891SOL     OW35305   3.692   0.266  11.101 -0.4033  0.1148  0.9068
 7891SOL    HW135306   3.652   0.240  11.018 -1.3450  3.8876  0.1918
 7891SOL    HW235307   3.629   0.237  11.167 -2.0962  0.2886 -0.6132
 7892SOL     OW35308   0.455   3.177   0.317  0.1366  0.2079  0.1167
 7892SOL    HW135309   0.401   3.204   0.243  0.3610 -0.7467 -0.3900
 7892SOL    HW235310   0.540   3.189   0.274  1.2399 -0.1025  2.2080
 7893SOL     OW35311   3.914   1.979   6.511  0.3783  0.0438 -0.1658
 7893SOL    HW135312   3.939   2.012   6.597 -1.9308  0.0058  0.5217
 7893SOL    HW235313   3.876   2.059   6.474  1.4462  0.2021 -0.9417
 7894SOL     OW35314   1.957   2.622   9.194 -0.7450 -0.4027  0.1228
 7894SOL    HW135315   1.967   2.704   9.243 -0.3649 -0.0013 -0.6394
 7894SOL    HW235316   1.972   2.561   9.267 -0.8421 -1.5657 -0.8234
 7895SOL     OW35317   2.738   2.813   6.070 -0.1141  0.3373 -0.0602
 7895SOL    HW135318   2.756   2.724   6.039  0.1220  0.5995 -0.6761
 7895SOL    HW235319   2.711   2.861   5.992  1.4679 -0.3433 -1.0210
 7896SOL     OW35320   3.166   2.476   3.050  0.5795  0.0211  0.6477
 7896SOL    HW135321   3.163   2.445   3.140 -0.0076  2.0830  1.3438
 7896SOL    HW235322   3.074   2.462   3.028  1.2853 -2.1413 -0.8822
 7897SOL     OW35323   4.238   4.157   3.637 -0.1409 -0.1719 -0.0326
 7897SOL    HW135324   4.156   4.107   3.632 -1.2228  1.6875 -0.6820
 7897SOL    HW235325   4.233   4.226   3.572 -1.3911  0.4798  0.7436
 7898SOL     OW35326   1.703   0.227   6.213  0.2552 -0.2723  0.1817
 7898SOL    HW135327   1.611   0.228   6.186  0.7943 -0.3860 -1.7057
 7898SOL    HW235328   1.735   0.230   6.123 -0.1188 -0.8797  0.0292
 7899SOL     OW35329   4.390   3.844  11.280 -0.7345  0.2830  0.2624
 7899SOL    HW135330   4.348   3.850  11.367  0.9319 -0.4386  1.1183
 7899SOL    HW235331   4.316   3.853  11.220 -1.1010 -0.4611  0.5928
 7900SOL     OW35332   4.532   2.748   8.200 -0.1207  0.3352 -0.4816
 7900SOL    HW135333   4.585   2.690   8.256 -1.2946 -2.7595 -2.5498
 7900SOL    HW235334   4.589   2.825   8.206  0.4226 -0.0227 -1.0070
 7901SOL     OW35335   0.478   2.738   8.553 -0.1030  0.3942 -0.1261
 7901SOL    HW135336   0.543   2.805   8.575  0.0170 -0.7187  2.8879
 7901SOL    HW235337   0.451   2.784   8.473 -0.5328  0.9220  0.3262
 7902SOL     OW35338   0.368   4.309   7.786 -0.7104 -0.4856  0.6819
 7902SOL    HW135339   0.298   4.317   7.851  1.4815 -1.8105  3.2342
 7902SOL    HW235340   0.326   4.360   7.717 -1.2611 -1.7476  0.0816
 7903SOL     OW35341   1.452   3.699   7.153 -0.1743  0.5086  0.4251
 7903SOL    HW135342   1.498   3.728   7.075 -2.9625  1.7977 -0.7326
 7903SOL    HW235343   1.362   3.701   7.122  0.4444 -2.5021 -1.5567
 7904SOL     OW35344   2.646   2.438  16.072 -0.0676 -0.1528 -0.6829
 7904SOL    HW135345   2.707   2.374  16.035 -0.4631 -0.6170 -0.5348
 7904SOL    HW235346   2.624   2.386  16.150  3.2208  1.3335  1.2366
 7905SOL     OW35347   2.841   0.933  16.780 -0.3621 -0.1767  0.4280
 7905SOL    HW135348   2.775   0.881  16.827 -1.4958 -1.2287 -2.3146
 7905SOL    HW235349   2.824   0.904  16.691  3.2810 -1.4923  0.1711
 7906SOL     OW35350   1.733   4.028   1.501 -0.6086  0.2765 -0.3543
 7906SOL    HW135351   1.796   4.093   1.469 -1.1252  0.4480 -1.0218
 7906SOL    HW235352   1.694   4.082   1.570 -1.7469 -0.3640 -0.4921
 7907SOL     OW35353   0.371   3.640  16.853 -0.0064  0.9144  0.7223
 7907SOL    HW135354   0.292   3.643  16.799  2.0186  0.1381 -2.2634
 7907SOL    HW235355   0.390   3.728  16.884  1.6674 -0.2232  2.9625
 7908SOL     OW35356   3.307   4.137  10.988  0.2093  0.6641 -0.1472
 7908SOL    HW135357   3.229   4.166  11.035 -1.0599 -3.6761  0.5097
 7908SOL    HW235358   3.370   4.208  10.998 -0.0184  0.6847  1.1667
 7909SOL     OW35359   1.899   3.868   7.513  0.1816  0.2520 -0.5424
 7909SOL    HW135360   1.862   3.822   7.588 -2.0040  0.3789 -1.5531
 7909SOL    HW235361   1.929   3.944   7.563 -1.5580  1.4763 -1.3561
 7910SOL     OW35362   3.708   1.055  16.787 -0.6617  0.5142  0.3350
 7910SOL    HW135363   3.619   1.063  16.823 -1.0290  2.9798 -1.1495
 7910SOL    HW235364   3.730   1.148  16.783  1.8774 -0.0839  0.3012
 7911SOL     OW35365   3.983   0.822   3.932  0.0210  0.3110 -0.2084
 7911SOL    HW135366   4.006   0.915   3.932 -2.0152  0.8130  1.1081
 7911SOL    HW235367   4.067   0.782   3.955  0.6497  1.2580 -0.8334
 7912SOL     OW35368   3.595   3.428   3.235  0.2188 -0.7097 -0.6952
 7912SOL    HW135369   3.563   3.398   3.150 -1.3784 -2.0975  0.4092
 7912SOL    HW235370   3.678   3.469   3.210 -0.5796  1.3621  0.0894
 7913SOL     OW35371   2.430   0.940   8.907 -0.0301 -0.1456 -0.3668
 7913SOL    HW135372   2.512   0.959   8.954 -0.1099  0.8208 -0.6266
 7913SOL    HW235373   2.375   1.015   8.930 -0.5513 -0.3459 -0.9500
 7914SOL     OW35374   4.674   0.285   2.878 -0.3197  0.1331 -0.5538
 7914SOL    HW135375   4.722   0.359   2.841  0.4049 -0.5617 -1.0204
 7914SOL    HW235376   4.616   0.261   2.806 -1.4342  2.1384 -0.3182
 7915SOL     OW35377   0.624   3.190   4.875  0.2052  0.4552 -0.3372
 7915SOL    HW135378   0.623   3.166   4.968  0.0327 -1.4074 -0.8036
 7915SOL    HW235379   0.698   3.136   4.846 -0.5267 -0.8709  0.2337
 7916SOL     OW35380   4.451   0.164   9.552  0.1104 -0.4805  0.4694
 7916SOL    HW135381   4.513   0.154   9.625  0.0126 -1.6676  0.3791
 7916SOL    HW235382   4.437   0.071   9.535  1.0363 -0.6800  0.8063
 7917SOL     OW35383   0.625   3.751   7.956 -0.5977  0.5242 -0.8693
 7917SOL    HW135384   0.539   3.772   7.993 -0.8059  0.2177 -1.1781
 7917SOL    HW235385   0.630   3.656   7.960  0.7417  0.7211  2.1076
 7918SOL     OW35386   3.764   2.725  17.235  0.7501  0.1792  0.0885
 7918SOL    HW135387   3.811   2.805  17.261 -1.8166  1.7697 -0.2329
 7918SOL    HW235388   3.804   2.710  17.149  1.1018 -2.3458  0.6942
 7919SOL     OW35389   2.471   1.283   7.660 -0.7195  0.0109  0.3755
 7919SOL    HW135390   2.382   1.274   7.627 -1.1418  0.4547  1.3979
 7919SOL    HW235391   2.459   1.315   7.750 -0.5741  1.5837 -0.1626
 7920SOL     OW35392   2.873   3.632   9.043 -0.4929  0.1468  0.5036
 7920SOL    HW135393   2.958   3.591   9.054  0.9209  3.2626  1.2799
 7920SOL    HW235394   2.890   3.691   9.116  0.0469  1.6531 -0.8511
 7921SOL     OW35395   0.027   0.444   7.896  0.4766  0.0011 -0.5730
 7921SOL    HW135396   0.031   0.386   7.820 -0.4209  2.1890 -2.2819
 7921SOL    HW235397   4.712   0.510   7.851  1.4590  1.2624  0.1314
 7922SOL     OW35398   0.024   1.639   9.658 -0.5253  0.2798  0.6279
 7922SOL    HW135399   0.106   1.654   9.610 -0.3339  1.0419  1.1886
 7922SOL    HW235400   0.027   1.692   9.737 -0.1795  0.8091  0.2607
 7923SOL     OW35401   0.749   4.588  12.283 -0.3743 -0.3052 -0.0505
 7923SOL    HW135402   0.742   4.610  12.190  0.4803 -1.9476 -0.5151
 7923SOL    HW235403   0.716   4.661  12.334  0.0455  0.2168 -0.5305
 7924SOL     OW35404   3.793   3.021   5.402  0.4930  0.4016 -0.4002
 7924SOL    HW135405   3.786   2.954   5.470 -0.4137  1.4316  0.5161
 7924SOL    HW235406   3.885   3.047   5.404  1.3121 -2.4719  0.4572
 7925SOL     OW35407   4.424   0.825   8.473  0.5797  0.1792  0.0394
 7925SOL    HW135408   4.427   0.732   8.495 -0.6586  0.0899 -0.1287
 7925SOL    HW235409   4.510   0.840   8.435  0.5981  0.2987  0.1263
 7926SOL     OW35410   3.348   1.672   1.805 -0.2802  0.6726  0.1343
 7926SOL    HW135411   3.310   1.594   1.845 -0.6393  1.7290  1.8609
 7926SOL    HW235412   3.428   1.636   1.766 -0.7275  0.2993 -0.4294
 7927SOL     OW35413   3.094   4.126   5.577 -0.4605 -0.5526 -0.4949
 7927SOL    HW135414   3.127   4.197   5.522 -1.4399  0.4300  0.1843
 7927SOL    HW235415   3.148   4.054   5.545  0.9666  0.8887 -1.4076
 7928SOL     OW35416   2.170   3.040   6.514 -0.2433 -0.2446 -0.2550
 7928SOL    HW135417   2.254   3.021   6.557  1.1236  1.4355 -2.1698
 7928SOL    HW235418   2.195   3.046   6.422  0.3285 -0.9585 -0.1474
 7929SOL     OW35419   0.566   4.323   4.694  0.0086  0.1257  0.4679
 7929SOL    HW135420   0.488   4.317   4.639  0.6210 -1.2783 -0.2421
 7929SOL    HW235421   0.631   4.359   4.634 -0.4266 -0.1529 -0.1673
 7930SOL     OW35422   1.463   0.526   6.375 -0.1647 -0.4558  0.0571
 7930SOL    HW135423   1.504   0.510   6.460  1.7082  1.7809 -0.4540
 7930SOL    HW235424   1.541   0.511   6.322  0.3728 -0.6473  0.8939
 7931SOL     OW35425   2.847   0.571  14.609  0.4707  0.1486 -0.2064
 7931SOL    HW135426   2.844   0.501  14.544  2.3759  0.0706 -0.2084
 7931SOL    HW235427   2.921   0.626  14.583  2.0363 -0.4712  2.9851
 7932SOL     OW35428   2.267   3.218   8.294 -0.3747 -0.0998  0.6692
 7932SOL    HW135429   2.323   3.179   8.227  1.2102  0.9381  1.3889
 7932SOL    HW235430   2.195   3.155   8.294  0.4646 -1.0628 -0.9822
 7933SOL     OW35431   1.657   0.080   2.340  0.2431  0.0586  0.3360
 7933SOL    HW135432   1.752   0.094   2.337  0.0901  0.7915 -0.9839
 7933SOL    HW235433   1.635   0.106   2.430  0.6571 -0.4048  0.5704
 7934SOL     OW35434   3.736   4.386  14.611 -0.4183 -0.1057 -0.1198
 7934SOL    HW135435   3.753   4.306  14.660 -1.9514 -1.2733 -1.4954
 7934SOL    HW235436   3.790   4.448  14.661  0.0282  0.2798 -1.0760
 7935SOL     OW35437   3.708   3.477  10.639  0.1712  0.7438  0.5554
 7935SOL    HW135438   3.745   3.530  10.569 -0.1156  0.9659  0.5715
 7935SOL    HW235439   3.692   3.395  10.593 -0.3111  1.3562 -0.3509
 7936SOL     OW35440   2.566   0.646   6.267  0.2564 -0.6606 -0.7752
 7936SOL    HW135441   2.569   0.710   6.196  1.9069  0.8258  0.6185
 7936SOL    HW235442   2.540   0.699   6.342 -1.5681 -0.5553 -1.5068
 7937SOL     OW35443   1.341   0.859   1.641 -0.4938  0.0141  0.4667
 7937SOL    HW135444   1.435   0.859   1.660 -0.6555  1.6264  1.2846
 7937SOL    HW235445   1.302   0.817   1.717 -2.2155 -0.8112 -0.8560
 7938SOL     OW35446   3.812   3.557  15.482 -0.4818 -0.1427  0.2854
 7938SOL    HW135447   3.746   3.539  15.549 -0.9725 -0.0791 -0.1791
 7938SOL    HW235448   3.799   3.484  15.422 -0.7080 -0.3382  0.5783
 7939SOL     OW35449   2.410   2.740   0.583  0.2355 -1.0186  0.0313
 7939SOL    HW135450   2.495   2.720   0.624  0.7865  0.7553 -0.2390
 7939SOL    HW235451   2.399   2.655   0.542  0.0934 -1.1483  0.3373
 7940SOL     OW35452   3.800   2.422   4.068  0.7015 -0.6253 -0.3331
 7940SOL    HW135453   3.814   2.377   4.151 -1.1725 -0.2136  0.2024
 7940SOL    HW235454   3.705   2.428   4.061  0.6676  1.3354  1.9820
 7941SOL     OW35455   3.476   2.340  10.220  0.2359 -0.4448 -0.0212
 7941SOL    HW135456   3.486   2.252  10.254  1.9371 -0.1607  0.1826
 7941SOL    HW235457   3.555   2.342  10.167  0.9104  0.5472  1.0230
 7942SOL     OW35458   4.478   2.664   3.727  0.1498 -0.3304  0.3050
 7942SOL    HW135459   4.478   2.760   3.729 -1.7040 -0.3605  1.3551
 7942SOL    HW235460   4.489   2.656   3.822 -0.6821  1.6939  0.5739
 7943SOL     OW35461   0.444   0.603   5.671 -0.0686 -0.4720 -0.3487
 7943SOL    HW135462   0.505   0.655   5.723 -1.5459  2.6917 -1.7081
 7943SOL    HW235463   0.443   0.535   5.737  0.2267 -0.9722 -0.8629
 7944SOL     OW35464   3.839   2.450   7.905 -0.3154 -0.3931 -0.2466
 7944SOL    HW135465   3.845   2.425   7.997  1.2312 -0.3801 -0.3429
 7944SOL    HW235466   3.920   2.414   7.869  0.3662  0.0202  0.9061
 7945SOL     OW35467   2.518   3.913   7.021 -0.4563 -0.3977 -0.1240
 7945SOL    HW135468   2.500   3.843   6.959  2.0712 -0.9428 -0.2393
 7945SOL    HW235469   2.596   3.960   6.992  0.4790 -1.1182  1.2184
 7946SOL     OW35470   4.040   3.851   9.509  0.3267  0.3817  0.0221
 7946SOL    HW135471   3.985   3.852   9.587 -0.3177 -1.5659 -0.4067
 7946SOL    HW235472   3.976   3.898   9.457 -0.7338  0.2868  1.2658
 7947SOL     OW35473   1.260   1.938  12.880 -0.0240  0.5665 -0.4412
 7947SOL    HW135474   1.190   1.886  12.919  0.0186  0.7162 -0.1702
 7947SOL    HW235475   1.246   1.944  12.785  0.4269  1.0604 -0.4777
 7948SOL     OW35476   4.260   4.548   3.236 -0.1765  0.3700  0.5537
 7948SOL    HW135477   4.351   4.545   3.263 -0.6215 -2.1015  1.7634
 7948SOL    HW235478   4.256   4.641   3.212  1.2593  0.3889  0.4063
 7949SOL     OW35479   3.060   2.895  10.206  0.1165 -0.3883 -0.3181
 7949SOL    HW135480   2.975   2.937  10.190 -0.6194 -1.1169  1.7045
 7949SOL    HW235481   3.103   2.902  10.121 -0.5835 -1.2296 -0.7436
 7950SOL     OW35482   3.926   3.974   3.023  0.0918 -0.4003 -0.0243
 7950SOL    HW135483   4.002   3.959   3.079  0.2222 -0.1189 -0.1235
 7950SOL    HW235484   3.928   4.068   3.006 -0.6701 -0.3757  0.0396
 7951SOL     OW35485   1.357   1.072  16.711 -0.1786 -0.1049  0.5334
 7951SOL    HW135486   1.289   1.004  16.705  0.4150 -0.4947 -1.8338
 7951SOL    HW235487   1.298   1.147  16.706 -1.5545 -1.2539 -0.5907
 7952SOL     OW35488   0.686   2.027  17.216 -0.2851 -0.1437 -0.1387
 7952SOL    HW135489   0.727   2.106  17.250 -1.2051 -1.3054  3.6186
 7952SOL    HW235490   0.762   1.971  17.199 -1.6890 -2.4625  1.2212
 7953SOL     OW35491   1.448   1.006  17.116  0.0858 -0.5745  0.1368
 7953SOL    HW135492   1.450   0.911  17.104  2.0198 -0.4165 -0.7738
 7953SOL    HW235493   1.542   1.018  17.118  0.0394 -0.0129 -1.1480
 7954SOL     OW35494   1.054   1.540  17.057  0.2299  0.0585  1.2870
 7954SOL    HW135495   1.091   1.471  17.111  0.4870 -0.1456  0.8434
 7954SOL    HW235496   0.999   1.506  16.986  2.1249  2.0313 -1.1387
 7955SOL     OW35497   2.626   2.337   6.701  0.1260  0.0229  0.3287
 7955SOL    HW135498   2.698   2.391   6.670  0.2466 -0.1717  0.2638
 7955SOL    HW235499   2.623   2.280   6.624 -0.4400  0.3303  0.1243
 7956SOL     OW35500   0.082   0.689   2.966  0.2920 -0.0853  0.0042
 7956SOL    HW135501   0.041   0.770   2.935  1.1900 -0.4515 -2.1235
 7956SOL    HW235502   0.004   0.658   3.011 -0.8936  0.7874 -1.4343
 7957SOL     OW35503   0.341   1.319   9.316 -0.1228 -0.9363 -0.2274
 7957SOL    HW135504   0.246   1.332   9.325  0.1689  0.2368  1.0247
 7957SOL    HW235505   0.339   1.240   9.370 -0.1627  0.0024  1.1365
 7958SOL     OW35506   0.137   0.431  17.620 -0.3358 -0.3356 -0.8819
 7958SOL    HW135507   0.222   0.452  17.581  0.0734 -1.6679 -0.7075
 7958SOL    HW235508   0.154   0.353  17.672 -0.2302 -0.1996 -0.7150
 7959SOL     OW35509   1.715   2.014   1.809  0.3591  0.3161 -0.3735
 7959SOL    HW135510   1.661   1.941   1.781  0.3749 -1.0702  3.1956
 7959SOL    HW235511   1.652   2.085   1.795 -0.3034 -0.0919  0.5230
 7960SOL     OW35512   3.137   3.610   7.252 -0.3634 -0.3819  0.0763
 7960SOL    HW135513   3.144   3.626   7.346 -1.2220 -1.4855  0.3302
 7960SOL    HW235514   3.053   3.564   7.246 -0.2934 -0.4620 -0.2995
 7961SOL     OW35515   1.810   1.301   6.386  0.1717  0.3427 -0.0014
 7961SOL    HW135516   1.893   1.255   6.398  0.3106  0.7441  0.5350
 7961SOL    HW235517   1.744   1.231   6.384  1.0679 -0.4906 -0.2680
 7962SOL     OW35518   3.778   4.236   8.035  0.2980  0.0968  0.1003
 7962SOL    HW135519   3.792   4.289   8.114 -2.1467 -0.2419  0.7355
 7962SOL    HW235520   3.862   4.254   7.991  0.6311 -0.5056  0.4960
 7963SOL     OW35521   0.790   2.535   1.875  0.5622 -0.1747 -0.0524
 7963SOL    HW135522   0.787   2.557   1.968 -3.2625 -0.1569 -0.1794
 7963SOL    HW235523   0.787   2.618   1.827 -1.1565 -0.6499 -0.7502
 7964SOL     OW35524   0.719   4.506   5.700 -0.1865 -0.2426 -0.2790
 7964SOL    HW135525   0.721   4.469   5.611  2.5786  1.2134 -0.8273
 7964SOL    HW235526   0.744   4.595   5.678 -2.8375  0.0097 -2.2070
 7965SOL     OW35527   1.601   2.528   3.349  0.1957 -0.2291  0.1434
 7965SOL    HW135528   1.581   2.559   3.437  0.7319  0.3165  0.0702
 7965SOL    HW235529   1.551   2.446   3.342  0.0715 -0.2027  0.7486
 7966SOL     OW35530   0.688   1.150   3.486  0.3034  0.0542  0.2336
 7966SOL    HW135531   0.612   1.102   3.451  0.8121  0.9778 -2.0870
 7966SOL    HW235532   0.647   1.227   3.527 -0.4369 -1.0743  1.6604
 7967SOL     OW35533   3.860   0.579   4.001  0.0778 -0.2614 -0.3866
 7967SOL    HW135534   3.800   0.596   3.929 -0.8467  0.5340  0.5748
 7967SOL    HW235535   3.938   0.622   3.964  0.9481 -0.6327  1.0049
 7968SOL     OW35536   2.078   1.551   3.813  0.3814 -0.4132 -0.2689
 7968SOL    HW135537   2.171   1.565   3.829  0.2923 -0.4199  0.2571
 7968SOL    HW235538   2.080   1.563   3.718  1.2158 -2.8743 -0.5448
 7969SOL     OW35539   4.313   2.262   8.764 -0.3488 -0.0547  0.0029
 7969SOL    HW135540   4.363   2.259   8.682  0.2445  1.2675  0.3153
 7969SOL    HW235541   4.264   2.181   8.747  1.1372 -0.4177 -2.5644
 7970SOL     OW35542   0.894   4.319   9.294 -0.1854  0.1480  0.3882
 7970SOL    HW135543   0.858   4.245   9.244  0.4367  2.0207 -2.8426
 7970SOL    HW235544   0.876   4.287   9.382 -0.3810 -0.0902  0.2607
 7971SOL     OW35545   0.110   3.675   5.024 -0.5287 -0.2921  0.2642
 7971SOL    HW135546   0.185   3.645   4.973 -0.5715 -1.0995  0.6727
 7971SOL    HW235547   0.147   3.673   5.112  1.3456  0.3340 -0.5058
 7972SOL     OW35548   4.560   1.872   2.777 -0.1920 -0.0103  0.4258
 7972SOL    HW135549   4.547   1.958   2.737 -0.7395  0.6809  2.0905
 7972SOL    HW235550   4.607   1.900   2.855  0.7839 -1.0330  0.1994
 7973SOL     OW35551   1.327   0.432   9.228 -0.2373 -0.2262  0.3039
 7973SOL    HW135552   1.419   0.409   9.228  0.3862  2.2465  0.3449
 7973SOL    HW235553   1.283   0.358   9.186  2.4245 -1.7665  0.2819
 7974SOL     OW35554   2.302   3.370  13.123 -0.3496 -0.1227 -0.2831
 7974SOL    HW135555   2.350   3.334  13.197  2.0610  0.6233 -1.4826
 7974SOL    HW235556   2.249   3.292  13.107 -0.2813  0.0485 -1.3639
 7975SOL     OW35557   2.714   0.397   8.621  0.1863  0.3616  0.0521
 7975SOL    HW135558   2.791   0.449   8.644  1.3866 -2.6893  3.1085
 7975SOL    HW235559   2.639   0.448   8.650 -1.4778 -1.3295 -1.3215
 7976SOL     OW35560   1.782   1.694   2.167  0.1681  0.0387 -0.3696
 7976SOL    HW135561   1.808   1.770   2.115 -1.0741 -0.2471 -1.3997
 7976SOL    HW235562   1.854   1.633   2.153 -0.2899 -0.6593  0.3055
 7977SOL     OW35563   4.599   0.644  11.674 -0.0680 -0.0922  0.3146
 7977SOL    HW135564   4.627   0.631  11.765 -0.9865 -0.6899  0.5113
 7977SOL    HW235565   4.665   0.599  11.623  1.5259  1.4458  1.0126
 7978SOL     OW35566   1.664   1.887   5.474  0.1158  0.4257 -0.3583
 7978SOL    HW135567   1.730   1.904   5.407  0.7608 -2.0541 -0.3434
 7978SOL    HW235568   1.687   1.798   5.501  0.1051  0.2257 -1.0019
 7979SOL     OW35569   1.726   3.735   1.563  0.4205  0.5236 -0.0513
 7979SOL    HW135570   1.775   3.739   1.646 -0.8672  0.4690  0.7097
 7979SOL    HW235571   1.717   3.828   1.543 -1.8523  0.5392  1.1163
 7980SOL     OW35572   2.229   4.046   8.613 -0.1177 -0.0214 -0.1249
 7980SOL    HW135573   2.310   4.087   8.584 -0.5269 -1.1273 -2.8602
 7980SOL    HW235574   2.258   3.955   8.606  1.8898  0.7464 -1.9880
 7981SOL     OW35575   1.302   0.035  17.033  0.0582  0.2445 -0.1713
 7981SOL    HW135576   1.209   0.051  17.019  0.1751  0.8820 -0.2255
 7981SOL    HW235577   1.332   4.704  16.974  0.2656 -0.0743  0.2976
 7982SOL     OW35578   3.267   2.793  15.332 -0.4207 -0.5246  0.2560
 7982SOL    HW135579   3.306   2.791  15.244  0.9077  0.6167  0.8165
 7982SOL    HW235580   3.342   2.843  15.366 -0.3874 -0.7558  0.5190
 7983SOL     OW35581   0.931   0.252  15.496 -0.4602 -0.7626 -0.0383
 7983SOL    HW135582   0.839   0.227  15.493 -0.4588 -0.8393  0.5598
 7983SOL    HW235583   0.955   0.275  15.407  2.3497  0.0988  0.9266
 7984SOL     OW35584   0.762   3.302   0.714  0.3183  0.7863  0.1510
 7984SOL    HW135585   0.769   3.319   0.808 -0.1760  1.8684 -0.0107
 7984SOL    HW235586   0.844   3.258   0.692 -0.1790  0.7423 -1.6174
 7985SOL     OW35587   3.477   2.538   3.720  0.2844  0.6363  0.6036
 7985SOL    HW135588   3.471   2.615   3.777 -2.5292  0.9974 -0.1727
 7985SOL    HW235589   3.572   2.537   3.708  0.2678 -1.3073  0.6592
 7986SOL     OW35590   2.729   2.993  14.987 -0.5263  0.1422 -0.4913
 7986SOL    HW135591   2.682   3.076  14.998 -0.3114  0.3067 -0.8353
 7986SOL    HW235592   2.809   3.013  15.035 -0.7221 -0.8142  0.2265
 7987SOL     OW35593   2.849   1.399   4.846 -0.2650 -0.0782  0.0101
 7987SOL    HW135594   2.873   1.463   4.913 -1.1667 -0.1588  0.4096
 7987SOL    HW235595   2.931   1.350   4.847  0.0447  0.3745 -3.8583
 7988SOL     OW35596   4.642   0.730   3.688  0.0955 -0.3110 -0.1532
 7988SOL    HW135597   4.658   0.771   3.603 -2.3439 -0.2620 -0.5797
 7988SOL    HW235598   4.560   0.681   3.691  0.4395 -0.8791  0.1608
 7989SOL     OW35599   1.282   1.068   1.107  0.4167 -0.5043 -0.6799
 7989SOL    HW135600   1.205   1.122   1.093  0.1368 -0.7054  0.0562
 7989SOL    HW235601   1.237   0.988   1.133  0.2234  0.2019  1.1450
 7990SOL     OW35602   2.532   3.743   6.493 -0.0956 -0.0006  0.4786
 7990SOL    HW135603   2.556   3.690   6.416 -2.4399  0.8966 -0.8649
 7990SOL    HW235604   2.617   3.737   6.536  0.6434  1.2725 -0.8067
 7991SOL     OW35605   0.011   4.053   0.026  0.5258  0.3800 -0.3546
 7991SOL    HW135606   0.085   4.102  17.738  1.7729 -0.8609  0.5147
 7991SOL    HW235607   4.691   4.046  17.698  0.3997  0.4153 -0.2615
 7992SOL     OW35608   4.644   3.101   2.861 -0.4011 -0.3441 -0.2306
 7992SOL    HW135609   4.550   3.122   2.858 -0.2561  0.2516 -0.4924
 7992SOL    HW235610   4.640   3.050   2.942 -0.0778 -0.6406 -0.4016
 7993SOL     OW35611   3.963   3.658   7.217 -0.2058 -0.6476 -0.1658
 7993SOL    HW135612   3.904   3.668   7.292  0.5239 -1.1279  0.4741
 7993SOL    HW235613   4.045   3.691   7.253 -0.4981 -0.1433  0.0514
 7994SOL     OW35614   3.121   2.003   2.048  0.5801  0.0258 -0.2818
 7994SOL    HW135615   3.130   2.049   2.132  1.5264  0.6641 -0.7338
 7994SOL    HW235616   3.058   2.061   2.005  2.0052  0.8399 -1.2555
 7995SOL     OW35617   0.679   1.609   8.749  0.1269 -0.1749 -0.8054
 7995SOL    HW135618   0.719   1.695   8.751 -0.1184 -0.0862  0.6753
 7995SOL    HW235619   0.760   1.560   8.760  0.7210  0.8396 -0.7007
 7996SOL     OW35620   4.305   2.252   6.733 -0.5890 -0.1790 -0.2451
 7996SOL    HW135621   4.371   2.320   6.722 -1.0133  0.0530 -1.3706
 7996SOL    HW235622   4.311   2.224   6.824 -1.7050 -0.9407 -0.4023
 7997SOL     OW35623   1.942   0.378   2.986 -0.2468  0.0508 -0.2358
 7997SOL    HW135624   1.913   0.425   3.064  1.7091 -2.7624  2.2153
 7997SOL    HW235625   2.007   0.321   3.030 -1.6777 -0.6849  0.9427
 7998SOL     OW35626   1.800   1.914   7.146 -0.1656  0.2578  0.9712
 7998SOL    HW135627   1.760   1.964   7.075 -0.4671  1.4648  1.9946
 7998SOL    HW235628   1.731   1.852   7.170 -1.9574  2.2687  1.0889
 7999SOL     OW35629   0.458   1.705   0.849  0.0352  0.0474  0.2395
 7999SOL    HW135630   0.377   1.744   0.817 -0.0103  0.2322  0.5815
 7999SOL    HW235631   0.429   1.664   0.930  0.7982 -0.4789  0.2459
 8000SOL     OW35632   0.642   2.046  12.847  0.2404 -0.3424 -0.2453
 8000SOL    HW135633   0.670   2.129  12.809 -0.1795 -0.6245 -1.1746
 8000SOL    HW235634   0.548   2.063  12.856  0.1803 -1.4413  1.3583
 8001SOL     OW35635   4.654   1.972   9.817 -0.3000 -0.4217 -0.2031
 8001SOL    HW135636   4.667   2.037   9.886 -2.7719  0.4780 -0.6133
 8001SOL    HW235637   4.561   1.975   9.798 -0.2468 -1.7475 -0.7099
 8002SOL     OW35638   0.898   1.443   8.821 -0.4772  0.0781 -0.1014
 8002SOL    HW135639   0.852   1.364   8.850 -1.1168  0.1769 -0.8654
 8002SOL    HW235640   0.937   1.465   8.906 -1.7509 -0.6133  0.6655
 8003SOL     OW35641   1.225   0.398   8.540 -0.2194  0.5611  0.7016
 8003SOL    HW135642   1.196   0.331   8.602 -0.6908  0.8744  0.8219
 8003SOL    HW235643   1.318   0.399   8.564  0.0173  0.2878 -0.2388
 8004SOL     OW35644   1.340   3.337  10.638 -0.1050  0.2901  0.8552
 8004SOL    HW135645   1.344   3.331  10.543  0.6262 -0.0715  0.9045
 8004SOL    HW235646   1.266   3.396  10.653 -0.8383 -0.3886 -0.0907
 8005SOL     OW35647   2.202   3.714   3.229  0.0208  1.2265  0.1381
 8005SOL    HW135648   2.147   3.642   3.260  1.4433 -0.3071 -0.8748
 8005SOL    HW235649   2.269   3.714   3.298  0.7116 -1.9365 -0.5476
 8006SOL     OW35650   3.495   0.820  12.101 -0.5591  0.3467 -0.0522
 8006SOL    HW135651   3.525   0.753  12.162  0.9285 -0.4371 -1.6138
 8006SOL    HW235652   3.409   0.850  12.131 -0.6623 -0.6758  0.6703
 8007SOL     OW35653   0.716   2.427   6.532 -0.3659 -0.6676  0.0748
 8007SOL    HW135654   0.632   2.380   6.529  0.0685 -1.5141  0.9257
 8007SOL    HW235655   0.784   2.359   6.541 -1.0411 -1.2764  0.6154
 8008SOL     OW35656   3.117   0.886   3.457  0.0146 -0.8066  0.3986
 8008SOL    HW135657   3.029   0.916   3.477 -0.5320 -1.9665 -0.2521
 8008SOL    HW235658   3.102   0.831   3.381 -3.3547  2.0076 -0.9651
 8009SOL     OW35659   4.442   3.110   6.327 -0.5379  0.0445 -0.0896
 8009SOL    HW135660   4.503   3.183   6.319  1.5107 -1.8787 -2.3512
 8009SOL    HW235661   4.467   3.087   6.416  0.4619 -0.7512 -0.5727
 8010SOL     OW35662   2.716   1.155   3.196 -0.4977 -0.2264  0.3673
 8010SOL    HW135663   2.769   1.079   3.219 -2.3095 -1.4527  0.4996
 8010SOL    HW235664   2.655   1.135   3.125  2.3133 -1.3402 -1.7543
 8011SOL     OW35665   1.967   2.572  16.552  0.1286  0.1491  0.2279
 8011SOL    HW135666   2.012   2.650  16.584  0.9441 -0.3111  0.1956
 8011SOL    HW235667   2.011   2.552  16.469  1.7339 -2.2825  1.6950
 8012SOL     OW35668   3.147   4.151  15.399 -0.0591 -0.4909 -0.4259
 8012SOL    HW135669   3.135   4.060  15.370  0.1080 -0.3513 -0.9294
 8012SOL    HW235670   3.056   4.178  15.399  0.0538 -0.1405  2.6609
 8013SOL     OW35671   2.698   2.223   4.358 -0.4387  0.1876 -0.0482
 8013SOL    HW135672   2.737   2.149   4.311 -1.9615  0.7625 -2.2149
 8013SOL    HW235673   2.674   2.278   4.283 -0.9340 -1.7151 -1.2892
 8014SOL     OW35674   4.385   4.473   7.325 -0.0028  0.0079 -0.2155
 8014SOL    HW135675   4.393   4.568   7.313 -1.0060 -0.1114 -1.8066
 8014SOL    HW235676   4.402   4.474   7.420 -1.1903  0.3799  0.0037
 8015SOL     OW35677   1.532   3.727   6.353  0.2544  0.5465 -0.4286
 8015SOL    HW135678   1.473   3.799   6.377  0.9514 -0.1114  3.2237
 8015SOL    HW235679   1.605   3.746   6.412  0.2934 -0.3554 -0.1870
 8016SOL     OW35680   1.665   2.710   4.481  0.6976 -0.2744 -0.3194
 8016SOL    HW135681   1.683   2.635   4.424  0.6701  0.2400 -1.0030
 8016SOL    HW235682   1.708   2.684   4.562  0.6382 -0.2800 -0.2905
 8017SOL     OW35683   4.191   2.028   4.492 -0.3075 -0.0267  0.1948
 8017SOL    HW135684   4.260   2.029   4.559 -0.1414  0.6411  0.0086
 8017SOL    HW235685   4.110   2.015   4.541 -1.1127 -2.4911 -1.8441
 8018SOL     OW35686   0.790   0.988   4.199 -0.1240 -0.3763  1.0221
 8018SOL    HW135687   0.827   1.073   4.177  0.0747 -0.2144  1.9596
 8018SOL    HW235688   0.827   0.975   4.286 -0.0378  0.2124  1.0722
 8019SOL     OW35689   1.784   4.080  11.367 -0.2473  0.4039 -0.5850
 8019SOL    HW135690   1.793   4.086  11.462 -0.9760  0.9747 -0.5429
 8019SOL    HW235691   1.702   4.030  11.360  0.4675 -1.0846  1.9366
 8020SOL     OW35692   1.707   2.975   1.340 -0.1861  0.2409  0.4830
 8020SOL    HW135693   1.625   2.959   1.293  0.0653  1.6480 -0.4370
 8020SOL    HW235694   1.672   3.010   1.422  0.7814  0.2003  0.9037
 8021SOL     OW35695   4.059   1.324   6.652 -0.1799 -0.0754 -0.1132
 8021SOL    HW135696   3.967   1.346   6.638  0.3548  0.6729 -2.4993
 8021SOL    HW235697   4.087   1.415   6.666 -1.2634  0.1506  0.5623
 8022SOL     OW35698   2.517   1.897  10.111 -0.3529 -0.0959  0.1563
 8022SOL    HW135699   2.547   1.910  10.021 -0.9738 -0.5111 -0.1171
 8022SOL    HW235700   2.588   1.942  10.156  0.7301  0.4206 -2.0566
 8023SOL     OW35701   0.501   1.009   6.583  0.8590  0.1417  0.0253
 8023SOL    HW135702   0.569   1.024   6.648  0.1655 -0.2949  0.8595
 8023SOL    HW235703   0.535   0.954   6.513  1.5843 -0.3755  0.7897
 8024SOL     OW35704   3.261   2.393   3.323  0.1792 -0.0814  0.6592
 8024SOL    HW135705   3.345   2.365   3.287 -0.4555  0.9871 -1.6284
 8024SOL    HW235706   3.295   2.449   3.393 -0.8549 -1.0854  1.9581
 8025SOL     OW35707   0.840   4.080   5.790  0.0945 -0.0346 -0.1374
 8025SOL    HW135708   0.921   4.038   5.761  1.7183  2.4452  0.8203
 8025SOL    HW235709   0.864   4.172   5.792  0.8043 -0.2083 -0.8458
 8026SOL     OW35710   3.829   3.425   8.948 -0.2198 -0.1229  0.2153
 8026SOL    HW135711   3.807   3.346   8.998  2.7359 -0.5369  0.8753
 8026SOL    HW235712   3.874   3.376   8.879  1.0821  0.3189  0.7404
 8027SOL     OW35713   1.654   2.846   4.269  0.0470 -0.1561  0.4261
 8027SOL    HW135714   1.645   2.800   4.352 -0.1073  1.3318  1.2283
 8027SOL    HW235715   1.579   2.809   4.223  1.1479  0.4314 -1.8751
 8028SOL     OW35716   1.118   1.046   8.356  0.4821  0.2542  0.1531
 8028SOL    HW135717   1.101   1.127   8.404 -0.1896 -1.3227  2.5703
 8028SOL    HW235718   1.093   0.982   8.422 -0.1137  2.0439  1.6531
 8029SOL     OW35719   3.816   2.470   6.001 -0.3602  0.3311  0.0083
 8029SOL    HW135720   3.801   2.443   5.911 -2.0561  1.0910  0.0555
 8029SOL    HW235721   3.874   2.402   6.034  0.7756  1.7402  0.9486
 8030SOL     OW35722   1.060   1.012   2.394 -0.0774 -0.1326  0.8534
 8030SOL    HW135723   1.122   1.039   2.327  0.8336  0.8024  2.0708
 8030SOL    HW235724   1.012   0.941   2.352  0.3685  0.1041 -0.0473
 8031SOL     OW35725   4.648   3.366   5.650  0.5522  0.0528 -0.4419
 8031SOL    HW135726   4.628   3.439   5.708  0.6415 -0.7582  0.6224
 8031SOL    HW235727   4.705   3.310   5.703 -1.6329 -1.9364 -0.1632
 8032SOL     OW35728   0.097   3.735  10.987  0.1717  0.0480  0.5269
 8032SOL    HW135729   0.021   3.744  10.929 -0.4854 -1.3321  1.1838
 8032SOL    HW235730   0.121   3.825  11.008  0.3329  0.5328 -1.6692
 8033SOL     OW35731   1.511   4.153   1.630 -0.1981  0.0056  0.5397
 8033SOL    HW135732   1.487   4.119   1.716  1.6538  0.4382  1.2280
 8033SOL    HW235733   1.430   4.198   1.606 -0.1690  1.2462  2.8172
 8034SOL     OW35734   1.408   0.003   5.454 -0.4524  0.4964 -0.0530
 8034SOL    HW135735   1.394   0.084   5.405 -2.0917  0.8457  0.9838
 8034SOL    HW235736   1.345   0.022   5.523  1.3651  0.6177  1.5933
 8035SOL     OW35737   4.306   4.583   1.189  0.3655 -0.3844  0.0175
 8035SOL    HW135738   4.364   4.657   1.210 -0.9105  0.1752  1.5051
 8035SOL    HW235739   4.227   4.630   1.162  1.1245  0.9345  0.0748
 8036SOL     OW35740   1.401   2.287  16.330  0.3460  0.7149  0.1978
 8036SOL    HW135741   1.366   2.262  16.415  0.1256 -0.5393 -0.2566
 8036SOL    HW235742   1.384   2.381  16.339 -1.9511  0.1523  1.7438
 8037SOL     OW35743   0.546   1.124   5.615 -0.4456  0.4479 -0.4173
 8037SOL    HW135744   0.467   1.177   5.609  0.0313  1.2471  0.3597
 8037SOL    HW235745   0.553   1.148   5.707 -0.9619 -2.4386  0.3580
 8038SOL     OW35746   0.539   1.884  17.038 -0.6100 -0.1316 -0.1192
 8038SOL    HW135747   0.595   1.935  17.097  1.0726 -1.7542 -0.2978
 8038SOL    HW235748   0.600   1.812  17.023 -0.8226 -0.1475 -0.8980
 8039SOL     OW35749   0.912   4.328   5.752 -0.0500 -0.1498 -0.0664
 8039SOL    HW135750   0.972   4.386   5.703 -1.0335 -0.8990 -2.1550
 8039SOL    HW235751   0.832   4.381   5.746  0.2790  0.2625 -0.8835
 8040SOL     OW35752   4.384   3.065   7.795 -0.1366  0.4724  0.2577
 8040SOL    HW135753   4.309   3.005   7.791  1.2427 -1.3109  0.8245
 8040SOL    HW235754   4.345   3.142   7.753  0.1478 -0.5515 -1.8926
 8041SOL     OW35755   0.044   0.281   3.618  0.6743  0.5620  0.2147
 8041SOL    HW135756   0.058   0.322   3.703 -1.3917  1.6045  0.0496
 8041SOL    HW235757   0.067   0.190   3.638  0.3507  0.1866 -1.1038
 8042SOL     OW35758   2.538   3.593   7.876 -0.2979  0.3142 -0.9874
 8042SOL    HW135759   2.480   3.548   7.938  1.0360 -0.3108 -0.1907
 8042SOL    HW235760   2.520   3.685   7.894  1.9955  0.4481  0.6189
 8043SOL     OW35761   1.593   1.810   8.611 -0.0789 -0.1149 -0.7896
 8043SOL    HW135762   1.609   1.904   8.605  1.0452 -0.0962  2.4242
 8043SOL    HW235763   1.605   1.784   8.520 -0.9468  2.3090 -1.5840
 8044SOL     OW35764   3.890   4.021   6.964 -0.2632  0.2003  0.2592
 8044SOL    HW135765   3.952   4.004   7.034 -0.2462  0.2655  0.2605
 8044SOL    HW235766   3.936   3.982   6.889 -0.5081  1.2848 -0.4671
 8045SOL     OW35767   2.413   3.288   6.227 -0.5533  0.0158  0.5731
 8045SOL    HW135768   2.436   3.326   6.312  0.4433 -1.2859  0.8803
 8045SOL    HW235769   2.499   3.281   6.185 -0.1335  0.6461  1.3174
 8046SOL     OW35770   4.346   3.642   5.422 -0.5696 -0.1806  0.8735
 8046SOL    HW135771   4.373   3.727   5.385 -2.4868 -1.3325 -3.2162
 8046SOL    HW235772   4.252   3.648   5.404 -0.2194 -2.6771 -1.7329
 8047SOL     OW35773   0.203   1.634   6.156 -0.1876 -0.0307 -0.2279
 8047SOL    HW135774   0.217   1.701   6.090 -0.6658 -0.7700 -1.0886
 8047SOL    HW235775   0.164   1.560   6.109 -3.4656  1.5392  0.0221
 8048SOL     OW35776   2.801   4.630   6.873 -0.2754  0.0849  0.1347
 8048SOL    HW135777   2.750   4.677   6.806 -3.0925 -2.1328  0.7061
 8048SOL    HW235778   2.885   4.675   6.873  0.5712 -1.4947 -0.4524
 8049SOL     OW35779   3.052   2.915  11.838 -0.1412  0.8489  0.0917
 8049SOL    HW135780   3.013   2.997  11.867  2.4501  1.7052  1.1359
 8049SOL    HW235781   3.007   2.899  11.754  2.7767  1.0070 -1.4915
 8050SOL     OW35782   2.894   1.702   1.434  0.4277 -0.1123 -0.6519
 8050SOL    HW135783   2.974   1.651   1.444  0.0505 -0.4184  0.8157
 8050SOL    HW235784   2.861   1.712   1.523  2.1470  0.5444 -0.0871
 8051SOL     OW35785   3.009   1.297   5.628  0.2329  0.1228 -0.1109
 8051SOL    HW135786   3.076   1.311   5.561  2.7993 -1.6067  2.0621
 8051SOL    HW235787   2.958   1.236   5.575  1.9527 -1.7197  0.3742
 8052SOL     OW35788   3.482   3.446  13.390 -0.1950 -0.4927  0.3076
 8052SOL    HW135789   3.523   3.411  13.468  1.5264 -2.2995 -1.4044
 8052SOL    HW235790   3.552   3.507  13.368  0.0885 -1.4038 -1.3110
 8053SOL     OW35791   4.605   3.600   5.203  0.2306  0.2579  0.0610
 8053SOL    HW135792   4.620   3.603   5.297 -1.3780 -2.2421  0.3845
 8053SOL    HW235793   4.632   3.510   5.184 -0.6288  0.4720 -2.2501
 8054SOL     OW35794   1.485   0.474  10.749 -0.4447  0.6768  0.2014
 8054SOL    HW135795   1.393   0.475  10.776 -0.3521  1.9265  0.4636
 8054SOL    HW235796   1.514   0.565  10.757 -0.3376  0.7170 -0.6443
 8055SOL     OW35797   1.960   4.663   5.643  0.1636 -0.3815  0.1636
 8055SOL    HW135798   2.035   4.612   5.673  0.6850 -0.0752 -0.6184
 8055SOL    HW235799   1.950   4.610   5.564 -0.9337  1.2583 -0.7864
 8056SOL     OW35800   2.731   3.110   8.007  0.3146 -0.2140  0.1533
 8056SOL    HW135801   2.802   3.158   7.964  0.8443 -0.7806  0.3910
 8056SOL    HW235802   2.656   3.134   7.953 -2.6218 -2.4006  3.2470
 8057SOL     OW35803   4.697   0.371   7.073 -0.5593  0.0320  0.2885
 8057SOL    HW135804   4.613   0.380   7.028 -0.1062 -0.5294 -0.6784
 8057SOL    HW235805   4.677   0.420   7.152  0.7264  0.1109  0.5709
 8058SOL     OW35806   3.120   4.263   3.391 -0.2202 -0.7341  0.3854
 8058SOL    HW135807   3.173   4.232   3.465 -0.1480  0.2157  0.7239
 8058SOL    HW235808   3.045   4.205   3.400 -0.5022 -0.5226 -0.6280
 8059SOL     OW35809   0.652   2.154   2.044  0.0012  0.2712 -0.5499
 8059SOL    HW135810   0.666   2.206   1.965 -0.4346  0.0320 -0.7815
 8059SOL    HW235811   0.732   2.106   2.020  1.1752  0.9315  1.9939
 8060SOL     OW35812   3.271   2.671   7.799  0.1368  0.5071  0.1471
 8060SOL    HW135813   3.201   2.722   7.841  0.1242  0.4734  0.1666
 8060SOL    HW235814   3.342   2.735   7.795  0.1048  0.6195  1.2836
 8061SOL     OW35815   0.989   3.190   6.201 -0.2915  0.2953  0.2902
 8061SOL    HW135816   0.900   3.162   6.220 -0.5150  0.5170 -0.4503
 8061SOL    HW235817   0.975   3.283   6.222 -0.6909  0.2715  0.1305
 8062SOL     OW35818   3.881   0.939  12.740  0.1199  0.0618 -0.0117
 8062SOL    HW135819   3.809   0.928  12.802 -0.2409 -3.2236 -1.0203
 8062SOL    HW235820   3.954   0.882  12.767 -0.3147  0.0097  1.0271
 8063SOL     OW35821   2.951   3.926   3.216  0.4497  0.2345 -0.0611
 8063SOL    HW135822   2.977   4.018   3.225  1.5333 -0.0444 -0.2781
 8063SOL    HW235823   3.032   3.880   3.196  0.8264  0.9742 -0.2689
 8064SOL     OW35824   3.490   4.057   7.429  0.0231 -1.4933 -0.3102
 8064SOL    HW135825   3.419   4.063   7.493  1.1363  0.5237  0.7426
 8064SOL    HW235826   3.556   4.022   7.489  0.1789 -0.4262  0.1518
 8065SOL     OW35827   4.647   3.789  15.960  0.2827 -0.2911  0.2350
 8065SOL    HW135828   4.635   3.787  15.865  1.3249 -0.6523  0.1059
 8065SOL    HW235829   4.557   3.766  15.985  0.1349  0.4269  0.3495
 8066SOL     OW35830   0.268   4.502   7.307 -0.2991  0.2555 -0.2789
 8066SOL    HW135831   0.306   4.541   7.229 -1.2061 -1.6257 -1.6809
 8066SOL    HW235832   0.289   4.562   7.378 -0.6220 -1.5957  1.3736
 8067SOL     OW35833   2.917   1.095  10.626 -0.2561 -0.1473 -0.6538
 8067SOL    HW135834   2.993   1.051  10.665 -0.9073  0.1461  0.9497
 8067SOL    HW235835   2.897   1.029  10.560  0.3426  0.1636 -1.1440
 8068SOL     OW35836   4.382   1.510   4.335 -0.5565  0.0221 -0.2263
 8068SOL    HW135837   4.457   1.567   4.321  0.4582 -0.8059  1.8492
 8068SOL    HW235838   4.403   1.482   4.425  0.1845  1.7312  0.1213
 8069SOL     OW35839   3.764   1.129   9.282 -0.1260  0.1196 -0.8003
 8069SOL    HW135840   3.719   1.081   9.212 -1.1295  2.1257 -1.5277
 8069SOL    HW235841   3.824   1.067   9.322 -0.0941  1.6401  1.5319
 8070SOL     OW35842   3.418   0.746   8.669 -0.3961  0.4306  0.6439
 8070SOL    HW135843   3.376   0.665   8.640  0.9235  0.2508 -0.7336
 8070SOL    HW235844   3.367   0.814   8.625  1.3423  0.6945 -0.9375
 8071SOL     OW35845   3.625   3.030   6.945 -0.2798 -0.2133  0.2267
 8071SOL    HW135846   3.543   3.047   6.991  0.8525 -1.6245  2.7591
 8071SOL    HW235847   3.636   3.114   6.901  1.8775 -0.3141  0.5924
 8072SOL     OW35848   0.444   1.704   8.563 -0.1714 -0.4077 -0.1502
 8072SOL    HW135849   0.366   1.692   8.619 -0.7185  0.7318 -0.6736
 8072SOL    HW235850   0.516   1.661   8.610  0.8178  1.5254  0.0810
 8073SOL     OW35851   0.257   0.561  13.741  0.5966 -0.3481  0.0142
 8073SOL    HW135852   0.269   0.630  13.806  0.2209  1.5145 -1.8659
 8073SOL    HW235853   0.253   0.613  13.660 -0.6606 -1.1258 -0.4201
 8074SOL     OW35854   0.352   4.199   5.227 -0.1277  0.0268 -0.3481
 8074SOL    HW135855   0.303   4.233   5.152 -1.2027  1.2216  0.8930
 8074SOL    HW235856   0.277   4.180   5.282 -0.0646 -0.7531 -0.5306
 8075SOL     OW35857   2.029   0.220   6.114  0.3558 -0.0271 -0.3101
 8075SOL    HW135858   2.044   0.218   6.208  1.7334 -1.0888 -0.5628
 8075SOL    HW235859   2.075   0.298   6.082 -1.5453  1.1363 -0.2261
 8076SOL     OW35860   2.661   0.887  11.207  0.3048 -0.1066  0.6168
 8076SOL    HW135861   2.659   0.847  11.120  1.3177 -0.3430  0.7013
 8076SOL    HW235862   2.658   0.980  11.183  1.2252 -0.4447 -0.8281
 8077SOL     OW35863   3.819   4.403   1.093 -0.2667  0.2619 -0.3599
 8077SOL    HW135864   3.866   4.470   1.142  0.4557 -0.5271  0.0181
 8077SOL    HW235865   3.893   4.360   1.051  1.0873  1.1188  1.1204
 8078SOL     OW35866   4.087   4.434   4.050  0.3240 -0.1739 -0.1901
 8078SOL    HW135867   4.181   4.415   4.055  0.7531  1.4318 -1.9917
 8078SOL    HW235868   4.063   4.361   3.994 -1.3582 -1.1521  1.8315
 8079SOL     OW35869   3.203   1.612  10.914 -0.3094  0.1770 -0.4502
 8079SOL    HW135870   3.260   1.637  10.841  0.2578  0.2021  0.0047
 8079SOL    HW235871   3.152   1.540  10.876 -0.4567 -0.0391  0.1639
 8080SOL     OW35872   2.569   4.232   6.810  0.1297 -0.6414 -0.2194
 8080SOL    HW135873   2.633   4.301   6.829 -1.1509  0.1776  1.0303
 8080SOL    HW235874   2.609   4.161   6.861  1.2726 -0.6519 -1.1182
 8081SOL     OW35875   0.033   1.644   1.948 -1.2560  0.0359  0.5631
 8081SOL    HW135876   4.731   1.713   2.000  0.9233  1.1953  0.7054
 8081SOL    HW235877   4.694   1.607   1.904 -0.9366 -1.3061  1.1180
 8082SOL     OW35878   0.001   0.119   3.332  0.8852 -0.0107 -0.4221
 8082SOL    HW135879   0.071   0.122   3.398  2.8557  2.2049 -2.5666
 8082SOL    HW235880   0.025   0.193   3.275  1.1908  0.6392  0.5436
 8083SOL     OW35881   3.555   0.904   4.909  0.4019  0.0592  0.0360
 8083SOL    HW135882   3.497   0.975   4.880  1.5914 -0.4079 -3.5121
 8083SOL    HW235883   3.508   0.831   4.869  2.1888 -0.1864 -1.6134
 8084SOL     OW35884   3.911   0.579   5.174  0.3458 -0.5720  0.3371
 8084SOL    HW135885   3.999   0.616   5.181  0.5534 -0.2682 -3.8352
 8084SOL    HW235886   3.887   0.625   5.094 -2.5837  1.2662  2.2711
 8085SOL     OW35887   1.448   3.570   6.152 -0.6429 -0.4222 -0.5867
 8085SOL    HW135888   1.497   3.625   6.212 -0.7322 -1.8302  0.7605
 8085SOL    HW235889   1.453   3.620   6.070 -0.6881  0.2996 -0.1423
 8086SOL     OW35890   0.544   2.955   8.811  0.5929  0.9121  0.6979
 8086SOL    HW135891   0.537   3.036   8.861  1.8712  1.1228  0.5326
 8086SOL    HW235892   0.473   2.905   8.852  0.4191 -0.1272 -0.8578
 8087SOL     OW35893   1.236   0.921  15.578  0.0732 -0.4335  0.2697
 8087SOL    HW135894   1.223   1.012  15.606  1.6363 -0.8347  2.2350
 8087SOL    HW235895   1.295   0.883  15.643  0.1836 -0.9629 -0.1450
 8088SOL     OW35896   3.213   0.157   6.665 -0.3658 -0.0050 -0.0283
 8088SOL    HW135897   3.220   0.251   6.682  0.3241  0.1247 -1.0820
 8088SOL    HW235898   3.294   0.126   6.706 -0.9236 -2.8322 -1.0944
 8089SOL     OW35899   3.431   3.064  11.281 -0.1561  0.9676 -0.4797
 8089SOL    HW135900   3.418   3.040  11.373  0.1388  0.2147 -0.6365
 8089SOL    HW235901   3.524   3.051  11.262 -0.3207  0.3594 -0.8697
 8090SOL     OW35902   4.262   4.003   3.894 -0.2234  0.1796 -0.2819
 8090SOL    HW135903   4.349   4.007   3.855 -0.5524  0.7902 -0.9761
 8090SOL    HW235904   4.211   4.022   3.814  1.0367 -0.2428 -1.1875
 8091SOL     OW35905   3.009   1.909  10.667  0.5497  0.2448  0.2148
 8091SOL    HW135906   2.950   1.853  10.717 -0.1382  0.7069 -0.0799
 8091SOL    HW235907   2.948   1.981  10.652  0.9119  0.4849 -0.1148
 8092SOL     OW35908   2.999   1.807   4.901  0.2811  0.0790  0.3874
 8092SOL    HW135909   2.997   1.805   4.997  3.9093  0.8110  0.4972
 8092SOL    HW235910   3.006   1.902   4.893 -3.7756  0.3218 -0.3260
 8093SOL     OW35911   0.569   1.605   6.043  0.3069  0.1935  0.3295
 8093SOL    HW135912   0.587   1.651   6.125 -0.5350  2.1610 -0.6077
 8093SOL    HW235913   0.518   1.663   5.987 -0.9463 -0.8256  0.4252
 8094SOL     OW35914   4.716   4.131  13.803 -0.3522  0.3125 -0.2584
 8094SOL    HW135915   0.002   4.056  13.857  2.2124  1.1555 -0.2138
 8094SOL    HW235916   0.045   4.194  13.830 -1.2542  0.6102  1.2762
 8095SOL     OW35917   2.318   1.320   7.283  0.1840  0.5969  0.1234
 8095SOL    HW135918   2.313   1.255   7.214  2.5467 -1.1570  1.6105
 8095SOL    HW235919   2.400   1.295   7.326  0.0499  0.2298  0.1649
 8096SOL     OW35920   2.516   1.891   1.368  0.0801 -0.2327  0.3841
 8096SOL    HW135921   2.609   1.875   1.356 -0.2494 -1.1976 -0.7906
 8096SOL    HW235922   2.519   1.892   1.464  0.4457  1.1576  0.3613
 8097SOL     OW35923   0.179   1.386   4.784  0.6876  0.9243  0.3480
 8097SOL    HW135924   0.238   1.330   4.734  0.0572 -1.0357  1.7905
 8097SOL    HW235925   0.132   1.436   4.716 -0.0475 -0.7818 -0.3881
 8098SOL     OW35926   4.627   3.188   6.067 -0.0599  0.4655  0.3386
 8098SOL    HW135927   4.656   3.238   6.144 -0.4719  0.0216  0.7835
 8098SOL    HW235928   4.532   3.187   6.070 -0.1043  2.2479 -0.3782
 8099SOL     OW35929   2.769   3.372  10.108 -0.6147  0.1834 -0.3806
 8099SOL    HW135930   2.814   3.440  10.056  0.5483 -0.3999 -0.1333
 8099SOL    HW235931   2.792   3.390  10.199 -0.2375  1.2162 -0.6718
 8100SOL     OW35932   1.830   0.489   1.932  0.5548 -0.2334 -0.2572
 8100SOL    HW135933   1.787   0.493   2.018  0.3519  2.3507 -0.4802
 8100SOL    HW235934   1.754   0.511   1.878  0.3019  0.3510  0.3387
 8101SOL     OW35935   2.756   2.591   2.685  0.3186 -0.7242 -0.2115
 8101SOL    HW135936   2.703   2.546   2.751 -1.0771  2.2042  0.6512
 8101SOL    HW235937   2.700   2.667   2.669  2.4230  0.7523 -0.6619
 8102SOL     OW35938   1.308   0.125  10.029  0.5038 -0.2598  0.1478
 8102SOL    HW135939   1.372   0.187  10.063 -0.2926  0.0933  1.0002
 8102SOL    HW235940   1.369   0.094   9.961  0.7023 -1.2204  0.7501
 8103SOL     OW35941   2.984   1.409  13.306  0.6349  0.1150 -0.0991
 8103SOL    HW135942   2.935   1.362  13.239 -0.3569  2.1627 -0.8210
 8103SOL    HW235943   3.013   1.476  13.244  1.8953  0.6400  1.0736
 8104SOL     OW35944   4.176   1.639   8.284 -0.8752  0.2467 -0.4864
 8104SOL    HW135945   4.097   1.672   8.241 -1.4157  1.4878  1.4610
 8104SOL    HW235946   4.228   1.603   8.212 -2.2340 -1.8738 -0.3914
 8105SOL     OW35947   4.235   0.462   4.236  0.0699  0.3481  0.4284
 8105SOL    HW135948   4.140   0.473   4.245 -0.1614 -1.8638  0.6760
 8105SOL    HW235949   4.249   0.368   4.249  0.5695  0.1178 -1.8219
 8106SOL     OW35950   3.453   0.350   2.318 -0.4233 -0.4244  0.2634
 8106SOL    HW135951   3.482   0.385   2.402  1.0308 -0.5099 -0.2055
 8106SOL    HW235952   3.361   0.376   2.319 -0.9539 -2.2441  0.5556
 8107SOL     OW35953   0.076   2.603   3.430  0.7541 -0.0991 -0.5587
 8107SOL    HW135954   4.728   2.612   3.387  0.9255  1.7584 -0.5162
 8107SOL    HW235955   0.050   2.575   3.518  0.5449  0.7780 -0.3442
 8108SOL     OW35956   3.685   1.685  13.049  0.1314 -0.2273  0.2048
 8108SOL    HW135957   3.713   1.642  13.129  0.6090 -0.3480 -0.0279
 8108SOL    HW235958   3.661   1.609  12.995  0.5900  0.9390 -1.6615
 8109SOL     OW35959   0.546   3.942   9.785 -0.0585 -0.5291  0.0733
 8109SOL    HW135960   0.595   3.861   9.799  0.3140 -0.2469  0.3931
 8109SOL    HW235961   0.584   3.977   9.705 -0.9798 -2.5198 -1.2457
 8110SOL     OW35962   0.672   3.565   2.431  0.0400  0.5534  0.0273
 8110SOL    HW135963   0.668   3.564   2.335 -0.3939  2.3969  0.0173
 8110SOL    HW235964   0.628   3.649   2.446 -3.0888 -0.9223 -0.7239
 8111SOL     OW35965   4.224   0.102   7.872 -0.1829 -0.2235 -0.6913
 8111SOL    HW135966   4.245   0.139   7.957  1.1939 -0.9140 -0.7383
 8111SOL    HW235967   4.134   0.133   7.858  0.2775  1.6943  0.7056
 8112SOL     OW35968   0.765   0.185   9.775  0.0783  0.1816  0.1841
 8112SOL    HW135969   0.854   0.179   9.740 -0.1338  0.9965 -0.4780
 8112SOL    HW235970   0.768   0.276   9.805 -1.5369  0.9129 -1.9739
 8113SOL     OW35971   1.211   1.766  11.711  0.0256  0.4774  0.3705
 8113SOL    HW135972   1.305   1.775  11.698  0.0196 -1.5024 -1.1571
 8113SOL    HW235973   1.203   1.752  11.805 -1.2199 -0.1064  0.1828
 8114SOL     OW35974   0.311   3.592  17.154  0.1652 -0.4884 -0.1208
 8114SOL    HW135975   0.223   3.628  17.151  1.1907  2.0221 -0.7733
 8114SOL    HW235976   0.344   3.605  17.065 -0.2076  2.2507  0.1431
 8115SOL     OW35977   2.820   1.197   6.667 -0.7003  0.0757 -0.1452
 8115SOL    HW135978   2.762   1.260   6.624 -0.1749  0.7181  0.0832
 8115SOL    HW235979   2.870   1.252   6.727 -1.2405  0.8978 -0.4354
 8116SOL     OW35980   3.959   1.002   8.903 -0.3266  0.0307  0.8552
 8116SOL    HW135981   3.881   1.050   8.877 -0.8655 -0.5185  1.4684
 8116SOL    HW235982   4.026   1.070   8.899 -0.3653  0.0662  0.8111
 8117SOL     OW35983   3.893   0.115   7.067  0.4760 -0.5257 -0.5474
 8117SOL    HW135984   3.959   0.062   7.022  1.6799 -0.1043  0.6993
 8117SOL    HW235985   3.870   0.058   7.140 -0.5574  0.1700 -0.3252
 8118SOL     OW35986   1.434   1.627   2.102 -0.0859 -0.3892 -0.3026
 8118SOL    HW135987   1.405   1.585   2.022 -0.2929 -0.0459 -0.4077
 8118SOL    HW235988   1.505   1.568   2.128 -0.7908 -1.3184 -0.4983
 8119SOL     OW35989   4.689   4.426   3.560  0.2524 -0.1391  0.0485
 8119SOL    HW135990   4.671   4.333   3.546 -0.6343  0.2409 -1.4239
 8119SOL    HW235991   4.619   4.444   3.623 -0.1603 -1.2478 -0.0911
 8120SOL     OW35992   2.641   0.706  16.855 -0.1312  0.3270  0.1678
 8120SOL    HW135993   2.637   0.611  16.870 -1.2341  0.3504  0.0240
 8120SOL    HW235994   2.645   0.741  16.944 -0.9647  0.7065  0.0559
 8121SOL     OW35995   0.149   1.221   7.031 -0.5871 -0.5721 -0.2677
 8121SOL    HW135996   0.215   1.201   6.964 -0.5314 -0.1307 -0.3397
 8121SOL    HW235997   0.070   1.203   6.979 -1.0150 -0.6060  0.3965
 8122SOL     OW35998   4.610   2.921   9.022  0.1104 -0.8451  0.2587
 8122SOL    HW135999   4.605   2.874   8.939  1.2698 -0.9264  0.2338
 8122SOL    HW236000   4.704   2.908   9.034  0.4400 -0.3276 -1.7288
 8123SOL     OW36001   1.715   0.450   9.063 -0.2770 -0.0504  0.0047
 8123SOL    HW136002   1.673   0.366   9.046  0.7788 -0.5241 -0.2545
 8123SOL    HW236003   1.756   0.434   9.148 -1.3344 -0.8554  0.3602
 8124SOL     OW36004   4.219   4.592   7.823  0.4081  0.5495 -0.2582
 8124SOL    HW136005   4.124   4.582   7.830  0.5937 -1.7298 -0.8639
 8124SOL    HW236006   4.221   4.686   7.838  0.0323  0.4661  0.3187
 8125SOL     OW36007   1.604   0.264   9.313 -0.0411 -0.5795 -0.5986
 8125SOL    HW136008   1.699   0.258   9.300  0.0967 -0.1181  0.2192
 8125SOL    HW236009   1.598   0.342   9.368 -0.4612 -0.6546 -0.5371
 8126SOL     OW36010   2.218   0.037   8.336  0.0316 -0.1648  0.0434
 8126SOL    HW136011   2.138   0.033   8.387  0.1911 -0.5390  0.2654
 8126SOL    HW236012   2.279   4.722   8.387  1.3167 -1.4176 -2.7657
 8127SOL     OW36013   1.597   4.249   3.793 -0.1630 -0.2005 -0.0195
 8127SOL    HW136014   1.658   4.231   3.721 -0.0798  2.4824 -0.5970
 8127SOL    HW236015   1.657   4.235   3.867 -1.7293  1.8139  1.6224
 8128SOL     OW36016   2.304   4.248   6.757 -0.4483 -0.0633  0.2317
 8128SOL    HW136017   2.396   4.224   6.764 -0.0728  1.3960  0.3402
 8128SOL    HW236018   2.307   4.343   6.743  2.9244 -0.2028  0.0041
 8129SOL     OW36019   1.373   3.457   3.727  0.1419 -0.0188 -0.0659
 8129SOL    HW136020   1.451   3.468   3.782  0.4359 -0.7170 -0.3354
 8129SOL    HW236021   1.314   3.528   3.750 -0.3323  0.0053 -1.4028
 8130SOL     OW36022   0.890   2.174   2.420 -0.7191 -0.0250  0.3763
 8130SOL    HW136023   0.917   2.120   2.345  3.9667  1.7498  0.7617
 8130SOL    HW236024   0.963   2.159   2.480  0.5293  0.0411 -1.1213
 8131SOL     OW36025   3.445   1.910   9.385 -0.1043 -0.1236 -0.4244
 8131SOL    HW136026   3.441   1.999   9.419 -2.5219  0.0724 -1.2403
 8131SOL    HW236027   3.500   1.865   9.449  0.6396 -0.5477 -1.3492
 8132SOL     OW36028   0.236   1.631   2.175  0.1805 -0.0096 -0.3128
 8132SOL    HW136029   0.308   1.678   2.132 -0.0320 -1.7276 -2.5536
 8132SOL    HW236030   0.178   1.705   2.192  0.3800 -0.0770  0.6780
 8133SOL     OW36031   0.886   1.478  16.826  0.1603  0.0262  0.4754
 8133SOL    HW136032   0.821   1.415  16.794  2.7146 -2.8802  1.0638
 8133SOL    HW236033   0.956   1.473  16.761  0.5153 -0.6002  0.9057
 8134SOL     OW36034   0.217   4.164   2.382  0.3657 -0.4253  0.0858
 8134SOL    HW136035   0.139   4.193   2.335  0.1957 -1.4427 -0.2683
 8134SOL    HW236036   0.251   4.096   2.323  0.4812 -0.9928  0.8089
 8135SOL     OW36037   1.673   3.567   3.016 -0.5046 -0.6784  0.4833
 8135SOL    HW136038   1.592   3.558   2.967  0.3850  0.0722 -1.1392
 8135SOL    HW236039   1.710   3.647   2.978 -1.3331 -0.4872  0.0829
 8136SOL     OW36040   4.581   4.501  12.891 -0.3892  0.5074 -0.6663
 8136SOL    HW136041   4.570   4.408  12.875 -0.6840  0.3101  0.6571
 8136SOL    HW236042   4.672   4.503  12.861  0.1380  0.0114  0.9048
 8137SOL     OW36043   2.418   4.602   1.650  0.7111 -0.0198 -0.4493
 8137SOL    HW136044   2.449   4.623   1.738 -1.5859  0.0457  0.3418
 8137SOL    HW236045   2.421   4.689   1.610 -3.5526  0.0821 -0.6279
 8138SOL     OW36046   2.435   4.056   4.471 -0.2647  0.2926  0.5552
 8138SOL    HW136047   2.428   3.980   4.529 -1.5122 -2.1350 -2.7772
 8138SOL    HW236048   2.504   4.030   4.410 -1.1811  1.1825 -0.8619
 8139SOL     OW36049   2.642   0.221  17.175 -0.2961 -0.1801 -0.2134
 8139SOL    HW136050   2.548   0.218  17.153 -0.4045 -0.1345  0.2461
 8139SOL    HW236051   2.646   0.245  17.268  0.7593 -1.5652  0.0880
 8140SOL     OW36052   2.079   2.140  14.907 -0.3141  0.1603  0.1290
 8140SOL    HW136053   2.140   2.213  14.898 -0.4061  0.2586  0.3160
 8140SOL    HW236054   1.995   2.186  14.915  0.2049  0.6704  2.4055
 8141SOL     OW36055   2.126   3.335   4.281 -0.1198  0.2035  0.0637
 8141SOL    HW136056   2.057   3.343   4.347 -1.1566 -0.5146 -0.9118
 8141SOL    HW236057   2.154   3.427   4.285  2.7656 -0.6048 -1.5257
 8142SOL     OW36058   0.886   4.077   8.379  0.1620 -0.0848 -0.1910
 8142SOL    HW136059   0.964   4.118   8.418  1.6080 -0.1960 -3.0148
 8142SOL    HW236060   0.853   4.156   8.336 -0.8855  0.3093  1.3035
 8143SOL     OW36061   1.272   3.014  15.759 -0.1449 -0.1097  0.2854
 8143SOL    HW136062   1.334   3.072  15.802 -0.5504  2.3709 -2.4029
 8143SOL    HW236063   1.305   3.020  15.669 -0.9212  0.5723  0.0454
 8144SOL     OW36064   0.203   3.356  15.930  0.0995  0.7486 -0.7364
 8144SOL    HW136065   0.288   3.398  15.913 -0.4768  0.3390 -4.4632
 8144SOL    HW236066   0.173   3.417  15.998 -0.8984  0.9597 -1.3790
 8145SOL     OW36067   3.432   1.897  13.330 -0.1788  0.2335  0.7508
 8145SOL    HW136068   3.484   1.940  13.398  1.5658 -1.3650  0.4033
 8145SOL    HW236069   3.501   1.877  13.266  0.8320  3.1867  0.9347
 8146SOL     OW36070   0.804   2.990  12.423 -0.5273 -0.9935  0.1256
 8146SOL    HW136071   0.827   2.975  12.515 -1.1068 -0.1079  0.4158
 8146SOL    HW236072   0.795   2.900  12.392  0.9272 -0.6070 -1.3994
 8147SOL     OW36073   3.856   0.777   8.193  0.6732 -0.2117  0.3384
 8147SOL    HW136074   3.852   0.682   8.185 -0.9241  0.2280 -4.0217
 8147SOL    HW236075   3.920   0.789   8.123  1.2730 -1.5532  0.6560
 8148SOL     OW36076   3.555   4.680   6.482 -0.3323  0.0902 -0.4934
 8148SOL    HW136077   3.607   4.614   6.527 -1.7943 -0.6837  0.0602
 8148SOL    HW236078   3.484   4.638   6.434 -0.1954 -1.4979  0.7053
 8149SOL     OW36079   3.863   3.132   9.382  0.3115  0.4081  0.5267
 8149SOL    HW136080   3.785   3.127   9.437  0.0553 -2.2763 -0.0696
 8149SOL    HW236081   3.877   3.040   9.359  1.4202  1.4975 -3.2533
 8150SOL     OW36082   3.543   0.260   6.872 -0.3882  0.0456 -0.6258
 8150SOL    HW136083   3.499   0.194   6.818  0.1087 -0.3709 -0.5248
 8150SOL    HW236084   3.636   0.253   6.848  0.0618  0.7752  0.9394
 8151SOL     OW36085   1.553   4.396   5.706 -0.1933  0.2819  0.0712
 8151SOL    HW136086   1.588   4.484   5.691  0.5862  0.2132  1.6029
 8151SOL    HW236087   1.598   4.343   5.640 -1.9008  0.9964 -1.6995
 8152SOL     OW36088   2.678   2.246   1.211  0.5221 -0.4514 -0.3275
 8152SOL    HW136089   2.623   2.188   1.265  1.0067 -0.8959 -0.3075
 8152SOL    HW236090   2.668   2.329   1.257 -0.1644  0.1947 -1.6572
 8153SOL     OW36091   1.556   1.089   5.429 -0.7360  0.1391 -0.3668
 8153SOL    HW136092   1.491   1.019   5.430 -1.1317  0.4929 -2.1379
 8153SOL    HW236093   1.528   1.141   5.505 -1.4250 -1.2215  0.2978
 8154SOL     OW36094   1.950   3.749   2.225  0.3057  0.1010  0.3924
 8154SOL    HW136095   1.885   3.749   2.294  1.7871  1.9280  1.8128
 8154SOL    HW236096   1.978   3.840   2.213  0.6626  0.1782  1.7823
 8155SOL     OW36097   0.038   2.580   2.744  0.5168 -0.1788 -0.0880
 8155SOL    HW136098   0.018   2.672   2.729 -3.4501 -1.0220  0.0323
 8155SOL    HW236099   4.731   2.563   2.827 -1.3022  0.1880 -0.9804
 8156SOL     OW36100   0.449   3.429   0.931 -0.2487 -0.0346 -0.3935
 8156SOL    HW136101   0.417   3.339   0.939  0.3333 -0.2026  0.0724
 8156SOL    HW236102   0.530   3.435   0.880  0.4407  1.2378  0.8291
 8157SOL     OW36103   1.463   2.205   4.399 -0.0900  0.2252 -0.2897
 8157SOL    HW136104   1.389   2.169   4.350  0.0857  0.7193 -0.9227
 8157SOL    HW236105   1.534   2.157   4.356  1.4383  3.0251 -0.8893
 8158SOL     OW36106   0.842   0.750   2.417  0.2144  0.4738 -0.2376
 8158SOL    HW136107   0.805   0.694   2.485 -0.4935  2.1716  0.7883
 8158SOL    HW236108   0.882   0.822   2.466 -1.4799  0.6271  0.9205
 8159SOL     OW36109   4.044   3.295   4.821  0.2046 -0.2035  0.1733
 8159SOL    HW136110   4.127   3.340   4.831  2.2622 -3.7320 -1.0328
 8159SOL    HW236111   4.029   3.309   4.727  1.9844  0.4188 -0.0048
 8160SOL     OW36112   4.353   1.276   3.229  0.4686  0.1487 -0.0362
 8160SOL    HW136113   4.280   1.326   3.267 -1.7466 -0.9650 -2.7918
 8160SOL    HW236114   4.383   1.242   3.313  0.6375 -0.9710 -0.5474
 8161SOL     OW36115   1.144   1.822   3.951 -0.1454 -0.0119  0.3314
 8161SOL    HW136116   1.080   1.841   4.019 -1.3931  2.6151 -1.5699
 8161SOL    HW236117   1.209   1.781   4.007  0.9464  1.7482  0.3624
 8162SOL     OW36118   1.755   1.544   4.963 -0.9169  0.5775  0.4277
 8162SOL    HW136119   1.774   1.487   4.888  0.6806  0.1307  1.1683
 8162SOL    HW236120   1.835   1.519   5.010 -1.0785 -1.9156 -0.6076
 8163SOL     OW36121   4.172   3.170   6.928  0.4587  0.0809  0.0946
 8163SOL    HW136122   4.181   3.231   6.854  0.0813  1.5510  1.2674
 8163SOL    HW236123   4.095   3.212   6.964  1.4868  2.6814 -0.7049
 8164SOL     OW36124   0.072   3.799   1.042 -0.2385 -0.3073  0.0868
 8164SOL    HW136125   0.054   3.844   0.960 -1.8595 -2.0148 -0.4917
 8164SOL    HW236126   0.157   3.757   1.034 -0.2594 -0.1421 -1.0988
 8165SOL     OW36127   3.215   2.703  11.814 -0.7077  0.0829 -0.1037
 8165SOL    HW136128   3.135   2.654  11.793  0.7070 -2.2669  0.0582
 8165SOL    HW236129   3.166   2.785  11.828 -0.2456  0.2585  0.4714
 8166SOL     OW36130   4.287   4.685   1.751  0.4857  0.2699  0.4803
 8166SOL    HW136131   4.334   0.005   1.691  0.8648  1.8421  2.2696
 8166SOL    HW236132   4.199   4.724   1.749  0.1472 -0.5538 -0.3871
 8167SOL     OW36133   3.274   0.712  12.703  0.8218 -0.2043 -0.9472
 8167SOL    HW136134   3.291   0.621  12.678 -0.6988 -0.6525 -0.3772
 8167SOL    HW236135   3.361   0.740  12.734  0.2173  0.1307  0.4658
 8168SOL     OW36136   1.749   1.743  11.657  0.4336 -0.5308 -0.3278
 8168SOL    HW136137   1.814   1.698  11.603  0.6572  0.9608 -1.3156
 8168SOL    HW236138   1.768   1.714  11.746  2.7916  1.4907 -0.1901
 8169SOL     OW36139   2.520   2.124   1.777 -0.1813  0.2696  0.9612
 8169SOL    HW136140   2.469   2.178   1.718 -0.1074 -0.1538  0.5117
 8169SOL    HW236141   2.604   2.168   1.765  0.0857 -0.9063 -1.4743
 8170SOL     OW36142   3.538   2.437   7.874  0.2157  0.0344  0.3563
 8170SOL    HW136143   3.554   2.481   7.790 -2.5764  0.2802 -0.0611
 8170SOL    HW236144   3.615   2.382   7.878  0.0510 -0.2494 -0.4860
 8171SOL     OW36145   0.087   1.160   9.084  0.5259  0.0665  0.0861
 8171SOL    HW136146   4.733   1.168   9.110  0.2433 -3.1889  0.0621
 8171SOL    HW236147   0.120   1.122   9.165 -0.6898 -0.8565  0.1512
 8172SOL     OW36148   1.746   3.087  10.303  0.5706  0.8939  0.0935
 8172SOL    HW136149   1.704   3.083  10.388 -0.0554  0.1631 -0.2494
 8172SOL    HW236150   1.672   3.120  10.253  1.0064  0.0525 -1.1195
 8173SOL     OW36151   0.818   3.230   0.452 -0.6287 -0.3483  0.2566
 8173SOL    HW136152   0.773   3.271   0.526 -1.0410 -2.2644  1.0648
 8173SOL    HW236153   0.758   3.261   0.384 -1.6788 -1.6629  0.5828
 8174SOL     OW36154   0.657   2.692   6.298 -0.3076  0.1402  0.2672
 8174SOL    HW136155   0.638   2.659   6.386  1.7216  1.4187  1.1963
 8174SOL    HW236156   0.583   2.659   6.248  0.1840 -1.1339  0.3637
 8175SOL     OW36157   2.599   2.013   6.027  0.0006 -0.1082 -0.0421
 8175SOL    HW136158   2.618   1.931   5.983  1.7664  0.7520 -0.8611
 8175SOL    HW236159   2.556   1.969   6.100 -1.0249  3.0119  1.2391
 8176SOL     OW36160   4.305   2.067   3.050 -0.0173  0.3541 -0.4456
 8176SOL    HW136161   4.304   2.108   3.137 -0.0339  0.8178 -0.6661
 8176SOL    HW236162   4.319   1.976   3.079  0.2337  0.8591  1.0272
 8177SOL     OW36163   4.416   1.162   3.475  0.5104 -0.0766  0.4971
 8177SOL    HW136164   4.473   1.087   3.458  1.6435  0.5530  1.5154
 8177SOL    HW236165   4.336   1.132   3.518 -0.6494  0.6421 -1.1791
 8178SOL     OW36166   2.478   0.738   4.404 -0.2277 -0.9260 -0.2900
 8178SOL    HW136167   2.457   0.677   4.333 -0.7124  0.0472 -0.9749
 8178SOL    HW236168   2.535   0.689   4.463  0.3478  1.5089  1.1826
 8179SOL     OW36169   2.454   3.767   4.616  0.2906  0.0246  0.1699
 8179SOL    HW136170   2.496   3.711   4.682 -0.9390 -0.5423  0.4595
 8179SOL    HW236171   2.370   3.723   4.605  0.0274  0.2082  1.3752
 8180SOL     OW36172   1.963   0.780  16.398 -0.2234 -0.0695 -0.2885
 8180SOL    HW136173   2.016   0.751  16.323  0.0246 -0.2283 -0.0508
 8180SOL    HW236174   1.973   0.702  16.453 -0.0247  0.5799  0.5840
 8181SOL     OW36175   3.122   4.106  12.797  0.4031 -0.3569  0.1195
 8181SOL    HW136176   3.036   4.068  12.784 -0.0323  1.1574 -1.5651
 8181SOL    HW236177   3.138   4.070  12.884 -0.4081 -2.6848 -0.6942
 8182SOL     OW36178   0.811   4.492   7.112 -0.2255  0.0800  0.4777
 8182SOL    HW136179   0.791   4.402   7.084 -2.4814  0.9419 -0.7532
 8182SOL    HW236180   0.773   4.546   7.043  1.2003  0.9678  0.3893
 8183SOL     OW36181   4.379   4.306   0.624 -0.6055  0.8820 -0.1811
 8183SOL    HW136182   4.359   4.334   0.534  1.7094 -2.2856 -1.6622
 8183SOL    HW236183   4.360   4.212   0.622 -1.3458  1.0302 -0.3677
 8184SOL     OW36184   4.379   1.515   6.775 -0.4663 -0.0050  0.3010
 8184SOL    HW136185   4.349   1.573   6.705  1.6469 -1.2321 -1.5983
 8184SOL    HW236186   4.325   1.551   6.845  0.0354 -0.7526  1.0752
 8185SOL     OW36187   1.325   0.904  13.207 -0.2091  0.0037  1.0066
 8185SOL    HW136188   1.411   0.938  13.232  0.1889 -0.3410  0.0831
 8185SOL    HW236189   1.317   0.839  13.276  0.4211 -0.8750  0.2478
 8186SOL     OW36190   4.672   0.234   8.887 -0.0631  0.4810 -0.3042
 8186SOL    HW136191   4.636   0.145   8.885  1.0069  0.0790 -1.4386
 8186SOL    HW236192   0.028   0.221   8.899 -0.0958  1.5311  1.0230
 8187SOL     OW36193   1.611   2.101   8.278  0.1980  0.8221  0.2660
 8187SOL    HW136194   1.678   2.062   8.334  0.3990  0.7140 -0.0494
 8187SOL    HW236195   1.659   2.082   8.198 -0.4754  1.3434 -0.2717
 8188SOL     OW36196   2.946   0.667  14.952  0.2417 -0.2214 -0.0424
 8188SOL    HW136197   2.877   0.710  15.003 -0.6639 -0.6036 -0.9581
 8188SOL    HW236198   2.909   0.583  14.928 -1.3768  0.6721 -0.6744
 8189SOL     OW36199   0.057   2.187   4.507  0.4698  0.1003 -0.0169
 8189SOL    HW136200   0.108   2.237   4.443  2.0276  0.1396  1.2642
 8189SOL    HW236201   0.019   2.262   4.551 -2.2001 -0.1815 -1.7862
 8190SOL     OW36202   4.267   2.552   9.570 -0.3561 -0.6211 -0.1578
 8190SOL    HW136203   4.301   2.641   9.580 -0.7697 -0.6957  1.9122
 8190SOL    HW236204   4.334   2.503   9.618  0.8653  1.1727 -0.0331
 8191SOL     OW36205   2.317   0.586  16.603 -0.1976 -0.1125 -0.0649
 8191SOL    HW136206   2.301   0.492  16.595  1.7704 -0.4800  0.3479
 8191SOL    HW236207   2.410   0.590  16.623  0.0608 -0.8289 -1.0956
 8192SOL     OW36208   1.594   4.403   0.345  0.1643 -0.1092  0.3994
 8192SOL    HW136209   1.499   4.408   0.334  0.2646 -0.1355 -0.4504
 8192SOL    HW236210   1.604   4.426   0.437 -0.4243 -0.5198  0.5613
 8193SOL     OW36211   3.700   3.280   6.845 -0.1790 -0.3198  0.5939
 8193SOL    HW136212   3.708   3.330   6.926 -0.1087 -0.6815  0.8118
 8193SOL    HW236213   3.712   3.345   6.776  0.5599 -1.3679 -0.2744
 8194SOL     OW36214   3.284   1.447   9.078  0.0118 -0.3216 -0.4362
 8194SOL    HW136215   3.300   1.459   9.172 -1.2611 -0.1473 -0.2429
 8194SOL    HW236216   3.206   1.391   9.074 -0.8228  0.9135 -1.2859
 8195SOL     OW36217   2.256   0.481  17.569  0.3988  0.2777  0.1176
 8195SOL    HW136218   2.244   0.445  17.481  1.9771  3.7293 -1.5299
 8195SOL    HW236219   2.320   0.551  17.556 -0.4684  1.1222  0.3840
 8196SOL     OW36220   1.328   3.835   3.351 -0.1135 -0.0233  0.2516
 8196SOL    HW136221   1.270   3.787   3.410  0.2234 -1.2392 -0.4010
 8196SOL    HW236222   1.350   3.766   3.288  0.7681  1.4683 -1.0685
 8197SOL     OW36223   2.560   1.733   5.549 -0.9974  0.1432 -0.7078
 8197SOL    HW136224   2.648   1.737   5.586 -1.8804  0.3343  1.3562
 8197SOL    HW236225   2.510   1.812   5.569 -0.3807  0.4287 -0.3087
 8198SOL     OW36226   3.281   2.109  16.128 -0.2039 -0.0854  0.0397
 8198SOL    HW136227   3.375   2.120  16.119 -0.2111  0.4690  0.6250
 8198SOL    HW236228   3.256   2.017  16.118  2.1178 -0.8298  1.0596
 8199SOL     OW36229   0.427   0.524   4.610  0.1564 -0.2463  0.0814
 8199SOL    HW136230   0.455   0.486   4.527 -0.7385  1.1216 -0.8483
 8199SOL    HW236231   0.416   0.448   4.667  0.1454 -0.1364  0.2264
 8200SOL     OW36232   2.985   3.326  12.048  0.1626 -0.1004 -0.4981
 8200SOL    HW136233   2.975   3.365  12.135 -0.3684  0.2006 -0.6988
 8200SOL    HW236234   2.955   3.398  11.993  0.6090 -0.3832 -1.1091
 8201SOL     OW36235   0.829   3.013   4.768  0.3005 -0.3902 -0.2953
 8201SOL    HW136236   0.794   2.945   4.712 -0.2667 -0.9909  0.7901
 8201SOL    HW236237   0.916   3.034   4.734  1.1483 -1.6754  1.0875
 8202SOL     OW36238   3.176   2.686   6.599 -0.3970  0.8798 -0.0211
 8202SOL    HW136239   3.164   2.678   6.504 -0.5027 -0.3757  0.0960
 8202SOL    HW236240   3.270   2.666   6.598 -0.7663 -0.8045 -0.8044
 8203SOL     OW36241   3.433   2.051  10.033  0.4201 -0.1074  0.5432
 8203SOL    HW136242   3.454   2.025   9.943  2.5400  0.4962  0.8707
 8203SOL    HW236243   3.510   2.032  10.087 -0.4920 -1.6683  1.2933
 8204SOL     OW36244   2.499   1.315   6.566  0.8136 -0.2702 -0.0135
 8204SOL    HW136245   2.480   1.329   6.659 -0.2187  1.5273 -0.4964
 8204SOL    HW236246   2.511   1.400   6.524  0.2743  1.2675  2.9107
 8205SOL     OW36247   1.000   1.220  16.872 -0.1411 -0.1342  0.1516
 8205SOL    HW136248   0.912   1.211  16.834 -0.4671  2.2445  0.3784
 8205SOL    HW236249   1.000   1.172  16.954 -2.5745  0.3151  0.4247
 8206SOL     OW36250   0.559   1.503   9.492  0.1067 -0.6568  0.5123
 8206SOL    HW136251   0.538   1.533   9.581  0.4010  1.1835 -0.0395
 8206SOL    HW236252   0.486   1.444   9.472 -0.0982  0.0532 -0.7700
 8207SOL     OW36253   2.409   2.564   0.101 -0.3044  0.3255 -0.4628
 8207SOL    HW136254   2.335   2.622   0.080 -0.2005  0.9732  1.0115
 8207SOL    HW236255   2.380   2.477   0.073 -1.2890  0.6063 -0.3055
 8208SOL     OW36256   3.107   3.236   5.370 -0.2792  0.1826  0.1974
 8208SOL    HW136257   3.074   3.216   5.458  0.6230 -1.1992  0.2171
 8208SOL    HW236258   3.189   3.281   5.388 -1.2283  0.9008  2.8291
 8209SOL     OW36259   2.274   4.104   3.223 -0.2445 -0.1053  0.0036
 8209SOL    HW136260   2.360   4.096   3.182  1.3201  0.9444  3.1185
 8209SOL    HW236261   2.215   4.076   3.153  1.2698 -0.6663 -1.0410
 8210SOL     OW36262   0.926   3.154   2.185  0.2778 -0.1892  0.4804
 8210SOL    HW136263   0.889   3.085   2.240  0.6222  1.5271  2.8650
 8210SOL    HW236264   0.868   3.229   2.195  1.4614  0.7555  0.2352
 8211SOL     OW36265   1.440   4.486   3.844  0.2935 -0.3911  0.3789
 8211SOL    HW136266   1.349   4.458   3.837 -0.0218  0.9035 -0.6281
 8211SOL    HW236267   1.489   4.416   3.800  0.9240 -0.4919  1.2404
 8212SOL     OW36268   1.197   3.382   6.198 -0.6802 -0.2767 -0.4816
 8212SOL    HW136269   1.234   3.294   6.202  1.3302  0.5994  0.4638
 8212SOL    HW236270   1.237   3.418   6.277  0.7001 -0.4525 -1.1051
 8213SOL     OW36271   4.365   0.318   7.507 -0.4160 -0.1699 -0.5038
 8213SOL    HW136272   4.351   0.316   7.413 -3.1074  1.1446 -0.1264
 8213SOL    HW236273   4.338   0.409   7.520  1.0762  0.4491 -1.8509
 8214SOL     OW36274   2.674   0.210   3.793 -0.2777  0.1465  0.4331
 8214SOL    HW136275   2.768   0.194   3.802  0.0777  1.0142 -1.6715
 8214SOL    HW236276   2.659   0.230   3.886  0.3984 -2.0026  0.9949
 8215SOL     OW36277   1.914   3.062   8.085  0.2133 -0.3247  0.3724
 8215SOL    HW136278   1.903   3.052   7.990 -1.2185  0.1760  0.4914
 8215SOL    HW236279   2.008   3.041   8.093  0.2472 -0.5132 -0.4713
 8216SOL     OW36280   1.402   2.836   2.211  0.3083 -0.4090 -0.2936
 8216SOL    HW136281   1.365   2.925   2.211 -1.1788 -1.0375 -2.8317
 8216SOL    HW236282   1.338   2.795   2.153 -0.3942 -2.3340  1.8411
 8217SOL     OW36283   2.931   2.764  12.236  0.0817  0.1736  0.3880
 8217SOL    HW136284   2.952   2.843  12.285 -1.3154  0.8845 -0.1711
 8217SOL    HW236285   2.859   2.726  12.287 -0.1261  2.0599  1.5057
 8218SOL     OW36286   4.244   4.390   3.499  0.4676  0.0388  0.7089
 8218SOL    HW136287   4.177   4.454   3.526 -1.2359 -1.9500  1.1565
 8218SOL    HW236288   4.273   4.441   3.423  1.3447 -2.5917 -0.7317
 8219SOL     OW36289   0.064   0.175  15.462  0.4384  0.1861  0.5667
 8219SOL    HW136290   0.069   0.267  15.484 -0.8281  0.2827  0.4548
 8219SOL    HW236291   0.060   0.134  15.548  0.4830  0.5782  0.7546
 8220SOL     OW36292   4.012   1.150   9.571 -0.0933 -0.0900  0.2335
 8220SOL    HW136293   4.106   1.133   9.563  0.2215  0.4418  2.6570
 8220SOL    HW236294   3.986   1.100   9.495  2.9728  0.6245 -1.2926
 8221SOL     OW36295   4.632   3.165   0.544  0.6723 -0.2874  0.1735
 8221SOL    HW136296   4.678   3.096   0.496 -0.7516 -1.8498  1.0585
 8221SOL    HW236297   4.706   3.190   0.599  1.1266  0.2129 -0.6723
 8222SOL     OW36298   1.685   2.605  16.602 -0.8695 -0.7015 -0.1477
 8222SOL    HW136299   1.778   2.583  16.605 -0.6027  0.2919 -1.8381
 8222SOL    HW236300   1.648   2.517  16.614 -0.5764 -0.7216  0.6640
 8223SOL     OW36301   3.986   3.899   4.463  0.2065 -0.1112 -0.4115
 8223SOL    HW136302   4.077   3.914   4.435 -0.0463  1.0191 -0.6438
 8223SOL    HW236303   3.993   3.962   4.535 -1.4464  0.4212 -0.7153
 8224SOL     OW36304   3.004   1.312  10.292  0.4266  0.3021 -0.5777
 8224SOL    HW136305   3.017   1.399  10.330  1.8908  0.6778 -1.9560
 8224SOL    HW236306   2.919   1.318  10.249  0.4377  2.9309 -0.2499
 8225SOL     OW36307   2.469   2.609   6.053 -0.1398 -0.2829  0.0939
 8225SOL    HW136308   2.557   2.583   6.027  0.1134  0.7961 -0.0953
 8225SOL    HW236309   2.480   2.665   6.130  0.6387 -2.0194  1.2506
 8226SOL     OW36310   4.426   1.009   4.954  0.4990 -0.6688  0.3720
 8226SOL    HW136311   4.471   0.984   5.035  0.2729  1.2301  1.0804
 8226SOL    HW236312   4.497   0.988   4.893 -1.7347 -0.2025 -2.3845
 8227SOL     OW36313   1.426   0.450   8.706 -0.2850  0.1227 -0.0876
 8227SOL    HW136314   1.383   0.514   8.762  1.5084  1.0339  0.2493
 8227SOL    HW236315   1.512   0.458   8.747  0.3200 -0.5797 -1.2035
 8228SOL     OW36316   3.377   0.590   4.574 -0.0865 -0.6219  0.7080
 8228SOL    HW136317   3.390   0.683   4.557 -1.8434 -0.6716 -0.8917
 8228SOL    HW236318   3.319   0.567   4.502  0.6571  0.1036 -0.1279
 8229SOL     OW36319   1.752   2.463   5.668 -0.5057 -0.4677  0.0398
 8229SOL    HW136320   1.708   2.542   5.700  2.8018  1.6461 -0.6483
 8229SOL    HW236321   1.820   2.500   5.612 -0.7842 -0.5896 -0.3742
 8230SOL     OW36322   0.335   3.602   4.178 -0.5924  0.0101 -0.1618
 8230SOL    HW136323   0.334   3.673   4.114 -3.3129 -1.4590 -1.7651
 8230SOL    HW236324   0.400   3.538   4.148  0.4850  1.3257 -0.6498
 8231SOL     OW36325   1.194   0.154   7.969  0.4145  0.7692 -0.4124
 8231SOL    HW136326   1.116   0.139   8.023 -0.2524 -0.1137 -1.6445
 8231SOL    HW236327   1.148   0.168   7.886 -1.9516  1.6236  1.0040
 8232SOL     OW36328   3.249   1.828   6.101  0.1047  0.3262  0.3982
 8232SOL    HW136329   3.328   1.848   6.053 -1.2430 -0.1353 -2.0101
 8232SOL    HW236330   3.215   1.917   6.105  1.2753  0.7905 -0.2341
 8233SOL     OW36331   3.544   4.658   1.331 -0.5731 -0.1405  0.0106
 8233SOL    HW136332   3.630   4.698   1.336 -0.2070 -0.7414 -1.7647
 8233SOL    HW236333   3.494   0.001   1.316 -1.2743 -0.7731 -1.0147
 8234SOL     OW36334   4.397   2.964  12.760  0.3248  0.0811  0.0347
 8234SOL    HW136335   4.424   2.928  12.675 -2.2055 -2.2860  0.2039
 8234SOL    HW236336   4.410   3.058  12.756 -1.4637  0.3067 -0.4559
 8235SOL     OW36337   3.329   4.089   7.662 -0.3429 -0.2729  0.0036
 8235SOL    HW136338   3.327   4.180   7.691 -2.3714 -0.9269  1.8842
 8235SOL    HW236339   3.266   4.045   7.718 -0.4336 -0.1729 -0.0205
 8236SOL     OW36340   0.704   1.464   4.095 -0.6088 -0.2362 -0.2263
 8236SOL    HW136341   0.685   1.427   4.008 -2.4629  0.2219 -0.0174
 8236SOL    HW236342   0.627   1.429   4.140 -0.3660 -0.8624 -0.2924
 8237SOL     OW36343   0.115   4.203   6.946 -0.2434  0.6677  0.3604
 8237SOL    HW136344   0.179   4.273   6.957  1.1794 -0.3106 -1.7064
 8237SOL    HW236345   0.151   4.147   7.014  1.3664  2.2671  0.8158
 8238SOL     OW36346   4.068   3.238   4.284  0.1748  0.4442  0.1443
 8238SOL    HW136347   3.977   3.235   4.254 -0.1686  0.7982  1.1517
 8238SOL    HW236348   4.099   3.168   4.226  0.2842  1.1927 -0.7085
 8239SOL     OW36349   0.526   2.695   0.262 -0.6034 -0.2962  0.1280
 8239SOL    HW136350   0.467   2.765   0.290 -0.5046 -0.1334 -0.0741
 8239SOL    HW236351   0.586   2.699   0.337  0.5739  3.0785 -1.0159
 8240SOL     OW36352   3.494   1.179   5.408  0.2481  0.1520  0.7637
 8240SOL    HW136353   3.565   1.236   5.436  2.2148 -2.2700  0.7457
 8240SOL    HW236354   3.438   1.246   5.368  2.2141  1.0270 -0.5417
 8241SOL     OW36355   2.078   1.200   3.202 -0.0416  0.7686  0.1623
 8241SOL    HW136356   2.172   1.183   3.211 -0.0350  0.7871  0.1287
 8241SOL    HW236357   2.075   1.275   3.143  0.7056  2.4130  2.2358
 8242SOL     OW36358   0.704   3.748   6.259  0.6091 -0.0792  0.0652
 8242SOL    HW136359   0.674   3.823   6.311  1.2186 -0.4752  0.9743
 8242SOL    HW236360   0.756   3.776   6.183  0.0068 -1.5459 -0.8848
 8243SOL     OW36361   0.050   2.921   2.688  0.0795 -0.1050 -0.5745
 8243SOL    HW136362   0.121   2.943   2.628  1.0825  0.5525  0.8534
 8243SOL    HW236363   0.046   2.994   2.750 -2.0457 -1.6423  1.0947
 8244SOL     OW36364   1.571   1.351   9.602 -0.0244  0.3787  0.2860
 8244SOL    HW136365   1.482   1.382   9.588 -0.7506 -2.1167 -0.5977
 8244SOL    HW236366   1.600   1.333   9.513  0.2703  1.1369  0.2275
 8245SOL     OW36367   4.478   4.445   6.546  0.4798 -0.0710  0.4304
 8245SOL    HW136368   4.461   4.470   6.637 -0.0883  0.0884  0.2820
 8245SOL    HW236369   4.388   4.442   6.511  0.1518  0.3871  1.2378
 8246SOL     OW36370   1.328   2.532   8.487 -0.2796  0.4449  0.6741
 8246SOL    HW136371   1.258   2.593   8.513 -1.2745 -0.3072 -0.2274
 8246SOL    HW236372   1.388   2.595   8.447 -1.5712  0.9222 -0.5252
 8247SOL     OW36373   4.279   3.721   3.592  0.5290 -0.2236  0.5597
 8247SOL    HW136374   4.264   3.766   3.509 -1.6761 -1.2306  0.4131
 8247SOL    HW236375   4.209   3.759   3.646 -1.9949 -3.0685 -0.7290
 8248SOL     OW36376   3.325   3.239   4.297  0.5215  0.8035 -0.3514
 8248SOL    HW136377   3.269   3.162   4.303  2.4484 -0.5333  0.4030
 8248SOL    HW236378   3.269   3.306   4.336 -0.9982 -0.6216 -0.0881
 8249SOL     OW36379   1.591   2.369  16.658  0.2823 -0.5897  0.2956
 8249SOL    HW136380   1.523   2.322  16.610  0.6177 -2.3048  1.5056
 8249SOL    HW236381   1.558   2.349  16.746 -0.1608  0.8167  0.4586
 8250SOL     OW36382   2.811   3.467  14.533 -0.1897 -0.6337 -0.2295
 8250SOL    HW136383   2.735   3.461  14.590 -1.6512  0.6877 -2.0425
 8250SOL    HW236384   2.865   3.536  14.572 -0.5299 -0.4790 -0.0363
 8251SOL     OW36385   1.995   3.177   3.941 -0.3387 -0.0477  0.1130
 8251SOL    HW136386   2.014   3.166   3.847 -0.0137  2.6251 -0.1127
 8251SOL    HW236387   1.923   3.115   3.950  0.5148 -1.0019  0.3763
 8252SOL     OW36388   2.770   3.187  14.671 -0.7903  0.1624 -0.4018
 8252SOL    HW136389   2.812   3.231  14.597 -0.1661 -0.2467 -0.2943
 8252SOL    HW236390   2.717   3.125  14.622  0.6267 -0.4084 -1.2258
 8253SOL     OW36391   0.866   1.104  11.884  0.1673 -0.2826 -0.3301
 8253SOL    HW136392   0.898   1.041  11.820  1.1035  0.1035 -0.2356
 8253SOL    HW236393   0.918   1.087  11.962 -0.6344 -1.0113  0.0430
 8254SOL     OW36394   1.967   0.016   8.473  0.3820 -0.0150  0.4410
 8254SOL    HW136395   1.877   0.034   8.447 -0.0191 -0.2210  1.6856
 8254SOL    HW236396   1.962   4.658   8.475  0.0099  0.0040  0.3446
 8255SOL     OW36397   0.409   3.792   9.045 -0.6322 -0.2621  0.2230
 8255SOL    HW136398   0.384   3.884   9.034 -1.1090 -0.2992  1.0289
 8255SOL    HW236399   0.423   3.779   9.139  0.5464  1.4980  0.2806
 8256SOL     OW36400   0.602   4.705  12.046  0.1608 -0.6197 -0.6477
 8256SOL    HW136401   0.597   0.024  11.969 -0.0559 -1.0871 -0.9753
 8256SOL    HW236402   0.573   0.021  12.119  0.6474 -0.4376 -0.5827
 8257SOL     OW36403   1.294   2.854   9.424 -0.0071  0.2824  0.2816
 8257SOL    HW136404   1.243   2.776   9.445  1.0680 -0.0419  1.7413
 8257SOL    HW236405   1.337   2.865   9.509 -1.1418  2.9847  0.4929
 8258SOL     OW36406   0.298   2.708   5.444  0.4374 -0.6537  0.4171
 8258SOL    HW136407   0.337   2.621   5.454 -1.2933 -1.3464  1.1116
 8258SOL    HW236408   0.310   2.718   5.350 -2.5653 -0.2946  0.0984
 8259SOL     OW36409   0.067   4.188   5.209 -0.9456  0.3230  0.6256
 8259SOL    HW136410   4.728   4.246   5.212  1.3599  3.4253  0.3808
 8259SOL    HW236411   0.046   4.132   5.284 -1.9553  0.7699  0.6746
 8260SOL     OW36412   2.558   1.259  16.301  0.0366 -0.8196 -0.6512
 8260SOL    HW136413   2.649   1.232  16.309  0.0774 -0.3004  0.6453
 8260SOL    HW236414   2.526   1.223  16.384  0.3945 -0.6202 -0.4261
 8261SOL     OW36415   2.308   2.750   2.300  0.2791 -0.1983 -0.6094
 8261SOL    HW136416   2.357   2.831   2.289 -1.1067  0.5557 -1.2421
 8261SOL    HW236417   2.247   2.778   2.368  0.4320  1.2949 -1.0978
 8262SOL     OW36418   2.194   3.145   4.103 -0.1237 -0.4015  0.2012
 8262SOL    HW136419   2.114   3.142   4.050 -2.2702  1.7725  3.3088
 8262SOL    HW236420   2.164   3.202   4.174  1.4582  1.7951 -0.9249
 8263SOL     OW36421   3.909   3.915  14.540 -0.1355  0.1555 -0.3666
 8263SOL    HW136422   3.880   3.995  14.495  1.3984  0.7161 -0.3912
 8263SOL    HW236423   3.835   3.868  14.578 -0.5064  0.5041 -0.6548
 8264SOL     OW36424   3.471   0.306  11.272 -0.2490 -0.7468  0.0602
 8264SOL    HW136425   3.501   0.223  11.311  1.5971 -0.7131 -1.2775
 8264SOL    HW236426   3.380   0.278  11.259 -1.0080  1.6252  0.2762
 8265SOL     OW36427   3.821   3.454   3.696  0.1410 -0.0907  0.0109
 8265SOL    HW136428   3.888   3.517   3.721 -1.0278  0.5402  1.5809
 8265SOL    HW236429   3.737   3.500   3.699  0.3924  0.3231  0.8059
 8266SOL     OW36430   0.487   0.444   2.692 -0.7206 -0.3507  0.0180
 8266SOL    HW136431   0.444   0.522   2.658 -0.5317 -0.1518  0.2338
 8266SOL    HW236432   0.410   0.389   2.708 -1.7642  1.2491  0.4869
 8267SOL     OW36433   1.050   2.969  13.452 -0.2266  0.4909  0.2582
 8267SOL    HW136434   1.108   2.896  13.475 -1.7834 -0.2191  1.8717
 8267SOL    HW236435   1.115   3.039  13.463  1.2095 -0.5429 -1.7155
 8268SOL     OW36436   0.497   2.177  16.975 -1.0620 -0.6212  0.6228
 8268SOL    HW136437   0.496   2.109  17.042 -1.9134 -2.3600 -1.1461
 8268SOL    HW236438   0.402   2.184  16.961 -0.7833  1.2973 -0.3250
 8269SOL     OW36439   2.613   1.342   2.776  0.0100  0.1346  0.2930
 8269SOL    HW136440   2.683   1.322   2.714  0.0632 -0.6311  0.5952
 8269SOL    HW236441   2.655   1.382   2.852 -0.9581  0.7839  0.4959
 8270SOL     OW36442   1.933   4.165   7.386 -0.3340  0.4363  0.1750
 8270SOL    HW136443   1.875   4.099   7.348  1.9625 -0.6822 -1.3494
 8270SOL    HW236444   1.863   4.218   7.426 -0.8404 -0.0044 -0.1288
 8271SOL     OW36445   0.853   4.466  11.644 -0.6920  0.2851 -0.6249
 8271SOL    HW136446   0.845   4.380  11.601 -0.7906  0.6638 -1.3528
 8271SOL    HW236447   0.794   4.457  11.719 -0.2726  1.3219 -0.1762
 8272SOL     OW36448   4.661   0.277   8.182  0.3404  0.1034  0.4676
 8272SOL    HW136449   4.685   0.331   8.257 -1.2341  0.0267  1.0261
 8272SOL    HW236450   4.569   0.296   8.166  0.4854  0.1198 -0.3165
 8273SOL     OW36451   0.300   0.136  11.550  0.0030  0.4039 -0.0242
 8273SOL    HW136452   0.342   0.210  11.594 -0.3611  0.1844  0.6915
 8273SOL    HW236453   0.280   0.171  11.463  0.1992  1.1107  0.2179
 8274SOL     OW36454   0.570   0.447   7.379 -0.0627 -0.7088  0.2463
 8274SOL    HW136455   0.666   0.444   7.389 -0.1091 -0.5537  0.7408
 8274SOL    HW236456   0.545   0.411   7.464 -0.3012 -1.3588 -0.0997
 8275SOL     OW36457   1.475   1.756   2.798 -0.1137 -0.3240 -0.3310
 8275SOL    HW136458   1.504   1.687   2.859 -0.5160  1.0240  1.3919
 8275SOL    HW236459   1.549   1.763   2.739 -0.3798 -1.6137 -0.8252
 8276SOL     OW36460   4.057   4.405   8.300  0.3768  0.2923 -0.1164
 8276SOL    HW136461   4.071   4.496   8.325 -0.0296 -0.0540  1.3936
 8276SOL    HW236462   4.123   4.354   8.347 -1.4448 -0.6432  1.4259
 8277SOL     OW36463   1.464   4.627   4.095 -0.4188  0.1959  0.0744
 8277SOL    HW136464   1.467   4.572   4.017 -3.0059  2.1906 -1.4466
 8277SOL    HW236465   1.420   4.707   4.066  1.9366  1.6001  0.4412
 8278SOL     OW36466   1.830   2.224   6.936 -0.5487  0.2308 -0.1891
 8278SOL    HW136467   1.922   2.238   6.959 -0.9332  1.9997  0.3079
 8278SOL    HW236468   1.824   2.136   6.900  0.5617  0.8635 -1.9743
 8279SOL     OW36469   2.509   3.996  10.357  0.1557 -0.2544  0.0084
 8279SOL    HW136470   2.559   3.914  10.365 -0.0795 -0.5334 -1.3984
 8279SOL    HW236471   2.474   3.986  10.268 -0.3339  1.0818  0.0497
 8280SOL     OW36472   0.605   2.102  12.167 -0.2619  1.0232 -0.0080
 8280SOL    HW136473   0.529   2.152  12.198 -0.5736  0.4671  0.1343
 8280SOL    HW236474   0.594   2.013  12.201 -0.7608  0.9453 -0.3774
 8281SOL     OW36475   0.001   2.401   5.943 -0.7374  0.4093  0.0453
 8281SOL    HW136476   0.065   2.472   5.933  0.2019 -0.2133  1.7831
 8281SOL    HW236477   0.012   2.353   5.861  1.6811  1.5655 -0.3003
 8282SOL     OW36478   2.308   1.660   8.042  0.4005 -0.3946 -0.0060
 8282SOL    HW136479   2.302   1.727   8.110  1.9715 -0.9561  0.6767
 8282SOL    HW236480   2.395   1.670   8.004 -0.9292  0.1548 -2.9019
 8283SOL     OW36481   3.302   2.860   8.647  0.4941 -0.0524  0.1585
 8283SOL    HW136482   3.320   2.851   8.553 -1.5788  3.2679 -0.5202
 8283SOL    HW236483   3.310   2.954   8.660 -1.6833 -0.4258  4.0621
 8284SOL     OW36484   0.367   1.466  12.254 -0.4152 -0.9393 -0.0129
 8284SOL    HW136485   0.291   1.489  12.201 -0.6764 -1.3261  0.1895
 8284SOL    HW236486   0.433   1.476  12.186  2.6936 -3.8710  2.5427
 8285SOL     OW36487   2.251   3.830  17.213  0.4465 -0.3544 -0.0513
 8285SOL    HW136488   2.281   3.755  17.161  0.5013 -0.2192 -0.2130
 8285SOL    HW236489   2.324   3.870  17.259  0.9017  0.9684 -1.9073
 8286SOL     OW36490   0.403   0.399   8.371  0.2736  0.0060 -0.0822
 8286SOL    HW136491   0.479   0.343   8.353 -1.0620 -0.8388 -3.1139
 8286SOL    HW236492   0.396   0.434   8.282  2.3988  0.3074 -0.1350
 8287SOL     OW36493   3.316   3.417   3.362  0.1192 -0.1355 -0.3311
 8287SOL    HW136494   3.404   3.408   3.326 -0.5351  0.1001 -1.9841
 8287SOL    HW236495   3.341   3.467   3.439  0.3466  0.9080 -1.0851
 8288SOL     OW36496   2.278   2.706  14.675 -0.6928 -0.1406 -0.6409
 8288SOL    HW136497   2.320   2.781  14.716  0.1288 -0.5757 -0.6864
 8288SOL    HW236498   2.204   2.688  14.733 -0.8739  2.6370 -0.0471
 8289SOL     OW36499   1.096   2.480   4.614  0.4273 -0.4590  0.2760
 8289SOL    HW136500   1.062   2.510   4.698 -2.0885 -2.6681  0.0489
 8289SOL    HW236501   1.024   2.447   4.559  0.9023 -1.2162  0.1158
 8290SOL     OW36502   3.413   0.162   6.110 -0.1147 -0.2549  0.0677
 8290SOL    HW136503   3.403   0.152   6.204 -1.0818  0.9563  0.0936
 8290SOL    HW236504   3.504   0.137   6.093 -0.1827 -0.4088 -0.0691
 8291SOL     OW36505   2.683   3.182   9.768  0.4822 -0.4714  0.4655
 8291SOL    HW136506   2.648   3.095   9.788 -0.5296 -0.0654  0.4557
 8291SOL    HW236507   2.708   3.178   9.675  0.5133 -0.6789  0.4827
 8292SOL     OW36508   4.179   1.276   3.786 -0.1935 -0.2434  0.2838
 8292SOL    HW136509   4.257   1.328   3.805 -0.4484 -0.5040  2.0011
 8292SOL    HW236510   4.128   1.340   3.736 -0.5018 -0.6859  0.0352
 8293SOL     OW36511   0.099   3.022   7.292  0.1795 -0.1888  0.5247
 8293SOL    HW136512   0.181   3.045   7.336 -0.2610 -1.0240  1.7665
 8293SOL    HW236513   0.063   3.107   7.265 -0.8377 -0.7918 -0.0233
 8294SOL     OW36514   2.715   3.400  17.200 -0.0890  0.2817 -0.3450
 8294SOL    HW136515   2.759   3.329  17.246  0.0234  0.6925  0.1760
 8294SOL    HW236516   2.645   3.433  17.256 -0.5465 -1.3591  0.0539
 8295SOL     OW36517   2.324   0.610   6.139  0.5488 -0.3828  0.6984
 8295SOL    HW136518   2.417   0.602   6.157  0.6324  1.6715  1.2427
 8295SOL    HW236519   2.290   0.624   6.227 -0.3714  0.1153  0.2696
 8296SOL     OW36520   2.424   0.549   1.579  0.5622  0.5172 -0.0141
 8296SOL    HW136521   2.495   0.612   1.594  1.3099 -0.5159  0.8109
 8296SOL    HW236522   2.440   0.485   1.649 -1.0121  1.2357  0.9993
 8297SOL     OW36523   3.214   2.758   4.163  0.6319  0.5692  0.4523
 8297SOL    HW136524   3.137   2.706   4.187  1.4560 -0.4896  0.7668
 8297SOL    HW236525   3.169   2.837   4.130  1.9817  0.7295 -0.9840
 8298SOL     OW36526   3.110   2.004   4.116 -0.7503  0.5641 -0.4952
 8298SOL    HW136527   3.160   2.010   4.035 -2.3662 -0.1261 -1.5497
 8298SOL    HW236528   3.024   1.990   4.076 -0.8725 -0.7629  0.2536
 8299SOL     OW36529   4.085   0.479  17.486 -0.2801  0.2524  0.4083
 8299SOL    HW136530   4.064   0.537  17.414  2.1568 -0.6309 -1.0350
 8299SOL    HW236531   4.025   0.406  17.480  1.0485 -0.7304 -0.8709
 8300SOL     OW36532   0.540   1.442  12.020 -0.0832  0.0656  0.8103
 8300SOL    HW136533   0.547   1.349  11.997 -0.2709  0.2053  0.1873
 8300SOL    HW236534   0.607   1.476  11.960  1.0854  1.1531  2.7297
 8301SOL     OW36535   3.021   3.413   6.961  0.4478  0.3618  0.5402
 8301SOL    HW136536   3.067   3.435   6.880 -0.8616 -0.3587 -0.3952
 8301SOL    HW236537   3.093   3.399   7.023 -0.8825 -2.4514  1.4411
 8302SOL     OW36538   1.816   1.029   8.547 -0.0869 -0.5356 -0.1219
 8302SOL    HW136539   1.753   0.973   8.591  0.0504  0.4954  1.3666
 8302SOL    HW236540   1.901   0.985   8.556 -0.8720 -1.7799  1.1482
 8303SOL     OW36541   0.893   3.804   8.002 -0.1465 -0.3510  0.0754
 8303SOL    HW136542   0.921   3.724   8.046  0.1643  0.9892  2.3600
 8303SOL    HW236543   0.799   3.789   8.002 -0.0664 -0.8838 -1.4019
 8304SOL     OW36544   0.064   2.242   7.639  0.2769  0.1879  0.3719
 8304SOL    HW136545   0.025   2.162   7.603  4.2460 -1.9261  0.7529
 8304SOL    HW236546   0.020   2.263   7.721  0.0495 -0.5107  0.4295
 8305SOL     OW36547   2.730   0.470   3.492  0.5100  0.5733 -0.2255
 8305SOL    HW136548   2.776   0.485   3.574  3.4724 -0.6359 -1.6602
 8305SOL    HW236549   2.683   0.390   3.515 -0.3745  1.6024  1.5239
 8306SOL     OW36550   3.194   0.900  15.992  0.1242 -0.1604  0.1207
 8306SOL    HW136551   3.200   0.975  15.935  1.1796 -0.3880 -0.0524
 8306SOL    HW236552   3.214   0.941  16.076 -1.4643  2.0638 -0.6035
 8307SOL     OW36553   1.702   0.247  14.648  0.0132 -0.0566  0.1714
 8307SOL    HW136554   1.763   0.309  14.688 -0.2326  1.3876 -1.6769
 8307SOL    HW236555   1.707   0.187  14.723 -0.3960 -1.3274 -0.8253
 8308SOL     OW36556   0.610   1.249   6.221 -0.3044 -0.1328  0.1175
 8308SOL    HW136557   0.525   1.289   6.203  0.6841  1.1488 -1.6023
 8308SOL    HW236558   0.635   1.311   6.290  0.1749  1.8556 -1.8371
 8309SOL     OW36559   1.560   0.147   9.017 -0.4036 -0.6961  0.2958
 8309SOL    HW136560   1.479   0.160   9.067 -1.0046  1.0238 -1.1453
 8309SOL    HW236561   1.523   0.112   8.936  0.1050 -0.6107  0.0284
 8310SOL     OW36562   2.094   3.553   1.054  0.2080  0.1700  1.0248
 8310SOL    HW136563   2.097   3.533   0.960  0.4383 -0.2642  1.1221
 8310SOL    HW236564   2.150   3.630   1.063 -0.4477  0.8159 -0.5108
 8311SOL     OW36565   2.578   2.698   1.455 -0.6204  0.2371  0.7145
 8311SOL    HW136566   2.622   2.783   1.452  0.5485 -0.3108  1.8570
 8311SOL    HW236567   2.490   2.729   1.479 -0.4828  1.2594 -0.0918
 8312SOL     OW36568   2.406   1.616   3.117  0.4865 -0.3252  0.6723
 8312SOL    HW136569   2.421   1.708   3.140 -0.8588  0.1269 -0.2825
 8312SOL    HW236570   2.404   1.581   3.206 -1.9282  1.7369  1.4212
 8313SOL     OW36571   4.547   4.071   4.387  0.2650 -0.1171 -0.2135
 8313SOL    HW136572   4.558   4.014   4.463  3.1854  1.3820  0.5016
 8313SOL    HW236573   4.555   4.156   4.430 -1.7572  1.0348 -2.1492
 8314SOL     OW36574   3.000   1.323   6.821 -0.1748  0.1353  0.0115
 8314SOL    HW136575   2.997   1.257   6.891 -0.0965 -2.4096 -2.3555
 8314SOL    HW236576   3.011   1.400   6.875  0.8298 -0.6736  0.9633
 8315SOL     OW36577   4.109   2.824   2.945  1.2805 -0.0618  0.0277
 8315SOL    HW136578   4.113   2.733   2.974  1.4227 -0.1254 -0.1883
 8315SOL    HW236579   4.017   2.839   2.966  2.3108  3.2324  2.2449
 8316SOL     OW36580   1.777   2.136   3.895 -0.4926  0.2830 -0.0021
 8316SOL    HW136581   1.869   2.162   3.887 -0.6316 -0.1477 -2.9221
 8316SOL    HW236582   1.741   2.193   3.963 -0.6630 -0.4618  0.5265
 8317SOL     OW36583   4.186   4.578   2.359 -0.6507  0.2930 -0.5110
 8317SOL    HW136584   4.117   4.578   2.425 -0.5431  0.3134 -0.3993
 8317SOL    HW236585   4.130   4.601   2.285 -0.9674  1.3906  0.0683
 8318SOL     OW36586   1.711   2.746   9.571 -0.0014 -0.2404 -0.6981
 8318SOL    HW136587   1.799   2.752   9.610  0.4815  0.3322 -1.8676
 8318SOL    HW236588   1.677   2.679   9.630  0.8063  0.0688  0.1192
 8319SOL     OW36589   1.702   3.598   3.508  0.1328 -0.3410 -0.2564
 8319SOL    HW136590   1.686   3.679   3.556  1.6684  0.5589 -1.2865
 8319SOL    HW236591   1.713   3.647   3.426  0.5186  0.7861  0.4769
 8320SOL     OW36592   1.321   2.366   1.821 -0.1284  0.1892  0.0875
 8320SOL    HW136593   1.311   2.280   1.860  0.4751 -0.9885 -2.3581
 8320SOL    HW236594   1.256   2.346   1.753  0.6202 -2.4786  0.1682
 8321SOL     OW36595   2.560   3.375   9.911  0.2844  0.2912  0.1203
 8321SOL    HW136596   2.608   3.323   9.847  2.0991  0.5363  1.3105
 8321SOL    HW236597   2.619   3.373   9.986  0.8060  1.5153 -0.2615
 8322SOL     OW36598   1.474   1.540   9.183  0.1581  0.3890  0.2134
 8322SOL    HW136599   1.515   1.498   9.259  0.8405  1.1126  0.2418
 8322SOL    HW236600   1.379   1.547   9.198  0.3080 -1.0054  1.7297
 8323SOL     OW36601   0.456   0.384   9.864  0.7646  0.2325 -0.2275
 8323SOL    HW136602   0.471   0.471   9.901  0.1851  0.2676 -0.0653
 8323SOL    HW236603   0.516   0.329   9.914 -0.6239 -0.7278  0.3921
 8324SOL     OW36604   0.693   0.664   6.636  0.1243 -0.2305 -0.1666
 8324SOL    HW136605   0.740   0.619   6.566 -0.0806  0.8763 -1.0128
 8324SOL    HW236606   0.688   0.754   6.605 -0.6237 -0.3105 -0.2942
 8325SOL     OW36607   3.567   1.430  15.617  0.1464 -0.0347 -0.2411
 8325SOL    HW136608   3.632   1.394  15.556 -0.2643  0.0845 -0.7557
 8325SOL    HW236609   3.513   1.353  15.638 -1.5380  1.1429 -0.2444
 8326SOL     OW36610   3.906   4.433  16.892  0.1625  0.0669 -0.4394
 8326SOL    HW136611   3.831   4.457  16.838 -1.2297 -0.8943  1.0649
 8326SOL    HW236612   3.970   4.420  16.822  1.0246  1.5840  0.0583
 8327SOL     OW36613   3.093   4.645   5.710 -0.1670 -0.2443 -0.2637
 8327SOL    HW136614   3.123   4.680   5.626  1.0229  0.2539  0.3659
 8327SOL    HW236615   3.163   4.676   5.769 -1.7527  0.0988  1.4332
 8328SOL     OW36616   2.599   4.721   6.336 -0.5921  0.2020  0.3418
 8328SOL    HW136617   2.653   4.685   6.266  1.6821  1.4556  1.4534
 8328SOL    HW236618   2.629   0.074   6.337 -0.4321  0.1642 -0.8838
 8329SOL     OW36619   2.786   1.032   8.626 -0.0029 -0.2878  0.1694
 8329SOL    HW136620   2.715   0.971   8.606  1.2542 -0.6680 -3.1156
 8329SOL    HW236621   2.746   1.089   8.691  0.3470  0.3508 -0.1790
 8330SOL     OW36622   1.416   1.337   8.607  0.0518  0.0677  0.6798
 8330SOL    HW136623   1.397   1.410   8.666 -2.6542  0.5549 -0.8141
 8330SOL    HW236624   1.485   1.374   8.552 -0.4531 -1.2432 -0.8558
 8331SOL     OW36625   0.640   0.682   5.822 -0.5367  0.6526  0.1205
 8331SOL    HW136626   0.734   0.700   5.835 -0.3970  1.1531 -1.6838
 8331SOL    HW236627   0.625   0.599   5.869  0.0736 -0.6674 -2.0415
 8332SOL     OW36628   2.141   1.354   1.373  0.6548  0.2878 -0.3504
 8332SOL    HW136629   2.196   1.356   1.294 -1.1456  2.8927 -1.5446
 8332SOL    HW236630   2.100   1.440   1.372  0.2407  0.0829 -1.3168
 8333SOL     OW36631   3.298   3.075  12.395  0.1553  0.7982 -0.4653
 8333SOL    HW136632   3.215   3.031  12.416  0.8649  0.9175  2.6780
 8333SOL    HW236633   3.348   3.007  12.350 -0.5633 -1.4419  2.0802
 8334SOL     OW36634   2.518   0.517   5.479 -0.9711  0.0920  0.0980
 8334SOL    HW136635   2.571   0.551   5.552  0.9832 -1.2206 -0.7127
 8334SOL    HW236636   2.434   0.563   5.492  0.6263  2.6611  1.4408
 8335SOL     OW36637   3.606   2.016   6.275 -0.0335 -0.4376 -0.0004
 8335SOL    HW136638   3.521   2.051   6.249  0.8687 -0.7352 -3.3443
 8335SOL    HW236639   3.651   2.099   6.292 -2.5159  1.7231 -3.9576
 8336SOL     OW36640   3.446   3.567  15.507 -0.0931 -0.4646  0.0064
 8336SOL    HW136641   3.388   3.608  15.571  4.1782  5.0855  0.2759
 8336SOL    HW236642   3.520   3.546  15.563  0.0061 -2.7364 -0.9758
 8337SOL     OW36643   2.318   1.814   8.245 -0.0016 -1.0572 -0.4149
 8337SOL    HW136644   2.263   1.877   8.292  1.4840 -0.8968  1.1116
 8337SOL    HW236645   2.361   1.781   8.324 -1.3080 -0.0658  0.7301
 8338SOL     OW36646   4.248   2.068   2.647 -0.1342  0.3323  0.0410
 8338SOL    HW136647   4.228   2.091   2.556 -1.3438  2.6177  0.8750
 8338SOL    HW236648   4.339   2.040   2.637 -1.0488 -2.1139 -1.3431
 8339SOL     OW36649   0.037   0.554  11.461 -0.6609 -0.4763  0.2608
 8339SOL    HW136650   0.090   0.483  11.497  0.1783 -0.0805 -0.1967
 8339SOL    HW236651   4.732   0.516  11.384  1.3669 -1.3189 -0.4306
 8340SOL     OW36652   2.725   1.927  13.590  0.8507  0.3612  0.6075
 8340SOL    HW136653   2.716   1.970  13.505  0.8918  0.0577  0.4519
 8340SOL    HW236654   2.676   1.846  13.581  1.5204 -0.2212  2.2873
 8341SOL     OW36655   3.458   3.303   7.962 -0.2370  0.3061  0.2756
 8341SOL    HW136656   3.527   3.351   7.915  0.5541 -1.7126 -0.6114
 8341SOL    HW236657   3.385   3.364   7.954 -0.8440 -0.3364  1.0040
 8342SOL     OW36658   0.379   1.642   6.623  0.1457  0.3830  0.2210
 8342SOL    HW136659   0.306   1.700   6.643  0.1670  0.1531  0.9785
 8342SOL    HW236660   0.359   1.619   6.532  0.5225 -2.7435  0.9152
 8343SOL     OW36661   4.196   4.594   9.394  0.1552 -0.7361 -0.2247
 8343SOL    HW136662   4.113   4.638   9.375  0.5486 -0.3237 -0.9985
 8343SOL    HW236663   4.173   4.525   9.457  0.2636 -1.0166 -0.4918
 8344SOL     OW36664   4.390   1.640   9.353 -0.2437  0.1169 -0.4000
 8344SOL    HW136665   4.337   1.613   9.428 -0.9825  0.4999 -0.7855
 8344SOL    HW236666   4.457   1.684   9.404 -1.5831  0.3056  1.1965
 8345SOL     OW36667   0.660   2.700   4.186 -0.0017  0.0041  0.4349
 8345SOL    HW136668   0.649   2.776   4.130 -0.5438  0.2265  0.8489
 8345SOL    HW236669   0.611   2.717   4.266  0.7861 -0.2713  0.9771
 8346SOL     OW36670   0.337   2.199  11.169  1.1681 -0.2609  0.5082
 8346SOL    HW136671   0.321   2.290  11.193 -0.6714 -0.5438  0.3790
 8346SOL    HW236672   0.425   2.214  11.136  0.6100  0.7911 -0.4766
 8347SOL     OW36673   1.443   0.566  12.089  0.4445 -0.0566  0.2050
 8347SOL    HW136674   1.491   0.535  12.166 -1.3637 -1.9592  0.5819
 8347SOL    HW236675   1.356   0.529  12.106  0.7194 -0.9312 -0.2840
 8348SOL     OW36676   0.340   4.354  11.507 -0.0976  0.2857 -0.8725
 8348SOL    HW136677   0.253   4.387  11.533 -0.2281 -0.9819  0.3000
 8348SOL    HW236678   0.385   4.437  11.493  0.2591  0.7333  2.9718
 8349SOL     OW36679   3.922   1.440   2.745 -0.5885 -0.0421 -0.2567
 8349SOL    HW136680   3.898   1.531   2.728  2.6477  0.5124 -1.8482
 8349SOL    HW236681   3.837   1.398   2.734 -0.3424 -0.6506  0.1473
 8350SOL     OW36682   3.013   4.264   9.040 -0.0473  0.2666  0.3912
 8350SOL    HW136683   3.091   4.317   9.061  0.6996 -1.0581  0.9386
 8350SOL    HW236684   3.030   4.179   9.079 -0.6180  0.1124  0.2880
 8351SOL     OW36685   0.010   0.790   6.484  0.2919 -0.5865  0.4545
 8351SOL    HW136686   4.687   0.863   6.472  0.9247 -0.4260 -1.8390
 8351SOL    HW236687   0.040   0.811   6.573  0.4343  0.8895  0.0573
 8352SOL     OW36688   0.395   0.502   3.399 -0.2129  0.2698 -0.5107
 8352SOL    HW136689   0.479   0.476   3.362 -0.3347 -2.5774  1.1993
 8352SOL    HW236690   0.342   0.520   3.321 -3.3977 -1.6176  1.2484
 8353SOL     OW36691   4.514   0.996   8.121  0.2345 -0.3141  0.1328
 8353SOL    HW136692   4.549   0.999   8.032 -2.9702 -1.9609 -1.1968
 8353SOL    HW236693   4.437   0.941   8.106  1.3271 -1.4924 -1.0922
 8354SOL     OW36694   3.076   2.850   2.502  0.0538 -0.0810 -0.0538
 8354SOL    HW136695   3.164   2.877   2.475  0.3557  1.3414  2.3097
 8354SOL    HW236696   3.014   2.859   2.430  3.2482 -1.2204 -2.9683
 8355SOL     OW36697   4.387   3.900  15.673 -0.0037 -0.4473  0.1008
 8355SOL    HW136698   4.455   3.841  15.705  3.3282  2.8008 -1.0030
 8355SOL    HW236699   4.394   3.895  15.577 -0.4144 -1.1632  0.1047
 8356SOL     OW36700   0.238   3.263   5.474  0.5753 -0.0517  0.2848
 8356SOL    HW136701   0.300   3.317   5.523  0.8514 -0.0094 -0.1163
 8356SOL    HW236702   0.300   3.196   5.443 -0.4606 -1.6754  1.7429
 8357SOL     OW36703   0.408   3.010   3.459 -0.9876  0.4878  0.0620
 8357SOL    HW136704   0.484   2.953   3.469  0.6202  2.6382 -0.1722
 8357SOL    HW236705   0.435   3.089   3.506 -2.2178  1.0856 -0.2271
 8358SOL     OW36706   1.770   1.006  10.211 -0.3853 -0.5993  0.3354
 8358SOL    HW136707   1.696   1.044  10.165  1.7766  0.9924 -1.8528
 8358SOL    HW236708   1.844   1.038  10.158 -0.9184 -1.7872 -1.1442
 8359SOL     OW36709   3.880   0.473  14.604 -0.1502 -0.5052  0.4412
 8359SOL    HW136710   3.817   0.540  14.633 -0.8486 -0.3577 -1.4197
 8359SOL    HW236711   3.926   0.452  14.685 -0.3208  1.6844  1.1082
 8360SOL     OW36712   4.540   2.915   3.395 -0.2817 -0.0669 -0.0325
 8360SOL    HW136713   4.558   2.903   3.488 -0.9107  0.0048  0.0993
 8360SOL    HW236714   4.541   2.823   3.369  0.3895  0.5774 -2.2808
 8361SOL     OW36715   3.008   1.123   9.372 -0.1730 -0.2167 -0.3893
 8361SOL    HW136716   2.924   1.092   9.404  0.9750 -0.0755  2.7190
 8361SOL    HW236717   3.012   1.213   9.403  0.1178 -0.4586  0.2682
 8362SOL     OW36718   2.646   4.677   4.271 -0.2737 -0.2224 -0.1161
 8362SOL    HW136719   2.646   4.736   4.346  1.7958 -1.4013  0.8204
 8362SOL    HW236720   2.709   4.720   4.214  0.1777 -1.1814 -0.3521
 8363SOL     OW36721   3.333   3.746   8.829  0.5924  0.2191  0.4008
 8363SOL    HW136722   3.398   3.680   8.849  1.6096  1.2196  0.3729
 8363SOL    HW236723   3.375   3.787   8.753 -0.7920 -0.0043 -0.4839
 8364SOL     OW36724   2.404   0.146  14.325  0.3443 -0.7824  0.2202
 8364SOL    HW136725   2.409   0.240  14.342  2.8687 -0.6824 -1.1227
 8364SOL    HW236726   2.495   0.132  14.300  1.1852  1.9242  1.7239
 8365SOL     OW36727   0.065   2.450   5.491  0.4025 -0.0467  0.4414
 8365SOL    HW136728   0.083   2.474   5.400 -0.0667 -0.6517  0.1923
 8365SOL    HW236729   4.728   2.507   5.511 -0.8051 -1.5494  0.1752
 8366SOL     OW36730   3.832   4.030   3.346  0.5326  0.3733  0.0159
 8366SOL    HW136731   3.817   3.980   3.266  1.3897 -1.3851  0.9805
 8366SOL    HW236732   3.750   4.013   3.393  1.5702 -0.1926  1.5838
 8367SOL     OW36733   0.423   0.117   6.900 -0.2621 -0.1168 -0.3138
 8367SOL    HW136734   0.412   0.126   6.805  0.7593 -1.8658 -0.6011
 8367SOL    HW236735   0.366   0.180   6.942  0.5152  0.5647 -0.2777
 8368SOL     OW36736   2.614   1.426   9.291 -0.4556 -0.6731 -0.1089
 8368SOL    HW136737   2.657   1.375   9.222  1.4695 -0.1766  0.7252
 8368SOL    HW236738   2.578   1.501   9.245  0.6597  0.0261  0.1570
 8369SOL     OW36739   0.505   1.317  16.003 -0.0016  0.7905  0.2539
 8369SOL    HW136740   0.573   1.383  16.011  0.3151  0.5076 -0.1052
 8369SOL    HW236741   0.456   1.357  15.931 -1.2935 -4.4120 -1.8066
 8370SOL     OW36742   1.656   0.836   4.815 -0.3600  0.1553 -0.5831
 8370SOL    HW136743   1.637   0.930   4.814 -3.0325 -0.3835 -2.0295
 8370SOL    HW236744   1.742   0.830   4.856 -1.6750 -2.1586  1.7718
 8371SOL     OW36745   2.173   0.549  10.992  0.8384  0.3182  0.2516
 8371SOL    HW136746   2.124   0.631  10.987 -1.2031 -0.8937  0.1894
 8371SOL    HW236747   2.200   0.528  10.902 -0.7591 -1.7629  0.2426
 8372SOL     OW36748   3.536   0.859   1.902  0.4334 -0.1858 -0.4358
 8372SOL    HW136749   3.560   0.931   1.844  0.5759  0.9757  1.0677
 8372SOL    HW236750   3.624   0.827   1.923  0.5329 -0.0696 -0.6692
 8373SOL     OW36751   2.142   1.439   2.643  0.1068  0.0510  0.0822
 8373SOL    HW136752   2.061   1.450   2.693  0.9034  0.7854  1.2253
 8373SOL    HW236753   2.212   1.451   2.708 -0.3104  0.1685  0.5068
 8374SOL     OW36754   1.181   3.192   2.833  0.3136  0.2925 -1.0661
 8374SOL    HW136755   1.140   3.154   2.755  1.3289  1.4453 -2.1465
 8374SOL    HW236756   1.244   3.247   2.787  3.1568 -1.7043  0.4975
 8375SOL     OW36757   3.796   3.292   4.147  0.0767 -0.2843 -0.2461
 8375SOL    HW136758   3.744   3.368   4.122 -1.3302 -1.2849 -0.3519
 8375SOL    HW236759   3.736   3.243   4.203 -1.2942  2.4950  0.7128
 8376SOL     OW36760   4.641   0.461  15.289 -0.0518  0.0277 -0.3199
 8376SOL    HW136761   4.679   0.454  15.376 -1.7905 -1.9721  0.2783
 8376SOL    HW236762   4.555   0.418  15.297 -0.6509  1.9826  3.7052
 8377SOL     OW36763   1.770   1.989  16.121  0.0736 -0.0459 -0.1228
 8377SOL    HW136764   1.828   1.925  16.081  0.3130 -0.4002  0.7835
 8377SOL    HW236765   1.733   2.040  16.049 -0.7371  0.0989  0.3958
 8378SOL     OW36766   2.567   1.430   4.754 -0.5175  0.0031  0.9089
 8378SOL    HW136767   2.526   1.371   4.691 -2.0148 -1.6646  3.4410
 8378SOL    HW236768   2.660   1.409   4.750  0.2576  3.7368 -0.7786
 8379SOL     OW36769   0.883   1.945  11.254 -0.0786 -0.3556  0.0727
 8379SOL    HW136770   0.918   2.032  11.234 -0.9339 -0.2676 -1.0253
 8379SOL    HW236771   0.794   1.963  11.225  0.1855  1.5153  0.3845
 8380SOL     OW36772   3.641   4.457   6.618  0.0845 -0.6685  0.5957
 8380SOL    HW136773   3.725   4.477   6.659 -0.0699 -1.4279  1.2684
 8380SOL    HW236774   3.589   4.422   6.690 -2.1264  0.4439 -0.4438
 8381SOL     OW36775   2.371   4.345   3.012 -0.1116  0.1475 -0.1682
 8381SOL    HW136776   2.407   4.412   2.955  0.6663  1.0939  1.4259
 8381SOL    HW236777   2.426   4.350   3.090  1.9917 -1.7498 -1.5336
 8382SOL     OW36778   0.799   4.378  10.154 -0.5479  0.0748  0.0665
 8382SOL    HW136779   0.717   4.404  10.197  1.2934 -0.0896  3.6607
 8382SOL    HW236780   0.847   4.453  10.188 -0.6243 -0.0517  0.4597
 8383SOL     OW36781   1.679   3.357   4.905 -0.0563 -0.1224 -0.6243
 8383SOL    HW136782   1.628   3.361   4.986 -0.2047  2.2022 -0.8323
 8383SOL    HW236783   1.701   3.264   4.892  0.2868 -0.1647  0.2554
 8384SOL     OW36784   1.834   3.184   1.695  0.7349  0.4675 -0.7443
 8384SOL    HW136785   1.788   3.268   1.693 -1.0298 -0.4891  0.3755
 8384SOL    HW236786   1.902   3.191   1.761  0.6635  0.0509 -0.6288
 8385SOL     OW36787   3.779   4.540  11.477 -0.3730 -0.3280 -0.0186
 8385SOL    HW136788   3.789   4.488  11.398 -1.1076 -0.7953  0.2001
 8385SOL    HW236789   3.696   4.501  11.505  0.2285 -1.1424  0.6271
 8386SOL     OW36790   0.463   3.350  16.258  0.1638  0.2268 -0.6876
 8386SOL    HW136791   0.437   3.268  16.299 -1.0125 -0.1513 -2.1835
 8386SOL    HW236792   0.411   3.416  16.303  0.4990  0.5655 -0.7962
 8387SOL     OW36793   0.542   4.721   8.720  0.4489  0.1516  0.4295
 8387SOL    HW136794   0.490   0.042   8.775 -1.6904 -2.4684  1.2126
 8387SOL    HW236795   0.476   4.708   8.652  1.5786 -3.0720 -0.0303
 8388SOL     OW36796   2.863   4.175  15.388 -0.1033  0.0388 -0.0127
 8388SOL    HW136797   2.821   4.233  15.451 -0.4791  1.4344 -1.5538
 8388SOL    HW236798   2.820   4.206  15.308 -0.7837  0.2189  0.4276
 8389SOL     OW36799   0.016   2.559  12.966 -0.0980 -0.2214  0.3439
 8389SOL    HW136800   4.670   2.564  12.919  0.0077 -0.9821  0.0864
 8389SOL    HW236801   0.011   2.475  13.011  0.3014 -0.2117  0.4082
 8390SOL     OW36802   3.902   4.127  13.285 -0.1988  0.3304  0.4506
 8390SOL    HW136803   3.846   4.125  13.363 -0.8072  2.2531  0.0498
 8390SOL    HW236804   3.984   4.162  13.322 -0.8773  2.4615 -0.1046
 8391SOL     OW36805   4.642   1.855  16.527 -0.3316 -0.0723 -0.0030
 8391SOL    HW136806   4.584   1.928  16.549 -0.2010 -0.1958  0.7697
 8391SOL    HW236807   4.670   1.870  16.437 -0.7376  0.0342 -0.1120
 8392SOL     OW36808   1.766   4.634   8.167  0.3207  0.4592  0.3896
 8392SOL    HW136809   1.860   4.650   8.173  0.6279 -0.8939 -0.7144
 8392SOL    HW236810   1.771   4.568   8.098  2.4839  0.6217  0.4048
 8393SOL     OW36811   4.157   0.310   3.688  0.0485  0.4180 -0.1701
 8393SOL    HW136812   4.156   0.275   3.599  0.0975  1.0823 -0.4320
 8393SOL    HW236813   4.248   0.283   3.698 -0.4406 -2.0078 -2.2318
 8394SOL     OW36814   1.216   3.709  11.048 -0.2173 -0.2254 -0.2463
 8394SOL    HW136815   1.294   3.657  11.068 -1.5722 -1.2711  2.4040
 8394SOL    HW236816   1.158   3.681  11.119 -1.7817  0.5380 -1.2386
 8395SOL     OW36817   0.170   4.052   7.160 -0.0763  0.2267 -0.2339
 8395SOL    HW136818   0.093   4.073   7.213  1.0227 -0.0760  1.4891
 8395SOL    HW236819   0.229   4.026   7.231  0.4379  2.5240  0.1687
 8396SOL     OW36820   4.675   1.566  10.347 -0.0327 -0.2550  0.3001
 8396SOL    HW136821   4.671   1.472  10.329 -0.0532 -0.2832  0.4493
 8396SOL    HW236822   4.689   1.582  10.254  0.1379  0.6415  0.4779
 8397SOL     OW36823   2.818   0.173   5.710  0.2930 -0.3344  0.0075
 8397SOL    HW136824   2.851   0.099   5.761  1.3839 -0.4010 -0.7796
 8397SOL    HW236825   2.759   0.135   5.644 -0.1874  0.4163  0.0029
 8398SOL     OW36826   2.898   3.723   1.200  0.4271 -0.1902  0.8430
 8398SOL    HW136827   2.854   3.683   1.125  2.5811 -2.3381  0.7218
 8398SOL    HW236828   2.987   3.716   1.166 -0.7805  1.1735 -2.5923
 8399SOL     OW36829   2.935   0.062   8.204 -0.2918 -0.4871 -0.6180
 8399SOL    HW136830   2.970   0.071   8.116 -0.5857  1.4760 -0.5331
 8399SOL    HW236831   3.016   0.049   8.253 -0.0632 -1.8215 -1.3616
 8400SOL     OW36832   4.671   2.975  15.944  0.4518  0.3005  0.3586
 8400SOL    HW136833   0.011   2.939  15.902  0.8739  0.8521  0.6661
 8400SOL    HW236834   4.710   3.002  16.027  1.1967  1.4940 -0.3878
 8401SOL     OW36835   4.294   2.995   9.276  0.5286  0.0789  0.0444
 8401SOL    HW136836   4.231   2.935   9.237 -0.7137  0.9629  0.6850
 8401SOL    HW236837   4.370   2.937   9.277  0.6130  0.1749 -0.7818
 8402SOL     OW36838   1.519   3.749  11.291 -0.1090  0.6817  0.1339
 8402SOL    HW136839   1.600   3.698  11.297 -0.4208  0.3268  1.3725
 8402SOL    HW236840   1.477   3.696  11.224  1.9984  0.4339 -0.9976
 8403SOL     OW36841   3.181   1.749   0.630  0.5838 -0.1671  0.1352
 8403SOL    HW136842   3.122   1.697   0.683  0.8631 -1.2405 -0.6118
 8403SOL    HW236843   3.214   1.682   0.570  1.2947 -1.8366  2.4013
 8404SOL     OW36844   2.506   3.862  10.989  0.3581 -0.2716 -0.8036
 8404SOL    HW136845   2.424   3.871  11.038  0.9090  1.3673 -0.2084
 8404SOL    HW236846   2.488   3.793  10.925  2.5617  1.3162 -3.1443
 8405SOL     OW36847   2.756   3.387   7.902 -0.6275 -0.1734  0.0762
 8405SOL    HW136848   2.706   3.468   7.899 -2.1496 -1.1163 -0.5571
 8405SOL    HW236849   2.700   3.343   7.966  0.1442 -1.3908 -0.0892
 8406SOL     OW36850   0.524   3.007   1.880  0.2291 -0.1705  0.3780
 8406SOL    HW136851   0.524   3.014   1.784 -0.9166 -1.8506  0.2467
 8406SOL    HW236852   0.556   2.917   1.888 -0.0615 -0.5111 -2.2226
 8407SOL     OW36853   1.013   3.266   3.037 -0.4153  0.0340 -0.0568
 8407SOL    HW136854   1.034   3.184   3.081 -0.8028 -0.2484 -0.4009
 8407SOL    HW236855   1.051   3.241   2.953 -2.4539 -0.4126 -0.8545
 8408SOL     OW36856   0.248   2.103   2.744 -0.0875 -0.2664 -0.0772
 8408SOL    HW136857   0.157   2.133   2.746  0.3843  1.1290 -0.0709
 8408SOL    HW236858   0.220   2.013   2.762 -0.4845 -0.5246 -1.9717
 8409SOL     OW36859   4.082   0.156  11.292 -0.6636 -0.4188  0.5472
 8409SOL    HW136860   4.058   0.203  11.212  4.8229  0.6918 -0.4399
 8409SOL    HW236861   4.000   0.130  11.335 -1.8250  0.5641 -1.0452
 8410SOL     OW36862   1.611   2.751   8.643  0.0782 -0.3667  0.1341
 8410SOL    HW136863   1.543   2.734   8.579 -0.2183 -2.7889  1.0937
 8410SOL    HW236864   1.662   2.672   8.625  0.4241  0.1176 -0.9912
 8411SOL     OW36865   0.847   1.200   4.547 -0.6486 -0.0802  0.1394
 8411SOL    HW136866   0.942   1.197   4.542 -0.6548  1.4513 -0.6756
 8411SOL    HW236867   0.838   1.110   4.516 -0.5378  0.2927 -0.9573
 8412SOL     OW36868   2.095   3.662  10.425  0.3712 -0.2420  0.0300
 8412SOL    HW136869   2.072   3.593  10.363  3.3216 -0.8348 -0.4032
 8412SOL    HW236870   2.018   3.715  10.448  1.1165  0.5878  0.6193
 8413SOL     OW36871   2.820   1.699  17.295 -0.0176  1.1995 -0.5724
 8413SOL    HW136872   2.814   1.733  17.385 -1.0998 -1.2248  0.2743
 8413SOL    HW236873   2.761   1.761  17.253  0.5568  2.2392  0.1502
 8414SOL     OW36874   0.742   2.503  13.856  0.1622  0.3881 -0.6257
 8414SOL    HW136875   0.778   2.591  13.857  1.4919 -0.1847  2.0067
 8414SOL    HW236876   0.650   2.511  13.883 -0.2295 -1.1497 -1.4843
 8415SOL     OW36877   0.289   3.411   4.568 -0.2736 -0.3060 -0.2763
 8415SOL    HW136878   0.219   3.406   4.502  0.8038 -1.1302 -1.3549
 8415SOL    HW236879   0.317   3.501   4.553  0.4796 -0.7124 -1.3293
 8416SOL     OW36880   4.140   2.187   9.140  0.1562  0.2141 -0.2960
 8416SOL    HW136881   4.225   2.219   9.108  1.8371 -1.7225  2.2128
 8416SOL    HW236882   4.112   2.122   9.075 -1.8912  1.3681 -0.5678
 8417SOL     OW36883   2.440   0.002   4.562 -0.0685 -0.0151 -0.2605
 8417SOL    HW136884   2.436   4.655   4.607 -0.3862  0.4255  0.5428
 8417SOL    HW236885   2.349   0.028   4.544  0.7160  1.1168 -2.6011
 8418SOL     OW36886   2.027   0.779  10.936 -0.0301  0.2415 -0.5030
 8418SOL    HW136887   2.008   0.871  10.920  1.4509  0.7345  0.5873
 8418SOL    HW236888   1.942   0.736  10.922  0.1635 -0.6559  1.0054
 8419SOL     OW36889   3.789   0.960   2.653  0.2645 -0.0301  0.3648
 8419SOL    HW136890   3.764   0.973   2.745  1.4391  0.4715  0.6117
 8419SOL    HW236891   3.710   0.935   2.605 -2.1252  2.7515  2.8068
 8420SOL     OW36892   4.196   4.415   4.662  0.2054  0.5663  0.1936
 8420SOL    HW136893   4.152   4.494   4.631  2.0219  1.9365  1.1203
 8420SOL    HW236894   4.141   4.383   4.734  1.0876 -2.7570 -0.5958
 8421SOL     OW36895   4.323   1.346   5.935  0.4237 -0.1352  0.2259
 8421SOL    HW136896   4.280   1.263   5.916  0.9530  0.0288 -1.7140
 8421SOL    HW236897   4.244   1.392   5.964 -0.3523  0.2795 -2.5688
 8422SOL     OW36898   2.542   1.598   1.434  0.3447 -0.2421 -0.5306
 8422SOL    HW136899   2.465   1.649   1.459  0.8288  0.1143  0.2033
 8422SOL    HW236900   2.549   1.552   1.517 -0.7802 -1.5784 -1.1806
 8423SOL     OW36901   1.610   4.228   3.401 -0.0517  0.5024  0.0082
 8423SOL    HW136902   1.563   4.146   3.383  1.0163 -0.2457  0.6439
 8423SOL    HW236903   1.699   4.196   3.413  0.5838  1.8026 -1.2752
 8424SOL     OW36904   1.696   1.330   1.628  0.0640 -0.2047 -0.8166
 8424SOL    HW136905   1.608   1.294   1.616 -0.5184  0.2825  2.0570
 8424SOL    HW236906   1.680   1.386   1.704  1.4445 -1.1656  0.1688
 8425SOL     OW36907   1.271   0.214   3.502 -0.7474  0.6943 -0.4865
 8425SOL    HW136908   1.176   0.211   3.502 -0.6655 -1.8270 -0.0555
 8425SOL    HW236909   1.282   0.309   3.508  1.1622  0.3565  1.7243
 8426SOL     OW36910   2.814   2.150   2.355  0.8585 -0.2330 -0.1747
 8426SOL    HW136911   2.858   2.202   2.422  0.8328  2.3630 -2.1860
 8426SOL    HW236912   2.724   2.164   2.382  0.9216 -0.0606 -0.0516
 8427SOL     OW36913   1.360   4.462  12.810 -0.1224 -0.2056  0.1935
 8427SOL    HW136914   1.374   4.521  12.885  1.7694 -1.1689  0.6106
 8427SOL    HW236915   1.272   4.486  12.781 -1.7080 -4.0253  1.8780
 8428SOL     OW36916   0.285   2.575   8.170  0.2820  0.1223  0.3802
 8428SOL    HW136917   0.376   2.603   8.181  0.2728 -0.9937  3.1475
 8428SOL    HW236918   0.276   2.574   8.074 -0.6187 -0.2470  0.4720
 8429SOL     OW36919   3.086   4.427  14.228 -0.1447 -0.3823  0.0233
 8429SOL    HW136920   3.054   4.441  14.138  0.8056  1.2120 -0.0658
 8429SOL    HW236921   3.167   4.377  14.218  0.8853  1.0130  1.4341
 8430SOL     OW36922   1.071   3.012   9.608 -0.5412  0.6906  0.4377
 8430SOL    HW136923   1.145   2.969   9.652 -0.8115  2.1776  2.3494
 8430SOL    HW236924   1.103   3.024   9.519 -1.8683 -0.2585 -0.1739
 8431SOL     OW36925   1.667   3.246   0.709  0.4742  1.0894 -0.4666
 8431SOL    HW136926   1.679   3.164   0.660  0.7752 -0.0274  1.4384
 8431SOL    HW236927   1.698   3.224   0.797 -1.5816  2.6419  0.6163
 8432SOL     OW36928   3.541   4.375   3.671  0.4244 -0.0166  0.0936
 8432SOL    HW136929   3.562   4.283   3.685 -0.4831 -0.2463 -0.0760
 8432SOL    HW236930   3.447   4.386   3.685  0.3392  0.1131 -0.5580
 8433SOL     OW36931   4.666   4.421  16.211  0.4925  0.2528  0.0621
 8433SOL    HW136932   4.632   4.444  16.124 -0.0067  0.5262  0.3263
 8433SOL    HW236933   4.709   4.341  16.183 -1.0046 -0.3009 -0.6758
 8434SOL     OW36934   2.026   1.842   6.525  0.3784  0.3898  0.0831
 8434SOL    HW136935   1.938   1.807   6.540  2.6323 -3.5469  4.1614
 8434SOL    HW236936   2.061   1.824   6.612 -1.1201 -0.0120  0.6019
 8435SOL     OW36937   0.787   1.392   8.294  0.0375  0.1483 -0.2805
 8435SOL    HW136938   0.694   1.392   8.319  0.1857 -0.2988  0.2712
 8435SOL    HW236939   0.833   1.397   8.377  0.0808 -0.5333 -0.2602
 8436SOL     OW36940   2.859   2.690   9.914 -0.9943 -0.5470 -0.5327
 8436SOL    HW136941   2.793   2.729   9.971  2.3076  2.8433  0.9910
 8436SOL    HW236942   2.900   2.646   9.989 -0.3473  1.3048  0.1902
 8437SOL     OW36943   3.074   4.724  16.358  0.0017  0.5325 -0.2604
 8437SOL    HW136944   3.103   4.663  16.289  0.2464 -0.6982  0.9344
 8437SOL    HW236945   3.153   0.036  16.379 -0.1759  0.4384  0.6052
 8438SOL     OW36946   0.801   3.588  14.860 -0.1137 -0.4940 -0.5256
 8438SOL    HW136947   0.760   3.540  14.932 -1.6912 -0.2448 -1.2698
 8438SOL    HW236948   0.860   3.517  14.835  0.6454  0.2640 -0.8607
 8439SOL     OW36949   3.591   3.852   9.359 -0.3154 -0.4332  0.5818
 8439SOL    HW136950   3.681   3.876   9.381  0.1301 -1.0973 -0.5179
 8439SOL    HW236951   3.619   3.806   9.280 -0.1055  2.9668 -1.3085
 8440SOL     OW36952   1.032   1.510   4.886  0.4772  0.0775 -0.2289
 8440SOL    HW136953   1.046   1.416   4.873 -0.2007  0.2980 -2.6000
 8440SOL    HW236954   0.986   1.521   4.969 -0.2383 -4.7697  0.0277
 8441SOL     OW36955   0.640   1.058  14.557 -0.5569 -0.3270  0.2330
 8441SOL    HW136956   0.581   0.982  14.562 -0.5467 -0.2767  1.2135
 8441SOL    HW236957   0.720   1.007  14.568 -1.5300 -1.9080  0.0668
 8442SOL     OW36958   1.272   1.547   2.396 -0.0474  0.0091 -0.1157
 8442SOL    HW136959   1.333   1.474   2.402 -0.2877 -0.2535 -0.8377
 8442SOL    HW236960   1.266   1.583   2.484  2.1341 -0.8708  0.3774
 8443SOL     OW36961   3.293   1.078   3.356 -0.6081 -0.0091  0.1871
 8443SOL    HW136962   3.237   1.005   3.384  1.2992  0.1193  4.3232
 8443SOL    HW236963   3.356   1.079   3.428 -0.1401  3.5117 -0.2629
 8444SOL     OW36964   3.595   1.786   9.568 -0.1558 -0.6265 -0.2933
 8444SOL    HW136965   3.687   1.795   9.594 -0.7289  1.3705  1.0078
 8444SOL    HW236966   3.567   1.710   9.620  0.7106 -0.4168  0.4742
 8445SOL     OW36967   4.695   3.848   3.883 -0.6278  0.3135 -0.2556
 8445SOL    HW136968   4.640   3.926   3.898 -0.0412  0.6144  0.3143
 8445SOL    HW236969   0.017   3.870   3.811 -1.8780 -2.0991 -2.0360
 8446SOL     OW36970   3.472   1.686   5.393 -0.5090 -0.1331  0.4031
 8446SOL    HW136971   3.441   1.639   5.470  0.2265 -1.3938 -0.0650
 8446SOL    HW236972   3.545   1.736   5.428 -0.5210 -0.2780  0.6396
 8447SOL     OW36973   1.780   0.433   6.390 -0.3386 -0.1637 -0.0372
 8447SOL    HW136974   1.839   0.493   6.345 -0.7257  1.2732  1.3523
 8447SOL    HW236975   1.776   0.369   6.319  0.9257 -1.0234  0.6679
 8448SOL     OW36976   0.915   1.645   8.254 -0.1831  0.5316  0.3799
 8448SOL    HW136977   0.855   1.678   8.188 -1.1835  1.9589  1.9995
 8448SOL    HW236978   0.864   1.572   8.288 -0.2140  0.1591 -0.4684
 8449SOL     OW36979   1.117   0.416   7.555 -0.3800  0.5769  0.3420
 8449SOL    HW136980   1.081   0.502   7.537  0.2429  0.6901 -0.3121
 8449SOL    HW236981   1.211   0.430   7.564 -0.0109  0.0744 -2.7551
 8450SOL     OW36982   3.410   3.616   4.782  0.0389 -0.0081 -0.2197
 8450SOL    HW136983   3.359   3.672   4.840 -0.3900  0.3370 -0.9186
 8450SOL    HW236984   3.487   3.672   4.794  0.6796 -0.7309 -0.9702
 8451SOL     OW36985   0.998   1.451   6.366  0.7599 -0.0523 -0.2283
 8451SOL    HW136986   1.036   1.410   6.444 -0.6115 -0.9988 -0.0522
 8451SOL    HW236987   0.904   1.434   6.367  0.3141  2.5440  1.9935
 8452SOL     OW36988   3.090   3.902   4.906  0.2734 -0.2410  0.1908
 8452SOL    HW136989   3.134   3.883   4.989  1.6813  1.2236 -0.2225
 8452SOL    HW236990   3.090   3.998   4.909  0.2804 -0.2426  0.2378
 8453SOL     OW36991   0.747   0.316   9.046  0.0991 -0.5021  0.2689
 8453SOL    HW136992   0.722   0.347   8.958 -2.1475 -0.1571  1.0259
 8453SOL    HW236993   0.722   0.225   9.057 -2.3591  0.0519 -0.5628
 8454SOL     OW36994   4.241   2.846   2.078  0.2255  0.7706 -0.0315
 8454SOL    HW136995   4.259   2.923   2.132  1.3216 -0.9495  2.0448
 8454SOL    HW236996   4.325   2.813   2.046  0.2980  1.0140 -0.0921
 8455SOL     OW36997   2.062   1.992   5.255  0.1666 -0.0450 -0.1238
 8455SOL    HW136998   2.127   1.954   5.196 -0.6303 -1.1871 -0.2543
 8455SOL    HW236999   2.108   2.074   5.273  1.9333 -0.9921 -0.2525
 8456SOL     OW37000   1.088   0.366  15.271  0.1221 -0.3919 -0.1490
 8456SOL    HW137001   1.171   0.323  15.247 -1.1148 -3.2194  0.6166
 8456SOL    HW237002   1.079   0.433  15.205  0.6971 -0.9253 -0.7765
 8457SOL     OW37003   4.222   0.506   7.938  0.1324  0.6918  0.3315
 8457SOL    HW137004   4.234   0.483   7.846  1.9021  1.3153  0.4090
 8457SOL    HW237005   4.241   0.600   7.946 -1.9899  1.1310  0.1410
 8458SOL     OW37006   0.441   0.418   6.646 -0.0993  0.2221  0.8256
 8458SOL    HW137007   0.458   0.468   6.726 -1.0287  2.8646 -0.6215
 8458SOL    HW237008   0.346   0.403   6.654 -0.0212  0.5322  2.1890
 8459SOL     OW37009   1.988   2.383  12.556  0.3114  0.4248  0.5493
 8459SOL    HW137010   2.016   2.293  12.573 -0.4451 -0.2315 -1.7020
 8459SOL    HW237011   2.053   2.431  12.609 -0.2216  0.7966  0.8647
 8460SOL     OW37012   3.874   3.797  16.964 -0.2055  0.1735  0.2552
 8460SOL    HW137013   3.844   3.734  16.899  1.9042 -0.4074 -0.1544
 8460SOL    HW237014   3.828   3.765  17.041  1.6904 -1.7609  0.5717
 8461SOL     OW37015   3.064   1.677   5.848 -0.2213 -0.3514  0.0311
 8461SOL    HW137016   3.077   1.651   5.757 -1.4151  0.1498 -0.2814
 8461SOL    HW237017   2.969   1.669   5.856 -0.0054 -3.9065 -0.6145
 8462SOL     OW37018   2.707   1.307  13.387  0.3464  0.2346  0.3172
 8462SOL    HW137019   2.660   1.259  13.318  1.1051  0.7905 -0.5828
 8462SOL    HW237020   2.760   1.368  13.337  0.4820 -0.7663 -0.7700
 8463SOL     OW37021   0.617   0.886   9.451 -0.4247 -0.3150 -0.1385
 8463SOL    HW137022   0.625   0.866   9.544  0.2484  1.2528  0.1272
 8463SOL    HW237023   0.708   0.875   9.425 -0.0769  1.4142  0.4096
 8464SOL     OW37024   2.822   2.073   5.227  0.5453 -0.2484 -0.0105
 8464SOL    HW137025   2.847   2.140   5.291 -0.6745  0.2065 -0.0078
 8464SOL    HW237026   2.737   2.036   5.248  1.5831 -2.9603 -0.6558
 8465SOL     OW37027   3.697   0.427   0.787 -0.2173 -0.1929 -0.0002
 8465SOL    HW137028   3.663   0.472   0.865 -0.2602 -0.8301  0.3444
 8465SOL    HW237029   3.790   0.426   0.810 -0.6674 -0.0605  1.8384
 8466SOL     OW37030   0.859   4.440   7.654 -0.1084 -0.3254  0.3172
 8466SOL    HW137031   0.902   4.523   7.674 -2.0337  1.1583 -1.6898
 8466SOL    HW237032   0.831   4.466   7.566  0.5985  1.4671  0.6254
 8467SOL     OW37033   1.819   2.629   5.939  0.3197 -0.0592  0.0477
 8467SOL    HW137034   1.785   2.717   5.922  0.7834  0.4191  1.6348
 8467SOL    HW237035   1.893   2.628   5.879  0.1335 -0.1623 -0.1788
 8468SOL     OW37036   4.581   0.544   7.248 -0.6546  0.0763 -0.3728
 8468SOL    HW137037   4.579   0.636   7.221  0.9523  0.8265  2.0659
 8468SOL    HW237038   4.551   0.561   7.337  3.5604  1.1625  0.8520
 8469SOL     OW37039   3.138   4.491   5.137 -0.3265  0.5124  0.3080
 8469SOL    HW137040   3.198   4.516   5.066  0.0928  1.2294  0.9153
 8469SOL    HW237041   3.194   4.489   5.214 -2.0935 -0.5787  1.5430
 8470SOL     OW37042   0.122   3.145   9.194 -0.0424  0.5440  0.3606
 8470SOL    HW137043   0.166   3.093   9.261  1.1651  1.2863  0.1456
 8470SOL    HW237044   0.097   3.080   9.128 -2.4877 -0.9072  2.7356
 8471SOL     OW37045   2.051   0.605  16.586  0.3320  0.3527  0.5017
 8471SOL    HW137046   2.043   0.510  16.594 -0.2208  0.1568 -2.1339
 8471SOL    HW237047   2.145   0.611  16.598  0.3538 -1.8380  1.3771
 8472SOL     OW37048   2.057   3.942   5.566 -0.4449 -0.0988  0.1084
 8472SOL    HW137049   1.981   3.980   5.522 -2.4858 -3.1949  0.9778
 8472SOL    HW237050   2.020   3.864   5.607 -1.0930  1.3573  2.3130
 8473SOL     OW37051   2.526   0.806  15.033  0.1730 -0.7162 -0.2654
 8473SOL    HW137052   2.600   0.839  15.083  0.9688 -1.0293 -1.2381
 8473SOL    HW237053   2.564   0.781  14.949  1.3748  1.0200 -0.2397
 8474SOL     OW37054   0.166   4.494   3.218  0.2260 -0.0757 -0.2658
 8474SOL    HW137055   0.205   4.555   3.155  1.7504 -1.6865 -0.8866
 8474SOL    HW237056   0.139   4.425   3.157 -0.0658 -1.8905  1.8974
 8475SOL     OW37057   2.897   4.573   5.345  0.0329 -0.2521  0.3711
 8475SOL    HW137058   2.877   4.659   5.307  1.8817  1.6178  3.5359
 8475SOL    HW237059   2.978   4.591   5.394  0.5020 -0.1331 -0.4554
 8476SOL     OW37060   3.778   4.558   3.230  0.6015 -0.1539 -0.1533
 8476SOL    HW137061   3.712   4.489   3.219  1.5712 -1.0898 -0.0980
 8476SOL    HW237062   3.750   4.606   3.308  1.9930 -1.3924  1.1028
 8477SOL     OW37063   4.655   1.917   8.810  0.5155 -0.0720  1.0189
 8477SOL    HW137064   4.680   1.902   8.901 -1.5909 -0.6509  1.4996
 8477SOL    HW237065   4.560   1.923   8.807  0.3894 -2.4805 -0.2501
 8478SOL     OW37066   0.200   4.522   4.349 -0.2518  0.4087  0.0586
 8478SOL    HW137067   0.183   4.607   4.310  2.1853  0.9431  0.1478
 8478SOL    HW237068   0.147   4.461   4.298  0.4640 -1.5308  1.5746
 8479SOL     OW37069   4.028   2.201   6.734  0.0475 -0.2556  0.3657
 8479SOL    HW137070   4.015   2.291   6.703 -0.1666  0.5302  2.7135
 8479SOL    HW237071   4.123   2.205   6.745  0.4018  0.1032 -2.6874
 8480SOL     OW37072   2.759   2.737   8.294  0.0913  0.7441 -0.4345
 8480SOL    HW137073   2.754   2.741   8.390 -0.1057 -0.8938 -0.3890
 8480SOL    HW237074   2.830   2.674   8.284 -0.3950  0.0677  0.3408
 8481SOL     OW37075   1.952   2.210   5.989  0.3061  0.4225 -0.0441
 8481SOL    HW137076   1.897   2.278   6.029  0.6957  1.7041 -1.7007
 8481SOL    HW237077   2.035   2.254   6.003  1.9356 -2.2442 -1.3392
 8482SOL     OW37078   3.781   2.919   2.194  0.0873  0.1262  0.2395
 8482SOL    HW137079   3.853   2.869   2.155 -1.7541 -3.0711  0.9232
 8482SOL    HW237080   3.826   3.004   2.190  0.4530 -0.0095  1.3656
 8483SOL     OW37081   3.081   0.015   8.992 -0.7380  0.1046  0.1292
 8483SOL    HW137082   3.153   0.040   9.050  1.3328  1.2866 -2.9287
 8483SOL    HW237083   3.089   0.091   8.934 -0.7348  1.3696  1.7944
 8484SOL     OW37084   4.221   2.040   9.355  0.2644 -0.4992 -0.5833
 8484SOL    HW137085   4.197   2.062   9.445 -1.4183 -2.5741 -0.5145
 8484SOL    HW237086   4.193   2.113   9.300  1.1114 -0.4535 -0.9449
 8485SOL     OW37087   4.485   4.086   1.213  0.2275  0.0134  0.1112
 8485SOL    HW137088   4.427   4.159   1.191 -0.7573 -0.9826 -0.6047
 8485SOL    HW237089   4.429   4.024   1.261  0.3296  0.9662  1.4586
 8486SOL     OW37090   3.079   4.340   7.238 -0.5345 -0.0895 -0.1889
 8486SOL    HW137091   3.153   4.398   7.216  0.6235 -1.7621 -0.6828
 8486SOL    HW237092   3.035   4.389   7.308 -4.1878 -0.0108 -2.5360
 8487SOL     OW37093   0.504   0.969   3.375 -0.0288  0.6329  0.5375
 8487SOL    HW137094   0.520   0.929   3.460  3.0902  2.1209  0.6743
 8487SOL    HW237095   0.570   0.921   3.326 -1.9698  0.4863 -1.9437
 8488SOL     OW37096   1.134   4.058   5.460 -0.0212  0.7425 -0.2041
 8488SOL    HW137097   1.150   4.052   5.554 -1.3573  1.7938  0.0828
 8488SOL    HW237098   1.047   4.095   5.450 -0.6844 -0.2224  2.0984
 8489SOL     OW37099   4.113   2.051   9.638 -0.6613 -0.4851  0.2750
 8489SOL    HW137100   4.109   1.957   9.622 -0.5576 -0.3239 -0.7158
 8489SOL    HW237101   4.163   2.045   9.720 -1.5128 -1.0467  0.7475
 8490SOL     OW37102   4.231   2.351   4.504 -0.4431 -0.1746  0.5711
 8490SOL    HW137103   4.182   2.343   4.423 -0.8103  1.1736  0.6553
 8490SOL    HW237104   4.179   2.304   4.569  0.9162  2.5755  3.6716
 8491SOL     OW37105   2.977   3.487   6.559 -0.0774  0.3689 -0.4593
 8491SOL    HW137106   3.038   3.528   6.620  0.8989 -1.2531 -0.3335
 8491SOL    HW237107   3.035   3.416   6.530  2.6133  2.3801  0.0107
 8492SOL     OW37108   3.144   2.559  15.428 -0.2981 -0.5828 -0.5817
 8492SOL    HW137109   3.207   2.630  15.424 -0.8305 -0.1353 -0.9670
 8492SOL    HW237110   3.113   2.543  15.339 -0.5862  1.7376 -0.8776
 8493SOL     OW37111   2.921   1.018   5.312  0.0969  0.1011 -0.2579
 8493SOL    HW137112   2.866   1.018   5.391 -0.1137  1.1141 -0.4100
 8493SOL    HW237113   2.950   1.108   5.326  0.7166 -0.0732 -0.4328
 8494SOL     OW37114   3.129   1.279  11.864  0.2464 -0.5824  0.3168
 8494SOL    HW137115   3.083   1.351  11.908  1.7385 -1.3701  3.1861
 8494SOL    HW237116   3.169   1.244  11.944 -0.1525 -3.9833 -0.9674
 8495SOL     OW37117   2.385   1.984   4.192  0.4476  0.2224  0.4174
 8495SOL    HW137118   2.326   1.909   4.193  0.2001  0.4232  1.1550
 8495SOL    HW237119   2.438   1.954   4.118 -2.1808  0.4755 -1.5611
 8496SOL     OW37120   1.215   3.763   2.875  0.4476  0.7521  0.1271
 8496SOL    HW137121   1.200   3.775   2.969  0.0244  1.3626 -0.0132
 8496SOL    HW237122   1.303   3.727   2.868 -0.4953 -1.6446  0.6475
 8497SOL     OW37123   0.605   0.564   8.052  0.3114 -0.4330 -0.3945
 8497SOL    HW137124   0.517   0.580   8.020 -0.1385 -0.5780  0.7670
 8497SOL    HW237125   0.658   0.546   7.974 -1.9466  2.0575 -2.4908
 8498SOL     OW37126   1.231   3.100   4.106 -0.0883  0.3006 -0.5382
 8498SOL    HW137127   1.252   3.021   4.056  1.5563 -1.2193  2.5674
 8498SOL    HW237128   1.316   3.140   4.122  0.6154 -1.1584 -0.6214
 8499SOL     OW37129   1.454   2.561   5.774 -0.2197  0.6227 -0.3845
 8499SOL    HW137130   1.518   2.632   5.765  0.4876  0.1958  1.3428
 8499SOL    HW237131   1.392   2.599   5.835  0.1866  0.6210  0.0324
 8500SOL     OW37132   0.434   3.249  15.087 -0.6126 -0.3303 -0.1794
 8500SOL    HW137133   0.417   3.278  15.176 -0.1879  0.4467 -0.3458
 8500SOL    HW237134   0.345   3.228  15.058 -1.0712  2.3742 -0.8269
 8501SOL     OW37135   3.540   3.012   2.063 -0.3588 -0.6924  0.8974
 8501SOL    HW137136   3.561   3.100   2.034 -2.7565 -0.1783  0.6913
 8501SOL    HW237137   3.626   2.978   2.087  0.5629 -0.7263 -2.3625
 8502SOL     OW37138   4.278   3.891   4.537 -0.4982 -0.2160 -0.5214
 8502SOL    HW137139   4.367   3.864   4.561 -2.1864 -4.4273  0.9886
 8502SOL    HW237140   4.292   3.984   4.519 -2.6270  0.1581 -0.2284
 8503SOL     OW37141   1.015   4.388   8.564 -0.1163  0.7080  0.0538
 8503SOL    HW137142   1.022   4.412   8.657 -0.6561  0.6564  0.1086
 8503SOL    HW237143   1.085   4.326   8.542  1.6952  2.9263 -0.4021
 8504SOL     OW37144   0.217   2.184   8.521  0.1340  0.5042 -0.2170
 8504SOL    HW137145   0.296   2.139   8.553  0.6992  1.7402  0.0974
 8504SOL    HW237146   0.168   2.102   8.534  3.6378 -1.2132  2.3326
 8505SOL     OW37147   3.318   0.916   3.108 -0.1187 -0.1960  1.1194
 8505SOL    HW137148   3.329   0.856   3.182 -0.0468  1.3028  2.3329
 8505SOL    HW237149   3.322   1.005   3.144  0.0777  0.7102 -1.1610
 8506SOL     OW37150   1.428   0.724   7.774  0.0768 -0.6217  0.0913
 8506SOL    HW137151   1.476   0.784   7.831 -0.6322 -1.9047  2.0271
 8506SOL    HW237152   1.465   0.639   7.795  1.3241 -0.9822 -3.5408
 8507SOL     OW37153   3.041   0.463   8.030 -0.1575  0.2227 -0.4079
 8507SOL    HW137154   3.016   0.554   8.015 -1.3412  0.2983  2.1356
 8507SOL    HW237155   3.117   0.458   7.972 -1.4020  1.9625 -2.2130
 8508SOL     OW37156   4.197   2.651   3.747  0.1989 -0.6762 -0.3933
 8508SOL    HW137157   4.141   2.727   3.762  1.1374 -0.3459  1.4096
 8508SOL    HW237158   4.277   2.692   3.713 -0.4443 -0.0039 -1.0789
 8509SOL     OW37159   0.292   0.536  17.173 -0.1898 -0.4911  0.4860
 8509SOL    HW137160   0.302   0.442  17.190 -1.6060 -0.6881  0.1915
 8509SOL    HW237161   0.367   0.573  17.218  0.3152 -0.0803 -0.6847
 8510SOL     OW37162   0.300   4.121   5.789 -0.0015  0.4300  0.2255
 8510SOL    HW137163   0.289   4.216   5.777  0.3737  0.4431 -0.0117
 8510SOL    HW237164   0.271   4.114   5.880 -0.2392 -1.9202 -0.0454
 8511SOL     OW37165   4.538   3.256   7.235 -0.5724  0.4614  0.4401
 8511SOL    HW137166   4.633   3.267   7.238 -0.3462 -1.0896 -1.5041
 8511SOL    HW237167   4.506   3.347   7.235  0.4786  0.8286  0.0616
 8512SOL     OW37168   0.329   0.415   6.342  0.2668  0.6286  0.3779
 8512SOL    HW137169   0.288   0.494   6.376  1.9433  1.2043  1.0466
 8512SOL    HW237170   0.423   0.431   6.345  0.0477  1.7469  1.0989
 8513SOL     OW37171   0.048   0.487  12.704 -0.1176  0.4864 -0.0721
 8513SOL    HW137172   4.692   0.471  12.716  0.2115 -1.5776 -0.2249
 8513SOL    HW237173   0.053   0.561  12.764 -1.0471  1.3077 -1.0232
 8514SOL     OW37174   4.166   4.393   0.852  0.0750  0.0658  0.0973
 8514SOL    HW137175   4.092   4.341   0.883  1.5826 -1.4755  1.0691
 8514SOL    HW237176   4.243   4.347   0.884 -0.3629 -1.3889 -0.9444
 8515SOL     OW37177   3.780   3.403  15.945  0.3788 -0.1809  0.3817
 8515SOL    HW137178   3.784   3.406  16.041  1.1967 -0.4833  0.3610
 8515SOL    HW237179   3.798   3.495  15.925 -1.9712  0.1726 -0.1253
 8516SOL     OW37180   1.007   2.675  12.617  0.3983 -0.3332 -0.7310
 8516SOL    HW137181   0.974   2.762  12.640  0.4599 -0.5157  0.0693
 8516SOL    HW237182   1.091   2.696  12.577  0.2704  1.0763 -0.2632
 8517SOL     OW37183   2.757   4.089   0.417  0.4444 -0.0748  0.0431
 8517SOL    HW137184   2.765   4.027   0.345 -1.7285  0.2673 -0.4984
 8517SOL    HW237185   2.672   4.077   0.459  0.0909 -0.0401 -0.6641
 8518SOL     OW37186   1.299   2.168  17.347  0.3591 -0.0078  0.6195
 8518SOL    HW137187   1.232   2.159  17.278  0.6896 -1.7987  0.5314
 8518SOL    HW237188   1.325   2.260  17.337 -2.5864  0.8977  1.2307
 8519SOL     OW37189   3.557   3.006  16.364  0.3037  0.2965  0.6231
 8519SOL    HW137190   3.555   2.942  16.436  0.3257  0.8792  1.1456
 8519SOL    HW237191   3.640   2.990  16.321  0.8682  0.6032  1.5940
 8520SOL     OW37192   3.450   0.415   8.282  0.3491  0.2353  0.5727
 8520SOL    HW137193   3.533   0.386   8.245 -0.8244 -2.3266 -0.0314
 8520SOL    HW237194   3.383   0.369   8.232 -1.7907  0.6715  3.0320
 8521SOL     OW37195   1.668   3.831   3.655 -0.6595  0.2857 -0.5206
 8521SOL    HW137196   1.600   3.840   3.721  0.5585 -0.4622  0.8219
 8521SOL    HW237197   1.637   3.894   3.590 -0.2945 -2.1119 -3.0515
 8522SOL     OW37198   2.949   4.678  14.344  0.0218 -0.4198  0.4622
 8522SOL    HW137199   2.885   4.608  14.336 -0.4895  0.0080  0.8464
 8522SOL    HW237200   2.998   4.659  14.264  0.7334  1.2290  0.4986
 8523SOL     OW37201   4.537   3.665   3.684  0.5668 -0.5673  0.3591
 8523SOL    HW137202   4.564   3.730   3.619  1.0340 -1.3747 -0.2666
 8523SOL    HW237203   4.444   3.687   3.685  0.2839 -1.8132  2.5689
 8524SOL     OW37204   2.181   0.238   3.330  0.6619 -0.1721 -0.3646
 8524SOL    HW137205   2.258   0.189   3.358  1.0635 -0.0524 -1.2898
 8524SOL    HW237206   2.189   0.227   3.236  3.0880  0.8801 -0.2789
 8525SOL     OW37207   0.062   1.491   1.582  0.2009 -0.0982 -0.6808
 8525SOL    HW137208   4.724   1.544   1.609  0.0232 -0.4948 -0.4021
 8525SOL    HW237209   0.023   1.427   1.524 -1.2893 -0.0241  0.2427
 8526SOL     OW37210   2.182   0.159   5.174  0.2369  0.7824  0.7557
 8526SOL    HW137211   2.132   0.239   5.188  1.5198  1.3696  2.0130
 8526SOL    HW237212   2.161   0.095   5.242  1.1893  0.3288  0.6243
 8527SOL     OW37213   3.686   2.605   2.124 -0.7206  0.7114  0.2022
 8527SOL    HW137214   3.676   2.688   2.169 -0.1780  0.8604  0.0513
 8527SOL    HW237215   3.663   2.626   2.033  2.3245  0.5523 -0.6073
 8528SOL     OW37216   4.503   3.853   2.735 -0.0917  0.2412 -0.1550
 8528SOL    HW137217   4.467   3.941   2.726  0.7177  0.8565  2.9094
 8528SOL    HW237218   4.495   3.832   2.828 -0.0468  0.2603 -0.1468
 8529SOL     OW37219   4.152   3.383   2.143  0.9538 -0.2318 -0.0846
 8529SOL    HW137220   4.083   3.371   2.078 -0.3504 -1.5152  1.5150
 8529SOL    HW237221   4.221   3.360   2.081  0.5862  0.1805 -0.6423
 8530SOL     OW37222   3.053   3.440  15.245 -0.0650  0.6789 -0.0660
 8530SOL    HW137223   3.079   3.450  15.153  1.1954 -0.6810  0.1316
 8530SOL    HW237224   2.959   3.424  15.235  0.0152  0.5849 -0.6522
 8531SOL     OW37225   2.649   3.633   6.278  0.1274  0.4053 -0.1132
 8531SOL    HW137226   2.705   3.685   6.221  0.3449  0.6549  0.3303
 8531SOL    HW237227   2.710   3.560   6.292 -0.2189  0.3745  1.2169
 8532SOL     OW37228   1.022   2.438   6.401  0.3914  0.2672 -0.7901
 8532SOL    HW137229   0.993   2.382   6.473 -1.7993 -1.2268 -2.7988
 8532SOL    HW237230   1.075   2.511   6.432 -1.6572  0.4477  2.2203
 8533SOL     OW37231   3.430   2.896   4.131  0.1727 -0.0353 -0.3869
 8533SOL    HW137232   3.353   2.851   4.165  1.0316 -1.6535 -0.5662
 8533SOL    HW237233   3.492   2.846   4.184 -1.1023  0.9996  2.1043
 8534SOL     OW37234   1.270   4.586   3.534  0.0419 -0.4646  0.2342
 8534SOL    HW137235   1.318   4.513   3.494  0.0358  0.3149 -1.2017
 8534SOL    HW237236   1.263   4.549   3.622 -1.6644 -0.9530 -0.0955
 8535SOL     OW37237   1.754   1.327   7.064  0.0920 -0.3349 -0.0815
 8535SOL    HW137238   1.796   1.346   7.148 -0.1814  0.5286 -0.1381
 8535SOL    HW237239   1.683   1.391   7.070 -0.2108 -0.6190 -0.6390
 8536SOL     OW37240   0.851   2.419   2.988  0.3591  0.2733 -0.3343
 8536SOL    HW137241   0.791   2.413   2.914  0.9587 -1.1969 -0.7034
 8536SOL    HW237242   0.783   2.402   3.053 -0.0521  1.2395 -0.5208
 8537SOL     OW37243   3.329   0.580   2.540 -0.3799  0.3074 -0.1782
 8537SOL    HW137244   3.279   0.643   2.488 -3.8110  0.8069  3.7631
 8537SOL    HW237245   3.325   0.608   2.632 -0.3318  1.5974 -0.5762
 8538SOL     OW37246   2.709   2.467  16.954 -0.0387  0.3578  0.2241
 8538SOL    HW137247   2.772   2.534  16.928  0.2023 -0.4998 -1.4202
 8538SOL    HW237248   2.650   2.474  16.878 -1.1223 -0.3315  1.0029
 8539SOL     OW37249   0.130   4.107   1.936  0.5158  0.6851 -0.2948
 8539SOL    HW137250   0.042   4.094   1.900  0.4613 -0.5333  0.2956
 8539SOL    HW237251   0.177   4.053   1.873 -2.4040 -0.5562 -1.4491
 8540SOL     OW37252   3.199   2.087   1.716 -0.6649 -0.4597 -0.0465
 8540SOL    HW137253   3.176   1.994   1.715 -0.6909 -0.4457 -1.6565
 8540SOL    HW237254   3.188   2.119   1.805 -1.5144 -0.1320 -0.2678
 8541SOL     OW37255   4.447   2.830   7.447 -0.1664  0.1169 -0.2802
 8541SOL    HW137256   4.370   2.804   7.498 -0.9882 -0.7257 -1.9551
 8541SOL    HW237257   4.430   2.922   7.427 -1.2622  0.0917  0.5587
 8542SOL     OW37258   3.294   3.814   2.403  0.1596 -0.2803  0.4071
 8542SOL    HW137259   3.372   3.777   2.362  0.0573  2.0343 -1.9073
 8542SOL    HW237260   3.252   3.842   2.321 -0.4208  2.5311  1.6456
 8543SOL     OW37261   1.744   2.823   3.127  0.0002 -0.2313 -0.2709
 8543SOL    HW137262   1.743   2.738   3.084  0.3026 -0.1771 -0.3822
 8543SOL    HW237263   1.830   2.849   3.094  0.6046 -1.4878  0.3172
 8544SOL     OW37264   2.766   4.691  17.736 -0.6439  0.6926  0.1062
 8544SOL    HW137265   2.672   4.674  17.739 -0.7765  1.3635 -0.2712
 8544SOL    HW237266   2.781   0.044  17.710  1.3329 -0.6922 -3.5904
 8545SOL     OW37267   2.003   4.404   6.275 -0.2058 -0.1943  0.7652
 8545SOL    HW137268   2.025   4.442   6.190  0.4313 -2.1261  0.0824
 8545SOL    HW237269   1.922   4.451   6.296  0.2082  0.8595 -0.0098
 8546SOL     OW37270   2.788   0.993  12.809 -0.5320  0.1623 -0.3146
 8546SOL    HW137271   2.773   0.960  12.897 -2.6989  0.2473 -0.6281
 8546SOL    HW237272   2.880   0.979  12.790 -0.9585 -1.9679 -0.7919
 8547SOL     OW37273   1.253   2.138   3.405  0.0452  0.0838 -0.1088
 8547SOL    HW137274   1.312   2.168   3.336  0.8878  0.8000  0.9194
 8547SOL    HW237275   1.183   2.099   3.353 -0.2032  1.8930 -1.1184
 8548SOL     OW37276   2.097   2.179   1.699  0.1081 -0.0072  0.2210
 8548SOL    HW137277   2.016   2.129   1.713 -0.7866  1.5510  0.5897
 8548SOL    HW237278   2.083   2.247   1.765  0.3260  0.2582 -0.0059
 8549SOL     OW37279   0.286   0.114   7.940 -0.1441 -0.6377  0.0441
 8549SOL    HW137280   0.256   0.070   7.860 -2.5525  0.3469  0.4160
 8549SOL    HW237281   0.213   0.176   7.947 -0.5094 -0.9264 -1.1861
 8550SOL     OW37282   1.344   4.203   5.510 -0.1167 -0.2436  0.0505
 8550SOL    HW137283   1.297   4.143   5.453 -1.5562  0.2739  0.6704
 8550SOL    HW237284   1.332   4.274   5.447 -0.2265  0.8890  1.3427
 8551SOL     OW37285   2.580   3.701   1.752 -0.0924 -0.0424  0.5081
 8551SOL    HW137286   2.497   3.658   1.771 -1.4964  2.9277  1.1070
 8551SOL    HW237287   2.567   3.773   1.815 -0.8550 -1.3337  1.8398
 8552SOL     OW37288   1.984   2.859   3.033  0.2169 -0.0056 -0.2306
 8552SOL    HW137289   2.067   2.903   3.012 -0.3565  1.0029 -0.4120
 8552SOL    HW237290   2.014   2.777   2.994  1.3329  0.2763  0.0386
 8553SOL     OW37291   4.232   2.410  15.997  0.3073  0.4375  0.5818
 8553SOL    HW137292   4.175   2.441  15.927  0.9784  1.5805  0.5283
 8553SOL    HW237293   4.303   2.474  15.984 -0.8190  1.5089 -0.2900
 8554SOL     OW37294   0.038   3.972  16.812 -0.3477  0.2586 -0.3639
 8554SOL    HW137295   4.726   3.987  16.731  1.9286 -1.5269 -2.0583
 8554SOL    HW237296   0.058   3.879  16.812 -2.1385 -0.1268  2.2542
 8555SOL     OW37297   2.426   1.254   2.971 -0.4020 -0.8165 -0.6089
 8555SOL    HW137298   2.359   1.238   2.905  0.1630 -0.6866 -1.2105
 8555SOL    HW237299   2.496   1.274   2.909  0.6794 -0.0267  0.8781
 8556SOL     OW37300   0.214   1.344   2.411  0.2194  0.4022 -0.1923
 8556SOL    HW137301   0.308   1.326   2.414  0.5032  1.7808 -1.2130
 8556SOL    HW237302   0.206   1.438   2.423 -1.2947  0.1850  0.4748
 8557SOL     OW37303   1.026   1.848  12.997  0.2705 -0.1468  0.0300
 8557SOL    HW137304   0.940   1.881  13.023 -0.3081 -1.3578 -0.3539
 8557SOL    HW237305   1.012   1.863  12.903 -2.1053  1.9264  0.7311
 8558SOL     OW37306   0.183   0.834   3.754  0.1943 -0.5610 -0.0003
 8558SOL    HW137307   0.094   0.803   3.736 -0.9896  2.1603  1.1573
 8558SOL    HW237308   0.231   0.780   3.692  0.9299  1.4610 -1.2211
 8559SOL     OW37309   3.241   0.189  12.437  0.5796  0.0228 -0.0435
 8559SOL    HW137310   3.206   0.101  12.454 -1.9264  1.0138 -0.1685
 8559SOL    HW237311   3.243   0.194  12.341  0.5655  1.1307  0.0164
 8560SOL     OW37312   3.354   0.081  13.526 -0.3031 -0.0486 -0.9025
 8560SOL    HW137313   3.396   0.098  13.610 -0.7631  1.3655 -0.9511
 8560SOL    HW237314   3.408   0.011  13.490  1.0578  0.2967  0.4729
 8561SOL     OW37315   2.689   2.787   1.958  0.5428  0.1890 -0.4381
 8561SOL    HW137316   2.628   2.860   1.962  1.9443  1.1720  2.6361
 8561SOL    HW237317   2.700   2.757   2.049  0.4929  1.3942 -0.0402
 8562SOL     OW37318   2.135   4.355   1.919  0.0663  1.2081  0.0821
 8562SOL    HW137319   2.214   4.406   1.937  0.0699  0.9352  0.8273
 8562SOL    HW237320   2.069   4.414   1.957  0.6688  1.4969  0.6777
 8563SOL     OW37321   1.163   1.282   9.827 -0.3277  0.3385 -0.0182
 8563SOL    HW137322   1.233   1.261   9.888 -0.8350 -0.6461  0.2360
 8563SOL    HW237323   1.132   1.195   9.801  1.6241 -0.4318  0.2653
 8564SOL     OW37324   2.818   2.745   1.647 -0.4893  0.4796 -0.5010
 8564SOL    HW137325   2.771   2.685   1.589  0.3937 -1.8395  1.1474
 8564SOL    HW237326   2.754   2.748   1.719  0.5803 -0.2887  0.4720
 8565SOL     OW37327   4.521   2.842  15.338  0.6412  0.3643 -0.0944
 8565SOL    HW137328   4.511   2.873  15.428 -1.4364  1.1121 -0.5734
 8565SOL    HW237329   4.585   2.912  15.323 -0.2028  1.1078 -0.2549
 8566SOL     OW37330   4.541   0.947   0.695 -0.6393  0.0370  0.0607
 8566SOL    HW137331   4.476   0.878   0.710 -0.0769 -0.5638 -0.2656
 8566SOL    HW237332   4.489   1.022   0.724 -2.0174 -0.8818 -0.0371
 8567SOL     OW37333   3.555   0.423   3.570 -0.6392 -0.1987 -0.4322
 8567SOL    HW137334   3.578   0.384   3.486  1.3058 -0.9240  0.4345
 8567SOL    HW237335   3.619   0.379   3.626  0.8311 -0.6948 -2.5406
 8568SOL     OW37336   2.648   2.440   1.405 -0.1201 -0.0559  0.6613
 8568SOL    HW137337   2.649   2.424   1.500  0.6231  1.8354  0.9779
 8568SOL    HW237338   2.609   2.528   1.409 -0.8015 -0.3347  0.1269
 8569SOL     OW37339   0.352   2.669  10.619 -0.4826  0.3108  0.5566
 8569SOL    HW137340   0.296   2.628  10.553  0.7615 -0.7462  0.1552
 8569SOL    HW237341   0.385   2.751  10.582 -1.8256  0.1116 -1.1188
 8570SOL     OW37342   2.487   3.192  15.832 -0.3011 -0.9768 -0.2975
 8570SOL    HW137343   2.565   3.161  15.787  2.0572 -0.1119  3.1370
 8570SOL    HW237344   2.482   3.129  15.904  0.5276 -1.0992 -0.3386
 8571SOL     OW37345   1.090   2.132   9.604 -0.4257  0.1222 -0.4067
 8571SOL    HW137346   1.123   2.046   9.578 -2.8065 -0.8135 -0.3292
 8571SOL    HW237347   1.165   2.166   9.651 -0.8946 -1.0928  1.2040
 8572SOL     OW37348   0.868   2.606   6.112  0.2145  0.4695 -0.3584
 8572SOL    HW137349   0.800   2.641   6.170 -1.4525 -1.7578 -1.0015
 8572SOL    HW237350   0.882   2.525   6.160  2.0253  1.1199  0.2270
 8573SOL     OW37351   0.231   3.017   3.028 -0.1718 -0.3269  0.4142
 8573SOL    HW137352   0.325   3.026   3.015 -0.0532 -1.3882  0.5553
 8573SOL    HW237353   0.208   2.932   2.990 -1.0541 -0.1960  0.6601
 8574SOL     OW37354   1.534   0.026   3.082 -0.2221 -0.0191 -0.0690
 8574SOL    HW137355   1.557   0.048   3.172  0.7077 -0.8483 -0.0952
 8574SOL    HW237356   1.601   0.066   3.027  0.3239  0.1950  0.7429
 8575SOL     OW37357   0.067   0.522   0.221  0.1294 -0.1583 -0.7299
 8575SOL    HW137358   0.109   0.447   0.180  3.6628  0.2018  2.1861
 8575SOL    HW237359   0.143   0.578   0.238  0.7963 -1.0253 -0.8475
 8576SOL     OW37360   1.932   0.683   5.482 -0.4072  0.3889 -0.5187
 8576SOL    HW137361   1.912   0.618   5.415  1.5654 -0.7800  0.0182
 8576SOL    HW237362   1.883   0.640   5.552  1.3795 -0.9528 -0.1102
 8577SOL     OW37363   3.261   3.043   6.487  0.1646 -0.0078  0.5899
 8577SOL    HW137364   3.248   2.950   6.506  0.3230 -0.1750 -0.1214
 8577SOL    HW237365   3.283   3.074   6.575  0.3061 -0.2694  0.6472
 8578SOL     OW37366   0.383   3.020   7.026 -0.3440  0.4427  0.0905
 8578SOL    HW137367   0.473   3.017   6.994 -0.2400  2.8746  0.1281
 8578SOL    HW237368   0.393   3.000   7.119 -0.7765  1.6491  0.3999
 8579SOL     OW37369   0.358   2.955   0.631  0.2917  0.3027  0.1982
 8579SOL    HW137370   0.382   2.910   0.551  0.4081 -1.3103  1.1473
 8579SOL    HW237371   0.332   2.885   0.691  0.6121  0.1272  0.1283
 8580SOL     OW37372   1.849   4.282  13.918  0.0214  0.0403 -0.9974
 8580SOL    HW137373   1.802   4.239  13.846 -0.8619 -1.7924  0.6670
 8580SOL    HW237374   1.852   4.367  13.873 -0.4881  1.4414  1.6162
 8581SOL     OW37375   2.677   1.274   1.642  0.1727 -0.7028 -0.1365
 8581SOL    HW137376   2.613   1.338   1.673 -0.3898 -0.5480 -1.5913
 8581SOL    HW237377   2.728   1.334   1.587  0.8637 -1.8130 -0.6984
 8582SOL     OW37378   0.282   2.396   3.442  0.3490  0.3261  0.0813
 8582SOL    HW137379   0.213   2.462   3.440 -0.3632 -0.4419 -0.2022
 8582SOL    HW237380   0.283   2.359   3.530  0.3850 -0.8037 -0.3997
 8583SOL     OW37381   1.575   4.583  14.944 -0.3154 -0.1324 -0.1865
 8583SOL    HW137382   1.616   4.507  14.903 -1.2636 -0.7203 -0.0612
 8583SOL    HW237383   1.498   4.544  14.985 -0.3012 -0.4039 -0.4256
 8584SOL     OW37384   2.884   4.474   4.449 -0.7412 -0.2628 -0.4980
 8584SOL    HW137385   2.957   4.421   4.480  0.8885  0.6502 -2.7817
 8584SOL    HW237386   2.888   4.481   4.354 -1.5456 -0.4982 -0.5496
 8585SOL     OW37387   0.242   1.450  17.441  0.0211  0.5304  0.4045
 8585SOL    HW137388   0.172   1.440  17.505 -0.5499 -1.8856 -0.6028
 8585SOL    HW237389   0.290   1.368  17.447  1.1958  1.0806 -1.3697
 8586SOL     OW37390   1.855   1.885   3.835 -0.0174 -0.5649 -0.2004
 8586SOL    HW137391   1.776   1.854   3.792  0.5257 -1.4814 -0.5393
 8586SOL    HW237392   1.848   1.980   3.830  2.3392 -0.4424 -1.3307
 8587SOL     OW37393   0.736   2.445   0.951 -0.6674  0.3984 -0.3549
 8587SOL    HW137394   0.671   2.479   1.013  1.5539  0.8455  1.7194
 8587SOL    HW237395   0.793   2.396   1.009  0.7369 -2.5400 -4.2266
 8588SOL     OW37396   2.272   3.785   3.900  0.0367 -0.7811 -0.4306
 8588SOL    HW137397   2.238   3.778   3.811 -2.0706 -3.1908  0.5711
 8588SOL    HW237398   2.347   3.727   3.895  0.2313 -0.4876 -0.8897
 8589SOL     OW37399   3.812   1.682   2.000 -0.1426  0.6457 -0.5787
 8589SOL    HW137400   3.765   1.744   2.057 -1.3733 -2.4864  1.7814
 8589SOL    HW237401   3.877   1.735   1.954 -1.6304  1.1970 -2.0784
 8590SOL     OW37402   3.226   2.085   6.404  0.5193 -0.4677 -0.3165
 8590SOL    HW137403   3.280   2.090   6.325  0.4394  0.3573 -0.3166
 8590SOL    HW237404   3.201   2.177   6.410  0.3294 -0.4582 -1.2946
 8591SOL     OW37405   2.877   2.048  10.391 -0.1159  0.5833 -0.1414
 8591SOL    HW137406   2.811   2.078  10.329  1.1432 -0.2456 -1.8749
 8591SOL    HW237407   2.858   2.108  10.463 -2.2632 -0.6980  0.3636
 8592SOL     OW37408   0.034   3.442  17.006 -0.2222  0.6017 -0.4164
 8592SOL    HW137409   0.017   3.382  17.078 -0.1462 -1.4533 -2.1223
 8592SOL    HW237410   0.068   3.519  17.053  0.8587 -0.1824  0.0715
 8593SOL     OW37411   4.006   0.508   0.469  0.2447 -0.2518 -0.0011
 8593SOL    HW137412   4.078   0.543   0.417 -0.4015  0.4631 -0.4080
 8593SOL    HW237413   3.938   0.570   0.444  0.0761 -0.5196 -0.2082
 8594SOL     OW37414   0.957   2.275  14.223 -0.1041  0.0964  0.5534
 8594SOL    HW137415   0.931   2.287  14.131  0.8685 -0.8808  0.1339
 8594SOL    HW237416   0.889   2.210  14.242  0.9724 -0.4020  2.7348
 8595SOL     OW37417   4.328   0.101   3.186  0.3710  0.1349  0.2605
 8595SOL    HW137418   4.359   0.172   3.130 -0.0157 -0.2483 -0.4503
 8595SOL    HW237419   4.411   0.056   3.201  1.0330  1.0627 -0.5992
 8596SOL     OW37420   2.703   3.717   0.472 -0.2985  0.0468  0.2536
 8596SOL    HW137421   2.727   3.781   0.405  0.0867  0.2517  0.5804
 8596SOL    HW237422   2.666   3.647   0.418 -1.8033  1.4595 -0.5458
 8597SOL     OW37423   3.126   3.750  15.521  0.2363  0.6207  0.5365
 8597SOL    HW137424   3.041   3.769  15.482 -0.5033 -0.9115  1.4108
 8597SOL    HW237425   3.141   3.656  15.512 -1.9814  0.4278 -1.0948
 8598SOL     OW37426   3.944   4.230   2.332  0.9097  0.0587  0.4663
 8598SOL    HW137427   3.966   4.159   2.393  0.0420  1.0252  1.9005
 8598SOL    HW237428   3.964   4.181   2.252 -2.7672  0.7089 -0.8412
 8599SOL     OW37429   0.353   4.372   7.027  0.6439 -0.1239 -0.0623
 8599SOL    HW137430   0.379   4.337   7.112 -0.6296 -1.7575 -0.3515
 8599SOL    HW237431   0.352   4.467   7.045  0.0264 -0.1345 -0.0305
 8600SOL     OW37432   4.404   0.993   5.804  0.6114 -0.4956  0.0622
 8600SOL    HW137433   4.486   1.037   5.781  1.5223 -2.9953 -1.5638
 8600SOL    HW237434   4.440   0.940   5.875 -0.6365 -0.4947  0.6775
 8601SOL     OW37435   0.484   3.314   2.402  0.4524  0.1874  0.3100
 8601SOL    HW137436   0.559   3.365   2.372  0.9443 -1.4470 -1.2696
 8601SOL    HW237437   0.415   3.324   2.336  0.4118 -0.3246  0.2793
 8602SOL     OW37438   2.281   0.847  12.299 -0.0769  0.2188  0.4337
 8602SOL    HW137439   2.350   0.788  12.271 -1.0665 -0.4228 -0.6677
 8602SOL    HW237440   2.345   0.897  12.350 -1.3598  3.6254 -1.2951
 8603SOL     OW37441   0.747   0.132   4.082 -0.0047  0.1668 -0.0602
 8603SOL    HW137442   0.785   0.219   4.067 -1.0995  0.4387 -1.2439
 8603SOL    HW237443   0.829   0.084   4.093 -0.6970 -1.3155 -1.2787
 8604SOL     OW37444   4.250   1.566   8.046 -0.3500 -0.0826  0.3428
 8604SOL    HW137445   4.324   1.548   7.988 -2.4044 -0.8799 -2.0396
 8604SOL    HW237446   4.180   1.522   7.998 -1.2302 -0.2995  1.8206
 8605SOL     OW37447   0.511   1.715   1.928  0.0829 -0.6785  0.3726
 8605SOL    HW137448   0.569   1.790   1.912  0.0856 -0.8669 -0.5094
 8605SOL    HW237449   0.430   1.762   1.911 -0.8000 -2.4453 -0.2585
 8606SOL     OW37450   2.324   2.019   1.234  0.1247 -0.4101  0.5004
 8606SOL    HW137451   2.289   2.023   1.323  0.7787 -3.2142  0.8887
 8606SOL    HW237452   2.400   1.964   1.255 -0.2295 -0.2027  2.3761
 8607SOL     OW37453   2.656   2.654   4.080  0.8197 -0.3005 -0.5310
 8607SOL    HW137454   2.657   2.613   3.993 -0.6399 -2.1329  0.3217
 8607SOL    HW237455   2.708   2.731   4.056 -1.3008  1.2083 -0.2523
 8608SOL     OW37456   2.040   3.326   1.529  0.0033 -0.5378 -0.4303
 8608SOL    HW137457   1.997   3.255   1.483  0.5233 -0.2221 -1.4167
 8608SOL    HW237458   1.967   3.388   1.531 -1.2115 -1.9688 -1.8929
 8609SOL     OW37459   1.369   0.453   2.089 -0.0400  0.6297 -0.8623
 8609SOL    HW137460   1.316   0.377   2.065 -0.2834  0.3040  0.7052
 8609SOL    HW237461   1.433   0.410   2.146  0.9345  1.4441 -1.3392
 8610SOL     OW37462   1.325   1.944   0.446 -0.4587 -0.2580 -0.7040
 8610SOL    HW137463   1.360   1.977   0.363  0.6913  2.7153  0.9476
 8610SOL    HW237464   1.240   1.989   0.440  1.3986  3.2869 -0.2528
 8611SOL     OW37465   3.209   2.198   5.701 -0.2000 -0.1472  0.4179
 8611SOL    HW137466   3.184   2.280   5.744 -0.1317 -0.4453  1.0285
 8611SOL    HW237467   3.126   2.155   5.720 -1.4582  2.7088  1.4377
 8612SOL     OW37468   1.693   1.572   7.384  0.2941  0.6614  0.1617
 8612SOL    HW137469   1.681   1.490   7.431 -0.1235  0.4327 -0.3396
 8612SOL    HW237470   1.778   1.568   7.339  0.2266  0.8691  0.0139
 8613SOL     OW37471   3.850   4.239   4.460 -0.0630 -0.2952 -0.0455
 8613SOL    HW137472   3.785   4.173   4.438  1.0252 -1.2435 -0.4146
 8613SOL    HW237473   3.927   4.207   4.413 -0.4250 -0.4686 -0.5119
 8614SOL     OW37474   4.676   3.334  14.359  0.1459 -0.1994 -0.3216
 8614SOL    HW137475   4.693   3.377  14.443  1.0226  0.5809 -0.9082
 8614SOL    HW237476   0.027   3.301  14.348  1.0478  2.0925  0.1901
 8615SOL     OW37477   3.795   1.852   4.954 -0.2094  0.0348  0.6392
 8615SOL    HW137478   3.786   1.759   4.935 -0.1065  0.0343  0.5926
 8615SOL    HW237479   3.804   1.852   5.049  1.5986 -2.1446  0.4866
 8616SOL     OW37480   3.838   3.803  12.421 -0.0242 -0.7282 -0.1889
 8616SOL    HW137481   3.914   3.767  12.468  0.3952  2.9427  1.9032
 8616SOL    HW237482   3.783   3.729  12.397 -0.2184 -1.1460  1.4834
 8617SOL     OW37483   2.871   1.890  13.820 -0.0009 -0.3769  0.5827
 8617SOL    HW137484   2.808   1.895  13.748 -0.6811  1.4938  1.3146
 8617SOL    HW237485   2.815   1.925  13.890 -0.6955  0.6457 -0.4868
 8618SOL     OW37486   1.580   0.114   3.345  0.0080  0.1472 -0.4892
 8618SOL    HW137487   1.633   0.125   3.424 -0.7531  1.4686 -0.1592
 8618SOL    HW237488   1.497   0.127   3.390  0.4025  2.1729 -0.3334
 8619SOL     OW37489   2.908   1.036  15.827 -0.4426  0.2757  0.0295
 8619SOL    HW137490   2.856   1.071  15.899 -0.8189  0.0890 -0.1474
 8619SOL    HW237491   2.999   1.041  15.855 -0.6120 -1.7825  0.9903
 8620SOL     OW37492   2.412   2.849   8.047 -0.4652 -0.7631  0.0757
 8620SOL    HW137493   2.506   2.839   8.037 -0.3973  0.3912 -0.4284
 8620SOL    HW237494   2.403   2.849   8.142 -0.1941  0.8658  0.0922
 8621SOL     OW37495   2.199   2.022   1.500  0.0279  0.4565  0.1058
 8621SOL    HW137496   2.215   2.072   1.580 -0.6385  1.1572 -0.1957
 8621SOL    HW237497   2.117   2.061   1.470 -0.2242 -0.8196 -0.8857
 8622SOL     OW37498   4.384   0.703   9.570 -0.0657 -0.0917 -0.2226
 8622SOL    HW137499   4.469   0.725   9.607 -1.2107  0.2780  2.1993
 8622SOL    HW237500   4.405   0.626   9.518  0.2248 -0.0681 -0.1395
 8623SOL     OW37501   0.714   1.703  11.582  0.7287 -0.0723 -0.3505
 8623SOL    HW137502   0.751   1.789  11.565 -1.9783  0.6266 -2.6208
 8623SOL    HW237503   0.715   1.656  11.498  1.7357 -1.0060  0.1795
 8624SOL     OW37504   3.315   4.277  14.189  0.3112  0.3260  0.1327
 8624SOL    HW137505   3.381   4.212  14.168 -2.1783 -1.1135 -3.2844
 8624SOL    HW237506   3.324   4.275  14.284  0.2629 -1.9780  0.0750
 8625SOL     OW37507   4.357   0.105   2.188  0.2987  0.2256 -0.1350
 8625SOL    HW137508   4.293   0.127   2.255  2.7067  0.9087  1.9229
 8625SOL    HW237509   4.313   0.034   2.141 -1.2146 -0.7894  2.8569
 8626SOL     OW37510   4.545   4.265  12.768 -0.0640  0.0018 -0.1851
 8626SOL    HW137511   4.569   4.300  12.683  0.3182  1.6158  0.5793
 8626SOL    HW237512   4.456   4.236  12.748  0.4346 -1.9675  0.3917
 8627SOL     OW37513   3.557   2.032  13.541 -0.4731 -0.2153 -0.7071
 8627SOL    HW137514   3.588   2.117  13.509  0.5120 -0.1823  0.3478
 8627SOL    HW237515   3.495   2.045  13.614  0.0299 -2.0609  0.0400
 8628SOL     OW37516   3.708   2.438   8.635  0.1158 -0.4351 -0.5979
 8628SOL    HW137517   3.721   2.415   8.727 -2.2992  1.9696  0.3579
 8628SOL    HW237518   3.672   2.360   8.592 -0.7022  0.8919 -2.3017
 8629SOL     OW37519   4.236   2.661   4.570 -0.0432  0.0101 -0.0802
 8629SOL    HW137520   4.157   2.650   4.623  0.4163  1.1531  0.8643
 8629SOL    HW237521   4.243   2.575   4.529  0.8667  1.0106 -2.0171
 8630SOL     OW37522   0.835   4.666   8.941  0.3187 -0.0599  0.2121
 8630SOL    HW137523   0.899   4.615   8.891  2.8029  2.6514  0.6435
 8630SOL    HW237524   0.880   4.659   9.025 -2.9340 -1.8165  1.7733
 8631SOL     OW37525   0.039   1.584   2.853 -0.4350  0.0138  0.5211
 8631SOL    HW137526   0.008   1.580   2.763  0.6033 -1.4819  0.2241
 8631SOL    HW237527   0.133   1.581   2.832 -0.1698  1.5931  1.4490
 8632SOL     OW37528   2.114   0.826   7.321 -0.6140 -0.6097 -0.2894
 8632SOL    HW137529   2.078   0.842   7.234 -1.5504  0.9210  0.3812
 8632SOL    HW237530   2.076   0.742   7.348 -1.4672  0.3414  1.4715
 8633SOL     OW37531   3.336   2.589   7.176  0.3378  0.2781 -0.0694
 8633SOL    HW137532   3.246   2.599   7.145 -0.0724  1.9937  1.7116
 8633SOL    HW237533   3.346   2.669   7.227 -1.7603 -0.1395  0.9555
 8634SOL     OW37534   2.342   4.381  12.169 -0.3804 -0.6622 -0.0977
 8634SOL    HW137535   2.382   4.341  12.246 -0.5942  0.7385  0.7533
 8634SOL    HW237536   2.412   4.406  12.109  0.0036 -3.8669 -0.9947
 8635SOL     OW37537   1.217   2.334   8.189 -0.6853  0.0682  0.2970
 8635SOL    HW137538   1.236   2.263   8.251  1.9860 -0.6854 -1.4137
 8635SOL    HW237539   1.121   2.329   8.191 -0.5606 -2.4865 -0.0533
 8636SOL     OW37540   3.689   3.905   5.935 -0.1390 -0.3139  0.0293
 8636SOL    HW137541   3.765   3.926   5.989 -0.7293  3.1422 -0.5244
 8636SOL    HW237542   3.685   3.989   5.890 -0.4859  1.4629  3.3941
 8637SOL     OW37543   0.367   3.617   1.487 -0.4464 -0.1243 -0.0462
 8637SOL    HW137544   0.375   3.695   1.431  3.3147  1.1741  2.3011
 8637SOL    HW237545   0.413   3.644   1.566 -1.6360  0.5100  0.4205
 8638SOL     OW37546   0.867   2.673   7.841 -0.6257 -0.2150  0.0633
 8638SOL    HW137547   0.921   2.622   7.780  0.7782  1.0751  0.2186
 8638SOL    HW237548   0.799   2.711   7.786  1.0208 -1.3923 -2.8213
 8639SOL     OW37549   1.661   4.378   1.775  0.6200 -1.4765  0.7081
 8639SOL    HW137550   1.668   4.386   1.870  0.0055  0.7996  0.5595
 8639SOL    HW237551   1.566   4.367   1.773  0.7305 -2.6094  1.6283
 8640SOL     OW37552   2.220   4.190   8.291 -0.2037 -0.8057  0.0904
 8640SOL    HW137553   2.210   4.280   8.259  1.7753 -0.3076  0.8419
 8640SOL    HW237554   2.279   4.206   8.364  0.1259 -0.5270 -0.2367
 8641SOL     OW37555   3.847   0.012   4.766 -0.9574 -0.2238 -0.1048
 8641SOL    HW137556   3.820   4.667   4.807 -0.2076 -1.2439 -1.6980
 8641SOL    HW237557   3.932   0.016   4.809 -1.2972  0.2525  0.5231
 8642SOL     OW37558   3.551   2.082   3.704  0.3470  0.4221  0.1595
 8642SOL    HW137559   3.605   2.008   3.732  0.7721  0.5346 -0.3491
 8642SOL    HW237560   3.544   2.120   3.791 -0.2475  1.6946 -0.4538
 8643SOL     OW37561   0.191   3.978   4.546 -0.1738 -0.2113  0.8221
 8643SOL    HW137562   0.133   3.931   4.606 -1.0972  0.2857  0.3298
 8643SOL    HW237563   0.276   3.951   4.580 -0.4464  1.4597  2.8058
 8644SOL     OW37564   4.190   3.719   5.669  0.2888 -0.1258 -0.3279
 8644SOL    HW137565   4.247   3.708   5.746 -0.6223  0.3248  0.4096
 8644SOL    HW237566   4.210   3.635   5.628 -1.3242 -0.5688 -0.2042
 8645SOL     OW37567   2.913   0.472   8.392  0.7645 -0.3556  0.1118
 8645SOL    HW137568   2.846   0.414   8.357 -0.7701 -0.1736  2.7679
 8645SOL    HW237569   2.886   0.555   8.352  1.0269  1.2997  3.4090
 8646SOL     OW37570   0.923   0.084   4.945 -0.2232 -0.2345  0.0966
 8646SOL    HW137571   0.919   0.171   4.905 -1.1732  0.1763  1.1097
 8646SOL    HW237572   0.845   0.082   5.000 -1.0773 -0.4605 -1.1290
 8647SOL     OW37573   3.756   0.699   6.186  0.3056 -0.0830 -0.1065
 8647SOL    HW137574   3.809   0.779   6.181  0.2502  0.0375  1.0720
 8647SOL    HW237575   3.668   0.727   6.162 -0.5710 -2.9734 -0.1996
 8648SOL     OW37576   3.771   4.723   4.419 -0.2204  0.5924 -0.1416
 8648SOL    HW137577   3.684   4.732   4.380 -0.5811 -1.6574  0.1118
 8648SOL    HW237578   3.796   0.076   4.439  1.0415  0.1638  0.2249
 8649SOL     OW37579   1.358   1.218   6.398  0.0380  0.0537 -0.3805
 8649SOL    HW137580   1.360   1.297   6.452 -0.3565  0.3878 -0.8591
 8649SOL    HW237581   1.293   1.166   6.445  1.4966 -2.4979 -1.1930
 8650SOL     OW37582   0.282   0.242  13.544  0.6418 -0.0094 -0.3799
 8650SOL    HW137583   0.277   0.324  13.496  1.8794 -1.3778 -2.8637
 8650SOL    HW237584   0.261   0.181  13.473 -2.3482 -0.7961  1.1732
 8651SOL     OW37585   0.174   1.986  15.025 -0.1201  0.2762  0.2351
 8651SOL    HW137586   0.085   1.953  15.016 -0.1482  0.3572  0.2182
 8651SOL    HW237587   0.162   2.063  14.970 -1.4057  0.8676  1.3642
 8652SOL     OW37588   4.443   4.268   5.697 -0.0583 -0.0589  0.0482
 8652SOL    HW137589   4.516   4.330   5.696 -0.8831  0.8923 -1.9579
 8652SOL    HW237590   4.485   4.182   5.702  2.2191  1.0885  0.6479
 8653SOL     OW37591   0.556   3.251  12.380  0.1522  0.3687 -0.3279
 8653SOL    HW137592   0.476   3.201  12.394  1.1791 -1.2843 -0.3295
 8653SOL    HW237593   0.571   3.269  12.473 -2.2600 -1.4959  0.4388
 8654SOL     OW37594   4.000   2.106   5.371 -0.1456 -0.0252  0.2218
 8654SOL    HW137595   4.040   2.183   5.410 -0.4619 -0.5875  1.6667
 8654SOL    HW237596   4.042   2.105   5.285  0.6498  2.7382  0.5955
 8655SOL     OW37597   1.476   4.147  14.774  0.1916  0.1325  0.3539
 8655SOL    HW137598   1.545   4.196  14.818  0.6493 -1.3887  1.3616
 8655SOL    HW237599   1.403   4.200  14.807 -1.0365 -1.6574  0.5456
 8656SOL     OW37600   4.169   4.493   1.407 -0.5887  0.4372 -0.1700
 8656SOL    HW137601   4.096   4.442   1.370 -0.4451  1.1075 -1.3734
 8656SOL    HW237602   4.220   4.510   1.328 -0.4690  0.1353 -0.1588
 8657SOL     OW37603   2.343   1.740   2.030  0.4232 -0.2891  0.0202
 8657SOL    HW137604   2.271   1.746   1.967  0.3572 -1.9331 -0.0762
 8657SOL    HW237605   2.427   1.707   1.997 -0.1992 -2.1889  0.3493
 8658SOL     OW37606   1.823   1.731  11.927  0.6212 -0.3647  0.5330
 8658SOL    HW137607   1.900   1.778  11.895 -0.1258  0.4641 -0.0492
 8658SOL    HW237608   1.844   1.743  12.020  2.1593 -1.0946  0.2837
 8659SOL     OW37609   4.435   3.216   8.755 -0.4411  0.4323 -0.5692
 8659SOL    HW137610   4.453   3.125   8.732 -1.4604 -0.2105  1.1932
 8659SOL    HW237611   4.417   3.204   8.848  0.1320 -0.1359 -0.5336
 8660SOL     OW37612   2.989   2.776  15.621  0.4458  0.6430  0.7012
 8660SOL    HW137613   3.012   2.739  15.536 -3.2927 -1.9718  0.8164
 8660SOL    HW237614   3.076   2.754  15.654  0.4628 -0.1422  0.1249
 8661SOL     OW37615   4.355   0.204   8.579  0.0366  0.3467 -0.3119
 8661SOL    HW137616   4.282   0.169   8.630 -0.8716 -0.2835 -2.0381
 8661SOL    HW237617   4.315   0.233   8.498 -1.2815 -0.4467  0.0552
 8662SOL     OW37618   0.985   3.910   3.596 -0.1248  0.5506 -0.0351
 8662SOL    HW137619   0.900   3.867   3.588 -1.7643  3.5999  0.9990
 8662SOL    HW237620   1.030   3.890   3.514  0.0437 -1.0372  0.4531
 8663SOL     OW37621   3.761   2.125   8.052  0.0078 -0.7985 -0.5454
 8663SOL    HW137622   3.844   2.132   8.005 -0.9239  0.7955 -1.9199
 8663SOL    HW237623   3.744   2.217   8.074  2.8492 -0.4044  0.0082
 8664SOL     OW37624   1.053   1.315   5.525  0.1245 -0.8811  0.3279
 8664SOL    HW137625   1.024   1.399   5.560  2.9254 -0.6425  2.1096
 8664SOL    HW237626   0.969   1.275   5.504  0.6163 -0.6345 -2.1625
 8665SOL     OW37627   2.132   2.709  11.270  0.1672 -0.0378 -0.3204
 8665SOL    HW137628   2.182   2.709  11.188 -0.1711  0.7221 -0.5225
 8665SOL    HW237629   2.045   2.726  11.235  0.8566  0.4213 -1.8127
 8666SOL     OW37630   4.268   4.233  12.728 -0.3109  0.2464 -0.4303
 8666SOL    HW137631   4.216   4.201  12.801  2.7381  1.2739  2.2006
 8666SOL    HW237632   4.208   4.225  12.654 -2.4247  0.1867  1.3121
 8667SOL     OW37633   4.131   2.314   4.245 -0.0698 -0.5589 -0.7508
 8667SOL    HW137634   4.140   2.231   4.198  1.9325 -0.4369 -0.5926
 8667SOL    HW237635   4.159   2.379   4.180 -0.7085 -1.3581 -1.8284
 8668SOL     OW37636   3.046   0.780   2.687 -0.5940  0.0833 -0.2729
 8668SOL    HW137637   3.032   0.689   2.663  2.0452  0.2068 -2.3632
 8668SOL    HW237638   2.965   0.822   2.657 -1.1338  0.8372  2.2532
 8669SOL     OW37639   0.904   3.423   3.328  0.3800 -0.6334 -0.2192
 8669SOL    HW137640   0.972   3.361   3.352 -0.3982 -0.7822  1.5624
 8669SOL    HW237641   0.940   3.456   3.245 -3.9343  1.4773 -1.2670
 8670SOL     OW37642   1.759   0.942  16.319  0.0332  0.1476 -0.2313
 8670SOL    HW137643   1.840   0.893  16.332 -1.4051 -1.5123  2.5711
 8670SOL    HW237644   1.726   0.900  16.239 -1.6389 -2.1222  1.6322
 8671SOL     OW37645   3.304   2.304   7.372  0.0333  0.0710 -0.1048
 8671SOL    HW137646   3.329   2.390   7.406  0.8702  0.1736 -0.9557
 8671SOL    HW237647   3.211   2.320   7.360  0.0007  0.9099  1.2781
 8672SOL     OW37648   1.257   0.168   3.056 -0.2226  0.0767 -0.3887
 8672SOL    HW137649   1.330   0.133   3.005 -0.4352 -0.1812 -0.5157
 8672SOL    HW237650   1.277   0.127   3.140 -1.4866  1.2380  0.4819
 8673SOL     OW37651   1.228   4.197  15.875 -0.8524  0.0894  0.5961
 8673SOL    HW137652   1.133   4.195  15.887 -0.8600  1.9412  0.8164
 8673SOL    HW237653   1.238   4.170  15.784  2.2901  1.8512  0.4166
 8674SOL     OW37654   1.989   1.624   3.217 -0.1036 -0.5005  0.0353
 8674SOL    HW137655   2.033   1.563   3.158 -0.9585  2.3680 -3.6175
 8674SOL    HW237656   1.914   1.570   3.242 -0.1100  0.4743  2.0998
 8675SOL     OW37657   4.730   1.125   1.731 -0.3427  0.6827 -0.3740
 8675SOL    HW137658   0.061   1.126   1.664  0.0106  0.1705 -0.0168
 8675SOL    HW237659   4.672   1.059   1.693  1.0733 -1.5431  1.3737
 8676SOL     OW37660   3.398   2.515  11.655 -0.6098 -0.1043 -0.1831
 8676SOL    HW137661   3.349   2.597  11.664 -0.0011  0.2140  0.2106
 8676SOL    HW237662   3.461   2.520  11.727  1.0956  2.4335 -1.8474
 8677SOL     OW37663   4.260   0.485  17.696  0.3744 -0.4190  0.9431
 8677SOL    HW137664   4.334   0.541  17.674  0.1099 -0.2535  0.4764
 8677SOL    HW237665   4.218   0.473  17.611 -0.1494  1.6117  0.9088
 8678SOL     OW37666   0.534   0.831   8.780  0.5086 -0.3006  0.9316
 8678SOL    HW137667   0.602   0.789   8.832  0.8919 -0.1564  0.5472
 8678SOL    HW237668   0.539   0.771   8.706  0.1617  0.2193  0.4878
 8679SOL     OW37669   0.130   1.422   3.721 -0.2031 -0.2526  0.1054
 8679SOL    HW137670   0.180   1.456   3.647  1.0831 -0.3606  0.9114
 8679SOL    HW237671   0.115   1.497   3.780  0.3537  0.3085 -0.4622
 8680SOL     OW37672   0.993   1.978   8.426  0.6368  0.2302 -0.2216
 8680SOL    HW137673   1.059   2.021   8.480  0.7400 -0.4999  0.2300
 8680SOL    HW237674   1.030   1.896   8.394  0.2109  1.4309 -3.7601
 8681SOL     OW37675   3.691   0.669   3.527 -0.1133  0.6225  0.2026
 8681SOL    HW137676   3.718   0.713   3.608  2.7801 -2.2970  0.7944
 8681SOL    HW237677   3.638   0.595   3.558  0.1515 -0.2277 -1.4138
 8682SOL     OW37678   0.972   0.130   8.092  0.4819 -0.1306  0.1688
 8682SOL    HW137679   0.898   0.168   8.045  0.7676  1.7297  1.2406
 8682SOL    HW237680   0.957   0.175   8.175 -1.8734 -0.6892  0.0588
 8683SOL     OW37681   3.171   2.163  10.403  0.0448 -0.6426 -0.4879
 8683SOL    HW137682   3.087   2.117  10.407 -2.2996  3.4785 -1.5894
 8683SOL    HW237683   3.222   2.105  10.459  0.2434  0.5206  0.5390
 8684SOL     OW37684   4.360   4.329   1.138  0.4763 -0.2387  0.5838
 8684SOL    HW137685   4.320   4.416   1.136  2.1362  0.5234  0.0567
 8684SOL    HW237686   4.382   4.323   1.045 -0.1042 -0.0368  0.4315
 8685SOL     OW37687   4.324   0.467   6.805 -0.3540  0.5026  0.3314
 8685SOL    HW137688   4.390   0.536   6.812  1.0518 -0.9223  1.2143
 8685SOL    HW237689   4.301   0.456   6.713 -0.0962 -1.4796  0.5103
 8686SOL     OW37690   2.449   1.434   8.893 -0.2327 -0.0466  0.3420
 8686SOL    HW137691   2.413   1.345   8.894  0.5609 -0.3571  1.1612
 8686SOL    HW237692   2.372   1.492   8.891 -1.2884 -1.3889  1.7356
 8687SOL     OW37693   2.749   0.845   4.481 -0.4340  0.2447 -0.0950
 8687SOL    HW137694   2.684   0.871   4.415 -1.3823  2.0183  1.5668
 8687SOL    HW237695   2.688   0.797   4.538 -1.3587  1.5207 -0.0233
 8688SOL     OW37696   0.092   3.939  14.084 -0.1985 -0.0644 -0.0635
 8688SOL    HW137697   0.076   3.890  14.004 -4.6792 -1.2592  1.5835
 8688SOL    HW237698   0.009   3.936  14.131 -1.5614  0.4639 -2.4232
 8689SOL     OW37699   1.231   4.085   3.415  0.1973  0.3424 -0.0755
 8689SOL    HW137700   1.232   4.133   3.333 -0.3437 -3.1225 -2.1190
 8689SOL    HW237701   1.276   4.006   3.384 -0.2526  0.4499 -0.9807
 8690SOL     OW37702   2.443   0.689  13.815 -0.2770  0.1590  0.1481
 8690SOL    HW137703   2.373   0.643  13.861 -0.1968  1.2515  1.3424
 8690SOL    HW237704   2.444   0.648  13.728  0.9762  1.3463 -0.3871
 8691SOL     OW37705   3.853   0.435   4.874 -0.7295 -0.2682 -0.1808
 8691SOL    HW137706   3.817   0.402   4.791  0.0536 -2.0463  0.1859
 8691SOL    HW237707   3.773   0.448   4.926 -0.1892  0.6783  0.4046
 8692SOL     OW37708   0.460   3.802  14.511 -0.0644 -0.0789  0.0872
 8692SOL    HW137709   0.443   3.895  14.528  0.8266 -0.2382  1.9310
 8692SOL    HW237710   0.509   3.776  14.589  1.2038  0.3435 -0.5691
 8693SOL     OW37711   0.460   4.205   3.798 -0.0447 -0.2530  0.0585
 8693SOL    HW137712   0.453   4.134   3.734 -1.2881 -0.7081  0.6931
 8693SOL    HW237713   0.536   4.180   3.852 -1.1155 -2.6996  0.4588
 8694SOL     OW37714   3.454   0.671   6.288  0.5378 -0.3263  0.0880
 8694SOL    HW137715   3.466   0.624   6.206 -3.8574  0.2587 -0.8736
 8694SOL    HW237716   3.508   0.606   6.334  1.1129  1.0217  1.3009
 8695SOL     OW37717   3.628   0.643   8.429 -0.2820 -0.2228 -0.0518
 8695SOL    HW137718   3.614   0.596   8.347  2.3852 -1.5349  0.2338
 8695SOL    HW237719   3.698   0.701   8.399 -0.4086 -0.6890 -1.2077
 8696SOL     OW37720   1.447   2.240   0.353 -0.3308 -0.6203  0.0129
 8696SOL    HW137721   1.519   2.185   0.322  0.2459 -1.0605  2.1820
 8696SOL    HW237722   1.417   2.200   0.434  0.0887 -1.6219 -0.3270
 8697SOL     OW37723   0.047   3.839   7.924  0.4971 -0.3917 -0.2210
 8697SOL    HW137724   0.039   3.788   8.005 -0.3983 -3.0666 -1.9891
 8697SOL    HW237725   0.017   3.771   7.863 -0.2980 -0.1725 -0.0680
 8698SOL     OW37726   3.647   1.322   6.990 -0.2367 -0.0955  0.2672
 8698SOL    HW137727   3.660   1.336   6.896  0.3497 -0.8036  0.2447
 8698SOL    HW237728   3.734   1.348   7.020 -0.8932  0.9678  1.2433
 8699SOL     OW37729   4.246   1.264   8.221 -0.8388  0.2371  0.0980
 8699SOL    HW137730   4.334   1.292   8.197 -0.9107 -0.7381 -1.3377
 8699SOL    HW237731   4.245   1.204   8.295  1.8666  0.4622  0.2978
 8700SOL     OW37732   4.010   0.553  14.361  0.5652 -0.0490 -0.0217
 8700SOL    HW137733   3.971   0.640  14.372  0.6864  0.3509 -2.6516
 8700SOL    HW237734   3.975   0.511  14.440  1.7462  0.3303  0.7077
 8701SOL     OW37735   3.123   3.000  15.744 -0.4233 -0.0812  0.6691
 8701SOL    HW137736   3.061   3.070  15.764  0.0001  0.1165  1.3072
 8701SOL    HW237737   3.066   2.942  15.694  1.8068 -2.1521  0.5380
 8702SOL     OW37738   3.377   2.928   2.994  0.5286 -0.0127 -0.2026
 8702SOL    HW137739   3.366   2.873   2.916 -2.7368  1.4250 -0.7822
 8702SOL    HW237740   3.331   2.869   3.053  0.4768  0.4701  0.2373
 8703SOL     OW37741   2.018   3.964  17.389 -0.2852  0.9434  0.5585
 8703SOL    HW137742   2.040   3.917  17.309 -0.5434  0.2994  0.8682
 8703SOL    HW237743   2.061   3.909  17.454 -1.4130 -1.2280 -0.5502
 8704SOL     OW37744   2.902   3.478   7.229  0.3061 -0.1265 -0.3972
 8704SOL    HW137745   2.845   3.543   7.269 -0.8912 -2.1525  1.1955
 8704SOL    HW237746   2.877   3.474   7.136  1.1631 -1.2930 -0.5769
 8705SOL     OW37747   3.259   0.540   9.768 -0.1184 -0.4817  0.2921
 8705SOL    HW137748   3.167   0.515   9.757  0.0962 -0.6885 -1.0798
 8705SOL    HW237749   3.299   0.502   9.689 -1.6789 -1.8039  0.1264
 8706SOL     OW37750   2.319   2.554   0.386 -0.3412  0.3208 -0.2242
 8706SOL    HW137751   2.351   2.598   0.307  2.8278 -1.8609 -0.1322
 8706SOL    HW237752   2.288   2.477   0.338  3.3827 -0.6330 -1.0480
 8707SOL     OW37753   1.563   0.300   1.611  0.0827 -0.5505 -0.3299
 8707SOL    HW137754   1.526   0.297   1.699 -1.9049 -0.7793 -1.1807
 8707SOL    HW237755   1.593   0.391   1.617  3.8220 -2.0039  3.2359
 8708SOL     OW37756   0.204   1.768   5.695  0.1416 -0.4828  0.0522
 8708SOL    HW137757   0.284   1.797   5.652 -0.9129 -1.5562 -2.6702
 8708SOL    HW237758   0.166   1.852   5.723  3.3619  1.1536 -0.5295
 8709SOL     OW37759   3.406   2.021   4.180 -0.4275 -0.7892 -0.0389
 8709SOL    HW137760   3.482   1.976   4.216 -0.9561 -0.1515  1.8987
 8709SOL    HW237761   3.336   2.010   4.244 -0.7137  1.1472 -0.0088
 8710SOL     OW37762   3.254   4.491   7.398  0.1518 -0.0052 -0.0780
 8710SOL    HW137763   3.342   4.480   7.362 -0.7462 -0.5474 -2.1563
 8710SOL    HW237764   3.229   4.583   7.384  1.3206  0.4468  0.8622
 8711SOL     OW37765   1.488   2.033   2.340 -0.1133 -0.4065 -0.1575
 8711SOL    HW137766   1.557   2.059   2.279 -0.2755 -0.8947 -0.5409
 8711SOL    HW237767   1.524   1.946   2.356  0.2730 -0.2858 -0.3620
 8712SOL     OW37768   4.331   3.378   2.502  0.4461 -0.2173  0.4801
 8712SOL    HW137769   4.406   3.395   2.559  1.7368 -0.2124 -1.2343
 8712SOL    HW237770   4.314   3.288   2.529 -0.6426  0.1882  1.1656
 8713SOL     OW37771   3.211   2.083   9.166 -0.4561  0.7910 -0.1484
 8713SOL    HW137772   3.297   2.059   9.131  0.1164  2.1803  0.3039
 8713SOL    HW237773   3.202   2.002   9.216  0.8617  0.6207 -0.1762
 8714SOL     OW37774   3.389   3.853   1.934  0.1299  0.6649  0.0803
 8714SOL    HW137775   3.383   3.830   1.841  0.9016  0.5263  0.0683
 8714SOL    HW237776   3.300   3.885   1.947  0.7033  1.1660  2.6049
 8715SOL     OW37777   3.513   1.219  13.117 -0.2795 -0.4809 -0.5725
 8715SOL    HW137778   3.585   1.157  13.129 -0.2495 -0.8051 -2.5851
 8715SOL    HW237779   3.443   1.153  13.111  0.2172 -1.5384  4.5773
 8716SOL     OW37780   3.961   0.256  11.031  0.1607  0.8067  0.3504
 8716SOL    HW137781   3.866   0.256  11.044 -0.0761  2.6365 -1.4875
 8716SOL    HW237782   3.974   0.316  10.958  0.5868 -0.0087 -0.2478
 8717SOL     OW37783   0.916   4.482  17.079  0.0123 -0.3537  0.1162
 8717SOL    HW137784   0.921   4.533  17.160  1.7679  0.2467 -0.3627
 8717SOL    HW237785   0.824   4.455  17.075 -0.8277  2.4209  0.3716
 8718SOL     OW37786   0.214   0.038   3.553 -0.0031 -0.3851  0.0902
 8718SOL    HW137787   0.192   4.688   3.521 -1.8639  0.6603 -1.4962
 8718SOL    HW237788   0.308   0.043   3.532 -0.4385 -1.7682 -2.2599
 8719SOL     OW37789   2.158   3.220  12.066 -0.0399 -0.1610 -0.2638
 8719SOL    HW137790   2.160   3.134  12.110  2.0720 -0.0151 -0.1166
 8719SOL    HW237791   2.151   3.191  11.975  4.8907  1.5034 -1.1201
 8720SOL     OW37792   2.283   0.236   7.462  0.0764 -0.8187  0.1523
 8720SOL    HW137793   2.353   0.175   7.483 -0.1203 -1.4256 -0.9404
 8720SOL    HW237794   2.203   0.192   7.492 -0.0840  0.0410  0.9603
 8721SOL     OW37795   2.285   4.663   2.613 -0.3540  0.3713 -0.1384
 8721SOL    HW137796   2.367   4.634   2.652  0.4964  0.3765 -1.9095
 8721SOL    HW237797   2.250   4.578   2.586 -2.7459  1.5902 -0.8254
 8722SOL     OW37798   2.941   3.339   4.601 -0.1710 -0.2187 -0.5289
 8722SOL    HW137799   2.921   3.380   4.685 -1.3231 -0.0575 -0.8804
 8722SOL    HW237800   3.036   3.326   4.610 -0.3202 -0.2590  0.9791
 8723SOL     OW37801   3.466   3.487  16.533 -0.4708  0.3358  0.6810
 8723SOL    HW137802   3.479   3.560  16.593 -4.3199  1.6355 -0.0811
 8723SOL    HW237803   3.452   3.421  16.602 -1.9859  0.2900  0.3295
 8724SOL     OW37804   1.485   0.078   4.447  0.3550 -0.3466  0.3211
 8724SOL    HW137805   1.535   0.104   4.371  0.6825 -1.5476  0.1195
 8724SOL    HW237806   1.479   4.725   4.415  2.3034 -0.2566 -0.2590
 8725SOL     OW37807   2.108   0.639   2.374 -0.6094 -0.2466 -0.0219
 8725SOL    HW137808   2.127   0.570   2.438  2.8404 -0.2683 -1.0764
 8725SOL    HW237809   2.038   0.607   2.316 -0.0651 -0.4903 -0.5470
 8726SOL     OW37810   3.465   0.080   3.293  0.4193 -0.2744  0.0744
 8726SOL    HW137811   3.509   0.063   3.376 -1.4266  0.2838  1.1632
 8726SOL    HW237812   3.527   0.150   3.270 -2.1258  1.6832 -0.7632
 8727SOL     OW37813   0.190   2.312   6.192  0.6643  0.1399 -0.4863
 8727SOL    HW137814   0.206   2.291   6.100 -1.5336  0.2219 -0.8736
 8727SOL    HW237815   0.179   2.407   6.187  0.1362  0.3101  3.6379
 8728SOL     OW37816   0.955   1.537   4.204  0.6060  0.5700  0.2586
 8728SOL    HW137817   0.922   1.561   4.291  0.2908 -0.6037  0.4680
 8728SOL    HW237818   0.871   1.507   4.168  1.0875  0.5973 -0.8748
 8729SOL     OW37819   3.590   1.680  10.047 -0.4034  0.2001  0.1429
 8729SOL    HW137820   3.583   1.746  10.116  0.8135 -2.1429  2.5058
 8729SOL    HW237821   3.503   1.639  10.046 -1.4827  2.5112 -0.5232
 8730SOL     OW37822   3.042   3.152   8.167 -0.0418 -0.2167 -0.2672
 8730SOL    HW137823   3.094   3.103   8.104 -1.5234  0.4700 -2.0251
 8730SOL    HW237824   3.049   3.089   8.239 -0.6854 -0.8829 -0.7843
 8731SOL     OW37825   1.355   4.171  11.671 -0.1394 -0.6078 -0.6208
 8731SOL    HW137826   1.269   4.136  11.689 -0.3430  0.2785  0.1249
 8731SOL    HW237827   1.393   4.097  11.623 -0.1405 -0.2443 -1.1873
 8732SOL     OW37828   3.608   0.757   4.124  0.1742  0.6808  0.4932
 8732SOL    HW137829   3.664   0.773   4.200  0.9738  1.9279 -0.3555
 8732SOL    HW237830   3.605   0.850   4.100 -2.7759  0.3283 -0.4802
 8733SOL     OW37831   1.143   0.319   2.611  0.4371  0.6903  0.2595
 8733SOL    HW137832   1.077   0.368   2.660 -0.7469 -2.0793  1.4926
 8733SOL    HW237833   1.091   0.245   2.580 -0.7542  1.4902  0.3547
 8734SOL     OW37834   0.654   0.771   9.704  0.2098 -0.3554 -0.3274
 8734SOL    HW137835   0.663   0.687   9.659 -1.8434 -1.3660  1.1393
 8734SOL    HW237836   0.559   0.780   9.712  0.2492  1.5111 -1.8270
 8735SOL     OW37837   4.603   4.171   4.745  0.0433 -0.0217 -0.0929
 8735SOL    HW137838   4.656   4.220   4.808  1.8182 -1.5333 -0.4169
 8735SOL    HW237839   4.628   4.225   4.670  0.8694 -0.2367  0.0266
 8736SOL     OW37840   3.806   2.221   6.411 -0.3174 -0.0990  0.4061
 8736SOL    HW137841   3.738   2.284   6.387 -1.6313 -1.7458 -0.1166
 8736SOL    HW237842   3.879   2.284   6.407 -0.3445 -0.2555 -3.2197
 8737SOL     OW37843   3.688   2.744   5.985  0.4767  0.1441  0.6999
 8737SOL    HW137844   3.770   2.777   6.023  0.6435  0.8103 -0.2225
 8737SOL    HW237845   3.703   2.651   5.999  0.8843 -0.2475 -2.2475
 8738SOL     OW37846   0.001   0.329  10.765  0.4355  0.1354 -0.0628
 8738SOL    HW137847   4.686   0.284  10.699  0.9162  0.7503 -0.8663
 8738SOL    HW237848   0.088   0.311  10.729  0.6713 -1.8820  1.5048
 8739SOL     OW37849   2.143   3.489   4.937  0.2068  0.2778 -0.5044
 8739SOL    HW137850   2.237   3.504   4.950  0.6683 -1.9088 -1.4143
 8739SOL    HW237851   2.120   3.454   5.023 -0.4763  1.6757 -0.1150
 8740SOL     OW37852   4.046   2.547   4.764 -0.1832  0.2986 -0.2842
 8740SOL    HW137853   4.106   2.473   4.778  0.2809  0.8624  0.7235
 8740SOL    HW237854   4.061   2.609   4.836  0.8599 -0.1086 -0.1446
 8741SOL     OW37855   4.578   2.064  12.230  0.0467 -0.3354  0.4370
 8741SOL    HW137856   4.613   2.075  12.141 -1.7720  0.5346 -0.1628
 8741SOL    HW237857   4.566   1.969  12.228 -1.6829 -0.0727 -1.4449
 8742SOL     OW37858   4.462   1.078   4.589 -0.0054 -1.3097  0.5744
 8742SOL    HW137859   4.395   1.011   4.604 -0.9451 -0.8328 -1.5783
 8742SOL    HW237860   4.533   1.036   4.540 -0.0965  1.0617 -1.6119
 8743SOL     OW37861   2.088   0.489   7.766 -0.3396 -0.5475 -0.3895
 8743SOL    HW137862   2.011   0.543   7.750  1.8246  3.3770  2.4397
 8743SOL    HW237863   2.148   0.508   7.694  0.9196  2.8706  1.5799
 8744SOL     OW37864   3.515   0.070  16.161 -0.3745 -0.1870 -0.2216
 8744SOL    HW137865   3.602   0.046  16.193  0.2351 -1.0552 -2.5264
 8744SOL    HW237866   3.526   0.153  16.116  3.3177 -1.2191 -1.1519
 8745SOL     OW37867   1.081   0.398  16.933 -0.6661  0.1862 -0.3597
 8745SOL    HW137868   1.076   0.322  16.875 -3.0490 -0.2773  0.4543
 8745SOL    HW237869   1.138   0.445  16.872 -0.3821  2.3763  1.5721
 8746SOL     OW37870   3.484   1.636   3.024 -0.0744 -1.1738 -0.1096
 8746SOL    HW137871   3.394   1.633   3.056 -1.0189  0.4357 -2.6235
 8746SOL    HW237872   3.475   1.653   2.931 -0.4838  2.1548  0.5427
 8747SOL     OW37873   2.243   0.985  13.844 -0.4618 -0.1327  0.4034
 8747SOL    HW137874   2.190   0.912  13.811 -3.3096  1.8021  0.7033
 8747SOL    HW237875   2.260   0.958  13.934 -2.6777 -0.2257  0.7921
 8748SOL     OW37876   2.879   2.859   7.518  0.0387 -0.1508 -0.1001
 8748SOL    HW137877   2.895   2.766   7.534 -1.6141 -0.2767  0.8112
 8748SOL    HW237878   2.788   2.861   7.547  0.2179 -0.9469  0.5117
 8749SOL     OW37879   3.668   3.521   6.590 -0.5852 -0.1026  0.8232
 8749SOL    HW137880   3.670   3.587   6.520 -2.2072 -1.4786 -0.5175
 8749SOL    HW237881   3.597   3.563   6.639 -2.1112  1.3665 -2.6244
 8750SOL     OW37882   2.017   4.670   2.165  0.1981 -0.4442 -0.1880
 8750SOL    HW137883   2.099   4.709   2.195 -0.0898  0.7998 -1.0485
 8750SOL    HW237884   2.023   4.693   2.072  0.4204 -0.5337 -0.1976
 8751SOL     OW37885   3.099   0.522   1.866 -0.5154 -0.0909 -0.0343
 8751SOL    HW137886   3.147   0.505   1.785 -1.2679 -0.1386 -0.4699
 8751SOL    HW237887   3.099   0.617   1.879 -0.5213  0.0121 -0.8326
 8752SOL     OW37888   1.381   2.944   2.916 -0.0975  0.1696  0.1489
 8752SOL    HW137889   1.469   2.973   2.939  0.0154  0.7077 -0.9818
 8752SOL    HW237890   1.327   3.022   2.931  3.1743  2.4674 -0.2064
 8753SOL     OW37891   3.369   2.058  13.744 -0.0406 -0.1353  0.7297
 8753SOL    HW137892   3.290   2.011  13.716 -0.2650  0.8527 -0.2495
 8753SOL    HW237893   3.338   2.086  13.830  0.7576  2.5186  0.1562
 8754SOL     OW37894   1.653   1.383  14.280 -0.6500  0.0406  0.6270
 8754SOL    HW137895   1.573   1.331  14.287 -0.7105 -0.0870 -1.0070
 8754SOL    HW237896   1.674   1.375  14.187  0.6375  1.4412  0.7844
 8755SOL     OW37897   4.329   1.646   9.061  0.2102  0.0367  0.3533
 8755SOL    HW137898   4.364   1.637   9.150  2.4779  1.1098 -0.4306
 8755SOL    HW237899   4.248   1.603   9.087  1.5776 -1.3286  2.3538
 8756SOL     OW37900   1.963   3.557  12.146 -0.0097  0.1032  0.0111
 8756SOL    HW137901   1.985   3.650  12.150  0.7755 -0.0343 -1.2314
 8756SOL    HW237902   1.889   3.560  12.086  0.2672 -1.1442 -0.4010
 8757SOL     OW37903   0.423   1.290   3.499 -0.0267  0.3569 -0.0770
 8757SOL    HW137904   0.347   1.232   3.504  0.9158 -0.7744  1.1794
 8757SOL    HW237905   0.428   1.298   3.404 -3.0733  2.2776 -0.0801
 8758SOL     OW37906   0.747   4.497   7.394  1.2273 -0.7851  0.2642
 8758SOL    HW137907   0.709   4.410   7.385 -3.3803  1.4337 -1.5362
 8758SOL    HW237908   0.781   4.506   7.305 -0.1076  2.3179  0.0749
 8759SOL     OW37909   2.710   4.465   8.823  0.0699  0.1018  0.5244
 8759SOL    HW137910   2.742   4.501   8.905  1.4679 -1.0122  0.4566
 8759SOL    HW237911   2.708   4.545   8.771 -0.6786  0.4948  1.1515
 8760SOL     OW37912   3.007   2.259   4.646 -0.0309  0.5687 -0.0591
 8760SOL    HW137913   3.056   2.257   4.564 -1.4090  0.3683 -0.8861
 8760SOL    HW237914   3.068   2.259   4.719 -0.8623  1.5326  0.6328
 8761SOL     OW37915   0.526   0.014   6.026 -0.3060  0.0031 -0.0585
 8761SOL    HW137916   0.523   4.728   5.933  0.5203  1.8139 -0.5370
 8761SOL    HW237917   0.619   0.003   6.044 -0.2682 -0.6823 -0.6721
 8762SOL     OW37918   2.692   1.111   7.695 -0.5212  0.3861 -0.0632
 8762SOL    HW137919   2.632   1.185   7.696  0.6663  1.3572 -0.1918
 8762SOL    HW237920   2.634   1.044   7.730  0.8438 -0.3705  0.7635
 8763SOL     OW37921   4.328   3.675   1.820 -0.1877 -0.4040  0.0772
 8763SOL    HW137922   4.369   3.711   1.898 -1.8609 -1.4471  1.4246
 8763SOL    HW237923   4.256   3.635   1.868  0.5498 -0.3576  1.2029
 8764SOL     OW37924   1.235   1.507  14.404 -0.0982  0.0118  0.7597
 8764SOL    HW137925   1.224   1.487  14.311  0.5914 -0.4195  0.7774
 8764SOL    HW237926   1.149   1.482  14.438 -1.4291  1.0923 -1.7744
 8765SOL     OW37927   3.615   1.806   6.472  0.1245  0.0802 -0.3575
 8765SOL    HW137928   3.554   1.845   6.534  0.3988 -1.0141  0.6063
 8765SOL    HW237929   3.631   1.878   6.411 -0.4362 -0.4894 -1.1833
 8766SOL     OW37930   2.792   3.475  15.430 -0.1068  0.4046 -0.6676
 8766SOL    HW137931   2.827   3.456  15.343 -3.1153 -1.3458 -1.4962
 8766SOL    HW237932   2.872   3.476  15.482 -0.7919  0.5270  0.3790
 8767SOL     OW37933   1.525   4.036  11.310  0.5106  0.3537 -0.3955
 8767SOL    HW137934   1.485   4.123  11.301  1.1238  0.8675  2.0064
 8767SOL    HW237935   1.457   3.974  11.283 -0.3052  0.5513  1.2380
 8768SOL     OW37936   0.887   3.055   6.492 -0.5012  0.2178 -0.1468
 8768SOL    HW137937   0.896   2.969   6.532  0.5128 -0.5563 -2.0499
 8768SOL    HW237938   0.940   3.103   6.556  1.9832 -3.7671  0.8326
 8769SOL     OW37939   2.171   4.276  16.354  0.1308  0.0485  1.0037
 8769SOL    HW137940   2.263   4.251  16.362  0.4419  0.6920 -0.6581
 8769SOL    HW237941   2.128   4.191  16.341  1.1657 -0.5729  1.5502
 8770SOL     OW37942   2.364   3.115   7.525 -0.5509 -0.0032 -0.2475
 8770SOL    HW137943   2.440   3.141   7.473 -2.3157  2.0168 -1.8131
 8770SOL    HW237944   2.361   3.190   7.584 -2.3563  0.3759 -0.8413
 8771SOL     OW37945   0.731   1.981   6.617  0.3425 -0.5712  0.2792
 8771SOL    HW137946   0.646   1.976   6.574  0.4032 -2.5087  0.3698
 8771SOL    HW237947   0.697   1.983   6.707 -1.3454 -0.6044 -0.3660
 8772SOL     OW37948   2.502   2.292   5.367  0.2858 -0.5214  0.1765
 8772SOL    HW137949   2.471   2.222   5.425  1.1824 -2.0321 -1.1881
 8772SOL    HW237950   2.475   2.256   5.283  0.8872 -0.1065 -0.1956
 8773SOL     OW37951   0.987   1.698  11.275 -0.4287 -0.8724 -0.1617
 8773SOL    HW137952   0.934   1.777  11.278 -0.5959 -0.9597 -0.7928
 8773SOL    HW237953   0.968   1.649  11.355 -0.4820 -1.7563 -0.7037
 8774SOL     OW37954   3.921   3.863  13.288  0.1506  0.2262  0.0622
 8774SOL    HW137955   3.865   3.826  13.220 -0.4018 -1.5368  1.4894
 8774SOL    HW237956   3.920   3.957  13.268  0.0307 -0.0862 -1.4043
 8775SOL     OW37957   3.461   3.457  16.068  0.3366 -0.2719 -0.4786
 8775SOL    HW137958   3.458   3.370  16.107  0.4855  0.7450  1.8118
 8775SOL    HW237959   3.555   3.472  16.076 -0.0659  1.7502  0.5076
 8776SOL     OW37960   0.746   2.327   8.490 -0.4679 -0.1891  0.2972
 8776SOL    HW137961   0.777   2.303   8.403 -0.1563 -1.5959  0.7981
 8776SOL    HW237962   0.827   2.367   8.522 -1.2001 -0.1333  2.0639
 8777SOL     OW37963   4.728   3.134   3.578 -0.2773 -0.1665 -0.3563
 8777SOL    HW137964   0.045   3.078   3.522 -0.3557  0.4167 -1.0177
 8777SOL    HW237965   4.680   3.075   3.637 -0.0580  0.0264  0.0113
 8778SOL     OW37966   1.914   4.045   4.987  0.0816 -0.5308 -0.1223
 8778SOL    HW137967   1.884   3.957   4.966  3.2653 -1.1682 -2.0728
 8778SOL    HW237968   2.006   4.032   4.963  0.6981  0.8484  1.5317
 8779SOL     OW37969   3.837   2.530  16.756 -0.2070 -0.1056  0.7787
 8779SOL    HW137970   3.891   2.533  16.835 -0.3356 -3.0113  0.9928
 8779SOL    HW237971   3.876   2.614  16.733  1.4036 -0.6412  1.5252
 8780SOL     OW37972   0.907   2.939   0.442 -0.4766 -0.0908  0.1791
 8780SOL    HW137973   0.864   3.013   0.485 -0.5183 -1.2024  2.0589
 8780SOL    HW237974   0.995   2.949   0.478  0.2073 -4.1363 -0.3629
 8781SOL     OW37975   3.863   4.342   9.851  0.0669 -0.4004  0.2036
 8781SOL    HW137976   3.790   4.373   9.905 -0.6721 -0.0920 -0.9777
 8781SOL    HW237977   3.927   4.410   9.873  0.7753 -1.8225  2.6095
 8782SOL     OW37978   2.651   2.447   8.396  0.2647 -0.6180  0.8892
 8782SOL    HW137979   2.741   2.465   8.369  0.0821 -0.5481  0.3147
 8782SOL    HW237980   2.664   2.382   8.465 -0.8477  0.4140  2.0719
 8783SOL     OW37981   3.926   3.468   5.000  0.8220  0.3335  0.5436
 8783SOL    HW137982   3.928   3.396   4.937  1.3786  1.4788 -0.7618
 8783SOL    HW237983   4.002   3.440   5.050  0.0451 -0.2970  1.3733
 8784SOL     OW37984   4.729   1.981  15.734 -0.2647  0.2696 -0.1640
 8784SOL    HW137985   0.067   2.005  15.680  0.1019  1.0983  0.7154
 8784SOL    HW237986   4.732   2.055  15.795 -0.3561 -1.1555  1.5665
 8785SOL     OW37987   2.108   3.150  15.113  0.0471 -0.3463 -0.2887
 8785SOL    HW137988   2.178   3.211  15.135 -0.8253  0.5995 -0.1504
 8785SOL    HW237989   2.042   3.208  15.077 -0.0819  0.2838  0.9501
 8786SOL     OW37990   1.523   1.526  12.751  0.3871  0.2492 -0.0676
 8786SOL    HW137991   1.456   1.488  12.808  0.5650  0.5634  0.3511
 8786SOL    HW237992   1.497   1.618  12.753 -1.3632 -0.2373 -0.9063
 8787SOL     OW37993   1.721   4.657   1.898 -0.0567 -0.0648 -0.4537
 8787SOL    HW137994   1.702   4.625   1.810  0.8825 -0.6612 -0.4394
 8787SOL    HW237995   1.740   0.013   1.888 -4.0880  0.5656 -2.2906
 8788SOL     OW37996   0.173   0.475   9.632  0.3756  0.4781 -0.2233
 8788SOL    HW137997   0.134   0.440   9.552  0.2424  0.1948 -0.0367
 8788SOL    HW237998   0.148   0.395   9.680 -0.2739 -0.4364 -2.0760
 8789SOL     OW37999   1.221   1.964  16.484 -0.2776 -0.0473  0.0481
 8789SOL    HW138000   1.149   2.003  16.533 -0.3385  0.3350 -0.3389
 8789SOL    HW238001   1.253   1.901  16.548  1.8864  2.5917  1.5467
 8790SOL     OW38002   2.824   2.063   6.323 -0.0556 -0.1181  0.2651
 8790SOL    HW138003   2.900   2.028   6.370 -0.1168 -1.8163 -0.9104
 8790SOL    HW238004   2.813   1.994   6.257  1.1278 -0.7502  0.7286
 8791SOL     OW38005   1.780   2.455   6.738 -0.2170  0.1130 -0.4130
 8791SOL    HW138006   1.691   2.451   6.703 -0.3647 -0.3263  0.0155
 8791SOL    HW238007   1.785   2.377   6.794  0.5457  1.2955  1.1842
 8792SOL     OW38008   0.277   3.851   6.121  1.0713  0.6331 -0.1270
 8792SOL    HW138009   0.299   3.819   6.034 -0.7561 -1.5699  0.2239
 8792SOL    HW238010   0.345   3.803   6.169  2.1682  1.3214 -1.0024
 8793SOL     OW38011   0.629   2.364  13.477  0.0624 -0.3837  0.3259
 8793SOL    HW138012   0.694   2.415  13.428  0.1811  0.6846  1.5900
 8793SOL    HW238013   0.614   2.294  13.413 -0.5441 -1.4806  1.6577
 8794SOL     OW38014   2.312   0.335  11.345  0.4603  0.3716  0.4142
 8794SOL    HW138015   2.376   0.358  11.412  0.8933  1.5540 -0.4061
 8794SOL    HW238016   2.286   0.249  11.378  1.5920 -1.2487 -2.8914
 8795SOL     OW38017   4.027   4.606   3.445 -0.0172  0.0559 -0.2652
 8795SOL    HW138018   4.017   4.701   3.451 -1.2009 -0.1105  0.2281
 8795SOL    HW238019   4.011   4.590   3.538 -2.4654 -0.5459 -0.7984
 8796SOL     OW38020   4.338   4.336   2.910 -0.3274 -0.5713 -0.7929
 8796SOL    HW138021   4.369   4.412   2.861  1.2451  0.4109  1.7399
 8796SOL    HW238022   4.402   4.339   2.981 -0.4642 -2.1150 -0.6054
 8797SOL     OW38023   0.501   3.488   3.979 -0.0425 -0.9835 -0.1219
 8797SOL    HW138024   0.560   3.556   3.948 -1.4077  0.2754  0.0301
 8797SOL    HW238025   0.421   3.486   3.927 -0.7280  0.7270  0.8657
 8798SOL     OW38026   4.004   0.057   5.356 -0.3917 -0.2510 -0.0409
 8798SOL    HW138027   4.079   0.009   5.321  2.0230  1.1911  3.2001
 8798SOL    HW238028   4.007   0.136   5.302 -0.2489 -1.5180 -1.9089
 8799SOL     OW38029   3.448   0.497   7.195 -0.1214  0.2503  0.1584
 8799SOL    HW138030   3.462   0.590   7.175 -0.6112  0.1058 -0.8387
 8799SOL    HW238031   3.401   0.476   7.115 -1.2940 -2.4438  1.5817
 8800SOL     OW38032   1.741   2.541   8.541 -0.7194  0.1051  1.1983
 8800SOL    HW138033   1.794   2.494   8.605  1.7060  1.3465  0.1254
 8800SOL    HW238034   1.725   2.478   8.471  1.9792  0.4429  0.2709
 8801SOL     OW38035   3.264   2.908   3.670 -0.5739  0.0269  0.1883
 8801SOL    HW138036   3.245   2.916   3.764 -0.1810  1.4595  0.1570
 8801SOL    HW238037   3.291   2.999   3.655 -1.2675  0.3643  0.9755
 8802SOL     OW38038   0.801   1.200   8.882  0.2692  0.1902  0.2483
 8802SOL    HW138039   0.825   1.114   8.917 -0.7760  1.0323  3.0293
 8802SOL    HW238040   0.719   1.182   8.835  0.3490 -1.8157  0.8909
 8803SOL     OW38041   2.993   3.064   6.691 -0.2754  0.4096 -0.7167
 8803SOL    HW138042   2.973   3.140   6.746 -2.3208 -0.8093  0.2154
 8803SOL    HW238043   2.973   3.101   6.605 -2.4869  0.5449 -0.1449
 8804SOL     OW38044   3.467   2.963  15.455  0.4873 -0.0224 -0.3366
 8804SOL    HW138045   3.421   2.985  15.536 -0.1397 -1.5874 -0.2669
 8804SOL    HW238046   3.533   3.031  15.465  1.2515 -0.9375  0.8342
 8805SOL     OW38047   0.143   0.316   6.708  0.0467  0.1925  0.2294
 8805SOL    HW138048   0.140   0.222   6.690  0.4146  0.0511  0.9115
 8805SOL    HW238049   0.184   0.317   6.794  0.9907  0.4862 -0.2277
 8806SOL     OW38050   2.331   3.069  13.475  0.3461 -0.2398 -0.2589
 8806SOL    HW138051   2.285   3.057  13.558  2.2240 -0.4182  0.7784
 8806SOL    HW238052   2.418   3.051  13.512 -1.3057 -0.5144  3.4337
 8807SOL     OW38053   4.515   0.567   8.131  0.2088  0.6710  0.0424
 8807SOL    HW138054   4.567   0.605   8.061  3.0133 -1.6168  0.8884
 8807SOL    HW238055   4.581   0.515   8.177 -0.4602 -1.2835 -1.2177
 8808SOL     OW38056   2.101   2.079   9.108  0.4883 -0.0599 -0.2299
 8808SOL    HW138057   2.171   2.124   9.155 -1.0740  0.8956  1.1591
 8808SOL    HW238058   2.040   2.152   9.104  1.4315  0.6983 -0.6585
 8809SOL     OW38059   3.880   4.436  12.963  0.9429 -0.0650  0.3895
 8809SOL    HW138060   3.887   4.397  12.875 -0.1474 -0.2432  0.3721
 8809SOL    HW238061   3.868   4.529  12.943 -0.1539 -0.3428 -0.2837
 8810SOL     OW38062   2.283   1.281   3.774 -0.6143 -0.3336 -0.1288
 8810SOL    HW138063   2.273   1.186   3.761  0.8741 -0.7790  2.1478
 8810SOL    HW238064   2.292   1.283   3.869 -1.6178 -1.1463 -0.0077
 8811SOL     OW38065   1.025   1.445   6.647  0.0204 -0.4435 -0.6799
 8811SOL    HW138066   0.962   1.509   6.680  0.8941 -1.3266  2.6544
 8811SOL    HW238067   1.055   1.410   6.731  1.2395  0.4911 -0.7265
 8812SOL     OW38068   1.009   0.954   1.948  0.4714  0.1579 -0.0899
 8812SOL    HW138069   1.076   0.887   1.961 -0.0016 -0.0470  1.2603
 8812SOL    HW238070   0.952   0.918   1.880  1.9514 -1.5670 -0.4085
 8813SOL     OW38071   0.955   2.292   8.985 -0.0938 -0.5421 -0.4918
 8813SOL    HW138072   1.023   2.349   8.949 -1.5739  0.8622 -1.1016
 8813SOL    HW238073   0.907   2.354   9.040  0.0963 -0.9314  0.1029
 8814SOL     OW38074   1.210   4.185  14.346 -0.2214  0.2800 -0.3697
 8814SOL    HW138075   1.237   4.128  14.274 -0.2202  0.1713 -0.2832
 8814SOL    HW238076   1.294   4.217  14.379 -0.1480  0.2819 -0.5584
 8815SOL     OW38077   4.115   3.334   9.020 -0.2564 -0.1349 -0.2118
 8815SOL    HW138078   4.118   3.260   9.081 -1.2782  1.5910  1.9499
 8815SOL    HW238079   4.073   3.394   9.081  1.0578  1.6537 -1.0642
 8816SOL     OW38080   4.713   4.645   5.933  0.1255  0.3165  0.6293
 8816SOL    HW138081   0.039   4.711   5.959 -1.6181  1.6948  1.4091
 8816SOL    HW238082   4.637   4.674   5.985 -0.9899  1.4381 -1.6446
 8817SOL     OW38083   1.938   4.514   2.695  0.0238 -0.4925 -0.0871
 8817SOL    HW138084   2.027   4.481   2.693  0.3205  0.2198  1.8027
 8817SOL    HW238085   1.931   4.542   2.604 -0.5187 -1.1980 -0.2673
 8818SOL     OW38086   1.257   0.681   0.066  0.1100 -0.5083 -0.5084
 8818SOL    HW138087   1.271   0.602   0.118  1.9606 -0.9894 -1.7387
 8818SOL    HW238088   1.313   0.746   0.108 -0.1361  0.3805 -1.5690
 8819SOL     OW38089   0.545   0.127   2.165  0.7998 -0.0400 -0.2864
 8819SOL    HW138090   0.498   0.096   2.242 -1.1384  0.4161 -1.2831
 8819SOL    HW238091   0.484   0.111   2.093  1.6047 -0.9490 -0.7477
 8820SOL     OW38092   1.058   1.886   4.710  0.0772  0.1457 -0.1055
 8820SOL    HW138093   1.122   1.941   4.756 -0.5579 -0.0835  1.0518
 8820SOL    HW238094   0.979   1.875   4.762  0.5728 -2.4775  0.1165
 8821SOL     OW38095   1.797   0.573  13.044  0.1468 -0.2657  0.3931
 8821SOL    HW138096   1.758   0.487  13.031 -0.1128 -0.3001  1.3838
 8821SOL    HW238097   1.886   0.541  13.031  0.1156 -0.1143 -0.1893
 8822SOL     OW38098   2.623   0.009   4.917  0.4371 -0.1628  0.0543
 8822SOL    HW138099   2.643   4.702   4.834 -2.3425 -0.4313 -0.4627
 8822SOL    HW238100   2.529   4.732   4.925  0.2404  0.8692 -0.4269
 8823SOL     OW38101   4.364   1.930   3.716 -0.1339  0.4160  0.4082
 8823SOL    HW138102   4.302   1.859   3.726  0.4066 -0.1463 -0.2587
 8823SOL    HW238103   4.370   1.944   3.621  0.2991  0.1113  0.3925
 8824SOL     OW38104   2.412   2.200  10.182  0.1092 -0.3318  0.5297
 8824SOL    HW138105   2.402   2.141  10.107 -0.6631  0.6522 -0.1529
 8824SOL    HW238106   2.368   2.153  10.253  1.1154 -0.0772  1.3121
 8825SOL     OW38107   1.288   4.087   5.222 -0.2697  0.8361 -0.2636
 8825SOL    HW138108   1.232   4.135   5.160  1.7892  1.7384 -1.4018
 8825SOL    HW238109   1.230   4.086   5.298 -0.7062  1.8054 -0.5807
 8826SOL     OW38110   1.044   0.206   0.942 -0.6911 -0.1259 -0.3830
 8826SOL    HW138111   0.979   0.175   0.879 -0.1534 -0.7711 -0.6148
 8826SOL    HW238112   1.114   0.230   0.881 -1.4951  1.9779 -0.4933
 8827SOL     OW38113   0.492   2.685   3.409  0.0867 -0.2840 -0.0065
 8827SOL    HW138114   0.415   2.674   3.465  0.5300  0.7656  0.8071
 8827SOL    HW238115   0.546   2.754   3.448 -0.3902  0.2052 -0.2045
 8828SOL     OW38116   1.002   0.508   6.904 -0.4582  0.3437 -0.3696
 8828SOL    HW138117   1.064   0.575   6.876  1.1976 -1.0756 -0.1338
 8828SOL    HW238118   0.915   0.549   6.902 -0.4866  0.3977  1.4377
 8829SOL     OW38119   3.353   3.270   5.112 -0.0645  0.0264 -0.3090
 8829SOL    HW138120   3.297   3.208   5.065  1.8430 -0.8609 -1.3916
 8829SOL    HW238121   3.434   3.250   5.066 -0.4156  0.7553 -1.2498
 8830SOL     OW38122   1.980   2.051   2.193  0.1060  0.6871 -0.3003
 8830SOL    HW138123   2.039   2.102   2.248  1.2876 -0.7969 -0.1854
 8830SOL    HW238124   2.036   1.999   2.135 -0.8213  0.4473 -0.9772
 8831SOL     OW38125   0.251   3.038  15.281  0.7912  0.8365 -0.5528
 8831SOL    HW138126   0.223   3.056  15.192 -0.7933  0.9650 -0.0279
 8831SOL    HW238127   0.191   2.965  15.296  0.2852  1.6182  1.2701
 8832SOL     OW38128   4.530   1.325   8.458 -0.4198  0.2855  0.3186
 8832SOL    HW138129   4.574   1.268   8.520  3.1899  0.3999 -2.1275
 8832SOL    HW238130   4.443   1.287   8.447  0.0368 -0.8018  0.4892
 8833SOL     OW38131   2.136   1.162   8.170  0.8211  0.3202  0.2301
 8833SOL    HW138132   2.058   1.139   8.120  1.5978 -1.0155 -0.3641
 8833SOL    HW238133   2.142   1.256   8.151 -0.3865  0.0743 -1.3569
 8834SOL     OW38134   2.370   2.041   5.854  0.0512 -0.0088 -0.1143
 8834SOL    HW138135   2.370   2.137   5.847  0.7541  0.1081  1.3858
 8834SOL    HW238136   2.464   2.021   5.849 -0.0325 -0.3183 -0.4772
 8835SOL     OW38137   4.536   2.216  13.944  0.2767 -0.0227  0.2290
 8835SOL    HW138138   4.578   2.132  13.926 -1.3328 -0.7669 -0.0293
 8835SOL    HW238139   4.619   2.263  13.952 -0.1875  0.7393  0.4838
 8836SOL     OW38140   4.120   3.603   6.059  0.2409  0.0248 -0.8396
 8836SOL    HW138141   4.040   3.573   6.101  0.2159  1.6093  0.2372
 8836SOL    HW238142   4.107   3.697   6.046 -2.0060 -0.3961 -1.6426
 8837SOL     OW38143   0.808   1.061   1.264  0.1208  0.2137  1.0003
 8837SOL    HW138144   0.804   0.968   1.243 -1.1670  0.7666 -1.2906
 8837SOL    HW238145   0.722   1.079   1.300 -0.7795 -3.0631  0.4935
 8838SOL     OW38146   2.569   2.448   5.589 -0.2208 -0.6663 -0.6930
 8838SOL    HW138147   2.511   2.520   5.612 -0.5042 -1.4554  1.0809
 8838SOL    HW238148   2.560   2.444   5.494 -1.4006 -0.9556 -0.5708
 8839SOL     OW38149   1.260   1.369   8.998  0.3847  0.4831 -0.3909
 8839SOL    HW138150   1.224   1.437   9.055  0.2261 -0.1552  0.2844
 8839SOL    HW238151   1.274   1.298   9.061  0.8503 -0.6348 -1.7630
 8840SOL     OW38152   2.869   3.099   5.003 -0.7389  0.6086  0.1696
 8840SOL    HW138153   2.832   3.015   4.976 -0.7411  1.1194 -1.4125
 8840SOL    HW238154   2.939   3.103   4.938 -0.9220 -2.4976 -0.2057
 8841SOL     OW38155   2.166   3.801  17.540  0.2481  0.0370 -0.3084
 8841SOL    HW138156   2.179   3.760  17.454  1.6368  1.0741 -0.6000
 8841SOL    HW238157   2.203   3.731  17.594  0.1361 -0.8642 -1.3931
 8842SOL     OW38158   0.029   3.284   4.415 -0.3208  0.4237 -0.4136
 8842SOL    HW138159   4.726   3.318   4.495  0.2843 -0.6083  0.3410
 8842SOL    HW238160   4.709   3.329   4.354 -1.3873  1.6691  1.5003
 8843SOL     OW38161   0.443   2.502   5.536 -0.2585 -0.3425  0.2706
 8843SOL    HW138162   0.481   2.416   5.521  1.7025  0.7388 -1.0286
 8843SOL    HW238163   0.479   2.508   5.625 -1.1020 -0.1858  0.6011
 8844SOL     OW38164   4.001   1.910   5.692  0.1479  0.2253 -0.2790
 8844SOL    HW138165   4.028   1.957   5.771  0.9458 -0.0150 -0.4109
 8844SOL    HW238166   4.079   1.900   5.636  0.2427 -0.0448 -0.1000
 8845SOL     OW38167   1.080   1.662  13.708 -0.6650  0.2748  0.1871
 8845SOL    HW138168   1.096   1.652  13.614  1.2330 -2.0037  0.7638
 8845SOL    HW238169   1.021   1.737  13.708 -0.2814  0.5734 -0.4476
 8846SOL     OW38170   1.074   2.067   3.215 -0.0362 -0.1672 -0.2413
 8846SOL    HW138171   1.128   2.023   3.149  0.7107  0.4639 -0.0539
 8846SOL    HW238172   1.003   2.099   3.160 -1.3917 -0.5076  1.3010
 8847SOL     OW38173   1.850   2.275  15.270 -0.1457  0.3460 -0.0892
 8847SOL    HW138174   1.924   2.240  15.319  0.3092  0.9911 -0.3244
 8847SOL    HW238175   1.785   2.288  15.339  0.9155  1.0612  0.7763
 8848SOL     OW38176   4.482   3.516   6.664 -0.0986 -0.2268 -0.6470
 8848SOL    HW138177   4.500   3.609   6.647  2.4095 -0.5287  0.4005
 8848SOL    HW238178   4.433   3.503   6.583  0.7448  3.3277 -1.7529
 8849SOL     OW38179   0.417   2.220   9.363 -0.0371 -0.0316  0.2322
 8849SOL    HW138180   0.360   2.270   9.421  0.2109 -0.1018  0.5327
 8849SOL    HW238181   0.452   2.288   9.306  1.0682 -1.7217 -1.1167
 8850SOL     OW38182   3.089   2.397   5.847  0.0285  0.6224  0.0738
 8850SOL    HW138183   3.051   2.356   5.924  1.0752  0.6790  0.6238
 8850SOL    HW238184   3.016   2.450   5.815 -1.0476 -0.7420  0.2719
 8851SOL     OW38185   2.270   0.125  13.452  0.4245  0.6488 -0.0168
 8851SOL    HW138186   2.189   0.090  13.488 -0.1158  0.3167 -1.5506
 8851SOL    HW238187   2.309   0.041  13.426 -0.6776  0.1036  0.1196
 8852SOL     OW38188   2.009   4.484  16.392 -0.1100  0.3188 -0.5357
 8852SOL    HW138189   2.051   4.401  16.368  0.7724  0.7054 -0.3142
 8852SOL    HW238190   1.968   4.520  16.314 -0.0673  0.2632 -0.5841
 8853SOL     OW38191   0.468   3.729   1.706  0.3036  0.2151 -0.4092
 8853SOL    HW138192   0.545   3.782   1.683 -0.8079  1.4851 -1.2353
 8853SOL    HW238193   0.490   3.719   1.799 -2.9909  0.4387  0.3941
 8854SOL     OW38194   1.643   2.675   2.064  0.1216 -0.1053 -0.1672
 8854SOL    HW138195   1.555   2.674   2.028 -0.3727  1.9147  1.0141
 8854SOL    HW238196   1.681   2.612   2.002  0.5987  0.6102 -0.5972
 8855SOL     OW38197   1.859   0.017   7.189  0.1272  0.0741 -0.4372
 8855SOL    HW138198   1.900   0.103   7.188  1.4165 -0.5199  1.1277
 8855SOL    HW238199   1.910   4.708   7.255 -1.0047 -2.2694 -1.2172
 8856SOL     OW38200   4.165   0.980   4.990 -0.2613 -0.4535 -0.2747
 8856SOL    HW138201   4.245   0.970   4.940  0.5184  3.2949  0.1995
 8856SOL    HW238202   4.199   0.964   5.078  0.9102 -3.8436 -1.3641
 8857SOL     OW38203   3.999   0.714   5.503 -0.5158 -0.1898  0.3515
 8857SOL    HW138204   3.910   0.746   5.517 -0.2981  0.0011  1.3023
 8857SOL    HW238205   3.968   0.632   5.466 -0.4816  0.7234 -1.6966
 8858SOL     OW38206   0.660   3.976   6.452 -0.0110  0.0265  0.0274
 8858SOL    HW138207   0.591   4.041   6.438  0.8452  0.6812 -1.2172
 8858SOL    HW238208   0.731   4.016   6.400  1.0216 -2.8055 -0.7349
 8859SOL     OW38209   1.040   1.463   9.977 -0.5541 -0.8004 -0.3350
 8859SOL    HW138210   1.110   1.422   9.926 -0.9608 -0.8351 -0.8646
 8859SOL    HW238211   0.970   1.472   9.912  0.4152  1.1424 -1.1054
 8860SOL     OW38212   2.346   3.826   2.124 -0.6802 -0.1144  0.6644
 8860SOL    HW138213   2.374   3.907   2.167 -0.4896  0.6821 -0.9831
 8860SOL    HW238214   2.391   3.764   2.181  0.5788 -1.0013 -1.3337
 8861SOL     OW38215   3.205   0.414   4.876 -0.5491  0.8602  0.6338
 8861SOL    HW138216   3.120   0.456   4.861 -0.5713 -0.2710 -2.4605
 8861SOL    HW238217   3.187   0.364   4.955  1.3308 -1.7234 -0.5798
 8862SOL     OW38218   2.232   3.057   3.216  0.4930  0.6127  0.3415
 8862SOL    HW138219   2.178   3.124   3.174  0.0470  1.4517  2.2327
 8862SOL    HW238220   2.310   3.051   3.160  0.0563  0.9008 -0.2979
 8863SOL     OW38221   2.618   1.996   8.412 -0.0051 -0.2733 -0.1534
 8863SOL    HW138222   2.709   2.021   8.398  0.2862 -0.4885  1.4166
 8863SOL    HW238223   2.624   1.914   8.461  0.1633 -0.6039 -0.7231
 8864SOL     OW38224   0.539   2.188   7.151  0.0786  0.0354 -0.5447
 8864SOL    HW138225   0.492   2.198   7.233 -0.8462 -0.7129 -0.9794
 8864SOL    HW238226   0.571   2.276   7.132 -1.6084  0.7076 -0.2117
 8865SOL     OW38227   2.184   2.469   8.961  0.3968 -0.0717 -0.2851
 8865SOL    HW138228   2.125   2.426   9.022 -0.3270  2.0969  0.5481
 8865SOL    HW238229   2.256   2.408   8.977 -0.0547 -0.7721 -0.9525
 8866SOL     OW38230   0.997   0.087  12.804 -0.7980  0.4456 -0.3479
 8866SOL    HW138231   0.981   0.027  12.732 -1.4634  0.9550 -0.6356
 8866SOL    HW238232   1.013   0.169  12.757 -1.2249  0.3300 -0.6942
 8867SOL     OW38233   1.250   4.082  15.116 -0.8621 -0.2313  0.2687
 8867SOL    HW138234   1.282   4.148  15.055 -0.7413 -1.1477 -0.6552
 8867SOL    HW238235   1.170   4.123  15.149 -0.2250  0.4167  1.0224
 8868SOL     OW38236   1.621   0.559   2.734 -0.1969 -0.2714 -0.5298
 8868SOL    HW138237   1.528   0.536   2.734 -0.4098  0.5854 -0.4220
 8868SOL    HW238238   1.615   0.647   2.696 -1.2118  0.0826  0.4281
 8869SOL     OW38239   4.126   1.730   1.020 -0.0989 -0.2159  0.3685
 8869SOL    HW138240   4.086   1.810   0.985 -0.4638 -1.0885 -1.1854
 8869SOL    HW238241   4.103   1.667   0.951 -3.9942 -0.0190  1.4654
 8870SOL     OW38242   1.776   1.455   3.279  0.0473 -0.7633  0.2647
 8870SOL    HW138243   1.773   1.502   3.362  1.5716 -1.0358  0.4735
 8870SOL    HW238244   1.778   1.369   3.321 -0.3914 -0.4050  1.0201
 8871SOL     OW38245   4.281   2.764   6.172  0.2033 -0.3739 -0.2316
 8871SOL    HW138246   4.219   2.720   6.113  0.6484  0.2364 -1.1536
 8871SOL    HW238247   4.258   2.735   6.260 -0.1589 -1.0924 -0.5555
 8872SOL     OW38248   2.645   3.214   8.508  0.1018  0.7757  0.4809
 8872SOL    HW138249   2.705   3.143   8.532  0.4033  0.6923 -0.5372
 8872SOL    HW238250   2.652   3.210   8.413  2.0235  0.4674  0.6308
 8873SOL     OW38251   4.122   1.806  17.636 -0.3436 -0.0139 -0.7033
 8873SOL    HW138252   4.173   1.778  17.560 -1.5109 -1.1946 -1.0426
 8873SOL    HW238253   4.165   1.888  17.662  1.2853 -1.0902 -0.0590
 8874SOL     OW38254   3.516   0.988   7.290  0.5165  0.0510 -0.1417
 8874SOL    HW138255   3.604   1.000   7.253 -0.5017  0.3858 -2.4504
 8874SOL    HW238256   3.536   0.997   7.383 -2.1968 -0.0410  0.4528
 8875SOL     OW38257   1.164   2.239   2.157 -0.3322  0.3257  0.2496
 8875SOL    HW138258   1.241   2.202   2.198  0.4259  1.2260 -0.3578
 8875SOL    HW238259   1.195   2.217   2.070 -2.1184  2.8488 -1.0534
 8876SOL     OW38260   4.267   3.171   3.819  0.5719 -0.4046  0.3445
 8876SOL    HW138261   4.217   3.244   3.856 -2.7978 -1.7415 -1.5342
 8876SOL    HW238262   4.282   3.211   3.733  0.0048 -1.1621 -0.1033
 8877SOL     OW38263   2.499   0.505  17.733 -0.0249  0.1754 -0.0764
 8877SOL    HW138264   2.483   0.411  17.726  0.3245  0.2065 -1.2927
 8877SOL    HW238265   2.446   0.537   0.058  0.9466  0.6205  0.4510
 8878SOL     OW38266   0.235   1.078   7.619  0.3538  0.1703 -0.2103
 8878SOL    HW138267   0.265   0.987   7.626  0.6541  0.3118  0.3446
 8878SOL    HW238268   0.300   1.125   7.671  0.5872 -0.0625 -0.2869
 8879SOL     OW38269   4.130   1.167   9.825  0.1186  0.5702 -0.4917
 8879SOL    HW138270   4.073   1.142   9.753  0.2094  1.4183 -0.8486
 8879SOL    HW238271   4.076   1.219   9.884 -0.1560 -0.7039  0.3726
 8880SOL     OW38272   2.589   0.535   2.544  0.3103  0.1318  0.8076
 8880SOL    HW138273   2.635   0.558   2.625  0.3841 -2.4927  1.5108
 8880SOL    HW238274   2.512   0.492   2.581 -0.2242 -2.1957 -3.0294
 8881SOL     OW38275   0.997   0.395  14.308  0.5463  0.6178  0.6588
 8881SOL    HW138276   1.022   0.376  14.218 -0.2103  0.3135  0.5187
 8881SOL    HW238277   0.914   0.439  14.292  0.2524  0.2395  1.1298
 8882SOL     OW38278   1.712   3.286   8.936 -0.3117  0.6961  0.1717
 8882SOL    HW138279   1.744   3.209   8.889 -1.6401 -0.1949  0.7330
 8882SOL    HW238280   1.695   3.339   8.857 -0.7281  2.5127  1.4576
 8883SOL     OW38281   4.123   3.997   8.937 -0.0215 -0.3295 -0.1172
 8883SOL    HW138282   4.155   3.954   8.857 -0.6097 -0.8598 -0.0757
 8883SOL    HW238283   4.200   4.006   8.993  0.0615  0.9712 -0.4420
 8884SOL     OW38284   3.850   1.847   9.501  0.6697  0.5044 -0.5575
 8884SOL    HW138285   3.940   1.832   9.530 -0.1381 -0.6203  1.3313
 8884SOL    HW238286   3.835   1.798   9.420 -2.6246 -0.3395  0.5528
 8885SOL     OW38287   1.463   4.375   6.127 -0.1531 -0.2910 -0.4078
 8885SOL    HW138288   1.521   4.320   6.180  0.1013  0.9285  0.5704
 8885SOL    HW238289   1.380   4.361   6.172 -0.5013 -0.5572 -1.1311
 8886SOL     OW38290   2.176   2.756   8.337  0.4462  0.3737  0.7007
 8886SOL    HW138291   2.149   2.709   8.416  2.1108  0.9875  1.6245
 8886SOL    HW238292   2.152   2.696   8.266  0.6824  3.0444 -1.6201
 8887SOL     OW38293   2.956   3.736   1.992 -0.2004 -0.4893 -0.3013
 8887SOL    HW138294   3.004   3.818   1.981 -1.1689  0.5419  3.2597
 8887SOL    HW238295   2.928   3.719   1.902  2.3512  1.3623 -1.4545
 8888SOL     OW38296   3.651   0.021   3.489  0.0593  0.1366  0.1157
 8888SOL    HW138297   3.700   4.683   3.519 -0.4886 -1.0495 -1.9421
 8888SOL    HW238298   3.705   0.094   3.519  0.6357 -0.0175 -0.5500
 8889SOL     OW38299   2.116   0.725   5.172  0.1924 -0.0302  0.4448
 8889SOL    HW138300   2.137   0.753   5.083 -3.3423  0.3336 -0.2612
 8889SOL    HW238301   2.197   0.682   5.196 -0.2542 -1.1549 -0.0935
 8890SOL     OW38302   0.634   2.105   4.910  0.0206 -0.0720 -0.0005
 8890SOL    HW138303   0.723   2.107   4.875  0.5136 -3.0225  1.1444
 8890SOL    HW238304   0.642   2.170   4.980 -2.2931 -0.1441  0.3360
 8891SOL     OW38305   0.384   3.489   5.070 -0.3283  0.1140 -0.1403
 8891SOL    HW138306   0.356   3.525   5.154  0.6527 -3.4884  1.7107
 8891SOL    HW238307   0.479   3.481   5.078 -0.2958 -0.9154 -1.5733
 8892SOL     OW38308   0.003   2.706   9.654  0.0937  0.0669  0.1678
 8892SOL    HW138309   0.020   2.747   9.569  1.1385  0.1654  0.4288
 8892SOL    HW238310   4.692   2.774   9.701  0.2677 -0.1069  0.6013
 8893SOL     OW38311   4.284   3.500   6.930  0.1315  0.0892  0.1937
 8893SOL    HW138312   4.282   3.579   6.876 -0.3832 -0.0341  0.0304
 8893SOL    HW238313   4.258   3.443   6.858 -1.1292 -0.7259  1.2893
 8894SOL     OW38314   1.924   1.429   5.581  0.0359  0.0805 -0.7309
 8894SOL    HW138315   1.848   1.476   5.614  0.3208  1.5365 -2.1594
 8894SOL    HW238316   1.970   1.391   5.656 -1.0034 -1.0499 -0.6591
 8895SOL     OW38317   1.212   0.426  17.349 -0.2147 -0.0877 -0.5473
 8895SOL    HW138318   1.303   0.423  17.320 -0.4514  0.2389 -1.3435
 8895SOL    HW238319   1.188   0.350  17.295 -1.4155  0.1001 -0.2782
 8896SOL     OW38320   0.498   3.787   2.564  0.7453  0.0475  0.1865
 8896SOL    HW138321   0.408   3.786   2.530  0.8272  2.0154 -0.1011
 8896SOL    HW238322   0.486   3.761   2.655 -1.0480  0.0017 -0.0428
 8897SOL     OW38323   4.374   1.971   5.713 -0.1925  0.0007  0.3531
 8897SOL    HW138324   4.450   2.017   5.747 -1.4432  1.7385  0.7716
 8897SOL    HW238325   4.323   2.038   5.667  1.5373  2.2757  1.7950
 8898SOL     OW38326   1.310   1.427   9.525 -0.4940 -1.0066 -0.0809
 8898SOL    HW138327   1.241   1.463   9.470 -0.3518 -0.3651  0.1701
 8898SOL    HW238328   1.308   1.331   9.524 -0.3582 -1.0096  0.1472
 8899SOL     OW38329   3.988   3.784   2.212  0.7733  0.1620  0.0875
 8899SOL    HW138330   3.940   3.724   2.156  1.1803  1.8765 -2.0936
 8899SOL    HW238331   3.950   3.757   2.296 -0.0923  1.2765  0.0513
 8900SOL     OW38332   2.558   3.876   4.044 -0.0707 -0.1102 -0.2673
 8900SOL    HW138333   2.639   3.922   4.025  0.8321 -0.6025  2.3296
 8900SOL    HW238334   2.513   3.915   3.970  0.9985  0.5047 -0.5923
 8901SOL     OW38335   1.591   0.853  13.274 -0.2946  0.6731 -0.2300
 8901SOL    HW138336   1.685   0.835  13.276 -0.2191  0.9206 -1.2066
 8901SOL    HW238337   1.590   0.927  13.212  0.1733 -0.7615 -1.9634
 8902SOL     OW38338   4.293   1.136   1.870  0.0092 -0.7048  0.0710
 8902SOL    HW138339   4.251   1.178   1.945  0.5044 -0.5687  0.2732
 8902SOL    HW238340   4.383   1.167   1.879 -0.0432 -0.6243  0.3095
 8903SOL     OW38341   0.734   1.446   4.612 -0.2607 -0.2283  1.0885
 8903SOL    HW138342   0.750   1.353   4.594 -1.0571 -0.3425  0.9732
 8903SOL    HW238343   0.695   1.444   4.699  0.7181 -0.3157  1.5332
 8904SOL     OW38344   0.521   3.111  12.620  0.0363  0.0977 -0.6457
 8904SOL    HW138345   0.599   3.079  12.666 -1.1403 -1.6866  0.1178
 8904SOL    HW238346   0.496   3.039  12.562  2.9429 -1.6123  0.2203
 8905SOL     OW38347   1.971   1.534  16.004 -0.0341  0.0658 -0.4925
 8905SOL    HW138348   2.061   1.502  16.004  0.1238  0.5104 -0.0086
 8905SOL    HW238349   1.958   1.515  16.097  0.8998  0.2701 -0.3179
 8906SOL     OW38350   0.798   3.209  16.277 -0.2356 -0.2312  0.2477
 8906SOL    HW138351   0.847   3.234  16.198  1.1564  0.5243  1.3550
 8906SOL    HW238352   0.761   3.296  16.294  4.6834  1.1252  3.8712
 8907SOL     OW38353   2.379   4.388   5.568  0.2084  0.5419  0.2273
 8907SOL    HW138354   2.395   4.334   5.490  0.8545  1.1923 -0.0879
 8907SOL    HW238355   2.459   4.371   5.617  1.3199  0.8554 -1.4598
 8908SOL     OW38356   0.978   2.067  17.393  0.0259 -0.6771 -0.3667
 8908SOL    HW138357   0.907   2.100  17.449  0.3770 -0.6010  0.0316
 8908SOL    HW238358   0.949   1.975  17.394 -0.5954 -0.4840 -0.0740
 8909SOL     OW38359   4.093   4.478   2.913  0.4812 -0.6370 -0.6419
 8909SOL    HW138360   4.076   4.436   2.829 -0.1133 -0.3480 -0.6685
 8909SOL    HW238361   4.187   4.462   2.922  0.0430 -2.0971  1.2611
 8910SOL     OW38362   3.618   0.544  15.868  0.0844  0.2180 -0.0875
 8910SOL    HW138363   3.654   0.589  15.792 -1.2706  1.3691 -0.0469
 8910SOL    HW238364   3.529   0.578  15.860 -0.5825 -1.7680 -1.1956
 8911SOL     OW38365   3.541   3.671   1.488 -0.4032  0.1221  0.0468
 8911SOL    HW138366   3.580   3.756   1.465 -1.0648 -0.2078 -2.3560
 8911SOL    HW238367   3.484   3.665   1.411 -1.5945  1.5877  0.8164
 8912SOL     OW38368   4.133   2.798  15.773 -0.1394 -0.4254 -0.1106
 8912SOL    HW138369   4.160   2.717  15.729  1.6313 -0.3953  0.8990
 8912SOL    HW238370   4.202   2.806  15.838 -0.0263  1.5042 -0.4766
 8913SOL     OW38371   3.908   2.765   9.618 -0.2496  0.0529  0.4481
 8913SOL    HW138372   3.925   2.768   9.712  1.0072 -1.0594  0.2450
 8913SOL    HW238373   3.916   2.671   9.605 -1.5751  0.3649 -2.6835
 8914SOL     OW38374   1.111   4.568   7.903  0.2867 -0.2503  0.3836
 8914SOL    HW138375   1.029   4.609   7.931 -1.0780 -2.0286 -0.9814
 8914SOL    HW238376   1.107   4.491   7.958 -1.8616 -1.2717 -1.1818
 8915SOL     OW38377   2.549   0.184   7.225 -0.3275 -0.0747 -0.9480
 8915SOL    HW138378   2.614   0.192   7.155  0.4216  1.5308 -0.0632
 8915SOL    HW238379   2.594   0.144   7.300 -0.3670 -1.5830 -1.7250
 8916SOL     OW38380   0.011   2.443   6.449 -0.0969  0.2295 -0.1892
 8916SOL    HW138381   0.013   2.468   6.357 -0.6692  1.2239  0.0591
 8916SOL    HW238382   0.081   2.503   6.477 -0.5250  0.4559  0.4029
 8917SOL     OW38383   2.753   3.598  17.567 -0.0254 -0.2347 -0.0026
 8917SOL    HW138384   2.832   3.558  17.531  0.4194  0.8915 -0.2871
 8917SOL    HW238385   2.682   3.558  17.517 -0.8869  0.2611  0.8131
 8918SOL     OW38386   2.468   3.249  13.294 -0.0069 -0.1980 -0.3928
 8918SOL    HW138387   2.426   3.209  13.371 -1.5947  3.2392  0.5293
 8918SOL    HW238388   2.556   3.214  13.305 -0.0851  0.2733  1.7403
 8919SOL     OW38389   3.183   2.886   4.601 -0.8863  0.0136 -0.5699
 8919SOL    HW138390   3.112   2.822   4.601 -0.6616 -0.2475  0.1319
 8919SOL    HW238391   3.155   2.952   4.665  0.1414 -0.5909  0.5236
 8920SOL     OW38392   2.059   1.576   4.670 -0.5137 -0.4908  0.7888
 8920SOL    HW138393   2.004   1.562   4.593 -1.2118  2.8814  0.6790
 8920SOL    HW238394   2.091   1.486   4.664 -1.0143 -0.5104 -1.8355
 8921SOL     OW38395   0.156   1.931   6.926  0.8365  0.0877  0.0936
 8921SOL    HW138396   0.090   1.930   6.858 -0.5374 -0.5372  1.4359
 8921SOL    HW238397   0.160   2.023   6.953  0.2302 -0.2461  1.3473
 8922SOL     OW38398   0.833   3.883   9.418 -0.5025 -0.0311  0.1323
 8922SOL    HW138399   0.824   3.796   9.380  2.0724 -0.0779 -0.3937
 8922SOL    HW238400   0.916   3.921   9.390  0.0141 -2.0417 -1.0421
 8923SOL     OW38401   2.750   2.552  15.368 -0.2063  0.6975  0.4911
 8923SOL    HW138402   2.726   2.617  15.433 -1.0490  2.5104 -1.6385
 8923SOL    HW238403   2.807   2.490  15.413  0.8713  0.6138 -0.9642
 8924SOL     OW38404   4.166   1.554   4.934 -0.1394  0.2363 -0.5418
 8924SOL    HW138405   4.147   1.645   4.958 -1.1760  0.4102 -2.0292
 8924SOL    HW238406   4.193   1.517   5.018  0.6140  1.6916 -0.1359
 8925SOL     OW38407   1.277   2.565   7.491  0.0366  0.3914 -0.0753
 8925SOL    HW138408   1.319   2.640   7.450 -1.8575  1.2688 -0.4181
 8925SOL    HW238409   1.335   2.490   7.479  0.6088  1.2408 -2.5833
 8926SOL     OW38410   0.503   4.445   5.229  0.0707 -0.6687  0.3379
 8926SOL    HW138411   0.445   4.371   5.247 -1.5150 -0.1794 -2.8914
 8926SOL    HW238412   0.584   4.396   5.245 -0.0950 -0.6037  1.4111
 8927SOL     OW38413   3.056   1.187   5.874  0.0684 -0.1457  0.3142
 8927SOL    HW138414   3.043   1.234   5.791  0.4595  1.0885  0.9525
 8927SOL    HW238415   3.055   1.261   5.935  0.9210 -0.8960  1.2317
 8928SOL     OW38416   4.071   0.601  13.158  0.0583  0.0389  0.1281
 8928SOL    HW138417   4.133   0.572  13.225  1.9913  0.2798 -1.5393
 8928SOL    HW238418   4.132   0.640  13.095 -0.4997 -0.1514 -0.5348
 8929SOL     OW38419   1.634   1.545  12.073  0.2257 -0.5610  0.0957
 8929SOL    HW138420   1.554   1.568  12.026 -0.7297 -3.0813  0.4825
 8929SOL    HW238421   1.706   1.597  12.039  1.2943 -1.5329  0.8408
 8930SOL     OW38422   3.977   2.213   4.534  0.1686  0.1956  0.2477
 8930SOL    HW138423   3.887   2.181   4.525  0.4399 -0.8288  1.2348
 8930SOL    HW238424   4.017   2.198   4.448  1.5438  0.2493  0.8686
 8931SOL     OW38425   1.239   0.435   2.991  0.0877  0.3525 -0.1219
 8931SOL    HW138426   1.174   0.474   3.049  1.6194  1.5052  0.8080
 8931SOL    HW238427   1.248   0.345   3.022  2.2751  0.3500 -0.7493
 8932SOL     OW38428   0.592   4.664   3.737 -0.1492  0.0193  0.1353
 8932SOL    HW138429   0.514   4.664   3.792 -0.4399 -2.4046 -0.2403
 8932SOL    HW238430   0.581   4.575   3.703 -2.2681  0.4314 -0.2893
 8933SOL     OW38431   2.341   0.560   4.232  0.0971  0.5962 -0.2788
 8933SOL    HW138432   2.272   0.551   4.166 -0.3710 -0.6058  0.3615
 8933SOL    HW238433   2.296   0.527   4.310 -1.3531 -0.1567 -1.4260
 8934SOL     OW38434   4.127   1.302   4.643 -0.1977  0.2934  0.6758
 8934SOL    HW138435   4.160   1.270   4.726  1.0652  0.3915  0.2073
 8934SOL    HW238436   4.119   1.219   4.595  2.0702  1.1594 -1.1920
 8935SOL     OW38437   1.121   3.568  11.266  0.4073 -0.3638 -0.1744
 8935SOL    HW138438   1.175   3.497  11.231  0.0132 -0.2732 -0.9587
 8935SOL    HW238439   1.116   3.545  11.359  0.5323 -1.2816 -0.3867
 8936SOL     OW38440   0.602   2.513  13.193  0.5990 -0.1789 -0.6114
 8936SOL    HW138441   0.695   2.489  13.199  0.5934  0.7660  2.7929
 8936SOL    HW238442   0.571   2.437  13.143  0.7208 -0.3463 -0.4362
 8937SOL     OW38443   3.775   2.601   7.438 -0.0205 -0.0078 -0.0498
 8937SOL    HW138444   3.725   2.569   7.364  1.9100 -2.8162 -0.1069
 8937SOL    HW238445   3.849   2.647   7.398 -0.4564  0.2998 -0.5040
 8938SOL     OW38446   1.422   1.427   2.728 -0.4382 -0.1580 -0.4013
 8938SOL    HW138447   1.337   1.405   2.690 -0.4230  1.0704 -1.1585
 8938SOL    HW238448   1.411   1.522   2.732  2.6699  0.1828  0.0814
 8939SOL     OW38449   2.352   2.675   4.109 -0.0144  0.0631 -0.4320
 8939SOL    HW138450   2.275   2.618   4.100  0.0445  0.1619 -1.5033
 8939SOL    HW238451   2.436   2.630   4.108  0.3105  0.6677 -0.3602
 8940SOL     OW38452   3.873   1.857   3.136  0.6084 -0.1771  0.4097
 8940SOL    HW138453   3.924   1.900   3.067  1.4455 -1.2702  0.3432
 8940SOL    HW238454   3.902   1.766   3.128 -0.0290 -0.3618  0.1970
 8941SOL     OW38455   1.341   3.802   0.525 -0.1847  0.6252 -0.0470
 8941SOL    HW138456   1.377   3.850   0.599 -1.0424 -0.4517  1.0733
 8941SOL    HW238457   1.409   3.734   0.523 -0.1493  0.6554  0.1159
 8942SOL     OW38458   1.278   4.405   5.325  0.0075  0.6174  0.2227
 8942SOL    HW138459   1.261   4.492   5.289  1.0535  0.5716 -0.3840
 8942SOL    HW238460   1.353   4.384   5.270 -0.3426 -0.3656  0.1227
 8943SOL     OW38461   2.538   3.712  16.736  0.0719  0.1005 -0.5553
 8943SOL    HW138462   2.461   3.665  16.767 -0.2492  0.4628 -0.8086
 8943SOL    HW238463   2.602   3.641  16.727  1.2726  1.0682  0.4493
 8944SOL     OW38464   1.131   2.109   2.612 -0.1958  0.3455 -0.2455
 8944SOL    HW138465   1.181   2.182   2.651  2.4358 -2.4247  1.5593
 8944SOL    HW238466   1.072   2.075   2.679  0.4686 -1.0651 -0.3837
 8945SOL     OW38467   4.021   4.451   5.387 -0.1998 -0.1646 -0.3764
 8945SOL    HW138468   4.071   4.523   5.349 -3.1622  1.4049 -1.2680
 8945SOL    HW238469   4.098   4.401   5.414 -0.4781 -1.1279 -1.3584
 8946SOL     OW38470   2.304   4.537   3.690 -0.0207 -0.7712 -0.0265
 8946SOL    HW138471   2.251   4.584   3.626  0.1131  1.6570  1.6243
 8946SOL    HW238472   2.374   4.484   3.653 -0.4365 -0.4951 -1.1911
 8947SOL     OW38473   2.992   1.558   6.243  0.2968  0.1156 -0.3051
 8947SOL    HW138474   2.901   1.577   6.220  0.7731 -0.1836 -2.4643
 8947SOL    HW238475   2.994   1.568   6.338  0.1326 -1.3475 -0.1414
 8948SOL     OW38476   1.896   1.471   7.629 -0.7634  0.2453  0.2649
 8948SOL    HW138477   1.888   1.513   7.543  0.1942 -0.6520 -0.2548
 8948SOL    HW238478   1.916   1.556   7.668 -0.3762  0.5559 -0.6188
 8949SOL     OW38479   3.203   4.365  12.370  0.1017  0.1195 -0.1316
 8949SOL    HW138480   3.183   4.284  12.418  1.2837 -0.1537 -0.0796
 8949SOL    HW238481   3.112   4.389  12.354 -0.4657 -2.5889 -0.9709
 8950SOL     OW38482   3.415   3.599   7.189 -0.4269 -0.0576  0.2530
 8950SOL    HW138483   3.456   3.647   7.261  1.0210  1.0652 -1.3255
 8950SOL    HW238484   3.337   3.569   7.235 -0.3765 -0.7344 -0.0959
 8951SOL     OW38485   4.410   3.116   8.426 -0.1760 -0.4669 -0.3398
 8951SOL    HW138486   4.487   3.172   8.417 -0.4993 -0.0831 -0.7653
 8951SOL    HW238487   4.445   3.071   8.503  1.1843  0.9621 -0.1151
 8952SOL     OW38488   1.426   2.975   3.776  0.4169  0.3657  0.0205
 8952SOL    HW138489   1.440   3.024   3.695 -1.0638  1.7074  0.5654
 8952SOL    HW238490   1.337   2.940   3.764  0.2575  1.1037 -0.9929
 8953SOL     OW38491   0.004   2.952   6.295  0.2999  0.3784  0.0158
 8953SOL    HW138492   0.014   2.926   6.387 -0.1468 -2.0649 -0.6144
 8953SOL    HW238493   4.691   3.032   6.308  0.2072  0.0123  1.9422
 8954SOL     OW38494   4.540   0.507   9.864  0.2230 -0.1006 -0.0938
 8954SOL    HW138495   4.593   0.538   9.790  0.4773 -1.1837 -0.3535
 8954SOL    HW238496   4.450   0.522   9.835  0.7707 -0.4286 -1.9648
 8955SOL     OW38497   1.566   1.957  10.893  0.0669 -0.3515  0.3349
 8955SOL    HW138498   1.629   2.026  10.874  0.4571  0.1763  3.5932
 8955SOL    HW238499   1.564   1.966  10.988  1.2802 -1.4775  0.4818
 8956SOL     OW38500   4.358   4.522   0.122  0.0923  0.1815 -0.1229
 8956SOL    HW138501   4.283   4.491   0.071  0.8094  0.6169 -1.4484
 8956SOL    HW238502   4.349   4.616   0.110  0.2064  0.1592 -0.3877
 8957SOL     OW38503   1.797   3.693   8.144  0.0268 -0.1546 -0.1880
 8957SOL    HW138504   1.728   3.735   8.196  1.8376  0.7724  1.4878
 8957SOL    HW238505   1.780   3.601   8.162 -2.7660  0.2534 -0.7926
 8958SOL     OW38506   1.710   4.706  12.998  0.0298  0.0831 -0.4742
 8958SOL    HW138507   1.640   0.030  12.977 -0.8781 -0.2767  1.5043
 8958SOL    HW238508   1.777   0.033  13.021 -1.5106  0.8435  1.9580
 8959SOL     OW38509   2.458   2.697  12.274 -0.0184  0.1775  1.1470
 8959SOL    HW138510   2.431   2.759  12.342 -0.4178  0.9080  0.3220
 8959SOL    HW238511   2.374   2.674  12.235  0.8343  1.4245 -1.4233
 8960SOL     OW38512   2.142   2.599   4.284  0.8299  0.8392  0.7674
 8960SOL    HW138513   2.071   2.575   4.344 -0.8942  0.2966 -1.4662
 8960SOL    HW238514   2.167   2.691   4.295 -2.5101  1.7627  0.8235
 8961SOL     OW38515   0.049   0.688   7.037  0.3570  0.2895  0.2961
 8961SOL    HW138516   0.107   0.624   7.078  0.0921 -0.3700 -0.3602
 8961SOL    HW238517   0.118   0.725   6.981 -0.6489  0.4112 -0.8706
 8962SOL     OW38518   0.586   2.048   6.827  0.8154 -0.2032  0.1106
 8962SOL    HW138519   0.566   2.133   6.787  0.8063 -0.2160  0.0880
 8962SOL    HW238520   0.622   2.083   6.909  1.2973  0.1303 -0.2428
 8963SOL     OW38521   1.354   2.527   4.851  0.4367  0.1372  0.2487
 8963SOL    HW138522   1.443   2.535   4.885  1.0023  1.9669 -1.6150
 8963SOL    HW238523   1.351   2.440   4.811  0.8197 -0.3560  1.2868
 8964SOL     OW38524   3.692   1.765   2.438 -0.1715  0.3917  0.0692
 8964SOL    HW138525   3.643   1.815   2.373 -0.2922 -0.9969 -0.8982
 8964SOL    HW238526   3.661   1.675   2.446 -1.1545  0.7917  0.7669
 8965SOL     OW38527   3.185   4.426   6.465 -0.1814 -0.6717 -0.0061
 8965SOL    HW138528   3.145   4.368   6.529 -1.4553  1.0736  0.7840
 8965SOL    HW238529   3.169   4.515   6.497 -0.1144 -0.1612 -1.3922
 8966SOL     OW38530   3.915   0.249   8.257 -0.0818  0.3103 -0.5252
 8966SOL    HW138531   3.994   0.219   8.212 -0.4000 -1.9382  0.4098
 8966SOL    HW238532   3.944   0.314   8.320  0.3085  0.3894 -0.7860
 8967SOL     OW38533   1.501   1.284   3.618 -0.1441 -0.2592  0.0205
 8967SOL    HW138534   1.466   1.355   3.564 -0.0070  0.1797  0.5182
 8967SOL    HW238535   1.477   1.312   3.706  1.1747 -1.2484  0.6939
 8968SOL     OW38536   1.935   4.727   3.037 -0.1111  0.7224 -0.3226
 8968SOL    HW138537   1.992   4.651   3.029  0.0617  0.9406 -1.1328
 8968SOL    HW238538   1.952   0.012   3.128  2.3332  1.3518 -0.9496
 8969SOL     OW38539   2.525   2.554   3.411  0.2322  0.3102 -0.2285
 8969SOL    HW138540   2.618   2.546   3.434 -0.0619  1.6923  1.4263
 8969SOL    HW238541   2.496   2.610   3.483  0.9671 -0.8776  0.9758
 8970SOL     OW38542   0.510   3.277   7.540 -0.0908  0.1080  0.0945
 8970SOL    HW138543   0.486   3.328   7.617  0.7017  1.7237 -0.7346
 8970SOL    HW238544   0.585   3.329   7.513 -0.8023  0.7908 -0.5839
 8971SOL     OW38545   1.354   3.848   6.880 -0.3495 -0.2000  0.0537
 8971SOL    HW138546   1.447   3.869   6.890 -0.0163 -0.8644 -1.7014
 8971SOL    HW238547   1.307   3.909   6.937  0.5086 -0.2508  0.8076
 8972SOL     OW38548   2.324   1.808   2.775  0.0404 -0.2077  0.1254
 8972SOL    HW138549   2.363   1.888   2.739 -1.1231 -0.4697 -1.7165
 8972SOL    HW238550   2.279   1.770   2.699  0.1756 -0.9406  0.4083
 8973SOL     OW38551   1.796   3.103  17.655 -0.0963  0.2001  0.2541
 8973SOL    HW138552   1.862   3.147  17.709  0.3385  3.0044 -2.5483
 8973SOL    HW238553   1.725   3.087  17.717 -0.4076 -0.8034 -0.3644
 8974SOL     OW38554   1.110   2.810   4.179  0.4481  0.1371  0.8963
 8974SOL    HW138555   1.100   2.904   4.167 -0.5550 -0.2275 -1.0645
 8974SOL    HW238556   1.087   2.804   4.272  0.8357 -0.9757  0.9145
 8975SOL     OW38557   2.851   2.433   9.110  0.4216 -0.0576  0.0894
 8975SOL    HW138558   2.886   2.420   9.199  1.7252 -1.2448 -0.5866
 8975SOL    HW238559   2.916   2.388   9.056 -1.0305 -0.7256 -1.1220
 8976SOL     OW38560   1.345   3.110   7.442 -0.2217  0.4136 -0.0564
 8976SOL    HW138561   1.338   3.086   7.534 -0.0358 -0.3255 -0.2348
 8976SOL    HW238562   1.422   3.058   7.419  0.3362  1.5442 -0.6854
 8977SOL     OW38563   3.137   2.976  12.139 -0.3507  0.1754 -0.3751
 8977SOL    HW138564   3.108   2.929  12.060 -0.5266  1.2094 -0.9251
 8977SOL    HW238565   3.164   2.899  12.189  0.8616  0.2808 -0.8532
 8978SOL     OW38566   4.162   0.804   2.028 -0.5235 -0.1088 -0.1811
 8978SOL    HW138567   4.241   0.770   1.986 -0.6872 -1.5230  0.6386
 8978SOL    HW238568   4.138   0.750   2.103 -0.8730 -0.7651 -0.7659
 8979SOL     OW38569   3.817   4.440  14.302  0.0336  0.3804 -0.5301
 8979SOL    HW138570   3.865   4.481  14.375  0.4104  0.1875 -0.6710
 8979SOL    HW238571   3.849   4.479  14.221 -1.3940  1.0364 -0.7752
 8980SOL     OW38572   0.594   3.754   4.187  0.6594  0.5682 -0.0520
 8980SOL    HW138573   0.518   3.778   4.134  1.3261  0.6439 -0.9759
 8980SOL    HW238574   0.611   3.828   4.245  0.1628  0.6817 -0.0524
 8981SOL     OW38575   4.118   2.645   5.776  0.2740  0.9208 -0.2581
 8981SOL    HW138576   4.084   2.556   5.763  0.2435  0.8695  0.1685
 8981SOL    HW238577   4.083   2.662   5.863 -2.1769  0.0560 -1.0894
 8982SOL     OW38578   4.489   2.894   6.047  0.3757 -0.3717 -0.4252
 8982SOL    HW138579   4.405   2.857   6.077  0.0135  0.9505  0.1918
 8982SOL    HW238580   4.519   2.948   6.120  0.4481 -1.0488  0.0461
 8983SOL     OW38581   1.309   2.131   1.957 -0.2844  0.1656  0.3055
 8983SOL    HW138582   1.383   2.111   1.899  0.5971  1.8022  0.8904
 8983SOL    HW238583   1.274   2.042   1.963  0.9817 -0.3751 -0.3152
 8984SOL     OW38584   0.373   1.817  16.830  0.0883  0.0759 -0.3082
 8984SOL    HW138585   0.290   1.855  16.860  0.1506  0.1496 -0.2281
 8984SOL    HW238586   0.431   1.868  16.887  0.0788 -0.6621  0.3623
 8985SOL     OW38587   2.215   3.412   1.718 -0.5310 -0.3566 -0.3670
 8985SOL    HW138588   2.246   3.479   1.658  1.3023 -1.3836 -0.5566
 8985SOL    HW238589   2.146   3.378   1.660  0.2546 -0.4232 -1.2560
 8986SOL     OW38590   2.104   0.932   4.388  0.1692  0.3512  0.0189
 8986SOL    HW138591   2.072   0.843   4.405  0.3852 -0.1728 -2.2435
 8986SOL    HW238592   2.192   0.934   4.427 -1.1379 -5.6926  3.3271
 8987SOL     OW38593   0.981   4.201   6.927  0.2108  0.5767  0.0305
 8987SOL    HW138594   0.913   4.171   6.988  0.9894 -0.4405  0.4066
 8987SOL    HW238595   0.961   4.133   6.863 -1.4423  0.7421  0.3764
 8988SOL     OW38596   1.385   3.137   9.055 -0.0713  0.0506 -0.0893
 8988SOL    HW138597   1.364   3.209   9.114  1.1143  0.0357  0.3474
 8988SOL    HW238598   1.473   3.129   9.092 -0.1857  3.3501  0.8384
 8989SOL     OW38599   1.591   0.514   6.031  0.0451 -0.2041  0.1971
 8989SOL    HW138600   1.594   0.427   5.991 -0.7076 -0.6343  1.0895
 8989SOL    HW238601   1.683   0.542   6.024  0.0226 -0.9159 -2.7107
 8990SOL     OW38602   2.608   0.362   5.806 -0.4887  0.2788 -0.1402
 8990SOL    HW138603   2.664   0.300   5.758  0.4439  1.0758 -0.0744
 8990SOL    HW238604   2.624   0.333   5.896 -1.6970  0.0315  0.0025
 8991SOL     OW38605   3.334   0.596   6.758  0.1216 -0.2621 -0.4274
 8991SOL    HW138606   3.380   0.680   6.768  0.1281 -0.5087  1.6707
 8991SOL    HW238607   3.257   0.610   6.704 -1.5175  0.7473  2.1526
 8992SOL     OW38608   1.590   1.482   8.920 -0.9598 -0.1811 -0.7738
 8992SOL    HW138609   1.552   1.470   9.007 -0.4444  1.4892 -0.3227
 8992SOL    HW238610   1.508   1.512   8.881 -0.8557  1.0538 -0.0504
 8993SOL     OW38611   3.872   4.119   2.756 -0.6174 -0.2041  0.4025
 8993SOL    HW138612   3.905   4.205   2.732 -1.7178 -0.5962 -2.4355
 8993SOL    HW238613   3.951   4.085   2.798 -1.0647 -1.7501 -0.0006
 8994SOL     OW38614   0.705   0.355   4.340  0.1174 -0.4583  0.0408
 8994SOL    HW138615   0.771   0.302   4.385 -0.4660 -0.5567  0.7846
 8994SOL    HW238616   0.745   0.353   4.253 -0.2382 -0.0283 -0.1351
 8995SOL     OW38617   4.040   0.684  12.799 -0.3486  0.1886  0.3641
 8995SOL    HW138618   3.957   0.655  12.762 -0.0228  0.6455 -0.7228
 8995SOL    HW238619   4.101   0.689  12.726 -3.6951  0.3165 -2.3886
 8996SOL     OW38620   3.528   0.950   6.359  0.5587  0.1294 -0.0402
 8996SOL    HW138621   3.435   0.941   6.341 -0.2304  0.6877  3.6063
 8996SOL    HW238622   3.547   0.862   6.326  2.2936  0.3276  0.4109
 8997SOL     OW38623   3.963   1.178   3.142 -0.3464 -0.2459  0.3496
 8997SOL    HW138624   3.930   1.266   3.159  1.2075  0.3054  0.4746
 8997SOL    HW238625   4.055   1.184   3.117 -0.5369  0.8061 -0.0861
 8998SOL     OW38626   4.122   1.366   3.354 -0.6927  0.7165  0.1748
 8998SOL    HW138627   4.051   1.409   3.306  0.6279  1.8250 -0.8007
 8998SOL    HW238628   4.085   1.291   3.399 -1.4343  0.7575 -0.3760
 8999SOL     OW38629   1.492   2.560   3.579 -0.4611  0.7358  0.2670
 8999SOL    HW138630   1.534   2.643   3.601 -1.5508  1.6316 -1.0580
 8999SOL    HW238631   1.481   2.508   3.659 -1.1185  1.4946  0.6672
 9000SOL     OW38632   4.680   2.018  13.832  0.3413  0.2034 -0.2245
 9000SOL    HW138633   0.016   2.032  13.772  1.5434  2.1661  1.7374
 9000SOL    HW238634   4.701   1.935  13.874  0.0076  0.1231 -0.2125
 9001SOL     OW38635   4.339   2.709   2.582 -0.4677 -0.1998  0.2091
 9001SOL    HW138636   4.249   2.718   2.614 -0.4042 -1.1502  0.6643
 9001SOL    HW238637   4.325   2.696   2.488 -1.3448 -2.3072  0.6184
 9002SOL     OW38638   4.377   3.219   3.560  0.2477 -0.0067  0.5763
 9002SOL    HW138639   4.340   3.201   3.474  1.6911  0.3826 -0.1267
 9002SOL    HW238640   4.468   3.189   3.551  1.2170  3.8896 -2.1939
 9003SOL     OW38641   1.719   3.943   5.652 -0.1852 -0.0711  0.2795
 9003SOL    HW138642   1.671   3.861   5.666 -0.6405 -0.0620 -1.2270
 9003SOL    HW238643   1.649   4.007   5.664  0.1828  0.7012 -1.6691
 9004SOL     OW38644   0.458   4.028   8.824  0.2957  0.1709 -0.0016
 9004SOL    HW138645   0.365   4.026   8.803  0.4312 -0.9452 -0.5025
 9004SOL    HW238646   0.459   4.115   8.866  3.0043  0.1578 -0.0172
 9005SOL     OW38647   0.621   1.210   5.054  0.1085 -0.5334  0.0620
 9005SOL    HW138648   0.614   1.202   4.959 -0.3059  0.6059 -0.0046
 9005SOL    HW238649   0.715   1.209   5.067  0.6627 -0.0139 -3.8566
 9006SOL     OW38650   4.344   3.581   1.284 -0.4216  0.1997  0.2630
 9006SOL    HW138651   4.349   3.576   1.380 -1.4954 -1.4392  0.2425
 9006SOL    HW238652   4.434   3.593   1.255 -0.2713 -1.1743  0.1443
 9007SOL     OW38653   3.501   3.315   3.023  0.0508  0.3123 -0.3422
 9007SOL    HW138654   3.432   3.267   2.978  0.5081 -0.4889 -0.1759
 9007SOL    HW238655   3.572   3.307   2.960 -1.1629  0.3305 -1.6951
 9008SOL     OW38656   1.967   3.903  13.002 -0.2243 -0.4166 -0.2249
 9008SOL    HW138657   1.981   3.840  13.073  0.7463 -0.4860 -0.4738
 9008SOL    HW238658   2.053   3.945  13.006  0.3503 -1.5008 -1.1308
 9009SOL     OW38659   3.112   3.058   4.835  0.1612 -0.4928  0.1510
 9009SOL    HW138660   3.202   3.074   4.807  0.2579 -0.9914  0.1745
 9009SOL    HW238661   3.123   3.057   4.930 -1.2043 -2.6017  0.2800
 9010SOL     OW38662   0.680   1.069   1.945 -0.6234 -0.0964  0.2484
 9010SOL    HW138663   0.757   1.081   1.889 -0.6746 -0.7749  0.0300
 9010SOL    HW238664   0.627   1.148   1.931 -1.7538 -0.8698  0.1826
 9011SOL     OW38665   1.471   4.091   2.517  0.3701 -0.4274  0.6224
 9011SOL    HW138666   1.545   4.041   2.482  1.2453  1.6910 -0.5913
 9011SOL    HW238667   1.476   4.157   2.448  1.2327 -0.4462  0.6646
 9012SOL     OW38668   2.006   1.682   5.915  0.3841 -0.9963  0.0686
 9012SOL    HW138669   1.989   1.722   6.001 -1.6991 -0.5913 -0.5434
 9012SOL    HW238670   2.047   1.598   5.937  1.9441 -0.2117  0.1667
 9013SOL     OW38671   3.002   0.994   1.558 -0.2756 -0.5835  0.1171
 9013SOL    HW138672   2.953   1.023   1.481  0.6167  1.3526  0.2989
 9013SOL    HW238673   3.025   1.080   1.593  0.6049 -0.9849  0.5110
 9014SOL     OW38674   1.526   0.938   3.328 -0.7810  0.1524 -0.4846
 9014SOL    HW138675   1.445   0.937   3.380  0.0926 -1.3027  0.8373
 9014SOL    HW238676   1.544   0.845   3.320  0.7537  0.3001  1.1864
 9015SOL     OW38677   0.796   1.183   7.769  0.1438 -0.4143 -0.6941
 9015SOL    HW138678   0.732   1.172   7.838  0.5766  3.7813  0.4129
 9015SOL    HW238679   0.870   1.126   7.792  0.8538  0.1687 -1.5003
 9016SOL     OW38680   1.152   1.362   7.404 -0.4078 -0.3845 -0.5130
 9016SOL    HW138681   1.219   1.312   7.358  0.0675 -1.1187  0.9802
 9016SOL    HW238682   1.182   1.348   7.494 -0.7802  0.5537 -0.2431
 9017SOL     OW38683   3.809   2.407   8.185  0.1915 -0.1583  0.6880
 9017SOL    HW138684   3.779   2.353   8.258 -2.2039 -0.9741 -0.8956
 9017SOL    HW238685   3.824   2.490   8.231  0.2307  0.0576  0.2836
 9018SOL     OW38686   0.437   0.301  11.972  0.2654 -0.1050  0.2407
 9018SOL    HW138687   0.424   0.391  12.000 -2.4559  0.0704 -1.5618
 9018SOL    HW238688   0.420   0.252  12.053 -0.7459  0.3190  0.2807
 9019SOL     OW38689   2.909   3.023   9.812  0.2065 -0.3737  0.3968
 9019SOL    HW138690   2.852   3.087   9.770  0.9959 -1.2398 -1.9978
 9019SOL    HW238691   2.943   3.072   9.887  1.0632  0.4570 -0.5344
 9020SOL     OW38692   3.679   1.276   1.962  0.3680  0.6989  0.4524
 9020SOL    HW138693   3.766   1.263   1.998 -0.2908  0.7192  2.0449
 9020SOL    HW238694   3.625   1.241   2.033  0.4061  0.8717  0.5655
 9021SOL     OW38695   0.436   0.291   4.238 -0.7054 -0.2928  0.1736
 9021SOL    HW138696   0.519   0.329   4.267  0.0188 -0.9021 -1.0653
 9021SOL    HW238697   0.453   0.276   4.144  1.5691 -0.5754  0.6238
 9022SOL     OW38698   2.961   1.996   8.040 -0.0742  0.4999 -0.2936
 9022SOL    HW138699   3.037   2.052   8.053  0.4827 -0.1566 -0.7174
 9022SOL    HW238700   2.892   2.060   8.057  0.1287  1.2601 -2.3581
 9023SOL     OW38701   0.157   1.894   7.683  0.1308 -0.1753  0.8203
 9023SOL    HW138702   0.103   1.939   7.619  2.6748 -0.1198 -1.2906
 9023SOL    HW238703   0.209   1.969   7.711 -0.6862  0.8648 -0.4784
 9024SOL     OW38704   2.866   2.824   9.220  0.1498  0.6215 -0.1171
 9024SOL    HW138705   2.803   2.895   9.233  0.8871  0.7569  2.8423
 9024SOL    HW238706   2.937   2.846   9.281 -0.1730  0.6365  0.2575
 9025SOL     OW38707   3.637   2.932   8.422 -0.5508  0.3263  0.1947
 9025SOL    HW138708   3.555   2.883   8.426  0.0644 -0.6268  1.3185
 9025SOL    HW238709   3.677   2.895   8.343  0.5490  0.1444  0.8236
 9026SOL     OW38710   4.416   0.810  11.594  0.1507 -0.4694  0.3357
 9026SOL    HW138711   4.383   0.743  11.535  0.1690 -1.5263  1.5292
 9026SOL    HW238712   4.496   0.774  11.631  0.0640 -0.3516  0.6463
 9027SOL     OW38713   3.616   2.966   2.860 -0.4201 -0.0026 -0.3413
 9027SOL    HW138714   3.557   2.950   2.934 -0.9036 -2.7662 -1.3169
 9027SOL    HW238715   3.598   3.059   2.843 -3.8985 -0.7595 -0.8499
 9028SOL     OW38716   2.791   3.479   5.636 -1.0891  0.0775  0.2486
 9028SOL    HW138717   2.821   3.491   5.725 -2.0495  0.7263  0.4880
 9028SOL    HW238718   2.695   3.478   5.643 -1.1834 -1.0125 -1.1662
 9029SOL     OW38719   1.996   4.138  16.636  0.5296  0.5236 -0.2624
 9029SOL    HW138720   2.010   4.101  16.549  0.6050  2.3284 -1.0332
 9029SOL    HW238721   2.066   4.083  16.672  0.3989 -0.0353 -0.8700
 9030SOL     OW38722   1.305   1.216   8.139 -0.4320 -0.4433  0.7149
 9030SOL    HW138723   1.357   1.261   8.073 -0.8877 -0.5601  0.2798
 9030SOL    HW238724   1.233   1.277   8.154 -0.0411  1.0126 -3.5754
 9031SOL     OW38725   3.660   1.418   7.520 -0.2167  0.3102  0.6927
 9031SOL    HW138726   3.625   1.421   7.609 -2.4282  1.3216 -0.1844
 9031SOL    HW238727   3.718   1.343   7.533  0.4069  0.3268 -2.0558
 9032SOL     OW38728   3.582   1.029   2.407 -0.2317 -0.4270 -0.2710
 9032SOL    HW138729   3.611   1.120   2.402 -1.7489  0.0101 -1.0477
 9032SOL    HW238730   3.565   1.008   2.315 -2.6742  0.0950  0.0531
 9033SOL     OW38731   0.936   0.972  11.630 -0.1820  0.1734 -0.2389
 9033SOL    HW138732   1.022   1.013  11.635 -0.7989  1.2944  1.0150
 9033SOL    HW238733   0.901   0.986  11.542 -1.1443  0.5638  0.1998
 9034SOL     OW38734   3.347   4.634   3.629  0.0018 -0.8462 -0.1538
 9034SOL    HW138735   3.301   4.687   3.563 -0.8688  0.7250  1.7091
 9034SOL    HW238736   3.440   4.646   3.612 -0.2072  1.3736  0.2590
 9035SOL     OW38737   1.858   4.463   4.591  0.7013 -0.2560 -0.0249
 9035SOL    HW138738   1.939   4.505   4.620  0.4246  0.3257 -0.0983
 9035SOL    HW238739   1.841   4.417   4.674 -0.6098  0.1530 -0.0683
 9036SOL     OW38740   3.514   3.113   8.152  0.7273 -0.3225 -0.8287
 9036SOL    HW138741   3.571   3.037   8.140  2.8672  1.4467 -1.7237
 9036SOL    HW238742   3.506   3.150   8.064  2.4596 -0.9542 -1.2466
 9037SOL     OW38743   4.650   3.797   2.068  0.0264 -0.5971 -0.2302
 9037SOL    HW138744   4.658   3.873   2.126 -0.5064 -1.2577  0.7026
 9037SOL    HW238745   4.672   3.830   1.980 -0.1774 -0.5852 -0.2767
 9038SOL     OW38746   4.508   2.251   6.961 -0.1287  0.1646  0.0658
 9038SOL    HW138747   4.557   2.312   6.906  0.6384 -1.2681 -0.8344
 9038SOL    HW238748   4.438   2.310   6.987 -2.0935 -1.5051 -1.5130
 9039SOL     OW38749   1.586   3.000  12.691  0.2748 -0.2503  0.3923
 9039SOL    HW138750   1.581   2.988  12.786 -0.3244  0.3678  0.4410
 9039SOL    HW238751   1.645   2.929  12.666 -1.2795 -1.2692 -0.3825
 9040SOL     OW38752   2.525   3.551   1.322  0.5903  0.3255  0.0405
 9040SOL    HW138753   2.451   3.500   1.354 -0.3792  0.3004 -2.2633
 9040SOL    HW238754   2.586   3.484   1.293  1.2160  0.4387  1.0865
 9041SOL     OW38755   0.385   1.073   2.693 -0.2376 -0.8502 -0.2678
 9041SOL    HW138756   0.404   1.126   2.615  0.3592 -1.1135 -0.3025
 9041SOL    HW238757   0.460   1.014   2.695 -1.7575 -2.6285  3.0413
 9042SOL     OW38758   2.437   3.839   5.034 -0.1216  0.0931  0.4997
 9042SOL    HW138759   2.440   3.802   4.945  3.6612 -1.3819  1.2657
 9042SOL    HW238760   2.471   3.926   5.014  1.6515 -1.2439 -2.3250
 9043SOL     OW38761   0.442   0.476   1.703 -0.3434  0.7205  0.3529
 9043SOL    HW138762   0.353   0.501   1.728 -0.8885  0.9166 -1.8154
 9043SOL    HW238763   0.476   0.495   1.790  0.1491 -1.0854  0.5547
 9044SOL     OW38764   2.714   3.252   5.508  0.2380  0.0153 -0.1858
 9044SOL    HW138765   2.759   3.336   5.516 -0.2645  0.2498  0.1671
 9044SOL    HW238766   2.741   3.209   5.428  1.3156 -1.2449  0.8533
 9045SOL     OW38767   3.627   0.959  13.384  0.5008 -0.9326 -0.0763
 9045SOL    HW138768   3.641   0.953  13.289 -1.7246 -0.0349 -0.4509
 9045SOL    HW238769   3.544   0.912  13.387 -0.4632  0.7894  0.5300
 9046SOL     OW38770   3.029   2.168   4.330 -0.4001  0.4260  0.1219
 9046SOL    HW138771   2.966   2.097   4.346 -0.0444 -0.2882 -1.6234
 9046SOL    HW238772   3.088   2.127   4.267  2.0496  0.6717  2.2869
 9047SOL     OW38773   3.225   3.381   2.311 -0.1435  0.0075  0.8867
 9047SOL    HW138774   3.176   3.302   2.287  1.5387 -1.3103  1.7830
 9047SOL    HW238775   3.192   3.438   2.241 -2.1301 -0.1610  1.6711
 9048SOL     OW38776   3.974   2.430   5.705 -0.3448 -0.0986  0.3677
 9048SOL    HW138777   3.918   2.460   5.634  0.3623  0.4040  0.0250
 9048SOL    HW238778   3.934   2.348   5.735 -1.2179 -0.1705 -0.9901
 9049SOL     OW38779   3.966   1.644   0.038  0.7125  0.3483 -0.0978
 9049SOL    HW138780   4.023   1.696  17.729 -0.7571  0.3962 -1.5408
 9049SOL    HW238781   3.879   1.674   0.010  1.6548  1.2893 -2.0194
 9050SOL     OW38782   2.502   1.269   0.156 -0.0987  0.0987 -0.1207
 9050SOL    HW138783   2.445   1.262   0.232 -2.1124 -2.1402 -1.8308
 9050SOL    HW238784   2.502   1.178   0.127 -0.3731 -0.2948  1.1207
 9051SOL     OW38785   2.939   0.358   4.192  0.2890  0.0117  0.6447
 9051SOL    HW138786   3.015   0.300   4.178  0.3071  0.4138 -0.8564
 9051SOL    HW238787   2.982   0.443   4.181  0.8449 -0.0865  1.9669
 9052SOL     OW38788   3.052   0.324   7.290 -0.2281 -0.1995  0.2079
 9052SOL    HW138789   3.088   0.268   7.221  1.1854  0.3461  0.5111
 9052SOL    HW238790   2.984   0.374   7.245  1.2776 -0.4172 -2.3293
 9053SOL     OW38791   0.340   0.795   3.008 -0.3245 -0.2306 -0.1189
 9053SOL    HW138792   0.257   0.747   3.006 -1.5238  1.7666  0.7931
 9053SOL    HW238793   0.301   0.882   2.996 -1.9212 -1.0511 -0.8493
 9054SOL     OW38794   3.316   4.543   1.518 -0.0137  0.3745 -0.6914
 9054SOL    HW138795   3.373   4.575   1.447 -0.6869  1.1911 -0.8659
 9054SOL    HW238796   3.244   4.507   1.467  1.4076 -1.0708 -1.6631
 9055SOL     OW38797   0.506   1.265   1.866  0.1334  0.1843  0.1424
 9055SOL    HW138798   0.446   1.306   1.805 -1.1464 -0.5011  0.9329
 9055SOL    HW238799   0.452   1.265   1.945 -1.6564  0.3889 -1.0888
 9056SOL     OW38800   3.237   3.594  17.242 -0.0884  0.1580 -0.4065
 9056SOL    HW138801   3.285   3.575  17.323 -0.3317  1.7191  0.0895
 9056SOL    HW238802   3.186   3.669  17.271 -0.7405 -0.6529  0.5302
 9057SOL     OW38803   3.734   1.566  16.502  0.4879  0.0583  0.2212
 9057SOL    HW138804   3.712   1.628  16.432 -3.5081  0.6333  1.9890
 9057SOL    HW238805   3.743   1.623  16.578 -1.6515 -1.0697  1.3383
 9058SOL     OW38806   0.185   3.122  13.141 -0.0331 -0.0304  0.8572
 9058SOL    HW138807   0.229   3.044  13.176  0.5607 -0.3538 -0.6246
 9058SOL    HW238808   0.091   3.116  13.157 -0.1189 -1.9696 -0.3454
 9059SOL     OW38809   3.663   4.552   6.129  0.1539 -0.8236  0.0130
 9059SOL    HW138810   3.704   4.512   6.206  2.3566  1.0121 -0.2312
 9059SOL    HW238811   3.579   4.506   6.127 -0.1887 -0.0162 -3.0815
 9060SOL     OW38812   1.693   4.333   2.691 -0.0821 -0.4020  0.4047
 9060SOL    HW138813   1.639   4.373   2.623  0.9476 -0.0954 -0.2439
 9060SOL    HW238814   1.774   4.383   2.678  0.7367 -1.3136  1.9153
 9061SOL     OW38815   2.603   3.526   3.476 -0.3989 -0.5015  0.3238
 9061SOL    HW138816   2.636   3.450   3.523  0.7464  0.3406  0.8859
 9061SOL    HW238817   2.626   3.507   3.385  2.4336 -0.5956  1.0641
 9062SOL     OW38818   4.231   3.536   4.508  0.2055  0.1452 -0.8697
 9062SOL    HW138819   4.166   3.470   4.533 -1.1365  1.7988  0.0007
 9062SOL    HW238820   4.226   3.525   4.413  0.9733 -0.8716 -0.7879
 9063SOL     OW38821   2.687   3.215   2.014 -0.2038 -0.5504  0.4330
 9063SOL    HW138822   2.613   3.274   1.998  0.7386  0.8460  1.1963
 9063SOL    HW238823   2.758   3.279   2.025 -2.1793  1.7972 -0.5973
 9064SOL     OW38824   0.095   3.359   0.319 -0.1454 -0.4175  0.1198
 9064SOL    HW138825   0.098   3.340   0.225 -0.0007  0.4251 -0.0419
 9064SOL    HW238826   0.082   3.273   0.361 -0.6485 -0.3501  0.0988
 9065SOL     OW38827   0.574   2.863   5.887 -0.2860 -0.5642  0.0237
 9065SOL    HW138828   0.557   2.878   5.794  2.1559  1.2542 -0.1232
 9065SOL    HW238829   0.614   2.948   5.907  0.8742 -1.2573  0.6229
 9066SOL     OW38830   0.049   0.516   3.403  0.2905  0.2539 -0.4632
 9066SOL    HW138831   4.714   0.469   3.444  0.0766  0.1663 -0.9349
 9066SOL    HW238832   0.037   0.485   3.313 -1.2075  2.3864 -0.9985
 9067SOL     OW38833   0.916   2.211  11.464  0.1612 -0.2110 -0.1799
 9067SOL    HW138834   0.987   2.267  11.496  0.4411 -0.9616  0.4926
 9067SOL    HW238835   0.941   2.215  11.371 -2.2302 -2.9522 -0.9450
 9068SOL     OW38836   1.931   2.282  16.503  0.0578  0.0506  0.0080
 9068SOL    HW138837   1.839   2.258  16.490  0.0154  0.9782 -1.4676
 9068SOL    HW238838   1.925   2.378  16.512 -2.4144 -0.2147  1.0645
 9069SOL     OW38839   4.533   0.633   6.856  0.2446 -0.1017 -1.2730
 9069SOL    HW138840   4.594   0.618   6.928 -1.5327  1.3882  0.5305
 9069SOL    HW238841   4.517   0.726   6.872 -1.0205 -0.2163 -1.8538
 9070SOL     OW38842   1.709   1.428   6.689 -0.2230 -0.3150 -0.4737
 9070SOL    HW138843   1.804   1.435   6.695 -0.5689  3.2657  1.1672
 9070SOL    HW238844   1.696   1.466   6.602  0.7305  1.2697  0.0925
 9071SOL     OW38845   0.973   4.572   6.488  0.1130  0.2552 -0.0684
 9071SOL    HW138846   0.979   4.504   6.555  3.7760  0.4044 -0.2565
 9071SOL    HW238847   1.053   4.553   6.440  0.7178 -1.7569  1.7377
 9072SOL     OW38848   4.238   2.825   8.156 -0.1092  0.2660  0.1114
 9072SOL    HW138849   4.253   2.732   8.145 -0.4154  0.3116 -0.6534
 9072SOL    HW238850   4.329   2.852   8.161  0.7279 -2.2256 -2.2989
 9073SOL     OW38851   1.344   1.051   4.536  0.2186  0.1386 -0.5726
 9073SOL    HW138852   1.438   1.037   4.526  0.1090 -1.9638  1.2602
 9073SOL    HW238853   1.317   0.964   4.509 -0.7116  1.0595 -2.5980
 9074SOL     OW38854   1.966   1.850   4.590  0.3288  0.3686  0.3541
 9074SOL    HW138855   2.048   1.806   4.570  0.9939  1.0185  1.6639
 9074SOL    HW238856   1.966   1.850   4.686 -0.5928  4.3026  0.3636
 9075SOL     OW38857   1.673   0.160   3.995  0.2762  0.0714 -0.1701
 9075SOL    HW138858   1.763   0.180   3.969  1.2656 -1.3198  2.1529
 9075SOL    HW238859   1.649   0.094   3.930  2.2602 -0.3241 -0.4971
 9076SOL     OW38860   1.099   0.122   5.188 -0.1968 -0.0911 -0.0693
 9076SOL    HW138861   1.020   0.117   5.134  1.4907 -1.6976 -2.4083
 9076SOL    HW238862   1.136   0.039   5.157  0.6023 -0.6427  2.4048
 9077SOL     OW38863   1.070   2.779   0.678  0.2454  0.5864  0.7787
 9077SOL    HW138864   1.151   2.789   0.628 -0.3562 -0.6858 -0.4369
 9077SOL    HW238865   1.100   2.748   0.763 -0.2303 -0.3513  0.6033
 9078SOL     OW38866   3.387   0.786   8.207  0.3448  0.0888 -0.1548
 9078SOL    HW138867   3.476   0.753   8.196  0.1265 -0.0349 -1.6154
 9078SOL    HW238868   3.406   0.861   8.151  0.2228  1.5812  1.8073
 9079SOL     OW38869   0.291   1.513   4.171 -0.4532 -0.3035  0.4982
 9079SOL    HW138870   0.332   1.519   4.085 -0.5692 -2.8396  0.2541
 9079SOL    HW238871   0.353   1.452   4.211 -1.7886 -1.5136  0.7446
 9080SOL     OW38872   0.749   2.206  16.450 -0.6459  0.0151  0.0159
 9080SOL    HW138873   0.657   2.230  16.459 -0.4463  0.8575 -0.1312
 9080SOL    HW238874   0.797   2.286  16.471  1.6137 -0.5030 -3.1600
 9081SOL     OW38875   0.140   3.600   1.643 -0.9267 -0.3423 -0.5868
 9081SOL    HW138876   0.221   3.612   1.593  0.5014 -0.3962  1.7408
 9081SOL    HW238877   0.078   3.598   1.570  0.0322  0.1887 -1.4193
 9082SOL     OW38878   1.949   2.877  13.637  0.3462 -0.1640 -0.3293
 9082SOL    HW138879   2.041   2.879  13.663  0.8535  1.7680 -2.3099
 9082SOL    HW238880   1.939   2.964  13.599  1.3151 -0.6730 -1.7365
 9083SOL     OW38881   3.808   2.200   7.685 -0.4069  0.2474  0.2398
 9083SOL    HW138882   3.858   2.277   7.658  0.5569 -0.1197  0.9850
 9083SOL    HW238883   3.845   2.175   7.770 -0.2304  1.9353  0.6467
 9084SOL     OW38884   3.010   1.960   3.447 -0.3757  0.2179  0.0710
 9084SOL    HW138885   3.004   1.870   3.415  0.4606  0.5800 -1.0802
 9084SOL    HW238886   3.098   1.967   3.484 -0.7927 -0.8860  1.2819
 9085SOL     OW38887   4.666   0.287   4.180 -0.0879  0.0379 -0.3145
 9085SOL    HW138888   4.615   0.360   4.215  0.3503  0.2334 -0.0868
 9085SOL    HW238889   0.010   0.288   4.231 -0.0061 -0.0636 -0.4424
 9086SOL     OW38890   1.006   3.343   5.270 -0.4506  0.2030  0.0144
 9086SOL    HW138891   0.943   3.403   5.230  1.8048  1.9844 -0.8799
 9086SOL    HW238892   1.044   3.398   5.338  0.2281  1.6132 -1.4941
 9087SOL     OW38893   3.776   3.323   0.060 -0.4366  0.1115  0.0875
 9087SOL    HW138894   3.758   3.243   0.010  0.9033 -0.2818  0.2373
 9087SOL    HW238895   3.758   3.288   0.147 -1.1865  2.7197  0.9676
 9088SOL     OW38896   0.232   2.266   3.826 -0.3054  0.4175 -0.2697
 9088SOL    HW138897   0.181   2.336   3.868  2.1147  2.9741 -1.5753
 9088SOL    HW238898   0.154   2.216   3.802 -1.2176 -0.1628  3.9168
 9089SOL     OW38899   2.005   1.467   9.771  0.4147  0.0842  0.0494
 9089SOL    HW138900   2.008   1.514   9.854  2.3281 -1.4533  0.8501
 9089SOL    HW238901   2.056   1.388   9.789  0.3368 -0.3335 -1.5803
 9090SOL     OW38902   1.887   1.850   8.294  0.4181 -0.7004  0.3812
 9090SOL    HW138903   1.944   1.896   8.357  2.4890 -0.7744 -1.4523
 9090SOL    HW238904   1.942   1.855   8.216  2.0934  0.1409  1.5899
 9091SOL     OW38905   1.452   2.037  16.283  0.4557  0.3286  0.0581
 9091SOL    HW138906   1.427   2.128  16.297 -0.7588 -0.0279  0.2324
 9091SOL    HW238907   1.392   1.998  16.347 -0.7275 -1.9759 -2.4376
 9092SOL     OW38908   2.138   3.996  15.841  0.5276 -0.5948 -0.1638
 9092SOL    HW138909   2.056   4.038  15.814  2.1971  1.7972 -1.5484
 9092SOL    HW238910   2.108   3.907  15.859  2.1422 -1.5501 -2.0842
 9093SOL     OW38911   2.889   2.976   7.262  0.5783  0.4815 -0.5390
 9093SOL    HW138912   2.865   2.944   7.349  0.2525 -0.6394 -1.0472
 9093SOL    HW238913   2.805   2.980   7.218  0.8461  3.3243 -0.7846
 9094SOL     OW38914   1.190   1.173  15.695  0.3233  0.1166 -0.2169
 9094SOL    HW138915   1.183   1.265  15.722 -0.8975 -0.2617  0.7355
 9094SOL    HW238916   1.153   1.178  15.607  1.6966 -1.9112 -0.9052
 9095SOL     OW38917   3.290   4.173   5.165 -0.4437  0.8760  0.0788
 9095SOL    HW138918   3.286   4.082   5.195  0.1356  1.0709  0.7539
 9095SOL    HW238919   3.273   4.222   5.245  2.9708 -0.0440  1.3830
 9096SOL     OW38920   4.069   4.363   8.009 -0.3914 -0.1072 -0.1346
 9096SOL    HW138921   4.134   4.301   7.978  0.3458  0.4025  0.4088
 9096SOL    HW238922   4.083   4.367   8.104  0.1537  0.7667 -0.2509
 9097SOL     OW38923   3.743   4.012   4.762 -0.4876  0.0933  0.0661
 9097SOL    HW138924   3.830   4.014   4.722 -0.0494  0.8976  1.0766
 9097SOL    HW238925   3.755   4.056   4.845 -1.7898 -1.5626  1.1321
 9098SOL     OW38926   0.435   1.233   3.968  0.3511  0.4960 -0.2922
 9098SOL    HW138927   0.416   1.150   4.012 -1.2938 -0.4086 -2.6811
 9098SOL    HW238928   0.505   1.191   3.917 -0.3113 -1.2024  0.1932
 9099SOL     OW38929   2.366   3.443   3.603 -0.3994 -0.1663  0.5197
 9099SOL    HW138930   2.442   3.491   3.571 -1.4264  0.6273 -0.6997
 9099SOL    HW238931   2.317   3.509   3.652  2.2415  2.0246  0.1926
 9100SOL     OW38932   2.480   2.646  16.931 -0.8144 -0.0713 -0.1463
 9100SOL    HW138933   2.423   2.699  16.987  0.9346  0.8603  0.7548
 9100SOL    HW238934   2.515   2.580  16.991 -0.1495 -0.6544 -1.1783
 9101SOL     OW38935   1.886   3.104  15.336 -0.4316 -0.3124 -0.0145
 9101SOL    HW138936   1.853   3.030  15.284 -0.1685 -0.7016  0.3734
 9101SOL    HW238937   1.972   3.072  15.363  0.8706  5.2033  2.3711
 9102SOL     OW38938   0.915   4.677   8.314 -0.3682  0.1375 -0.3926
 9102SOL    HW138939   0.889   0.001   8.245 -0.1297  0.3800 -0.2703
 9102SOL    HW238940   0.826   4.677   8.348  0.3130  1.8956  1.3916
 9103SOL     OW38941   4.377   4.683  17.596  0.5706 -0.4673 -0.4957
 9103SOL    HW138942   4.453   4.671  17.654  0.0079 -0.2244  0.2936
 9103SOL    HW238943   4.366   4.600  17.551 -0.4219 -1.3280  1.3048
 9104SOL     OW38944   3.265   2.639   5.573 -0.1839  0.6170 -0.4275
 9104SOL    HW138945   3.222   2.722   5.593 -1.8113  0.1607 -2.0447
 9104SOL    HW238946   3.194   2.575   5.576 -0.1443  0.5761 -0.3560
 9105SOL     OW38947   0.692   0.924   6.247 -0.2392  0.2567 -0.0396
 9105SOL    HW138948   0.682   1.017   6.224  0.5639  0.4026  0.1835
 9105SOL    HW238949   0.602   0.902   6.267 -0.3616  0.6692 -0.1328
 9106SOL     OW38950   2.393   2.191   2.020 -0.0163  0.4578 -0.0046
 9106SOL    HW138951   2.452   2.165   1.950 -2.4457  1.2512 -2.3414
 9106SOL    HW238952   2.337   2.248   1.967 -1.6005 -1.2183 -0.1365
 9107SOL     OW38953   2.773   0.851  16.495  0.0445 -0.6034  0.0515
 9107SOL    HW138954   2.776   0.868  16.401  0.6765 -1.2435 -0.0363
 9107SOL    HW238955   2.867   0.842  16.508  0.4417  1.2275 -1.4737
 9108SOL     OW38956   0.500   0.028  16.330 -0.1298 -0.3700 -0.0047
 9108SOL    HW138957   0.490   0.085  16.254  1.8382  0.4506  0.3631
 9108SOL    HW238958   0.410   0.034  16.364 -0.8435 -0.0004 -1.9286
 9109SOL     OW38959   0.214   2.672   4.850 -0.3954  0.4617  0.0127
 9109SOL    HW138960   0.228   2.579   4.836 -1.3225  0.5620 -1.5618
 9109SOL    HW238961   0.119   2.686   4.849 -0.0026  2.9862 -1.6636
 9110SOL     OW38962   4.735   0.839   7.514  0.0552 -0.0582 -0.6861
 9110SOL    HW138963   0.076   0.821   7.565  1.1319 -0.3782 -2.4579
 9110SOL    HW238964   0.032   0.909   7.459  0.1692  0.0114 -0.5262
 9111SOL     OW38965   4.232   4.707  11.639  0.4964 -0.1967 -0.2948
 9111SOL    HW138966   4.242   4.716  11.734  0.1939 -0.5498 -0.2275
 9111SOL    HW238967   4.138   4.717  11.627  0.5565 -0.9448 -1.3399
 9112SOL     OW38968   2.688   0.621   1.577 -0.0101 -0.1825 -0.2763
 9112SOL    HW138969   2.733   0.541   1.603 -1.4313 -0.0313  2.6535
 9112SOL    HW238970   2.760   0.679   1.550  0.4778 -1.4918 -1.7786
 9113SOL     OW38971   1.330   2.353   4.657 -0.0414  0.6485  0.0364
 9113SOL    HW138972   1.375   2.326   4.577 -1.1442  1.1256 -0.7489
 9113SOL    HW238973   1.257   2.397   4.614 -0.6106  0.5957  0.9540
 9114SOL     OW38974   4.592   1.509   9.058  0.0637  0.3168 -0.2874
 9114SOL    HW138975   4.686   1.514   9.039 -0.1573 -1.8852 -2.0413
 9114SOL    HW238976   4.552   1.482   8.975 -2.4887  0.3298  0.9621
 9115SOL     OW38977   2.976   0.918  12.542 -0.2912 -0.5122 -0.2165
 9115SOL    HW138978   2.893   0.920  12.495 -0.2056 -2.2572 -0.4398
 9115SOL    HW238979   2.965   0.840  12.596  1.3296  0.3739  1.4061
 9116SOL     OW38980   3.092   0.375   5.287  0.0003 -0.3126 -0.0420
 9116SOL    HW138981   3.174   0.424   5.292  0.8209 -1.5990 -0.8137
 9116SOL    HW238982   3.099   0.306   5.222  1.4312  2.6418 -3.0431
 9117SOL     OW38983   4.580   0.665   3.082  0.1047  0.4339 -0.2859
 9117SOL    HW138984   4.573   0.618   3.164  0.1450  0.4996 -0.2450
 9117SOL    HW238985   4.513   0.728   3.107 -0.3728 -0.4391  0.6021
 9118SOL     OW38986   3.497   4.730   7.711 -0.0139 -0.1988  0.0233
 9118SOL    HW138987   3.444   4.668   7.761 -1.3726  1.6018  0.7940
 9118SOL    HW238988   3.428   0.047   7.675  1.8894  3.5076  1.9742
 9119SOL     OW38989   2.819   1.923  12.950  0.7160  0.1813  0.0045
 9119SOL    HW138990   2.817   2.016  12.972  1.0156  0.0050  0.7898
 9119SOL    HW238991   2.900   1.902  12.998 -0.2199  0.3686  1.6708
 9120SOL     OW38992   4.365   4.377   1.731 -0.5077 -0.1506  0.3943
 9120SOL    HW138993   4.367   4.378   1.827  1.8563 -1.1050  0.3469
 9120SOL    HW238994   4.283   4.422   1.707 -0.0513  0.5883  0.2195
 9121SOL     OW38995   1.209   0.274   4.494 -0.2304 -0.4376 -0.4403
 9121SOL    HW138996   1.243   0.274   4.583  2.8482  0.2694 -1.5891
 9121SOL    HW238997   1.284   0.318   4.453  0.2684 -2.3600 -1.6191
 9122SOL     OW38998   3.711   3.227  11.556  0.9385  0.0551 -0.3243
 9122SOL    HW138999   3.746   3.140  11.536 -0.8704 -0.3457 -1.7198
 9122SOL    HW239000   3.622   3.195  11.569  0.4149  1.8070  0.4715
 9123SOL     OW39001   1.322   0.130   8.335  0.4068  0.4602 -0.0728
 9123SOL    HW139002   1.286   0.218   8.326  1.9709  0.8595 -2.4056
 9123SOL    HW239003   1.373   0.133   8.416  0.3172 -0.9386  0.0412
 9124SOL     OW39004   1.119   1.185  10.834  0.2020  0.1307 -0.3707
 9124SOL    HW139005   1.130   1.270  10.876 -0.1473  0.5527 -1.1162
 9124SOL    HW239006   1.203   1.141  10.846  0.7691  1.8745  2.0023
 9125SOL     OW39007   2.726   3.155   8.273 -0.0079 -0.7212 -0.0093
 9125SOL    HW139008   2.711   3.127   8.182 -0.2372 -2.7211  0.6287
 9125SOL    HW239009   2.812   3.114   8.280 -0.8826 -2.5180  0.2938
 9126SOL     OW39010   3.533   0.805   5.248  0.1150 -0.3233  0.3545
 9126SOL    HW139011   3.478   0.745   5.197  0.8262 -0.4151 -0.2987
 9126SOL    HW239012   3.582   0.747   5.305 -0.4184 -0.8845  0.2402
 9127SOL     OW39013   4.142   3.428   5.144 -0.0536 -0.2293 -0.0043
 9127SOL    HW139014   4.207   3.493   5.118 -1.1274  0.7827 -0.1645
 9127SOL    HW239015   4.192   3.348   5.128 -0.4964 -0.6240  0.5502
 9128SOL     OW39016   4.569   0.273   5.448 -0.4531  0.4400 -0.4816
 9128SOL    HW139017   4.608   0.327   5.379 -0.9149  0.3799 -0.7973
 9128SOL    HW239018   4.543   0.345   5.505  0.0513 -1.5539  2.2398
 9129SOL     OW39019   3.636   4.653   5.254  0.8903  0.1800  0.2088
 9129SOL    HW139020   3.671   4.564   5.245  2.6040  0.8387  0.4506
 9129SOL    HW239021   3.629   4.657   5.349  2.0134 -4.2703  0.4912
 9130SOL     OW39022   1.907   4.195   0.912  0.1196 -0.2298 -0.0274
 9130SOL    HW139023   1.937   4.111   0.945 -0.5676 -1.4176 -2.4415
 9130SOL    HW239024   1.861   4.167   0.833 -0.0214  0.8996 -0.3551
 9131SOL     OW39025   4.461   4.077   0.166  0.2739 -0.0616  0.4553
 9131SOL    HW139026   4.404   4.044   0.235  0.1764  1.2267  0.9876
 9131SOL    HW239027   4.546   4.045   0.197 -0.1605 -1.7708 -0.1248
 9132SOL     OW39028   1.473   0.582   0.413  0.8511  0.4775 -0.4704
 9132SOL    HW139029   1.460   0.673   0.388  1.3512  0.3149 -1.2934
 9132SOL    HW239030   1.567   0.573   0.430  0.5819 -1.4070  0.0912
 9133SOL     OW39031   2.458   2.900  13.919  0.3673  0.3886 -0.0415
 9133SOL    HW139032   2.537   2.852  13.896  0.6894  1.4854 -1.1470
 9133SOL    HW239033   2.454   2.909  14.015 -1.4670 -1.3057  0.0397
 9134SOL     OW39034   4.105   4.082   6.684  0.5104 -0.3623  0.0758
 9134SOL    HW139035   4.163   4.027   6.632 -0.0229 -1.1373  0.3055
 9134SOL    HW239036   4.069   4.014   6.741  0.9587 -0.3963  0.3249
 9135SOL     OW39037   1.816   4.584   5.139  0.0060  0.2272 -0.3093
 9135SOL    HW139038   1.806   4.673   5.104 -0.4314  0.6858  0.9584
 9135SOL    HW239039   1.758   4.537   5.080  0.8490  0.4841 -1.3406
 9136SOL     OW39040   2.045   4.146   6.770 -0.6528 -0.1534 -0.0923
 9136SOL    HW139041   1.982   4.195   6.717 -0.7808  1.1471  1.2844
 9136SOL    HW239042   2.133   4.180   6.754 -0.7832 -0.3923 -1.3117
 9137SOL     OW39043   1.395   1.110   2.950  0.4636  0.1267 -0.4669
 9137SOL    HW139044   1.374   1.198   2.983  2.5277  0.2334  0.5128
 9137SOL    HW239045   1.471   1.086   3.002  1.5614  0.5789 -1.8497
 9138SOL     OW39046   2.556   2.070  14.225 -0.3585  0.3204 -0.0712
 9138SOL    HW139047   2.477   2.019  14.205 -0.1925 -0.5348  1.3914
 9138SOL    HW239048   2.548   2.063  14.321 -0.6094 -0.8408 -0.1734
 9139SOL     OW39049   3.468   3.918  11.111  0.1075  0.2988 -0.0876
 9139SOL    HW139050   3.398   3.866  11.070  0.7675 -0.7162  0.0890
 9139SOL    HW239051   3.433   4.004  11.088 -0.3853  0.5410  1.5804
 9140SOL     OW39052   2.077   0.972  11.208  0.4590 -0.5627 -0.1202
 9140SOL    HW139053   1.994   0.940  11.173 -0.3268  1.0274  0.3212
 9140SOL    HW239054   2.046   1.007  11.291 -0.8580 -0.2643 -0.7342
 9141SOL     OW39055   1.602   0.992   5.993 -0.0744  0.3272 -0.8805
 9141SOL    HW139056   1.565   0.921   6.045  0.2541  1.1671  0.5050
 9141SOL    HW239057   1.594   1.066   6.053  2.0554  1.0908 -1.5406
 9142SOL     OW39058   0.008   4.030  15.103 -0.1554 -0.5599  0.3290
 9142SOL    HW139059   0.029   4.117  15.070  2.6209 -1.0675  0.7340
 9142SOL    HW239060   0.094   3.994  15.125  0.1343 -0.4292 -0.5865
 9143SOL     OW39061   2.627   2.721   4.344 -0.6760 -0.7126  0.1182
 9143SOL    HW139062   2.696   2.788   4.347 -1.5219  0.2547 -1.8196
 9143SOL    HW239063   2.634   2.693   4.252  1.4958  2.8550 -0.8043
 9144SOL     OW39064   0.243   2.498   2.589  0.3226  0.2450  0.2984
 9144SOL    HW139065   0.180   2.527   2.654  1.5455 -1.2460  2.1334
 9144SOL    HW239066   0.322   2.481   2.640  0.2197  2.3287  1.1479
 9145SOL     OW39067   4.367   1.461   4.611  0.2698 -0.3125  0.4698
 9145SOL    HW139068   4.283   1.419   4.630 -0.9012  1.9337  0.3109
 9145SOL    HW239069   4.414   1.408   4.675  0.3868 -0.5699  0.1720
 9146SOL     OW39070   4.106   4.315  14.527 -0.1362 -0.0985  0.2049
 9146SOL    HW139071   4.070   4.283  14.610 -0.5503 -1.4949 -0.5169
 9146SOL    HW239072   4.189   4.269  14.518  0.5151  1.0024  0.5560
 9147SOL     OW39073   1.763   3.209   3.557  0.1403  0.1488 -0.1929
 9147SOL    HW139074   1.827   3.163   3.502  0.1224  1.6292 -1.4662
 9147SOL    HW239075   1.682   3.168   3.528  1.5647 -2.7963 -0.0065
 9148SOL     OW39076   0.807   2.384   4.584  0.4990 -0.7007  0.0794
 9148SOL    HW139077   0.869   2.335   4.638  0.9152  0.4490  0.6292
 9148SOL    HW239078   0.749   2.429   4.646 -0.0853 -1.4975  0.1120
 9149SOL     OW39079   4.182   2.601  16.203 -0.2310 -0.0258 -0.2120
 9149SOL    HW139080   4.180   2.547  16.124 -1.6710  0.1473 -0.2840
 9149SOL    HW239081   4.148   2.534  16.262  1.9199 -0.0907  0.9819
 9150SOL     OW39082   1.177   2.142  15.636 -0.1449  0.2877  0.5267
 9150SOL    HW139083   1.237   2.197  15.586  0.9723  0.0868  1.6426
 9150SOL    HW239084   1.231   2.076  15.680  0.0353 -1.4345 -2.2858
 9151SOL     OW39085   2.771   0.730   3.226 -0.5982  0.0173 -0.4010
 9151SOL    HW139086   2.679   0.722   3.251 -0.4888 -0.8643 -0.2978
 9151SOL    HW239087   2.792   0.639   3.207 -1.2937 -0.4933  1.2979
 9152SOL     OW39088   4.408   0.529   2.894 -0.4133 -0.2242 -0.1819
 9152SOL    HW139089   4.454   0.581   2.959  0.1880 -0.0659 -0.7315
 9152SOL    HW239090   4.341   0.584   2.855 -1.2896 -0.9172  0.3381
 9153SOL     OW39091   2.778   3.586   6.989 -0.0512  0.1283 -0.1078
 9153SOL    HW139092   2.841   3.528   6.947 -0.0773 -0.2113  0.3199
 9153SOL    HW239093   2.795   3.673   6.954 -0.1829  0.9297  1.8145
 9154SOL     OW39094   2.499   0.949   7.805 -0.0546 -0.5726  0.1688
 9154SOL    HW139095   2.416   0.987   7.836  0.5394  0.4938  0.4711
 9154SOL    HW239096   2.471   0.860   7.782 -1.5784  0.3409 -1.5285
 9155SOL     OW39097   3.090   2.727   4.862 -0.4174  0.7154 -0.2847
 9155SOL    HW139098   3.127   2.815   4.868  1.4839 -0.1461  0.7829
 9155SOL    HW239099   3.126   2.675   4.934  0.0010  1.4361  0.0294
 9156SOL     OW39100   4.701   0.059   4.028 -0.1818  0.2471  0.0275
 9156SOL    HW139101   4.673   0.116   4.099  0.7415  0.9260 -0.1653
 9156SOL    HW239102   0.056   0.052   4.052 -0.7486 -0.9508  1.8474
 9157SOL     OW39103   1.840   1.616  15.755  0.4327 -0.3963  0.2630
 9157SOL    HW139104   1.899   1.573  15.816 -0.2438 -3.3368 -1.1231
 9157SOL    HW239105   1.896   1.621  15.678  0.7817  2.0828  0.6806
 9158SOL     OW39106   2.371   1.157   4.014  0.0458 -0.4938 -0.5920
 9158SOL    HW139107   2.373   1.230   4.076  1.3997 -0.6858 -0.4133
 9158SOL    HW239108   2.301   1.105   4.053 -0.5518 -0.5775 -1.7651
 9159SOL     OW39109   4.650   2.658   7.335 -0.0177 -0.2401  0.0544
 9159SOL    HW139110   4.594   2.709   7.394 -0.7156 -0.9667  0.0211
 9159SOL    HW239111   4.621   2.682   7.247 -0.3738 -2.0654 -0.3287
 9160SOL     OW39112   4.059   4.423   7.522  0.4448  0.0665  0.5349
 9160SOL    HW139113   4.025   4.503   7.561 -2.1777 -0.5797 -0.4577
 9160SOL    HW239114   4.051   4.362   7.596 -1.3392  0.4161  0.6329
 9161SOL     OW39115   4.262   1.088   6.280 -0.4016  0.2113 -0.2372
 9161SOL    HW139116   4.192   1.153   6.285 -0.7489 -0.3696  2.2756
 9161SOL    HW239117   4.327   1.143   6.236  0.1347  1.1453  1.6960
 9162SOL     OW39118   3.171   2.077   6.059 -0.2057  0.3224 -0.3645
 9162SOL    HW139119   3.102   2.143   6.050 -0.9045 -0.2784  0.5702
 9162SOL    HW239120   3.154   2.033   5.976 -0.4818 -1.8997  0.8847
 9163SOL     OW39121   2.606   3.030  14.531 -0.4758  0.3749 -0.2709
 9163SOL    HW139122   2.511   3.041  14.544 -0.7169 -3.6538  1.2591
 9163SOL    HW239123   2.620   2.936  14.541  0.0385  0.4304 -0.4693
 9164SOL     OW39124   1.284   2.876  12.119 -0.4616  0.2106 -0.0384
 9164SOL    HW139125   1.209   2.858  12.175  0.4124 -2.1195  0.3910
 9164SOL    HW239126   1.348   2.852  12.186  0.1713 -1.1439 -1.1290
 9165SOL     OW39127   2.946   0.655   2.246 -0.0623  0.3989  0.5449
 9165SOL    HW139128   2.954   0.682   2.155  3.0356 -2.5911 -0.0949
 9165SOL    HW239129   2.879   0.718   2.271 -1.2343  0.0187 -1.6706
 9166SOL     OW39130   3.786   0.125   6.652 -0.1616 -0.0383  0.1102
 9166SOL    HW139131   3.745   0.136   6.566  0.2829 -0.5372 -0.1655
 9166SOL    HW239132   3.816   0.035   6.663 -4.8554 -1.5590  0.4581
 9167SOL     OW39133   1.964   1.719   8.973  0.6616  0.4764 -0.0725
 9167SOL    HW139134   2.009   1.785   8.921 -1.7318  1.8277 -0.3792
 9167SOL    HW239135   1.873   1.728   8.948  1.0471  1.1823 -1.1779
 9168SOL     OW39136   1.715   4.306   7.450 -0.2985  0.2992 -0.5094
 9168SOL    HW139137   1.660   4.327   7.525 -1.0865  0.7130 -1.2032
 9168SOL    HW239138   1.657   4.341   7.383 -0.5931  0.5453 -0.1244
 9169SOL     OW39139   3.654   2.508   9.625 -0.4620 -0.5647  0.2464
 9169SOL    HW139140   3.712   2.476   9.694  1.2509  0.2017 -0.8400
 9169SOL    HW239141   3.678   2.451   9.551  0.0077  0.7906 -0.6497
 9170SOL     OW39142   0.847   4.127   9.535 -0.2094 -0.6168 -0.4008
 9170SOL    HW139143   0.754   4.135   9.556  0.1214 -0.4833  0.9984
 9170SOL    HW239144   0.845   4.040   9.494 -0.1621 -1.9125  2.3704
 9171SOL     OW39145   3.896   2.480   6.671 -0.1663  0.1659 -0.3730
 9171SOL    HW139146   3.927   2.564   6.706 -2.2285  1.7476 -2.3725
 9171SOL    HW239147   3.811   2.508   6.639  1.3419  2.6436 -2.2342
 9172SOL     OW39148   2.908   3.742  15.191 -0.0454  0.0911  0.1907
 9172SOL    HW139149   2.892   3.760  15.284 -0.1519  0.7414  0.0419
 9172SOL    HW239150   3.002   3.756  15.196 -0.3452  2.0134  0.3095
 9173SOL     OW39151   0.426   1.824   6.905  0.2276 -0.3880  0.1150
 9173SOL    HW139152   0.472   1.885   6.848  1.1891 -0.3081  0.9734
 9173SOL    HW239153   0.340   1.863   6.918  0.7106  0.5242  0.5261
 9174SOL     OW39154   3.756   4.422  16.656  0.1344 -0.4349 -0.2670
 9174SOL    HW139155   3.839   4.399  16.613 -0.0274 -0.1248 -0.7418
 9174SOL    HW239156   3.730   4.507  16.621 -0.0701 -0.4874 -0.2441
 9175SOL     OW39157   0.739   1.353   1.750 -0.3581  1.0217  0.0553
 9175SOL    HW139158   0.696   1.438   1.749  0.3548  1.3944  1.1641
 9175SOL    HW239159   0.661   1.308   1.783  0.4659 -0.5682 -0.1663
 9176SOL     OW39160   2.373   2.060  11.724 -0.1995  0.8019  0.4679
 9176SOL    HW139161   2.333   2.023  11.803 -0.4329 -1.3241 -0.6310
 9176SOL    HW239162   2.303   2.097  11.671 -1.7754 -0.9387  1.3284
 9177SOL     OW39163   2.536   2.917   5.306  0.2714 -0.6188  0.2516
 9177SOL    HW139164   2.528   2.843   5.246 -1.5877 -0.5117  0.3656
 9177SOL    HW239165   2.612   2.880   5.351 -0.0206 -1.9022 -0.3199
 9178SOL     OW39166   0.703   0.762  16.981 -0.2467 -0.1742 -0.4538
 9178SOL    HW139167   0.766   0.697  16.948  2.6017  2.8329 -0.9573
 9178SOL    HW239168   0.626   0.706  16.993  0.4235 -0.4171  2.7554
 9179SOL     OW39169   2.193   1.884   7.504 -0.6355  0.1253 -0.1404
 9179SOL    HW139170   2.140   1.872   7.425 -2.7728  1.4656  1.0884
 9179SOL    HW239171   2.248   1.962   7.496 -0.3560  0.2793  3.5710
 9180SOL     OW39172   4.677   2.869   1.412 -0.4065 -0.0730  0.1716
 9180SOL    HW139173   4.638   2.783   1.422 -0.7343 -0.0581 -0.9406
 9180SOL    HW239174   4.674   2.871   1.316 -0.1058  0.8734  0.1749
 9181SOL     OW39175   1.491   1.607  14.432  0.8227 -0.7481  0.4523
 9181SOL    HW139176   1.397   1.589  14.429  0.5467  1.0915 -2.5398
 9181SOL    HW239177   1.531   1.530  14.391  0.4954 -0.2892 -0.7332
 9182SOL     OW39178   0.520   1.234   7.328 -0.1166 -0.2355 -0.4446
 9182SOL    HW139179   0.595   1.207   7.382 -0.0831  0.6007 -0.0780
 9182SOL    HW239180   0.530   1.329   7.322 -0.5610 -0.0614  1.4525
 9183SOL     OW39181   2.385   3.371  12.861  0.6331  0.1367 -0.4111
 9183SOL    HW139182   2.468   3.419  12.873  0.2042  0.7912 -0.0753
 9183SOL    HW239183   2.351   3.377  12.950 -2.1641 -1.9820 -1.3693
 9184SOL     OW39184   1.131   1.795   8.755 -0.3343 -0.0581  0.1104
 9184SOL    HW139185   1.036   1.792   8.772 -0.3281  0.7799  0.2913
 9184SOL    HW239186   1.140   1.841   8.672 -1.1209  0.1825  0.1584
 9185SOL     OW39187   2.355   0.233   4.226  0.1103  0.8655  0.0734
 9185SOL    HW139188   2.356   0.168   4.297  0.2739 -2.4411 -2.9487
 9185SOL    HW239189   2.331   0.315   4.270 -1.0265 -1.1352  3.2289
 9186SOL     OW39190   0.137   1.682   7.007 -0.5081 -0.1643 -0.1489
 9186SOL    HW139191   0.064   1.665   6.948  0.0350 -0.4058 -0.7471
 9186SOL    HW239192   0.143   1.776   6.993  2.2597 -0.1731  0.8581
 9187SOL     OW39193   3.463   3.815   4.099  0.1449 -0.4274  0.0976
 9187SOL    HW139194   3.396   3.882   4.083  1.1487  0.4183 -0.6071
 9187SOL    HW239195   3.493   3.859   4.178  0.0237 -1.7051  0.8514
 9188SOL     OW39196   0.975   2.942   3.165 -0.3878 -0.6518 -0.2689
 9188SOL    HW139197   0.899   2.980   3.207 -0.6607 -2.5640  0.9344
 9188SOL    HW239198   0.963   2.848   3.177  1.1806 -0.5503  2.0266
 9189SOL     OW39199   4.186   3.023   6.263  0.4473  0.8439  0.3774
 9189SOL    HW139200   4.268   3.052   6.302  0.0137  1.3819  0.8851
 9189SOL    HW239201   4.222   2.989   6.181 -1.9893  2.9537 -1.5764
 9190SOL     OW39202   3.471   0.083   7.152  0.8510  0.4581 -0.4447
 9190SOL    HW139203   3.524   0.090   7.073 -0.7388 -1.3927 -1.6641
 9190SOL    HW239204   3.491   4.731   7.181  2.3336  1.2360  0.9358
 9191SOL     OW39205   2.584   2.268   4.607  0.7831 -0.1395  0.8750
 9191SOL    HW139206   2.604   2.232   4.521  1.2137  1.7519  0.1775
 9191SOL    HW239207   2.564   2.359   4.582 -1.1831 -1.3104 -1.7954
 9192SOL     OW39208   3.709   1.631   9.814  0.3336  0.2619  0.2252
 9192SOL    HW139209   3.660   1.672   9.886 -2.2036 -1.7352 -0.3405
 9192SOL    HW239210   3.698   1.542   9.847 -1.6726  0.9699  1.5183
 9193SOL     OW39211   2.354   2.216   6.383 -0.3138  0.5344  0.2049
 9193SOL    HW139212   2.379   2.174   6.465  1.8464  0.4255 -0.5190
 9193SOL    HW239213   2.265   2.179   6.384  0.1144 -0.5139 -0.8774
 9194SOL     OW39214   1.380   2.297   5.905  0.4571  0.2152 -0.1961
 9194SOL    HW139215   1.326   2.364   5.862 -1.6041 -1.4401 -0.2160
 9194SOL    HW239216   1.414   2.347   5.979  0.3536 -0.7480  0.5002
 9195SOL     OW39217   2.092   2.430   0.998  0.4469 -0.1873  0.3850
 9195SOL    HW139218   2.094   2.518   1.036  0.4050  0.4047 -0.9744
 9195SOL    HW239219   2.158   2.447   0.931 -0.7340  0.2462 -0.6504
 9196SOL     OW39220   2.307   4.255   4.730 -0.2586  0.3666  0.1053
 9196SOL    HW139221   2.249   4.208   4.670 -1.1008 -1.3980  2.3256
 9196SOL    HW239222   2.241   4.306   4.777 -1.0513  1.3811 -2.0717
 9197SOL     OW39223   3.567   3.275   3.562 -0.2037  0.0129 -0.3846
 9197SOL    HW139224   3.568   3.357   3.512 -0.3690  1.6156  2.2238
 9197SOL    HW239225   3.659   3.250   3.570 -0.9200 -3.2134 -1.9899
 9198SOL     OW39226   2.933   2.359   3.977  0.1408 -0.3080  0.0321
 9198SOL    HW139227   2.913   2.398   4.062  1.3137 -2.0024  1.0780
 9198SOL    HW239228   2.932   2.434   3.917 -0.0667 -0.8336 -0.6205
 9199SOL     OW39229   4.205   1.392  13.883 -0.6001 -0.5465  0.1851
 9199SOL    HW139230   4.169   1.420  13.799 -1.9649  2.8318  1.9050
 9199SOL    HW239231   4.127   1.364  13.930  1.7461 -1.1230  3.7219
 9200SOL     OW39232   1.297   3.947   8.405  0.2385  0.8677  0.0460
 9200SOL    HW139233   1.371   3.888   8.392 -2.7868 -2.6757 -0.9195
 9200SOL    HW239234   1.228   3.892   8.367  0.2224 -0.4126  1.9949
 9201SOL     OW39235   1.068   4.173   8.892 -0.3760 -0.2221 -0.5507
 9201SOL    HW139236   0.978   4.145   8.910  0.4033 -3.4149 -1.5954
 9201SOL    HW239237   1.111   4.101   8.846  1.3231  0.8682 -0.6707
 9202SOL     OW39238   0.138   3.007   3.973 -0.0802  0.6763 -0.5855
 9202SOL    HW139239   0.145   3.072   3.903  0.0591  1.5671  0.2443
 9202SOL    HW239240   0.137   3.067   4.048 -0.5981 -0.9363  0.6958
 9203SOL     OW39241   0.697   3.521   5.707 -0.3723 -0.0594  0.1190
 9203SOL    HW139242   0.739   3.479   5.782 -0.5608  1.1037  0.8827
 9203SOL    HW239243   0.633   3.566   5.762  1.9028  1.2301  1.6938
 9204SOL     OW39244   0.041   2.195   9.110 -0.3598  0.3050  0.5979
 9204SOL    HW139245   0.106   2.153   9.167 -1.2807  1.4845  2.5289
 9204SOL    HW239246   4.707   2.169   9.169  0.8680 -1.8125  1.1558
 9205SOL     OW39247   2.007   1.200   7.668  0.6072  0.2988  0.7865
 9205SOL    HW139248   2.099   1.177   7.662  0.2194 -1.1173  0.3062
 9205SOL    HW239249   2.001   1.284   7.622  0.1442  0.0265  0.3386
 9206SOL     OW39250   1.631   1.864  12.311 -0.2624 -0.0235  0.1517
 9206SOL    HW139251   1.587   1.815  12.380  1.0010 -0.0875  0.9167
 9206SOL    HW239252   1.554   1.866  12.254 -0.1158 -1.4297 -0.0918
 9207SOL     OW39253   2.388   0.981   4.444  0.1719  0.1620 -0.3792
 9207SOL    HW139254   2.423   0.894   4.427 -0.5603  0.2873 -2.6058
 9207SOL    HW239255   2.444   1.025   4.381  0.8188 -1.8258 -1.1791
 9208SOL     OW39256   1.223   1.728   0.565 -0.1352 -0.7099 -0.3188
 9208SOL    HW139257   1.244   1.818   0.543  1.6284 -1.2502 -0.8886
 9208SOL    HW239258   1.197   1.739   0.656  2.0460 -1.3158  0.3943
 9209SOL     OW39259   2.845   3.439   6.285 -0.2626  0.2338  0.7359
 9209SOL    HW139260   2.891   3.442   6.369 -0.5418  1.8417  0.8238
 9209SOL    HW239261   2.900   3.481   6.219  0.0048  1.6474  1.8442
 9210SOL     OW39262   1.355   3.516   4.580 -0.2048  0.3135 -0.2135
 9210SOL    HW139263   1.327   3.491   4.668  0.4623  0.3108 -0.0030
 9210SOL    HW239264   1.381   3.607   4.593  0.1185  0.4549 -1.7402
 9211SOL     OW39265   3.644   1.262   8.262  0.7100  0.5822 -0.2855
 9211SOL    HW139266   3.561   1.277   8.216  0.9401 -0.1696 -0.9565
 9211SOL    HW239267   3.618   1.208   8.336  0.1676 -0.1730 -1.0234
 9212SOL     OW39268   1.524   2.648  14.470 -0.1399 -0.2775 -0.0291
 9212SOL    HW139269   1.452   2.693  14.514 -0.8354 -0.8753 -0.5592
 9212SOL    HW239270   1.473   2.579  14.427  1.5271 -0.7824 -1.2337
 9213SOL     OW39271   3.798   0.714   0.398  0.3278 -0.2700 -0.7400
 9213SOL    HW139272   3.740   0.671   0.461  0.5375 -2.1436 -1.8085
 9213SOL    HW239273   3.731   0.727   0.331 -1.7059  0.0291  1.3222
 9214SOL     OW39274   4.590   0.243   6.625  0.6319 -0.3556 -0.2198
 9214SOL    HW139275   4.588   0.338   6.639 -2.5090 -0.4668  0.2689
 9214SOL    HW239276   4.510   0.219   6.579  0.7159  0.7031 -0.9134
 9215SOL     OW39277   4.041   2.872   3.835  0.1459  0.6195  0.1036
 9215SOL    HW139278   4.086   2.872   3.920 -1.4018 -0.0245  0.9377
 9215SOL    HW239279   3.951   2.859   3.866  0.4656  2.0188  1.6261
 9216SOL     OW39280   2.581   4.583  16.606 -1.0425 -0.3999  0.1576
 9216SOL    HW139281   2.508   4.530  16.576 -0.3993  0.3882 -2.8296
 9216SOL    HW239282   2.653   4.535  16.565  0.8667  2.9078 -0.4190
 9217SOL     OW39283   3.681   2.949   0.379 -0.3811 -0.0514  0.0701
 9217SOL    HW139284   3.704   2.994   0.461  0.9175 -0.5481 -0.0175
 9217SOL    HW239285   3.619   3.012   0.344  1.9406  1.0933 -1.9546
 9218SOL     OW39286   1.099   0.894   1.013  0.2516  0.5263 -0.3038
 9218SOL    HW139287   1.022   0.860   1.060 -0.7956  3.2913  0.0014
 9218SOL    HW239288   1.062   0.914   0.927 -1.2046 -1.8539 -0.2549
 9219SOL     OW39289   4.546   4.012   3.200 -0.2304  0.5676 -0.2736
 9219SOL    HW139290   4.613   3.946   3.219 -0.7595  0.9111  2.7657
 9219SOL    HW239291   4.503   3.970   3.126 -0.1829  1.3292 -0.7394
 9220SOL     OW39292   1.619   0.251   3.599  0.2534 -0.0270  0.3751
 9220SOL    HW139293   1.528   0.278   3.609  0.5529  1.5288 -0.8890
 9220SOL    HW239294   1.636   0.245   3.693  1.4851 -0.4284  0.1287
 9221SOL     OW39295   4.053   2.677   8.890 -0.0067 -0.2201  0.3150
 9221SOL    HW139296   4.139   2.698   8.925 -0.6415 -1.5602  2.6631
 9221SOL    HW239297   4.054   2.582   8.874 -0.1235 -0.3676  1.2026
 9222SOL     OW39298   2.764   1.220   5.045  0.2234 -0.3010 -0.1131
 9222SOL    HW139299   2.836   1.169   5.007  0.2926 -0.5975  0.4132
 9222SOL    HW239300   2.737   1.283   4.978 -0.0165  0.5196  0.7564
 9223SOL     OW39301   3.555   3.196   4.933 -0.2750  0.1304 -0.4744
 9223SOL    HW139302   3.633   3.141   4.926 -0.2172  0.2917 -1.1033
 9223SOL    HW239303   3.594   3.275   4.897 -1.9253  1.3998  0.4866
 9224SOL     OW39304   1.602   2.790   4.778  0.3781 -0.2905 -0.1169
 9224SOL    HW139305   1.614   2.717   4.838 -0.3471 -1.0544 -0.9066
 9224SOL    HW239306   1.692   2.793   4.747  0.4213 -2.1590 -0.1529
 9225SOL     OW39307   4.055   0.863   2.688  0.3660  0.0200 -0.1364
 9225SOL    HW139308   4.076   0.948   2.726  0.8390  0.5054 -1.4956
 9225SOL    HW239309   3.964   0.872   2.661  0.3295 -0.4078 -0.1543
 9226SOL     OW39310   0.542   1.914   2.835  0.1308 -0.1126  0.3461
 9226SOL    HW139311   0.533   1.966   2.755  3.9484  0.4935  0.3226
 9226SOL    HW239312   0.622   1.946   2.876  0.5628  0.1880 -0.7389
 9227SOL     OW39313   2.781   1.141  13.075  0.1415  0.1821 -0.4550
 9227SOL    HW139314   2.777   1.046  13.083  1.0062  0.2379  0.6714
 9227SOL    HW239315   2.690   1.162  13.097 -0.1558 -0.9860 -0.6196
 9228SOL     OW39316   0.533   2.552   7.879  0.0822 -0.3108 -0.3857
 9228SOL    HW139317   0.563   2.640   7.860 -0.6066  0.2577  1.1701
 9228SOL    HW239318   0.439   2.565   7.885 -0.0082 -2.5024  2.8969
 9229SOL     OW39319   3.252   0.713   5.895 -0.2884 -0.1302  0.8515
 9229SOL    HW139320   3.261   0.702   5.989 -1.1126 -0.6190  0.8746
 9229SOL    HW239321   3.208   0.797   5.885  0.2332  0.1512  0.9076
 9230SOL     OW39322   3.871   2.038   7.454  0.6601 -0.5396  0.8502
 9230SOL    HW139323   3.884   2.075   7.542  0.7644 -1.3265  1.1653
 9230SOL    HW239324   3.825   2.105   7.404  1.4998  1.1382  2.3026
 9231SOL     OW39325   3.100   4.506   4.227  0.0055 -0.3726 -0.5894
 9231SOL    HW139326   3.163   4.500   4.299  0.3895  1.0457 -0.8181
 9231SOL    HW239327   3.145   4.568   4.171  0.2335 -1.5701 -1.7295
 9232SOL     OW39328   3.877   1.286   4.483  0.7986 -0.0960  0.3003
 9232SOL    HW139329   3.828   1.229   4.542 -0.9974  1.4429  0.2790
 9232SOL    HW239330   3.949   1.227   4.461  0.8269  0.3931 -0.8847
 9233SOL     OW39331   4.595   0.424  17.709  0.1890 -0.2264 -0.5453
 9233SOL    HW139332   4.583   0.339  17.665 -1.9448 -0.1145 -0.1866
 9233SOL    HW239333   4.689   0.439  17.703  0.2137  0.6454  2.0448
 9234SOL     OW39334   2.094   0.262   9.161 -0.1815 -0.7210  0.5114
 9234SOL    HW139335   2.120   0.254   9.069 -1.0606  1.3874  0.0742
 9234SOL    HW239336   2.177   0.243   9.204  0.6627  1.3274 -0.2517
 9235SOL     OW39337   2.149   4.495   5.643 -0.0324  0.4442 -0.1641
 9235SOL    HW139338   2.198   4.530   5.569  3.0018 -2.8705  0.2818
 9235SOL    HW239339   2.180   4.404   5.634 -0.3607  0.2866  0.2782
 9236SOL     OW39340   3.197   0.777   2.394  0.9321 -0.3072 -0.2543
 9236SOL    HW139341   3.107   0.753   2.373  1.0492 -0.1272 -0.9692
 9236SOL    HW239342   3.189   0.867   2.424  0.1117 -0.0757 -1.1677
 9237SOL     OW39343   3.829   1.692  13.699  0.1497  0.2484  0.2000
 9237SOL    HW139344   3.828   1.596  13.699 -1.7172  0.2706 -0.4662
 9237SOL    HW239345   3.882   1.712  13.776  1.2178 -1.8672  0.0224
 9238SOL     OW39346   0.836   2.595   0.637 -0.4445  0.0923  0.0094
 9238SOL    HW139347   0.922   2.631   0.612 -0.5061 -0.4171 -0.9303
 9238SOL    HW239348   0.826   2.656   0.709 -1.5648 -0.3593  0.2348
 9239SOL     OW39349   2.651   1.079   5.240  0.1417 -0.5846 -0.6479
 9239SOL    HW139350   2.643   1.139   5.166 -0.7551 -2.4887 -2.0932
 9239SOL    HW239351   2.734   1.034   5.225  0.5379  0.0050 -0.2257
 9240SOL     OW39352   1.353   4.365   5.876 -0.0472  0.0959  0.6354
 9240SOL    HW139353   1.411   4.397   5.808  0.9372  1.0930  1.9412
 9240SOL    HW239354   1.405   4.375   5.956 -0.5565 -0.6706  1.0611
 9241SOL     OW39355   4.554   4.055  17.578  0.1568  0.4115  0.6049
 9241SOL    HW139356   4.542   4.079  17.487  1.3114  0.4408  0.4600
 9241SOL    HW239357   4.464   4.061  17.611 -0.4503 -1.2984 -0.7340
 9242SOL     OW39358   2.482   3.280   1.105 -0.3212 -0.1837 -0.4140
 9242SOL    HW139359   2.515   3.195   1.133 -0.2215  0.6587  2.0355
 9242SOL    HW239360   2.391   3.281   1.136  0.3587  1.3959  1.5084
 9243SOL     OW39361   4.618   3.445   4.224 -0.7766  0.0049  0.5329
 9243SOL    HW139362   4.616   3.532   4.184 -1.2554 -0.7830 -1.1705
 9243SOL    HW239363   4.561   3.392   4.168 -3.1570  2.9118  0.2370
 9244SOL     OW39364   0.968   4.409   6.691  0.6906  0.1143  0.0459
 9244SOL    HW139365   0.991   4.478   6.754  1.2608  1.7226 -1.8978
 9244SOL    HW239366   1.000   4.332   6.736  2.6215 -0.2920 -1.9851
 9245SOL     OW39367   4.414   2.038   4.986  0.7214  0.3360  0.4484
 9245SOL    HW139368   4.373   2.028   4.901 -0.7384 -0.1161  1.1975
 9245SOL    HW239369   4.497   1.999   4.963  1.1333  3.0048 -2.5421
 9246SOL     OW39370   3.333   2.280   8.631  0.5374 -0.0675  0.2171
 9246SOL    HW139371   3.258   2.335   8.655  1.7478  2.0160 -0.7757
 9246SOL    HW239372   3.358   2.243   8.716  1.5899  0.2062  0.0311
 9247SOL     OW39373   1.433   3.753   5.342 -0.4287 -0.4664 -0.2960
 9247SOL    HW139374   1.494   3.696   5.389 -1.4047 -0.3441  1.1017
 9247SOL    HW239375   1.372   3.783   5.409 -0.9968 -1.5713 -0.3248
 9248SOL     OW39376   0.369   1.788  15.078 -0.3001  0.1209  0.2096
 9248SOL    HW139377   0.300   1.847  15.045 -1.0062 -0.6750  0.2656
 9248SOL    HW239378   0.328   1.750  15.155 -0.4331 -0.8930 -0.3600
 9249SOL     OW39379   2.732   4.360   0.972  0.7475 -0.0410 -0.4623
 9249SOL    HW139380   2.745   4.452   0.995  2.5626  0.0715 -1.9127
 9249SOL    HW239381   2.687   4.363   0.887 -0.1837  0.9040  0.0658
 9250SOL     OW39382   0.591   2.008  11.334  0.1480  0.1678 -0.0921
 9250SOL    HW139383   0.529   1.939  11.357 -1.5025  1.5699 -0.2456
 9250SOL    HW239384   0.627   2.036  11.418 -0.4778  1.6733 -0.3098
 9251SOL     OW39385   2.608   0.385   9.426 -0.4668  0.3331  0.2535
 9251SOL    HW139386   2.588   0.292   9.424  1.0464 -0.0414  2.3173
 9251SOL    HW239387   2.518   0.412   9.443  0.7780  4.8136 -0.1157
 9252SOL     OW39388   3.124   3.523  16.996  0.0943  0.1554  0.3153
 9252SOL    HW139389   3.171   3.607  16.994 -0.0438  0.2391  0.5331
 9252SOL    HW239390   3.130   3.495  17.088  1.0547 -0.4085  0.0825
 9253SOL     OW39391   1.041   3.627   8.908  0.0719  0.0333 -0.7153
 9253SOL    HW139392   1.068   3.668   8.826 -0.8566  0.9831 -0.5496
 9253SOL    HW239393   0.982   3.561   8.872 -2.2300  1.5270  0.3164
 9254SOL     OW39394   0.649   2.357   2.795 -0.3646  0.0237  0.4815
 9254SOL    HW139395   0.624   2.361   2.703 -0.3693 -1.7819  0.4142
 9254SOL    HW239396   0.566   2.336   2.837  0.4780 -2.2089  1.0333
 9255SOL     OW39397   2.265   3.083   2.470 -0.0443 -0.1685  0.2206
 9255SOL    HW139398   2.329   3.056   2.405  0.6149 -0.3504  0.9469
 9255SOL    HW239399   2.241   3.172   2.444  0.1881 -0.0862  0.2907
 9256SOL     OW39400   2.397   1.120  16.512  0.0353 -0.0601  0.1549
 9256SOL    HW139401   2.303   1.111  16.500 -0.2031  0.1419  1.9071
 9256SOL    HW239402   2.426   1.029  16.509 -0.0592 -0.0733 -0.3504
 9257SOL     OW39403   3.611   0.888   9.106 -0.3820 -0.3541 -0.1404
 9257SOL    HW139404   3.529   0.875   9.154 -1.5297 -0.5451 -2.1209
 9257SOL    HW239405   3.585   0.914   9.017 -0.8809  0.2091  0.1691
 9258SOL     OW39406   2.527   2.491   2.857  0.2642  0.3301  0.3684
 9258SOL    HW139407   2.489   2.403   2.864 -1.0719  1.0247  1.7408
 9258SOL    HW239408   2.524   2.502   2.952  3.3640  1.4787  0.3226
 9259SOL     OW39409   0.656   3.618   2.172  0.1739 -0.7085  0.0479
 9259SOL    HW139410   0.694   3.614   2.084  1.3017  0.0973  0.4971
 9259SOL    HW239411   0.572   3.644   2.134  1.8357  1.3063 -2.2039
 9260SOL     OW39412   4.075   3.283   4.538  0.2564 -0.1207  0.4478
 9260SOL    HW139413   3.981   3.269   4.541  0.0727  0.7600 -1.5746
 9260SOL    HW239414   4.081   3.273   4.443  0.9113  2.5379  0.2031
 9261SOL     OW39415   1.725   0.711  16.558 -0.0081 -0.5326  0.1585
 9261SOL    HW139416   1.750   0.772  16.488 -0.8281 -1.1937 -0.7146
 9261SOL    HW239417   1.813   0.692  16.590  0.8801  0.1802 -1.8431
 9262SOL     OW39418   1.885   4.427   3.791 -0.5250  0.3142  0.1118
 9262SOL    HW139419   1.956   4.467   3.841  0.7296 -1.2837 -0.3821
 9262SOL    HW239420   1.931   4.354   3.751  1.7096  2.5610 -1.4463
 9263SOL     OW39421   4.198   2.873   7.247 -0.0292  0.5253  0.1340
 9263SOL    HW139422   4.140   2.948   7.259 -0.0591  0.8164 -1.8605
 9263SOL    HW239423   4.276   2.925   7.263 -0.7472  1.2127  1.4551
 9264SOL     OW39424   1.138   3.626   6.787  0.6557 -0.8086 -0.0345
 9264SOL    HW139425   1.116   3.648   6.696 -3.0979 -0.1632  1.0301
 9264SOL    HW239426   1.223   3.670   6.788 -0.3367  1.0968  0.5350
 9265SOL     OW39427   1.115   3.611   5.321 -0.5125 -0.1459 -0.0787
 9265SOL    HW139428   1.033   3.590   5.277 -0.2667 -1.7320  0.2173
 9265SOL    HW239429   1.109   3.705   5.302  0.4054 -0.0764 -0.0132
 9266SOL     OW39430   1.800   0.950  11.659 -0.2820 -0.3967  0.7692
 9266SOL    HW139431   1.735   0.988  11.719 -0.5598  1.5016 -0.7339
 9266SOL    HW239432   1.789   0.859  11.687  1.5081 -0.4909  1.1745
 9267SOL     OW39433   1.614   2.384   3.083 -0.1121  0.2008 -0.2945
 9267SOL    HW139434   1.697   2.337   3.068 -0.1891  0.1545 -0.5858
 9267SOL    HW239435   1.639   2.469   3.047  1.3915 -0.2050 -0.2064
 9268SOL     OW39436   1.689   4.691   3.811  0.0284  0.7756  0.8221
 9268SOL    HW139437   1.708   4.629   3.882  2.1200 -0.4487 -0.8268
 9268SOL    HW239438   1.598   4.668   3.791 -0.5751  1.8450  2.2756
 9269SOL     OW39439   3.667   0.598   5.804  0.1576  0.0262  0.4002
 9269SOL    HW139440   3.647   0.659   5.875 -1.2759  1.9283 -1.6340
 9269SOL    HW239441   3.762   0.593   5.796  0.1192  0.3932 -0.2496
 9270SOL     OW39442   3.596   4.563  14.383 -0.0031 -0.5589  0.2855
 9270SOL    HW139443   3.657   4.493  14.362  1.8504  1.3000 -0.4634
 9270SOL    HW239444   3.570   4.594  14.296  0.3826  2.0398  1.0910
 9271SOL     OW39445   3.093   3.801   5.750 -0.4097 -0.2192 -0.1989
 9271SOL    HW139446   3.015   3.794   5.695  0.8760 -1.8873 -1.8199
 9271SOL    HW239447   3.160   3.753   5.701  0.9476  1.6392 -0.1469
 9272SOL     OW39448   2.868   1.844  15.427  0.4773 -0.4049  1.0596
 9272SOL    HW139449   2.808   1.829  15.354 -0.2312 -0.8679  1.7402
 9272SOL    HW239450   2.902   1.930  15.400 -0.0221 -0.3547  0.6073
 9273SOL     OW39451   0.109   1.908   7.287 -0.7322  0.4438 -0.2116
 9273SOL    HW139452   0.194   1.894   7.328 -0.6616 -0.2256 -0.5816
 9273SOL    HW239453   0.097   2.002   7.301  2.5881  0.7960  0.2641
 9274SOL     OW39454   0.941   0.220   4.437 -0.3327  0.1338 -0.0525
 9274SOL    HW139455   1.018   0.238   4.490 -1.4576 -0.1643  1.6722
 9274SOL    HW239456   0.936   0.127   4.458  0.6417 -0.1919 -1.3023
 9275SOL     OW39457   1.255   4.006   8.766  0.0255 -0.5151 -0.1759
 9275SOL    HW139458   1.336   4.032   8.722 -0.4290  1.3387  0.0663
 9275SOL    HW239459   1.270   3.916   8.796  0.8182  0.0259  1.0435
 9276SOL     OW39460   2.322   0.770   1.341 -0.0099 -0.1603  0.0370
 9276SOL    HW139461   2.360   0.782   1.428 -1.7297  0.1267  0.7478
 9276SOL    HW239462   2.229   0.789   1.357  0.0954  0.9249 -0.6299
 9277SOL     OW39463   3.131   2.450   8.671  0.3427  0.5252  0.1201
 9277SOL    HW139464   3.105   2.527   8.621 -3.0760 -1.6844 -1.5051
 9277SOL    HW239465   3.125   2.473   8.764 -0.1609 -2.3198  0.8106
 9278SOL     OW39466   4.192   1.438   5.222 -0.4848 -0.2023 -0.3668
 9278SOL    HW139467   4.125   1.378   5.191 -0.3462 -0.2177 -0.6333
 9278SOL    HW239468   4.228   1.401   5.303 -2.1164 -1.6352 -0.2990
 9279SOL     OW39469   0.225   0.337   6.992  0.3685  0.3342 -0.1977
 9279SOL    HW139470   0.141   0.373   7.022 -0.4097 -1.1272 -0.6266
 9279SOL    HW239471   0.281   0.404   7.031 -0.0075  1.0987 -0.9726
 9280SOL     OW39472   4.244   3.330   6.718  0.1663 -0.4858  0.2871
 9280SOL    HW139473   4.218   3.294   6.633  1.0125  0.2785 -0.2892
 9280SOL    HW239474   4.333   3.363   6.713  0.4733 -1.3407  0.0389
 9281SOL     OW39475   0.878   1.538   3.238 -0.8375 -0.2667 -0.2095
 9281SOL    HW139476   0.881   1.478   3.163  0.5627 -1.3184  0.6733
 9281SOL    HW239477   0.784   1.552   3.246 -1.0709 -2.6058  1.1456
 9282SOL     OW39478   3.900   0.478   7.752  0.1623 -0.7945 -0.1564
 9282SOL    HW139479   3.945   0.458   7.669  0.0755  0.0544 -0.4026
 9282SOL    HW239480   3.837   0.544   7.726  0.8722  0.6109  1.7833
 9283SOL     OW39481   0.261   0.063   1.790 -0.6235 -0.1062 -0.2971
 9283SOL    HW139482   0.251   0.048   1.696  0.5728  2.4721 -0.8254
 9283SOL    HW239483   0.334   0.125   1.796 -0.8552 -0.1535  2.9573
 9284SOL     OW39484   3.219   3.829   9.063  0.0602  0.0888 -0.6761
 9284SOL    HW139485   3.261   3.811   8.979  1.0819 -0.4888 -0.0311
 9284SOL    HW239486   3.266   3.779   9.129 -0.6549  0.2142 -0.0690
 9285SOL     OW39487   0.745   2.933  14.808 -0.5039 -0.2739  0.2718
 9285SOL    HW139488   0.688   2.858  14.824 -0.0040 -0.3069  1.9228
 9285SOL    HW239489   0.743   2.976  14.894  0.9977 -0.1920  0.2678
 9286SOL     OW39490   3.103   3.335  12.705 -0.3828  0.2807 -0.2305
 9286SOL    HW139491   3.048   3.350  12.782 -1.6865 -2.8589 -0.5734
 9286SOL    HW239492   3.183   3.379  12.734 -1.7913  2.9096 -0.3177
 9287SOL     OW39493   3.316   1.147   4.001 -0.7381  0.0299  0.1602
 9287SOL    HW139494   3.227   1.179   4.015 -1.4642 -2.0779  0.3331
 9287SOL    HW239495   3.291   1.058   3.977 -2.2778  0.1801  1.2000
 9288SOL     OW39496   0.933   0.615   7.825 -0.7882 -0.1480 -0.0184
 9288SOL    HW139497   0.967   0.566   7.899 -0.5846 -0.8928 -0.6104
 9288SOL    HW239498   1.006   0.677   7.826 -1.8983  1.1730  0.0078
 9289SOL     OW39499   3.328   3.800   0.299 -0.7367 -0.6146  0.2685
 9289SOL    HW139500   3.282   3.725   0.337  0.0929 -1.3928 -0.2573
 9289SOL    HW239501   3.401   3.759   0.253 -1.4829 -0.8363 -0.7264
 9290SOL     OW39502   3.375   1.897   3.334 -0.4479 -0.3525  0.1204
 9290SOL    HW139503   3.303   1.917   3.275 -0.6572  2.7106  1.4052
 9290SOL    HW239504   3.447   1.875   3.275 -1.7307  0.3729 -1.7033
 9291SOL     OW39505   3.440   1.039   5.939 -0.2550 -0.4116 -0.1136
 9291SOL    HW139506   3.351   1.070   5.925  0.5249  1.7585 -0.1647
 9291SOL    HW239507   3.458   0.980   5.866  0.0910 -1.8395  1.1125
 9292SOL     OW39508   3.926   4.240   3.093  0.0411 -0.3024  0.2955
 9292SOL    HW139509   3.949   4.289   3.172 -1.0370 -0.5097  0.7301
 9292SOL    HW239510   3.934   4.310   3.027  1.1732  0.9612  1.7899
 9293SOL     OW39511   2.696   2.285  14.289 -0.1905 -0.1388 -0.4023
 9293SOL    HW139512   2.637   2.225  14.243 -0.7273  0.1370 -0.0678
 9293SOL    HW239513   2.650   2.368  14.285 -0.5128 -0.4215 -2.4044
 9294SOL     OW39514   4.495   1.539   4.924 -0.4996 -0.1410  0.1673
 9294SOL    HW139515   4.493   1.458   4.873 -0.7644  0.5373 -0.9087
 9294SOL    HW239516   4.589   1.550   4.934 -0.7554 -0.1665  2.6366
 9295SOL     OW39517   0.516   2.286   4.665 -0.1972 -0.3094  0.1873
 9295SOL    HW139518   0.557   2.201   4.648 -0.6062 -0.8199  1.8619
 9295SOL    HW239519   0.562   2.317   4.743 -0.7937 -1.8655  1.1627
 9296SOL     OW39520   3.400   3.877   3.709  0.0454  0.3414 -0.1432
 9296SOL    HW139521   3.375   3.843   3.623  0.9207 -0.7473  0.0328
 9296SOL    HW239522   3.326   3.853   3.765  0.4587  0.3814  0.4148
 9297SOL     OW39523   3.825   0.337   7.246 -0.3168  0.0950  0.0420
 9297SOL    HW139524   3.796   0.290   7.168  0.6326 -1.9233  0.9067
 9297SOL    HW239525   3.921   0.332   7.245 -0.3160  0.2679 -0.5700
 9298SOL     OW39526   0.249   0.004  11.822  0.0246 -0.4902 -0.2243
 9298SOL    HW139527   0.267   0.052  11.741  0.8362 -0.6774 -0.1556
 9298SOL    HW239528   0.340   0.008  11.850  0.2692 -3.4815 -0.5419
 9299SOL     OW39529   4.341   3.569   4.013  0.3746 -0.0086 -0.0620
 9299SOL    HW139530   4.421   3.620   3.997  1.3735 -1.3889  0.5751
 9299SOL    HW239531   4.325   3.534   3.926  1.8625  1.5119 -0.9471
 9300SOL     OW39532   0.818   1.369   2.981  0.8749  0.1602 -0.0539
 9300SOL    HW139533   0.907   1.333   2.977  0.6211 -0.4892  0.2465
 9300SOL    HW239534   0.826   1.451   2.932 -0.3870 -1.1919 -2.5178
 9301SOL     OW39535   3.069   0.187  15.457  0.2781 -0.4571 -0.5354
 9301SOL    HW139536   3.024   0.262  15.418 -0.0815 -0.6070 -0.4074
 9301SOL    HW239537   2.992   0.131  15.466  0.1598 -0.4059 -1.2214
 9302SOL     OW39538   2.434   3.304   7.217 -0.2714  0.3567 -0.1739
 9302SOL    HW139539   2.438   3.382   7.272  1.0361 -0.8493  1.4312
 9302SOL    HW239540   2.353   3.265   7.250 -0.7204  1.1776 -0.3230
 9303SOL     OW39541   1.422   0.414   4.362 -0.6118 -0.2715  0.4564
 9303SOL    HW139542   1.443   0.366   4.282  0.5290 -0.2705  0.7651
 9303SOL    HW239543   1.508   0.430   4.400 -0.3544 -0.9442  0.1596
 9304SOL     OW39544   4.583   0.362   8.654  0.5730  0.3097 -0.1841
 9304SOL    HW139545   4.614   0.332   8.739  2.4912 -1.0062 -1.3329
 9304SOL    HW239546   4.509   0.303   8.645  1.9331 -1.3351 -0.6924
 9305SOL     OW39547   1.598   0.775   8.293  0.9285  0.2346  0.1117
 9305SOL    HW139548   1.607   0.871   8.294  2.5025  0.0985 -0.0676
 9305SOL    HW239549   1.691   0.752   8.297  0.4941 -1.3822  0.6494
 9306SOL     OW39550   4.425   3.395   1.780 -0.0490  0.0722 -0.0607
 9306SOL    HW139551   4.487   3.468   1.781  0.7647 -0.5802 -2.2734
 9306SOL    HW239552   4.478   3.321   1.809  1.7584  0.6511 -1.9117
 9307SOL     OW39553   2.484   3.108   9.339  0.1615 -0.3540 -0.4802
 9307SOL    HW139554   2.494   3.199   9.367 -0.6008  0.1282 -1.7543
 9307SOL    HW239555   2.404   3.122   9.289 -0.8721 -0.5623  1.0942
 9308SOL     OW39556   0.179   3.458  13.979 -0.2250 -0.7230 -0.2707
 9308SOL    HW139557   0.269   3.445  13.951 -0.0417  0.3108 -0.1725
 9308SOL    HW239558   0.193   3.449  14.073 -1.0636 -1.0870 -0.1787
 9309SOL     OW39559   0.209   1.923   3.364  0.2710 -0.7038 -0.6456
 9309SOL    HW139560   0.203   1.900   3.271  1.0035 -1.4032 -0.5230
 9309SOL    HW239561   0.271   1.994   3.350 -0.0762 -0.4798 -1.0530
 9310SOL     OW39562   0.512   1.549   2.619 -0.2723 -0.1704 -0.5906
 9310SOL    HW139563   0.598   1.512   2.598  0.1491 -0.0985  0.9608
 9310SOL    HW239564   0.496   1.605   2.544  0.1156 -0.8681 -1.1883
 9311SOL     OW39565   3.607   4.002   6.616  0.4283  0.4169  0.0489
 9311SOL    HW139566   3.526   4.028   6.659 -0.7117 -0.9803 -1.2514
 9311SOL    HW239567   3.639   3.948   6.689  1.4160 -0.5180 -1.0712
 9312SOL     OW39568   2.600   0.097   0.157  0.0738 -0.0521 -0.3513
 9312SOL    HW139569   2.666   0.044   0.202 -2.3199 -1.7962  1.1368
 9312SOL    HW239570   2.604   0.164   0.224  1.9728  0.1006 -0.6236
 9313SOL     OW39571   2.176   2.173   2.929 -0.0514 -1.0710 -0.2162
 9313SOL    HW139572   2.092   2.214   2.948 -0.2261 -1.0630 -1.0086
 9313SOL    HW239573   2.163   2.090   2.974  2.2617 -0.9725  0.6503
 9314SOL     OW39574   1.128   3.979   0.654 -0.6828  0.0416  0.8752
 9314SOL    HW139575   1.047   3.994   0.606 -0.0950 -0.7846 -0.3819
 9314SOL    HW239576   1.165   3.904   0.608  1.7905  1.6418  0.2298
 9315SOL     OW39577   1.872   3.615   5.411  0.1015 -0.2428  0.1844
 9315SOL    HW139578   1.862   3.677   5.339  0.2921  0.0592  0.4174
 9315SOL    HW239579   1.933   3.556   5.368  0.5060  0.5329 -0.2941
 9316SOL     OW39580   1.449   1.624   0.750 -0.1743  0.7855 -0.1844
 9316SOL    HW139581   1.465   1.718   0.739 -0.6545  0.7290 -1.3587
 9316SOL    HW239582   1.391   1.591   0.681 -0.8450  0.6870  0.4195
 9317SOL     OW39583   3.802   4.194  14.802  0.5243 -0.3302  0.5160
 9317SOL    HW139584   3.880   4.155  14.762 -0.8789 -1.2802 -1.3118
 9317SOL    HW239585   3.801   4.158  14.891  3.7108  0.5343  0.8791
 9318SOL     OW39586   1.750   0.703   7.199  0.1863 -0.1682 -0.1752
 9318SOL    HW139587   1.778   0.794   7.206 -0.2346 -0.1081  0.7434
 9318SOL    HW239588   1.687   0.703   7.271 -0.1413 -2.9859 -0.4433
 9319SOL     OW39589   4.000   4.034  16.641  0.1446  0.3717  0.5464
 9319SOL    HW139590   3.981   4.121  16.606  2.0458  1.1830  1.5140
 9319SOL    HW239591   4.079   4.053  16.692  1.5439 -2.4218 -0.6427
 9320SOL     OW39592   4.198   3.478   8.407 -0.6181  0.5063  0.1682
 9320SOL    HW139593   4.219   3.571   8.399  3.7487 -0.4455  0.2835
 9320SOL    HW239594   4.229   3.438   8.325  0.4234 -0.3212  0.9682
 9321SOL     OW39595   1.882   4.588   6.670 -0.0122 -0.1143 -0.3388
 9321SOL    HW139596   1.956   4.623   6.719  1.0837 -1.4579 -1.0172
 9321SOL    HW239597   1.882   4.641   6.591  3.3640  0.6670  0.1632
 9322SOL     OW39598   3.873   3.682   8.976  0.6111  0.1620  0.0365
 9322SOL    HW139599   3.960   3.694   8.937  0.9315 -0.9737  0.4172
 9322SOL    HW239600   3.865   3.587   8.967  2.2002  0.1288 -1.0236
 9323SOL     OW39601   1.948   3.942   5.869  0.5686 -0.1231  0.1000
 9323SOL    HW139602   1.880   3.885   5.832  1.1704  0.4945 -1.9238
 9323SOL    HW239603   1.945   4.018   5.811  0.5393 -1.0911 -1.1673
 9324SOL     OW39604   4.737   3.666   8.767 -0.1149 -0.5374  0.5111
 9324SOL    HW139605   0.086   3.689   8.802  1.0596  0.4445 -3.0563
 9324SOL    HW239606   4.681   3.735   8.804  0.7311 -0.3908  1.5437
 9325SOL     OW39607   0.949   0.554   5.932 -0.1057  0.7306  0.2767
 9325SOL    HW139608   0.933   0.614   5.859 -3.6070 -0.9591 -0.3032
 9325SOL    HW239609   1.035   0.583   5.963 -0.9445  2.3883  1.0453
 9326SOL     OW39610   3.027   3.701   2.379  0.5686  0.3980 -0.0174
 9326SOL    HW139611   2.994   3.731   2.464 -1.6504  2.3351 -1.5563
 9326SOL    HW239612   3.117   3.732   2.378  0.0808  1.8106  0.6394
 9327SOL     OW39613   1.027   0.486   0.743  0.7730  0.0757 -0.2645
 9327SOL    HW139614   1.029   0.438   0.660 -1.6611 -2.7249  1.3324
 9327SOL    HW239615   1.083   0.560   0.719  0.0380  1.0763  1.1285
 9328SOL     OW39616   1.976   2.336   1.901  0.3526 -0.7189  0.5110
 9328SOL    HW139617   1.938   2.307   1.985 -2.1251  0.1471 -0.3299
 9328SOL    HW239618   1.893   2.362   1.863  0.0315 -2.0705  0.2860
 9329SOL     OW39619   4.319   1.140   2.676  0.5239 -0.3555  0.0730
 9329SOL    HW139620   4.293   1.231   2.687  1.1420 -0.3590  1.5729
 9329SOL    HW239621   4.359   1.134   2.589  0.1650  1.4903 -0.2170
 9330SOL     OW39622   3.677   0.615   9.802  0.4785 -0.0468  0.1126
 9330SOL    HW139623   3.637   0.537   9.764 -0.2889  1.3493 -1.9286
 9330SOL    HW239624   3.682   0.681   9.733 -1.3764 -0.4127 -0.3586
 9331SOL     OW39625   2.077   4.525   6.034 -0.6455 -0.0001 -0.0182
 9331SOL    HW139626   2.140   4.462   5.998  1.1406  1.1769  1.0671
 9331SOL    HW239627   2.134   4.600   6.048 -0.2640 -0.7536  2.4046
 9332SOL     OW39628   0.437   0.743   2.075 -0.7635  0.8537 -0.4053
 9332SOL    HW139629   0.423   0.802   2.150  0.1508 -1.9143  1.9249
 9332SOL    HW239630   0.349   0.706   2.079 -0.4195  0.3498  2.5747
 9333SOL     OW39631   1.468   0.247   7.291  0.1517  0.4881  0.2617
 9333SOL    HW139632   1.436   0.203   7.212  1.2943  0.2310 -0.0599
 9333SOL    HW239633   1.398   0.238   7.355  0.4683 -0.7290  0.4356
 9334SOL     OW39634   3.504   4.408   8.111  0.2365  0.0234  0.6966
 9334SOL    HW139635   3.444   4.459   8.166 -2.2782 -0.0314 -1.9916
 9334SOL    HW239636   3.457   4.326   8.096  1.7489 -1.2356  2.8893
 9335SOL     OW39637   4.321   0.413   2.090  0.5930  0.0079 -0.3917
 9335SOL    HW139638   4.321   0.345   2.023 -0.1898  1.7471 -2.1396
 9335SOL    HW239639   4.406   0.394   2.130  1.0369  0.9984 -0.8788
 9336SOL     OW39640   3.670   3.575  13.293 -0.1413  0.2058 -0.2572
 9336SOL    HW139641   3.748   3.567  13.238 -0.9671  0.2478 -1.4308
 9336SOL    HW239642   3.643   3.666  13.284  0.3559  0.4482  0.7374
 9337SOL     OW39643   2.239   1.254   9.075  0.2038 -0.2757 -0.2428
 9337SOL    HW139644   2.242   1.260   9.170 -0.1180 -1.9305 -0.1330
 9337SOL    HW239645   2.164   1.196   9.070  0.4854 -0.8139  1.7741
 9338SOL     OW39646   4.297   2.273   3.921  0.4814 -0.3596  0.4592
 9338SOL    HW139647   4.205   2.298   3.928 -0.3992 -3.9084  1.4688
 9338SOL    HW239648   4.333   2.334   3.985 -5.0554  1.9943  1.3170
 9339SOL     OW39649   1.121   2.633   8.242 -0.4226  0.2917 -0.1496
 9339SOL    HW139650   1.193   2.571   8.256  1.2242  1.5940 -2.8641
 9339SOL    HW239651   1.116   2.667   8.331 -1.4107 -0.1447 -0.0415
 9340SOL     OW39652   3.474   4.056  14.174 -0.2357  0.1554  0.3659
 9340SOL    HW139653   3.521   4.007  14.241 -0.4326 -0.7226 -0.1473
 9340SOL    HW239654   3.403   3.992  14.166  0.2461 -0.6245  2.1727
 9341SOL     OW39655   3.396   2.997   4.802 -0.3410  0.4135 -0.3370
 9341SOL    HW139656   3.455   2.929   4.769  0.3770 -0.4476  2.6535
 9341SOL    HW239657   3.450   3.067   4.838  0.7913 -0.2355 -0.7870
 9342SOL     OW39658   2.300   2.122   2.324  0.1141  0.0010 -0.0902
 9342SOL    HW139659   2.351   2.045   2.301 -0.5194 -0.2141 -0.8061
 9342SOL    HW239660   2.329   2.190   2.263 -2.6996  0.3626 -1.0616
 9343SOL     OW39661   2.068   2.187   2.676  0.1163 -0.4771 -0.2299
 9343SOL    HW139662   2.115   2.146   2.748  0.8993  0.8270  0.0181
 9343SOL    HW239663   2.087   2.122   2.609  1.3454  0.7086 -1.0411
 9344SOL     OW39664   1.455   1.800   9.040  0.0736 -0.0784  0.0295
 9344SOL    HW139665   1.542   1.838   9.028 -1.1601  2.6509 -0.3343
 9344SOL    HW239666   1.479   1.715   9.077 -0.3280  0.6127  1.9278
 9345SOL     OW39667   0.151   2.798   4.350  0.2845  0.5058 -0.2040
 9345SOL    HW139668   0.156   2.728   4.416 -0.1539 -0.2551 -0.9776
 9345SOL    HW239669   0.128   2.875   4.402  0.2076 -0.7016  1.5483
 9346SOL     OW39670   0.393   1.788  15.452  0.1619 -0.3535  0.4439
 9346SOL    HW139671   0.432   1.824  15.532 -1.0687 -1.9952  1.7696
 9346SOL    HW239672   0.434   1.702  15.460 -2.5973 -1.4593  3.0016
 9347SOL     OW39673   2.192   0.233   3.048 -0.2668 -0.3602  0.3739
 9347SOL    HW139674   2.187   0.174   2.973  1.0798 -1.6150  1.2969
 9347SOL    HW239675   2.275   0.280   3.043 -0.0556 -0.7595  0.1719
 9348SOL     OW39676   2.693   1.275   7.030 -0.0032 -0.2365  0.0134
 9348SOL    HW139677   2.776   1.320   7.014 -0.4191  1.3242  2.1842
 9348SOL    HW239678   2.655   1.316   7.108 -1.9806 -0.3092 -0.9059
 9349SOL     OW39679   4.386   4.164   1.540 -0.3486 -0.1651  0.3486
 9349SOL    HW139680   4.374   4.219   1.617  2.7065  2.7953 -1.2799
 9349SOL    HW239681   4.470   4.125   1.567  0.7520  0.0830 -2.7395
 9350SOL     OW39682   1.279   1.898   2.451  0.6441 -0.3838  0.1630
 9350SOL    HW139683   1.211   1.936   2.506  0.2874 -2.4025  1.1336
 9350SOL    HW239684   1.342   1.969   2.438  1.6435 -1.1054  1.0806
 9351SOL     OW39685   4.218   2.863  17.432  0.0386  0.1827  0.5916
 9351SOL    HW139686   4.221   2.933  17.497  3.2178  0.4941  0.1141
 9351SOL    HW239687   4.260   2.785  17.468 -0.1488 -0.4237 -0.4922
 9352SOL     OW39688   4.072   4.122   3.356 -0.0174 -0.1733  0.7559
 9352SOL    HW139689   4.064   4.217   3.345 -1.9730 -0.2006  1.8991
 9352SOL    HW239690   3.981   4.093   3.344 -0.0729  1.1683 -1.8881
 9353SOL     OW39691   3.381   1.786  15.839  0.0700 -0.1409  0.0118
 9353SOL    HW139692   3.387   1.741  15.755 -0.2512 -2.0088  0.9805
 9353SOL    HW239693   3.382   1.878  15.813 -1.2549 -0.1156  0.0449
 9354SOL     OW39694   0.259   4.368   5.518 -0.1812 -0.0483 -0.2300
 9354SOL    HW139695   0.326   4.367   5.450 -0.1270  1.1775 -0.1985
 9354SOL    HW239696   0.194   4.424   5.476  0.0825  0.1233 -0.4074
 9355SOL     OW39697   0.101   0.959   1.942  0.1484  0.2316  0.4983
 9355SOL    HW139698   0.039   0.942   2.013 -0.7218 -0.3460 -0.4168
 9355SOL    HW239699   0.048   1.031   1.908  0.1174 -0.0676 -0.0793
 9356SOL     OW39700   3.929   4.587   7.927 -0.3704  0.1837 -0.7664
 9356SOL    HW139701   3.966   4.507   7.965  0.7024 -0.2798 -2.7770
 9356SOL    HW239702   3.845   4.582   7.973 -0.3147  1.5404 -0.5382
 9357SOL     OW39703   2.350   0.612   5.184  0.2220 -0.2055  0.2394
 9357SOL    HW139704   2.380   0.532   5.227  0.7868 -0.5528 -0.7889
 9357SOL    HW239705   2.421   0.676   5.193  0.0634  0.3771 -2.6297
 9358SOL     OW39706   1.536   1.516   1.365 -0.4387 -0.2298  0.1286
 9358SOL    HW139707   1.451   1.509   1.322 -1.0855  1.6033  1.0825
 9358SOL    HW239708   1.580   1.447   1.316 -1.0089  0.5417 -1.4889
 9359SOL     OW39709   2.372   0.459   3.065  0.1066  0.4239  0.1197
 9359SOL    HW139710   2.434   0.464   3.138 -0.8239  2.2452  0.7851
 9359SOL    HW239711   2.438   0.441   2.997 -1.0483 -0.2228 -0.8330
 9360SOL     OW39712   4.581   2.426   2.983 -0.1652 -0.1511 -0.1593
 9360SOL    HW139713   4.515   2.363   2.956 -1.9321  0.4581  2.7680
 9360SOL    HW239714   4.539   2.499   2.936 -1.3763 -0.3409  0.6286
 9361SOL     OW39715   4.615   2.739   0.773  0.8410 -0.3415 -0.5893
 9361SOL    HW139716   4.529   2.696   0.771  1.2572 -1.1091 -1.5270
 9361SOL    HW239717   4.605   2.798   0.699  0.0923  1.7566  1.1739
 9362SOL     OW39718   0.895   0.012   7.274 -0.7842  0.0677  0.0359
 9362SOL    HW139719   0.894   4.696   7.194 -1.6939  2.1045 -1.3089
 9362SOL    HW239720   0.841   0.088   7.253 -0.4046  0.9889  2.4539
 9363SOL     OW39721   3.394   1.539   5.625 -0.0505  0.1540  0.0054
 9363SOL    HW139722   3.367   1.577   5.709 -1.3567  1.3930 -0.9639
 9363SOL    HW239723   3.487   1.531   5.642 -0.3672 -1.1507  1.0771
 9364SOL     OW39724   0.040   0.953   5.271 -0.0171 -0.4291 -0.5594
 9364SOL    HW139725   0.092   0.918   5.199  1.3371 -2.8431  1.6124
 9364SOL    HW239726   0.045   1.048   5.277  0.2480 -0.5156  0.5705
 9365SOL     OW39727   3.670   3.253   2.839  0.3219 -0.0979 -0.2367
 9365SOL    HW139728   3.752   3.254   2.889 -0.3718 -1.2308  0.9240
 9365SOL    HW239729   3.693   3.253   2.746  0.7756  0.3864 -0.1234
 9366SOL     OW39730   1.970   0.218  15.968 -0.0164 -0.5983  0.1047
 9366SOL    HW139731   1.965   0.188  15.877  1.2138  2.4456 -0.9523
 9366SOL    HW239732   1.959   0.310  15.946 -1.0105  0.0253  3.2323
 9367SOL     OW39733   2.211   1.200   2.521 -0.3989 -0.5328 -0.2830
 9367SOL    HW139734   2.170   1.187   2.435 -0.1458 -0.7596 -0.3690
 9367SOL    HW239735   2.191   1.290   2.543  0.8609 -0.7962  1.9010
 9368SOL     OW39736   0.693   0.416   5.934  0.3818 -0.0730  0.3331
 9368SOL    HW139737   0.703   0.345   5.997 -0.7603  0.8603  1.5516
 9368SOL    HW239738   0.779   0.458   5.940  0.2894  0.1269  0.2809
 9369SOL     OW39739   1.159   0.459   5.781 -0.3226  0.0565  0.1382
 9369SOL    HW139740   1.075   0.446   5.825 -0.2767  0.5183  0.3592
 9369SOL    HW239741   1.208   0.447   5.862  1.5753  1.6137 -0.7902
 9370SOL     OW39742   4.578   2.601   4.906 -0.3995  0.2993 -0.8523
 9370SOL    HW139743   4.528   2.556   4.838 -0.0619 -0.0008 -0.8969
 9370SOL    HW239744   4.671   2.582   4.894 -0.0201  1.7492 -0.3016
 9371SOL     OW39745   1.384   2.722   4.584  0.2634  0.6142  0.0045
 9371SOL    HW139746   1.365   2.659   4.653  2.0942  0.1867  0.1352
 9371SOL    HW239747   1.479   2.736   4.578  0.5598 -2.5988 -2.6964
 9372SOL     OW39748   2.797   1.990   3.746  0.1451 -0.0485  0.1800
 9372SOL    HW139749   2.732   2.031   3.689 -1.3693 -1.7384  0.6636
 9372SOL    HW239750   2.881   2.006   3.704  0.0411  3.3752  1.3512
 9373SOL     OW39751   0.662   0.564   9.526 -0.1598 -0.5098  0.2168
 9373SOL    HW139752   0.715   0.490   9.558  1.3867  0.8300  0.7211
 9373SOL    HW239753   0.689   0.559   9.435 -1.1375 -0.7266 -0.0573
 9374SOL     OW39754   0.794   3.379   5.958 -0.2488  0.1128  0.2017
 9374SOL    HW139755   0.792   3.415   6.046  1.6982  0.9895 -0.1157
 9374SOL    HW239756   0.878   3.334   5.948  0.3358  1.4552 -1.0003
 9375SOL     OW39757   1.609   1.826   9.369  0.1405 -0.1740  0.5135
 9375SOL    HW139758   1.562   1.752   9.407 -1.1634  0.4030  0.0134
 9375SOL    HW239759   1.678   1.778   9.323 -1.2428 -1.4324 -0.2507
 9376SOL     OW39760   0.696   1.051   2.375 -0.8147 -0.3105  0.2720
 9376SOL    HW139761   0.754   1.031   2.302 -0.5974  1.2817  0.0068
 9376SOL    HW239762   0.751   1.057   2.453 -0.6919 -0.2069  0.1771
 9377SOL     OW39763   0.759   0.647   6.904  0.4010 -0.1669 -0.4785
 9377SOL    HW139764   0.755   0.727   6.957  3.2575 -0.5971  0.3757
 9377SOL    HW239765   0.710   0.672   6.825  0.5255  0.8519 -0.2331
 9378SOL     OW39766   1.233   1.772   7.884  0.0219 -0.1201  0.1372
 9378SOL    HW139767   1.328   1.764   7.873 -0.0322 -1.5698  0.7202
 9378SOL    HW239768   1.241   1.804   7.974  1.2378 -0.6821  0.2345
 9379SOL     OW39769   3.844   1.201  12.668  0.1996 -0.3819 -0.7597
 9379SOL    HW139770   3.820   1.171  12.581 -2.8596  0.0731 -0.0575
 9379SOL    HW239771   3.838   1.120  12.718 -0.6533  0.6314  0.7848
 9380SOL     OW39772   2.495   2.958   2.340  0.0304 -0.3426 -0.0966
 9380SOL    HW139773   2.514   2.965   2.246 -2.2972 -0.9265 -0.6103
 9380SOL    HW239774   2.585   2.939   2.367 -1.2223 -3.2695  1.9443
 9381SOL     OW39775   2.697   1.421   0.060  0.0924  0.3425 -0.0901
 9381SOL    HW139776   2.653   1.354   0.111  0.1037  0.4457  0.0538
 9381SOL    HW239777   2.767   1.372   0.017 -1.1401 -0.7122 -0.9178
 9382SOL     OW39778   3.919   3.138   2.226 -0.0694 -0.7878 -0.3142
 9382SOL    HW139779   4.011   3.164   2.229 -0.8628  1.9351  0.4735
 9382SOL    HW239780   3.895   3.168   2.139 -1.8915  1.2983  0.8995
 9383SOL     OW39781   0.448   2.837  16.306 -0.1275 -0.2780 -0.1834
 9383SOL    HW139782   0.373   2.782  16.283 -1.6496  0.9278  1.9384
 9383SOL    HW239783   0.510   2.764  16.318  1.9536  1.6914  0.9584
 9384SOL     OW39784   2.028   0.789   1.414 -0.0096 -0.0174  0.1970
 9384SOL    HW139785   2.019   0.742   1.332 -0.4059  1.4782 -0.6259
 9384SOL    HW239786   1.979   0.723   1.464 -1.6096  1.4343  0.5880
 9385SOL     OW39787   0.613   0.816   3.590 -0.4438 -0.1044  0.4988
 9385SOL    HW139788   0.660   0.734   3.573 -0.6916  0.0883 -1.1483
 9385SOL    HW239789   0.676   0.862   3.645  0.4709 -0.1682 -0.4935
 9386SOL     OW39790   0.352   2.057   7.782  0.7695  0.7583  0.0720
 9386SOL    HW139791   0.420   2.095   7.727 -0.9461  0.6750 -2.1403
 9386SOL    HW239792   0.341   2.117   7.856 -0.6064  1.1286 -0.4188
 9387SOL     OW39793   4.611   4.473   8.842  0.3231  0.5675  0.1397
 9387SOL    HW139794   4.570   4.448   8.925  1.5132 -0.1230  0.5129
 9387SOL    HW239795   4.695   4.430   8.861  0.1685  0.0018 -0.4602
 9388SOL     OW39796   4.726   0.004   2.611  0.0845  0.4128  0.1575
 9388SOL    HW139797   0.082   0.028   2.610 -0.3097  1.9225 -0.4731
 9388SOL    HW239798   4.709   4.735   2.705 -1.3653 -0.0966 -0.1483
 9389SOL     OW39799   1.144   4.206  11.236 -0.3486  0.7361 -0.0385
 9389SOL    HW139800   1.203   4.131  11.247 -0.0118  1.2685  1.8295
 9389SOL    HW239801   1.073   4.162  11.189  1.4010 -1.6207 -0.4584
 9390SOL     OW39802   2.195   3.403   9.177 -0.2682 -0.0038 -0.6189
 9390SOL    HW139803   2.106   3.409   9.142 -1.3664  0.2616  2.1480
 9390SOL    HW239804   2.202   3.490   9.217  1.6874 -0.9641  1.0710
 9391SOL     OW39805   3.809   1.713   5.816  0.0424  0.1316  0.2171
 9391SOL    HW139806   3.881   1.766   5.783 -0.3004 -1.3400 -2.8690
 9391SOL    HW239807   3.783   1.756   5.898 -2.0905 -2.4955  0.9316
 9392SOL     OW39808   3.279   1.384   2.870  0.4394 -0.2320 -0.2819
 9392SOL    HW139809   3.191   1.407   2.899  1.3576  3.1814 -0.2529
 9392SOL    HW239810   3.265   1.310   2.810 -0.2505 -0.1245 -0.2551
 9393SOL     OW39811   1.943   0.768   4.907  0.9000 -0.1705  0.0876
 9393SOL    HW139812   1.946   0.768   5.003 -2.5247  2.4088  0.2195
 9393SOL    HW239813   1.905   0.681   4.893  1.3583 -0.2738 -0.4893
 9394SOL     OW39814   0.970   3.070   8.127 -0.1368  0.5058 -0.6462
 9394SOL    HW139815   1.064   3.080   8.115  0.1163 -2.2295 -0.8466
 9394SOL    HW239816   0.967   3.052   8.221 -2.5293 -0.8340 -0.9796
 9395SOL     OW39817   4.679   1.000  12.235  0.3010  0.4590  0.1514
 9395SOL    HW139818   4.601   1.028  12.282  0.4554 -2.6063  2.2221
 9395SOL    HW239819   4.691   1.066  12.167 -0.1468  0.9915  0.5959
 9396SOL     OW39820   2.330   2.925   3.966  0.0822 -0.0454  0.9170
 9396SOL    HW139821   2.359   2.849   4.017 -2.5235 -2.1225 -0.6533
 9396SOL    HW239822   2.318   3.004   4.019 -0.3880  0.0120  0.7220
 9397SOL     OW39823   2.341   1.897   9.038  0.1483  0.0863 -0.3693
 9397SOL    HW139824   2.404   1.965   9.016  0.4646  0.1915  0.8902
 9397SOL    HW239825   2.262   1.951   9.045  0.8186  0.8529  1.1312
 9398SOL     OW39826   3.730   0.259   2.056  0.1852 -0.0779  0.1279
 9398SOL    HW139827   3.777   0.207   2.121 -1.4259  1.5898  2.6253
 9398SOL    HW239828   3.802   0.302   2.011  0.4025  1.2463  1.7412
 9399SOL     OW39829   2.803   1.755  17.571  0.1887 -0.4293  0.1777
 9399SOL    HW139830   2.896   1.745  17.552  0.3094  0.8810  0.0311
 9399SOL    HW239831   2.782   1.705  17.650  3.7319 -0.9382  0.7951
 9400SOL     OW39832   0.140   3.055   0.909  0.5608 -0.1950  0.0473
 9400SOL    HW139833   0.119   2.962   0.908 -1.3888  0.2588  0.4488
 9400SOL    HW239834   0.151   3.070   1.003  2.4332 -0.8065 -0.0605
 9401SOL     OW39835   4.339   0.435   6.055  0.1101 -0.3905 -0.4950
 9401SOL    HW139836   4.421   0.448   6.103 -0.9237  2.7248  0.4408
 9401SOL    HW239837   4.311   0.354   6.097  0.2605 -0.1328  0.1099
 9402SOL     OW39838   3.690   3.023   6.642 -0.5921 -0.0184 -0.4148
 9402SOL    HW139839   3.758   3.049   6.705 -1.1562 -1.9259  0.9673
 9402SOL    HW239840   3.683   3.095   6.579 -1.1456  0.7194  0.4825
 9403SOL     OW39841   1.619   2.782   5.688 -0.3627  0.5725  1.2950
 9403SOL    HW139842   1.701   2.819   5.721  1.8189  0.1378 -3.7113
 9403SOL    HW239843   1.582   2.867   5.664 -2.2269 -0.4290  0.6555
 9404SOL     OW39844   2.224   3.217   5.779  0.7301  0.2440  0.0226
 9404SOL    HW139845   2.292   3.272   5.817 -2.1037  2.5086  1.7824
 9404SOL    HW239846   2.180   3.192   5.860 -1.1783  1.1281 -0.7198
 9405SOL     OW39847   1.467   4.562   4.353 -0.4390 -0.0241  0.0577
 9405SOL    HW139848   1.384   4.515   4.364 -0.4597 -0.3679 -1.5367
 9405SOL    HW239849   1.478   4.575   4.259  0.8496  1.3030  0.3895
 9406SOL     OW39850   0.582   2.655  15.104 -0.1336 -0.4255 -0.1274
 9406SOL    HW139851   0.601   2.659  15.010  5.3467  1.1906  1.0233
 9406SOL    HW239852   0.561   2.563  15.117 -0.5068  0.0624  2.7815
 9407SOL     OW39853   2.118   3.269   3.705 -0.6033  0.2040  0.2699
 9407SOL    HW139854   2.162   3.222   3.634 -1.2043  0.2829 -0.1515
 9407SOL    HW239855   2.043   3.309   3.661  0.5024  0.9014 -0.9657
 9408SOL     OW39856   3.028   0.044   7.902  0.7462  0.1500  0.0939
 9408SOL    HW139857   2.949   4.729   7.889 -1.5725  3.4663  0.9041
 9408SOL    HW239858   3.031   0.104   7.827 -0.8474  0.8693  0.6282
 9409SOL     OW39859   2.901   2.461  10.504  0.5660 -0.0318 -0.3628
 9409SOL    HW139860   2.880   2.554  10.511  1.3849  0.0583  1.0343
 9409SOL    HW239861   2.983   2.458  10.454  0.2142  2.5160 -1.0636
 9410SOL     OW39862   4.712   1.801  10.695  0.8700 -0.0010 -0.4153
 9410SOL    HW139863   0.066   1.777  10.709  0.4810 -0.0874  2.0161
 9410SOL    HW239864   4.721   1.896  10.703 -1.0204 -0.1374  3.1957
 9411SOL     OW39865   3.179   4.475   6.795  0.1574 -0.1436 -0.0847
 9411SOL    HW139866   3.168   4.549   6.737  1.4571  0.6556  0.6912
 9411SOL    HW239867   3.129   4.412   6.743 -0.1339  1.0722 -1.2768
 9412SOL     OW39868   0.448   0.861   6.318  0.5178 -0.1915  0.0392
 9412SOL    HW139869   0.357   0.889   6.330  0.9330  1.4069 -0.5207
 9412SOL    HW239870   0.451   0.794   6.386  1.1732 -0.2408 -0.0398
 9413SOL     OW39871   0.424   1.129  16.199  0.0638 -0.0164 -0.0590
 9413SOL    HW139872   0.399   1.179  16.277 -0.2776  1.0442 -0.8538
 9413SOL    HW239873   0.444   1.205  16.145  3.0779 -0.5495  0.2857
 9414SOL     OW39874   2.360   0.018  10.060  0.1008 -0.2357  0.3540
 9414SOL    HW139875   2.301   0.077  10.013  1.4603 -1.0497 -2.3388
 9414SOL    HW239876   2.323   4.667  10.052  1.2287 -0.7844  1.2616
 9415SOL     OW39877   0.741   2.786   7.131  0.1545 -0.2888 -0.3402
 9415SOL    HW139878   0.733   2.875   7.165 -1.0478  0.2312 -1.9738
 9415SOL    HW239879   0.832   2.782   7.100  0.3497 -2.2692  0.4716
 9416SOL     OW39880   4.611   4.468  15.947 -0.1473 -0.0955  0.2659
 9416SOL    HW139881   4.646   4.423  15.870 -3.3004 -4.5095  1.4021
 9416SOL    HW239882   4.520   4.440  15.942  0.4853 -1.7008 -2.4315
 9417SOL     OW39883   1.416   1.598   8.138 -0.0521 -0.4553  0.6471
 9417SOL    HW139884   1.425   1.537   8.065  0.6606 -1.9610  1.9950
 9417SOL    HW239885   1.493   1.654   8.124  0.1324 -0.9493 -0.3228
 9418SOL     OW39886   3.115   3.226   3.376  0.3705 -0.7129  0.2772
 9418SOL    HW139887   3.054   3.259   3.443  0.8410  1.1667 -0.2109
 9418SOL    HW239888   3.190   3.282   3.395  0.9133 -1.6493  0.8693
 9419SOL     OW39889   1.348   1.389   6.628 -0.7049  0.1180 -0.8681
 9419SOL    HW139890   1.402   1.376   6.706 -0.0185 -0.3456 -1.4199
 9419SOL    HW239891   1.267   1.359   6.668 -1.2818  1.1560 -1.2752
 9420SOL     OW39892   2.577   2.406   4.859  0.0412  0.1777 -0.2234
 9420SOL    HW139893   2.578   2.344   4.786 -0.3949  0.0774 -0.1461
 9420SOL    HW239894   2.671   2.416   4.874  0.0713  1.4998 -1.2285
 9421SOL     OW39895   1.508   0.365   5.007  0.1986 -0.3055 -0.0629
 9421SOL    HW139896   1.418   0.338   4.989  0.0512 -0.6343  1.1880
 9421SOL    HW239897   1.501   0.449   4.960  0.1181 -1.4755 -2.1538
 9422SOL     OW39898   3.078   2.164   8.923 -0.1680 -0.2179 -0.4742
 9422SOL    HW139899   3.102   2.131   9.010 -1.9246 -1.5744 -0.4943
 9422SOL    HW239900   3.121   2.249   8.932  0.8314 -0.5443 -2.1970
 9423SOL     OW39901   3.880   3.550  14.638  0.5407  0.2677 -0.7288
 9423SOL    HW139902   3.959   3.497  14.652  0.0658 -0.3737 -0.4536
 9423SOL    HW239903   3.862   3.594  14.720  2.1279  1.7804 -1.2100
 9424SOL     OW39904   2.163   3.903   2.891  0.1126 -0.2317 -0.2015
 9424SOL    HW139905   2.258   3.913   2.882  0.1465 -1.3588 -1.0990
 9424SOL    HW239906   2.125   3.988   2.912 -0.4702 -1.1036  2.3393
 9425SOL     OW39907   1.304   4.696  15.199  0.2026  0.2324  0.1963
 9425SOL    HW139908   1.343   4.648  15.272 -0.4827 -0.3067  0.2063
 9425SOL    HW239909   1.343   4.643  15.130  2.4073  0.1892  1.4522
 9426SOL     OW39910   4.681   1.533   8.417  0.3541  0.7643 -0.4130
 9426SOL    HW139911   4.602   1.483   8.434  0.4657  0.3389 -1.1493
 9426SOL    HW239912   0.010   1.463   8.413 -2.6644 -2.0905 -0.4142
 9427SOL     OW39913   3.470   2.232   5.812  0.2248  0.3687  0.4273
 9427SOL    HW139914   3.495   2.156   5.758  3.9664  1.0748  1.1483
 9427SOL    HW239915   3.377   2.233   5.791  0.0293  0.7201  1.2923
 9428SOL     OW39916   1.577   1.091   1.075  0.0285  0.9107  0.2567
 9428SOL    HW139917   1.594   1.130   1.161  1.9161 -2.1736  1.3024
 9428SOL    HW239918   1.481   1.093   1.071 -0.0519 -0.2825  1.4033
 9429SOL     OW39919   2.269   0.074  16.684  0.1238 -0.2949  0.3076
 9429SOL    HW139920   2.270   0.006  16.617 -2.0093  1.0258 -1.0632
 9429SOL    HW239921   2.266   0.018  16.762 -2.3412 -1.5206 -0.6237
 9430SOL     OW39922   3.730   2.507   6.912  0.0359 -0.2079  0.0081
 9430SOL    HW139923   3.757   2.501   6.820 -0.6589 -2.2266 -0.0625
 9430SOL    HW239924   3.719   2.414   6.934  0.1370 -0.4474 -0.9518
 9431SOL     OW39925   4.375   4.608   5.508 -0.0213 -0.5294 -0.0224
 9431SOL    HW139926   4.469   4.592   5.500  0.4251  2.2532 -0.6117
 9431SOL    HW239927   4.371   4.684   5.566 -0.7323 -0.8859  0.3904
 9432SOL     OW39928   0.354   2.726  15.727 -0.2958  0.6236  0.3480
 9432SOL    HW139929   0.303   2.796  15.686 -1.2284  0.3361  1.0484
 9432SOL    HW239930   0.410   2.706  15.651 -0.2389 -2.1189  1.1252
 9433SOL     OW39931   2.427   2.822  15.701 -0.0288  0.1022 -0.6315
 9433SOL    HW139932   2.361   2.803  15.768  1.0660  0.4124  0.5447
 9433SOL    HW239933   2.375   2.825  15.621 -1.5345 -0.6889  0.3278
 9434SOL     OW39934   2.801   0.001   4.653  0.0596  0.2441  0.0225
 9434SOL    HW139935   2.861   0.008   4.579 -0.6399  0.0998 -0.5688
 9434SOL    HW239936   2.794   4.643   4.660 -1.2356  0.3434  0.0423
 9435SOL     OW39937   0.056   4.061   9.193 -0.2865  0.1597 -0.0120
 9435SOL    HW139938   0.013   3.977   9.204  1.4728 -1.1114 -2.8375
 9435SOL    HW239939   4.718   4.119   9.182 -1.4622 -1.5038 -0.7102
 9436SOL     OW39940   1.255   1.110   6.808  0.1845  0.4449 -0.0931
 9436SOL    HW139941   1.197   1.181   6.836  0.7850  1.8008 -2.2960
 9436SOL    HW239942   1.193   1.082   6.740  0.2609 -1.2747  0.5624
 9437SOL     OW39943   3.392   4.523   7.860 -0.3346  0.2925  0.1682
 9437SOL    HW139944   3.376   4.468   7.783 -2.2311  1.1772 -0.0845
 9437SOL    HW239945   3.463   4.471   7.897 -0.2755 -0.5424 -1.1363
 9438SOL     OW39946   3.370   3.104   7.767 -0.0131 -0.1905 -0.1261
 9438SOL    HW139947   3.291   3.084   7.819 -0.6586  0.0023 -1.0357
 9438SOL    HW239948   3.412   3.164   7.829 -0.3198  2.6375 -2.6831
 9439SOL     OW39949   2.183   0.207   6.353  0.1477  0.3034  0.0950
 9439SOL    HW139950   2.230   0.130   6.318 -1.5795 -1.0335  0.7423
 9439SOL    HW239951   2.260   0.256   6.382  0.6249 -0.2444 -0.2207
 9440SOL     OW39952   1.487   3.924   3.850  0.2238 -0.3533 -0.5497
 9440SOL    HW139953   1.436   3.957   3.924  0.3744 -0.4495 -0.4046
 9440SOL    HW239954   1.506   4.006   3.804 -1.9606 -1.0914 -2.7309
 9441SOL     OW39955   4.421   2.232  11.217  0.1533 -0.1568  0.1333
 9441SOL    HW139956   4.371   2.177  11.277 -0.2715  0.9554  0.7914
 9441SOL    HW239957   4.505   2.187  11.209 -0.1829 -0.4723 -1.8206
 9442SOL     OW39958   1.465   1.152   1.997  0.2211  0.1784 -0.4828
 9442SOL    HW139959   1.533   1.086   1.993  0.7027  0.7130 -1.1750
 9442SOL    HW239960   1.440   1.154   1.904  0.0937  3.8154 -0.3748
 9443SOL     OW39961   1.786   0.867  12.938  0.6339 -0.0646 -0.1468
 9443SOL    HW139962   1.761   0.779  12.966 -3.6481  1.1865  0.0247
 9443SOL    HW239963   1.860   0.844  12.881  0.9562 -1.6181  0.8952
 9444SOL     OW39964   1.571   1.163   8.844 -0.2995  0.4830 -0.0393
 9444SOL    HW139965   1.518   1.225   8.895 -0.2945  0.3188  0.1636
 9444SOL    HW239966   1.503   1.111   8.801 -0.0024 -0.0921  0.1999
 9445SOL     OW39967   2.201   0.879   0.690 -0.3065  0.5504 -0.0813
 9445SOL    HW139968   2.115   0.891   0.730 -0.8488 -2.1974 -0.4371
 9445SOL    HW239969   2.256   0.837   0.756  2.2407 -0.8079 -3.0665
 9446SOL     OW39970   1.000   4.079   4.230  0.1451  0.3286  0.1681
 9446SOL    HW139971   1.034   4.123   4.152 -1.4554  2.8115  0.8974
 9446SOL    HW239972   1.057   4.116   4.298 -0.7933 -0.8658  1.6070
 9447SOL     OW39973   1.596   3.069   0.087  0.4524 -0.7113  0.0167
 9447SOL    HW139974   1.550   3.054   0.170 -0.5715 -1.0138 -0.5901
 9447SOL    HW239975   1.520   3.084   0.029 -0.4534 -0.6776  1.2106
 9448SOL     OW39976   3.148   1.651  12.496  0.0485  0.4437  0.1475
 9448SOL    HW139977   3.227   1.610  12.531 -0.0736  0.3918  0.3604
 9448SOL    HW239978   3.115   1.705  12.568  0.4370  0.4550  0.3132
 9449SOL     OW39979   2.855   0.318   5.440  0.1345  0.1916  0.3390
 9449SOL    HW139980   2.913   0.316   5.515  0.1629  0.4773  0.3241
 9449SOL    HW239981   2.917   0.358   5.379 -1.0662 -0.4776 -1.3226
 9450SOL     OW39982   1.649   4.229   5.528  0.2900 -0.5169  0.0481
 9450SOL    HW139983   1.558   4.200   5.519  0.1804 -0.3369  0.6045
 9450SOL    HW239984   1.688   4.201   5.445  2.4919  0.8308  0.6173
 9451SOL     OW39985   4.303   0.773   8.916  0.2495  0.0142  0.7014
 9451SOL    HW139986   4.398   0.759   8.911  0.4928  2.2736 -0.6600
 9451SOL    HW239987   4.299   0.862   8.883 -0.7277  0.2744  1.5132
 9452SOL     OW39988   3.028   0.786   1.823  0.2842 -0.3068 -0.0721
 9452SOL    HW139989   2.986   0.835   1.752 -0.4501  0.0242  0.5954
 9452SOL    HW239990   3.095   0.847   1.854 -0.6445  0.0371  1.2439
 9453SOL     OW39991   4.402   1.720   5.609  0.2096 -0.3923  0.4534
 9453SOL    HW139992   4.405   1.810   5.641 -0.3782  0.2642 -1.3454
 9453SOL    HW239993   4.359   1.732   5.524 -2.1049 -0.1467  1.6604
 9454SOL     OW39994   1.700   0.369   2.449  0.6989  0.0051  0.1600
 9454SOL    HW139995   1.670   0.293   2.498  0.6537  0.4439  0.8122
 9454SOL    HW239996   1.785   0.375   2.492  0.3219 -0.1400  0.9313
 9455SOL     OW39997   0.614   3.857   7.511 -0.0542  0.0971  0.2513
 9455SOL    HW139998   0.626   3.783   7.571 -0.8419  0.8614  1.3507
 9455SOL    HW239999   0.553   3.914   7.557 -1.8691 -1.1929 -0.5634
 9456SOL     OW40000   4.506   4.295  16.656  0.6513  0.4136  0.0537
 9456SOL    HW140001   4.426   4.253  16.687  0.5303  0.5551 -0.0653
 9456SOL    HW240002   4.568   4.228  16.682 -1.3889 -0.9115  1.5063
 9457SOL     OW40003   0.079   1.089   4.609 -0.0881  0.1424 -0.5405
 9457SOL    HW140004   0.161   1.136   4.595  1.4823 -2.1963  1.0115
 9457SOL    HW240005   0.095   1.006   4.563 -0.2041  1.2415 -2.5851
 9458SOL     OW40006   4.718   0.269   7.678  0.1018  0.5395 -0.7906
 9458SOL    HW140007   0.010   0.299   7.593 -2.0516  2.2142 -0.9361
 9458SOL    HW240008   4.642   0.220   7.648  2.5302 -2.5005 -1.9907
 9459SOL     OW40009   2.540   4.706   3.633  0.3224  0.4569 -0.2291
 9459SOL    HW140010   2.567   0.030   3.701  0.0525 -1.2358  1.3934
 9459SOL    HW240011   2.493   4.640   3.684  2.1320  0.1945  1.0963
 9460SOL     OW40012   3.868   1.776  12.827  0.5302 -0.3837  0.0088
 9460SOL    HW140013   3.845   1.846  12.888 -0.9816 -0.5548 -0.3713
 9460SOL    HW240014   3.781   1.767  12.789  0.4770 -1.2740  0.3306
 9461SOL     OW40015   3.526   1.154  13.550 -0.4361  0.1892  0.2055
 9461SOL    HW140016   3.432   1.142  13.535 -0.1105 -0.8165 -0.9924
 9461SOL    HW240017   3.576   1.089  13.500  1.7344  1.7607  0.2993
 9462SOL     OW40018   2.690   3.960  11.163 -0.0710  0.1085  0.4192
 9462SOL    HW140019   2.708   4.049  11.134  1.1191 -0.3851 -0.3644
 9462SOL    HW240020   2.628   3.926  11.098 -0.4982  1.0372  0.3480
 9463SOL     OW40021   2.305   2.436   4.658  0.7791 -0.0367  0.0366
 9463SOL    HW140022   2.277   2.450   4.568 -1.7387  0.1272  0.8532
 9463SOL    HW240023   2.399   2.456   4.659  0.3286  2.0121  0.2026
 9464SOL     OW40024   1.823   1.007   3.959  0.0138  0.0799  0.3321
 9464SOL    HW140025   1.799   0.941   4.024 -0.5555 -1.5736 -1.5348
 9464SOL    HW240026   1.908   0.973   3.934 -1.2188 -1.4005 -1.8674
 9465SOL     OW40027   2.816   3.607   2.238 -0.3180  0.2277  0.4754
 9465SOL    HW140028   2.875   3.637   2.168 -1.0619 -1.3269 -0.8173
 9465SOL    HW240029   2.881   3.604   2.308  0.4526  2.4018 -0.1426
 9466SOL     OW40030   4.567   3.456   0.987 -0.3131  0.0041 -0.2784
 9466SOL    HW140031   4.656   3.432   0.960 -0.4918  0.0209 -0.8915
 9466SOL    HW240032   4.522   3.372   0.980  1.2246 -0.7166 -1.6810
 9467SOL     OW40033   2.514   3.814   5.682  0.1034  0.9444  0.2198
 9467SOL    HW140034   2.478   3.796   5.769  0.1587  0.2356  0.0982
 9467SOL    HW240035   2.578   3.885   5.681 -1.4422  2.3605  1.8034
 9468SOL     OW40036   3.862   1.011  15.356 -0.2938  0.4947  0.0605
 9468SOL    HW140037   3.934   0.971  15.308  0.4305  3.1645 -1.0728
 9468SOL    HW240038   3.855   0.947  15.427  0.1053 -1.1036 -1.3387
 9469SOL     OW40039   3.152   4.560   7.069 -0.1637  0.0510  0.7959
 9469SOL    HW140040   3.092   4.578   6.997  0.1417 -0.8852  0.3008
 9469SOL    HW240041   3.233   4.536   7.023  0.5054  2.2288  0.8245
 9470SOL     OW40042   3.636   1.510   5.724 -0.0820  0.0891 -0.3325
 9470SOL    HW140043   3.617   1.485   5.814 -0.2962  0.1096 -0.3713
 9470SOL    HW240044   3.701   1.579   5.739  2.8359 -2.4366 -1.2462
 9471SOL     OW40045   3.754   0.110   6.389 -0.2482  0.7464 -0.3101
 9471SOL    HW140046   3.729   0.178   6.326 -0.2144 -1.5245 -2.7968
 9471SOL    HW240047   3.684   0.051   6.413  0.4252  0.0974  0.0542
 9472SOL     OW40048   0.838   2.464   3.520  0.2301  0.7803  0.0781
 9472SOL    HW140049   0.746   2.442   3.501  0.4807 -1.7688  1.9206
 9472SOL    HW240050   0.847   2.401   3.591 -0.1060  2.6179  1.7553
 9473SOL     OW40051   0.575   2.707   8.143 -0.0873  0.3822  0.1724
 9473SOL    HW140052   0.608   2.628   8.100  0.5152  0.6110  0.2136
 9473SOL    HW240053   0.650   2.763   8.122 -0.7757  1.0000 -0.6247
 9474SOL     OW40054   3.483   0.533  10.467  0.1245 -0.3977 -0.5311
 9474SOL    HW140055   3.412   0.595  10.484  1.3101  0.8621 -0.2022
 9474SOL    HW240056   3.522   0.529  10.554  0.9400  2.3602 -0.7788
 9475SOL     OW40057   0.456   4.335   6.214 -0.1236  0.0776 -0.1795
 9475SOL    HW140058   0.415   4.421   6.217  1.2017  0.7540 -1.2826
 9475SOL    HW240059   0.418   4.292   6.138  1.0614 -1.3930  0.0521
 9476SOL     OW40060   0.680   0.843   5.259  0.4162 -0.0367 -0.1064
 9476SOL    HW140061   0.668   0.760   5.305 -1.3594 -0.6499 -1.7084
 9476SOL    HW240062   0.607   0.891   5.298 -1.4168 -1.9182 -1.2388
 9477SOL     OW40063   0.452   2.455   9.168  1.0230 -0.3594 -0.1467
 9477SOL    HW140064   0.524   2.499   9.123  1.0374 -0.6379 -0.3921
 9477SOL    HW240065   0.438   2.385   9.105 -0.3270 -1.7646  1.7405
 9478SOL     OW40066   0.882   0.222   8.377 -0.4173 -0.2454 -0.5489
 9478SOL    HW140067   0.939   0.299   8.369  1.5330 -1.5075  1.3009
 9478SOL    HW240068   0.914   0.192   8.462  2.3657 -0.0599 -1.5265
 9479SOL     OW40069   0.901   2.669   2.896 -0.3539 -0.7033 -0.2717
 9479SOL    HW140070   0.993   2.654   2.873 -1.0400  0.2906 -3.7725
 9479SOL    HW240071   0.885   2.600   2.960 -0.1053 -0.6297 -0.1326
 9480SOL     OW40072   0.807   0.526   3.305  0.3825 -0.4590 -0.0499
 9480SOL    HW140073   0.882   0.470   3.325  2.3015  1.6577 -1.2724
 9480SOL    HW240074   0.738   0.466   3.279  1.1437 -2.0057  1.5390
 9481SOL     OW40075   4.003   4.604  17.135 -0.4630  0.0049 -0.1755
 9481SOL    HW140076   3.939   4.554  17.084 -0.6409  0.4028 -0.3404
 9481SOL    HW240077   3.974   4.590  17.225  0.8765 -0.5683  0.1732
 9482SOL     OW40078   3.444   3.547  17.048 -0.6039  0.1271  0.3083
 9482SOL    HW140079   3.381   3.531  17.118  0.3543  0.9528  1.3545
 9482SOL    HW240080   3.389   3.573  16.974 -0.1190  0.8483  0.1990
 9483SOL     OW40081   0.939   0.338   4.877  0.1186  0.0042  0.0725
 9483SOL    HW140082   1.013   0.397   4.859 -0.3736  0.7050  0.3586
 9483SOL    HW240083   0.880   0.386   4.820  0.6652  1.1559  0.4735
 9484SOL     OW40084   0.461   0.994   6.925 -0.1842 -0.1239  0.2412
 9484SOL    HW140085   0.429   1.083   6.910 -2.5889 -0.8374  1.0804
 9484SOL    HW240086   0.463   0.985   7.020 -0.8913 -1.2422  0.1603
 9485SOL     OW40087   2.273   3.362   0.353 -0.2237 -0.2816 -0.4563
 9485SOL    HW140088   2.291   3.271   0.331 -2.7410 -1.0889  0.7569
 9485SOL    HW240089   2.338   3.380   0.421 -1.6507  0.7478  0.6301
 9486SOL     OW40090   3.649   2.659   5.467  0.1003 -0.1256  0.8125
 9486SOL    HW140091   3.647   2.737   5.411 -0.8206  0.9447  2.3353
 9486SOL    HW240092   3.619   2.693   5.551 -0.0056 -0.0802  0.7572
 9487SOL     OW40093   2.710   1.816   5.867  0.1870  0.1543  0.0923
 9487SOL    HW140094   2.707   1.722   5.848 -0.4449  0.5593 -1.7970
 9487SOL    HW240095   2.743   1.852   5.785  2.4819 -0.2802  0.8367
 9488SOL     OW40096   3.748   0.540  10.482  0.4249  0.1964 -0.2432
 9488SOL    HW140097   3.660   0.575  10.464  0.6374 -0.2139 -2.0716
 9488SOL    HW240098   3.784   0.549  10.394  0.8883  0.5283 -0.0198
 9489SOL     OW40099   4.444   2.510   5.140  0.2591 -0.3538 -0.1658
 9489SOL    HW140100   4.498   2.524   5.063  0.2345  1.2080  0.1074
 9489SOL    HW240101   4.455   2.415   5.142 -1.0061 -0.4659  1.7995
 9490SOL     OW40102   2.905   3.152   6.444 -0.2196 -0.2073 -0.0786
 9490SOL    HW140103   2.906   3.071   6.392 -3.3122 -0.6804  0.6216
 9490SOL    HW240104   2.970   3.209   6.402  0.5645 -0.8878  0.1947
 9491SOL     OW40105   1.950   1.085  17.171 -0.2651  0.5156 -0.3108
 9491SOL    HW140106   1.990   1.050  17.092  1.4341  1.6433  0.0476
 9491SOL    HW240107   2.026   1.093  17.229 -0.3820  3.0370 -0.4927
 9492SOL     OW40108   4.118   0.377   4.843 -0.4345 -0.3191  0.2247
 9492SOL    HW140109   4.026   0.378   4.869 -0.0365  1.5170  1.5820
 9492SOL    HW240110   4.170   0.382   4.923 -1.9391  2.1186  1.0636
 9493SOL     OW40111   0.380   0.806  10.127 -0.0793  0.1599 -0.2529
 9493SOL    HW140112   0.311   0.775  10.185  0.4967  0.4123  0.5546
 9493SOL    HW240113   0.440   0.848  10.188 -0.4614 -0.6243  0.6516
 9494SOL     OW40114   3.174   2.324   6.498  0.1697  0.0778  0.6181
 9494SOL    HW140115   3.225   2.318   6.579 -0.3515 -2.1475  0.7998
 9494SOL    HW240116   3.199   2.413   6.474  3.0391 -0.6852  0.8241
 9495SOL     OW40117   4.213   1.849   9.926  0.0501  0.0721 -0.0475
 9495SOL    HW140118   4.235   1.771   9.976 -0.3629  0.9578  1.5266
 9495SOL    HW240119   4.194   1.903  10.003  1.0185 -0.5806  0.6498
 9496SOL     OW40120   4.511   2.048   8.389  0.3111  0.2249  0.3118
 9496SOL    HW140121   4.435   1.990   8.395 -0.1969  0.9649  1.0062
 9496SOL    HW240122   4.583   1.993   8.420 -1.4708 -1.3267  1.6823
 9497SOL     OW40123   1.588   3.152   2.697 -0.2597 -0.2648 -0.2949
 9497SOL    HW140124   1.596   3.078   2.757  0.0293  1.7350  2.1393
 9497SOL    HW240125   1.554   3.123   2.612  0.8977  1.5359 -1.3758
 9498SOL     OW40126   4.066   1.109  13.401  0.5165 -0.0341 -0.3349
 9498SOL    HW140127   3.989   1.117  13.458  1.5358  1.4693  0.8213
 9498SOL    HW240128   4.047   1.043  13.335  4.9366 -0.6027 -1.0202
 9499SOL     OW40129   2.111   2.876   7.977 -0.3050 -0.1177 -0.3736
 9499SOL    HW140130   2.036   2.819   7.994 -1.3585  1.5577  0.5291
 9499SOL    HW240131   2.181   2.811   7.978 -2.6905 -2.6725  1.1433
 9500SOL     OW40132   3.312   3.365  15.837 -0.2487  0.0760 -0.2426
 9500SOL    HW140133   3.366   3.405  15.905 -1.1866 -3.8933  2.7728
 9500SOL    HW240134   3.230   3.353  15.884  0.1495  0.3435  0.5202
 9501SOL     OW40135   2.793   0.012   2.401 -0.3624 -0.1019  0.0179
 9501SOL    HW140136   2.836   0.061   2.331  2.8862 -0.1279  1.9696
 9501SOL    HW240137   2.853   0.024   2.475 -0.4881  0.3872  0.0421
 9502SOL     OW40138   4.174   0.969   6.976  0.2611 -0.1515  0.3587
 9502SOL    HW140139   4.128   1.021   7.042  0.0256  1.2866 -0.9572
 9502SOL    HW240140   4.144   1.011   6.896  1.5336  0.9008  0.4456
 9503SOL     OW40141   3.712   4.382   5.458 -0.4363  0.4098 -0.6194
 9503SOL    HW140142   3.778   4.337   5.511  0.8947  0.7673 -1.9583
 9503SOL    HW240143   3.767   4.426   5.393  1.0725 -0.9941 -0.2988
 9504SOL     OW40144   1.149   1.717   4.242 -0.5968 -0.1352 -0.2332
 9504SOL    HW140145   1.075   1.658   4.227 -0.0938 -0.3877 -1.6602
 9504SOL    HW240146   1.101   1.795   4.272 -0.9487 -0.1013 -0.8945
 9505SOL     OW40147   0.955   1.965   2.209  0.3306 -0.0656  0.2728
 9505SOL    HW140148   1.010   1.886   2.211  0.1676 -0.1402  2.5030
 9505SOL    HW240149   0.955   1.972   2.114 -3.4389 -1.5349  0.1710
 9506SOL     OW40150   1.536   2.748   0.555 -0.3479 -0.2852 -0.0879
 9506SOL    HW140151   1.557   2.713   0.641 -2.4069 -0.9024  0.1482
 9506SOL    HW240152   1.451   2.711   0.530 -0.0686  0.5251 -2.2818
 9507SOL     OW40153   1.376   1.646  12.072  0.0630 -0.1852 -0.0099
 9507SOL    HW140154   1.298   1.664  12.020 -0.2538  1.2110  0.9466
 9507SOL    HW240155   1.402   1.736  12.094  0.3903 -0.1443 -0.5614
 9508SOL     OW40156   3.590   4.063   3.695 -0.0166 -0.3971 -0.6279
 9508SOL    HW140157   3.605   4.039   3.786  1.8676  1.2145 -0.5374
 9508SOL    HW240158   3.525   3.994   3.679  0.2498 -0.1279 -2.8642
 9509SOL     OW40159   3.238   1.303   9.590  0.4243 -0.2769 -0.0493
 9509SOL    HW140160   3.186   1.367   9.543 -1.3897 -2.8399 -1.5388
 9509SOL    HW240161   3.300   1.364   9.630  0.4539 -0.9631  0.9598
 9510SOL     OW40162   1.071   1.844   3.015 -0.2548  0.3263  0.1446
 9510SOL    HW140163   1.058   1.762   2.967  0.6224  1.0525 -1.3288
 9510SOL    HW240164   1.018   1.818   3.090  1.4645  0.8115  1.5154
 9511SOL     OW40165   2.126   2.798   3.269 -0.1100 -0.2186 -0.5656
 9511SOL    HW140166   2.047   2.816   3.220  1.7221  0.7720 -3.1592
 9511SOL    HW240167   2.170   2.882   3.264  1.4325 -0.8576  2.1121
 9512SOL     OW40168   1.636   3.869   2.986 -0.0562  0.1209 -0.6481
 9512SOL    HW140169   1.721   3.913   2.980 -0.0082 -0.0606 -1.3226
 9512SOL    HW240170   1.589   3.932   3.039 -0.3876 -2.6812  2.4020
 9513SOL     OW40171   1.235   0.775   4.186 -0.1611  0.4256  0.4345
 9513SOL    HW140172   1.159   0.824   4.154 -0.0106  0.6685  0.4467
 9513SOL    HW240173   1.305   0.802   4.126  0.0197  1.2421  1.0011
 9514SOL     OW40174   4.654   3.367  16.505 -0.2377  0.1145  0.1495
 9514SOL    HW140175   4.595   3.303  16.543  2.9215 -0.7203  3.6420
 9514SOL    HW240176   4.644   3.420  16.584 -2.2633  1.5336 -1.0812
 9515SOL     OW40177   0.870   1.094   7.097 -0.3141 -0.0499 -0.0215
 9515SOL    HW140178   0.946   1.150   7.114  0.2974 -0.5802 -0.9869
 9515SOL    HW240179   0.817   1.158   7.049 -1.2711 -0.7614  0.0861
 9516SOL     OW40180   0.554   2.274   6.317  0.2583 -0.3057  0.7085
 9516SOL    HW140181   0.517   2.359   6.338 -0.9260 -0.4135 -0.9489
 9516SOL    HW240182   0.482   2.221   6.352 -0.9099  0.3588 -0.7247
 9517SOL     OW40183   2.027   4.592   7.360  0.1443 -0.3948  0.6993
 9517SOL    HW140184   2.078   4.604   7.280 -1.2146  0.9938  0.0139
 9517SOL    HW240185   2.089   4.608   7.431  0.1039  0.9715  0.4240
 9518SOL     OW40186   0.825   0.132   3.256 -0.2535 -0.0373 -0.1743
 9518SOL    HW140187   0.820   0.036   3.251 -0.7060 -0.0961  1.3915
 9518SOL    HW240188   0.858   0.152   3.168  0.0436  0.0876 -0.0333
 9519SOL     OW40189   0.377   2.058  12.983  0.2045  0.2429 -0.1305
 9519SOL    HW140190   0.392   2.007  13.063 -2.3179  1.5544  1.1644
 9519SOL    HW240191   0.293   2.098  13.003 -0.4575 -1.2234  0.0638
 9520SOL     OW40192   1.457   3.429   8.263 -0.2061 -0.1178 -0.2707
 9520SOL    HW140193   1.536   3.382   8.237 -0.9367 -2.4313  1.6760
 9520SOL    HW240194   1.499   3.514   8.253  0.2204 -0.2562  0.3206
 9521SOL     OW40195   4.527   0.287   6.233  0.2293 -0.3515  0.2379
 9521SOL    HW140196   4.505   0.247   6.318 -0.0140  2.1074  1.3341
 9521SOL    HW240197   4.583   0.219   6.196 -1.0124 -0.9106 -0.6541
 9522SOL     OW40198   3.770   3.280   8.194 -0.1022 -0.7539  0.1349
 9522SOL    HW140199   3.823   3.269   8.272  0.4504  2.0442  0.1549
 9522SOL    HW240200   3.708   3.211   8.219 -0.3038 -0.7250 -0.2806
 9523SOL     OW40201   3.917   0.225  17.473 -0.1078 -0.5135  0.3747
 9523SOL    HW140202   3.850   0.166  17.438 -0.8882  1.3646 -1.3059
 9523SOL    HW240203   3.987   0.164  17.496  1.2389  1.0004  0.2592
 9524SOL     OW40204   0.005   0.493   5.372 -0.4278  0.0014 -0.2746
 9524SOL    HW140205   4.715   0.585   5.371  2.4029  0.8618  0.7277
 9524SOL    HW240206   0.097   0.516   5.369 -0.4491  0.1711  0.3844
 9525SOL     OW40207   4.578   4.147   6.828 -0.1938 -0.5317  0.4134
 9525SOL    HW140208   4.656   4.167   6.879  1.1059 -2.3675 -0.8308
 9525SOL    HW240209   4.559   4.230   6.784 -1.3630  0.2758  2.4286
 9526SOL     OW40210   0.111   1.294   8.384  0.1122 -0.2796  0.3424
 9526SOL    HW140211   0.192   1.307   8.434  0.0508  1.9251 -0.0997
 9526SOL    HW240212   0.149   1.311   8.297 -1.2642  0.0484 -0.1909
 9527SOL     OW40213   0.741   1.299  17.113  0.9711  0.0059 -0.0858
 9527SOL    HW140214   0.770   1.291  17.022  0.8692  0.4801 -0.1600
 9527SOL    HW240215   0.713   1.389  17.126 -0.7855 -0.1683 -2.5722
 9528SOL     OW40216   3.297   2.939   1.946 -0.0333  0.9276 -0.0262
 9528SOL    HW140217   3.325   2.908   1.861 -1.8326  2.8172 -1.3241
 9528SOL    HW240218   3.375   2.947   2.000 -0.9583  0.6248  1.3634
 9529SOL     OW40219   2.829   2.294  16.635 -0.3013 -0.0510 -0.0600
 9529SOL    HW140220   2.887   2.288  16.712 -0.4322  1.5320  0.1521
 9529SOL    HW240221   2.897   2.343  16.589  2.1326 -1.4517  2.0247
 9530SOL     OW40222   2.158   2.406   6.022 -0.1894 -0.3131  0.3875
 9530SOL    HW140223   2.223   2.352   6.067  0.5033  0.1369 -0.0551
 9530SOL    HW240224   2.210   2.483   5.997 -0.2099  0.4075  2.6384
 9531SOL     OW40225   3.413   4.024  12.052  0.5136 -0.3243 -0.3036
 9531SOL    HW140226   3.402   3.954  12.117  0.9206  1.1289  1.3177
 9531SOL    HW240227   3.445   4.090  12.113  1.0447 -0.2271 -0.6906
 9532SOL     OW40228   0.518   2.406  10.064  0.1297  0.3361 -0.3011
 9532SOL    HW140229   0.609   2.393  10.036 -0.0059 -0.3097 -0.4306
 9532SOL    HW240230   0.506   2.323  10.109 -1.2664 -0.1133 -1.5176
 9533SOL     OW40231   3.222   0.558   5.442 -0.0831 -0.1782 -0.4764
 9533SOL    HW140232   3.139   0.604   5.452  0.3802  0.7120 -0.6280
 9533SOL    HW240233   3.285   0.629   5.460 -1.0432  0.8632 -1.2549
 9534SOL     OW40234   4.364   1.477   3.733  0.2865 -0.3694  0.9482
 9534SOL    HW140235   4.424   1.534   3.780  0.4110  1.0502 -0.9371
 9534SOL    HW240236   4.411   1.471   3.650 -3.7574  0.9833 -1.4580
 9535SOL     OW40237   4.134   2.289   8.046 -0.0037  0.3373 -0.1309
 9535SOL    HW140238   4.226   2.265   8.044  0.8293  3.6570 -1.2709
 9535SOL    HW240239   4.137   2.373   8.091  1.2732  0.9155 -1.3245
 9536SOL     OW40240   0.809   4.721   7.817  0.2910 -0.3647 -0.1421
 9536SOL    HW140241   0.803   0.065   7.868 -1.9393 -0.6776  0.0658
 9536SOL    HW240242   0.802   0.010   7.726 -0.2988  1.6605  0.4835
 9537SOL     OW40243   0.322   2.510   2.064  0.7842  0.1209 -0.1432
 9537SOL    HW140244   0.346   2.417   2.072  1.4729  0.4749  2.0179
 9537SOL    HW240245   0.325   2.528   2.158 -0.2101 -1.5532  0.2296
 9538SOL     OW40246   3.452   1.207   9.230 -0.2954 -0.0178 -0.2117
 9538SOL    HW140247   3.462   1.162   9.146  2.5391  1.1339 -0.4816
 9538SOL    HW240248   3.377   1.160   9.265  0.7162 -0.9262  0.6925
 9539SOL     OW40249   0.413   2.174  14.947 -0.2248 -0.4233 -0.0285
 9539SOL    HW140250   0.325   2.137  14.951 -0.0297 -0.9477 -0.4785
 9539SOL    HW240251   0.428   2.199  14.856 -1.2378  2.6877  0.6758
 9540SOL     OW40252   2.182   3.317   1.143 -0.7256 -1.2440 -0.1963
 9540SOL    HW140253   2.139   3.401   1.130  0.9032 -0.3354  0.2973
 9540SOL    HW240254   2.199   3.338   1.235 -1.4334 -2.5272  0.2336
 9541SOL     OW40255   3.470   3.407   0.090 -0.1664  0.3591  0.4103
 9541SOL    HW140256   3.456   3.495   0.125  1.4277  1.7128 -2.4172
 9541SOL    HW240257   3.566   3.409   0.086 -0.0564 -2.2304  1.4130
 9542SOL     OW40258   3.421   2.766  14.566  0.3536  0.3167  0.2486
 9542SOL    HW140259   3.359   2.778  14.638  1.4737  1.4885  1.0160
 9542SOL    HW240260   3.370   2.802  14.494  0.8721 -0.2116 -0.3876
 9543SOL     OW40261   0.107   3.610   3.845  0.1259 -0.5133  0.0343
 9543SOL    HW140262   0.028   3.650   3.882  2.6875  3.1319  1.5544
 9543SOL    HW240263   0.140   3.562   3.920  0.2786 -1.2899 -0.5296
 9544SOL     OW40264   2.022   1.882   6.805  0.3697 -0.2936  0.1838
 9544SOL    HW140265   2.107   1.864   6.845  0.4732 -0.0258  0.0898
 9544SOL    HW240266   1.960   1.846   6.868 -0.0344 -0.3313 -0.2335
 9545SOL     OW40267   2.492   4.376  14.810  0.1584  0.1994  0.1201
 9545SOL    HW140268   2.502   4.437  14.883  0.4680  0.2068  0.0746
 9545SOL    HW240269   2.458   4.302  14.860 -0.5781 -0.6066 -1.5759
 9546SOL     OW40270   2.434   2.253   2.956  0.5625 -0.5517  0.0340
 9546SOL    HW140271   2.468   2.247   3.045  0.1634  0.2634  0.2418
 9546SOL    HW240272   2.339   2.246   2.972  1.2034 -1.2577  3.6288
 9547SOL     OW40273   3.676   3.142   3.813 -0.7132  0.1184  0.0101
 9547SOL    HW140274   3.614   3.188   3.756 -0.7234  1.2719  0.9251
 9547SOL    HW240275   3.724   3.221   3.838  0.1417 -0.1266 -0.9011
 9548SOL     OW40276   0.170   1.359   6.373  0.1631  0.0481  0.1449
 9548SOL    HW140277   0.211   1.441   6.402 -0.2719  0.5172 -0.5804
 9548SOL    HW240278   0.228   1.296   6.417  0.9277  3.1557  3.5961
 9549SOL     OW40279   0.346   1.231   6.826 -0.9001  0.5677 -0.6360
 9549SOL    HW140280   0.421   1.268   6.779  0.0489  1.8804  1.9352
 9549SOL    HW240281   0.276   1.223   6.761 -1.9680  0.7333  0.4994
 9550SOL     OW40282   3.402   3.658  14.620  0.1160  0.4784  0.0717
 9550SOL    HW140283   3.405   3.723  14.690 -2.0633 -0.9266  1.4762
 9550SOL    HW240284   3.310   3.666  14.593 -0.0728 -1.2479  0.1834
 9551SOL     OW40285   0.691   4.218   5.217 -0.2760 -0.1326  0.5430
 9551SOL    HW140286   0.705   4.233   5.124  0.4259 -1.4483  0.4349
 9551SOL    HW240287   0.649   4.133   5.201  0.7433 -0.6714  0.7427
 9552SOL     OW40288   2.361   2.298   5.721 -0.4998  0.6049  0.1570
 9552SOL    HW140289   2.285   2.346   5.689  0.3205  1.2579 -0.8137
 9552SOL    HW240290   2.432   2.353   5.689 -1.0252  1.8202  1.0738
 9553SOL     OW40291   4.134   0.845   6.145 -0.0246 -0.2474  0.4978
 9553SOL    HW140292   4.052   0.895   6.144 -0.6952 -1.3176  1.2952
 9553SOL    HW240293   4.198   0.912   6.123  2.7702 -2.6863  1.2141
 9554SOL     OW40294   0.455   2.576   1.851  0.2054  0.3598 -0.0564
 9554SOL    HW140295   0.402   2.627   1.789 -0.4054  1.6849  1.5754
 9554SOL    HW240296   0.398   2.570   1.927  0.0730  0.5440 -0.1409
 9555SOL     OW40297   1.353   1.469   3.495  0.4972  0.1684  0.2354
 9555SOL    HW140298   1.260   1.464   3.475  1.2083  1.3343 -3.1948
 9555SOL    HW240299   1.351   1.525   3.573 -1.4161  0.6966 -0.1985
 9556SOL     OW40300   0.645   2.886   3.523  0.0072 -0.1709 -0.6638
 9556SOL    HW140301   0.698   2.943   3.579  0.9787  0.2975 -2.0737
 9556SOL    HW240302   0.706   2.834   3.470  0.5804  1.0363 -1.1717
 9557SOL     OW40303   4.042   3.880   8.576  0.0461  0.1430  0.4833
 9557SOL    HW140304   4.071   3.790   8.588  1.7042  0.3238 -2.2536
 9557SOL    HW240305   4.059   3.894   8.483 -0.1006  2.8279  0.8645
 9558SOL     OW40306   2.502   0.680   7.291 -0.4533 -0.4128  0.3979
 9558SOL    HW140307   2.572   0.655   7.230 -1.0539 -1.0049 -0.0431
 9558SOL    HW240308   2.457   0.597   7.307  1.5109 -1.4996  0.3129
 9559SOL     OW40309   4.673   3.418   9.011 -0.0644 -0.2518  0.2669
 9559SOL    HW140310   4.701   3.503   8.977  1.1694 -1.3913 -1.5698
 9559SOL    HW240311   4.579   3.430   8.993 -0.2431 -0.2538  1.2276
 9560SOL     OW40312   1.836   2.694   0.931 -0.0352  0.3514 -0.5659
 9560SOL    HW140313   1.881   2.725   0.852  1.3107 -0.2390 -0.0296
 9560SOL    HW240314   1.914   2.689   0.987  1.1052  1.5070 -2.0436
 9561SOL     OW40315   1.940   4.535   5.396  0.3680  0.0081  0.2499
 9561SOL    HW140316   1.907   4.551   5.308  1.0498 -1.9501 -0.3616
 9561SOL    HW240317   1.947   4.440   5.400  0.6746  0.0616  0.9861
 9562SOL     OW40318   2.671   1.581  10.715  1.0204  0.2701 -0.0587
 9562SOL    HW140319   2.651   1.608  10.625 -0.4894 -0.1680  0.1480
 9562SOL    HW240320   2.672   1.487  10.699 -0.8525  0.6094 -2.2430
 9563SOL     OW40321   1.733   2.062   2.101  0.2193  0.0020 -0.4964
 9563SOL    HW140322   1.746   2.056   2.006  2.7354  2.3533 -0.2928
 9563SOL    HW240323   1.820   2.063   2.141 -0.4782 -0.5343  1.0199
 9564SOL     OW40324   4.314   2.712   6.571  0.2765  0.6240  0.2812
 9564SOL    HW140325   4.384   2.692   6.633 -2.8324 -0.7242  3.3306
 9564SOL    HW240326   4.336   2.805   6.558 -2.5059  0.9833 -1.7839
 9565SOL     OW40327   4.479   0.519   5.589  0.0586  0.2972 -0.1148
 9565SOL    HW140328   4.554   0.578   5.582  1.9529 -2.1235 -0.3096
 9565SOL    HW240329   4.445   0.532   5.677 -2.9343 -0.6647 -1.1197
 9566SOL     OW40330   2.579   1.967   5.278  0.6072  0.1201 -0.8048
 9566SOL    HW140331   2.556   1.874   5.279 -1.9562  0.7833  0.1827
 9566SOL    HW240332   2.492   1.996   5.252  1.5465  2.5600 -1.2379
 9567SOL     OW40333   4.254   4.476   0.394  0.0378  0.1499 -0.0160
 9567SOL    HW140334   4.294   4.551   0.438 -0.7376  1.0318 -0.8234
 9567SOL    HW240335   4.275   4.493   0.302 -2.4103  0.0009 -0.5933
 9568SOL     OW40336   2.828   1.220   7.420 -0.3390 -0.2886 -0.4263
 9568SOL    HW140337   2.895   1.286   7.399  0.0209 -0.4920  0.0870
 9568SOL    HW240338   2.873   1.156   7.475  0.6209  0.5433 -0.2482
 9569SOL     OW40339   1.923   3.232   7.266 -0.0613 -0.2076  0.4906
 9569SOL    HW140340   1.878   3.148   7.256 -0.7149  0.5891 -3.3728
 9569SOL    HW240341   1.880   3.266   7.344 -0.4314 -2.4592  1.2835
 9570SOL     OW40342   1.245   1.695   6.903  0.4761 -0.6017  0.0311
 9570SOL    HW140343   1.281   1.607   6.896 -0.1434 -0.7489 -1.2522
 9570SOL    HW240344   1.289   1.746   6.971  0.8627 -0.4158 -0.3592
 9571SOL     OW40345   3.815   2.875   8.657 -0.6012 -0.6456 -0.6425
 9571SOL    HW140346   3.761   2.931   8.602  2.0140  1.8759 -0.6589
 9571SOL    HW240347   3.795   2.905   8.746  0.7419 -1.6433  0.0116
   4.73744   4.73744  17.74803
